Generated by trjconv : CNT in water t= 302.00000
33518
    1C        C    1   2.843   2.774   4.746
    1C        C    2   2.899   2.727   4.867
    1C        C    3   2.841   2.777   4.984
    1C        C    4   2.850   2.773   4.260
    1C        C    5   2.900   2.727   4.383
    1C        C    6   2.845   2.774   4.505
    1C        C    7   3.012   2.641   4.624
    1C        C    8   2.897   2.723   4.626
    1C        C    9   3.074   2.605   4.745
    1C        C   10   3.010   2.641   4.866
    1C        C   11   3.180   2.496   4.972
    1C        C   12   3.058   2.566   4.974
    1C        C   13   2.847   2.771   3.772
    1C        C   14   2.902   2.727   3.894
    1C        C   15   2.850   2.774   4.016
    1C        C   16   3.021   2.647   4.140
    1C        C   17   2.906   2.730   4.138
    1C        C   18   3.083   2.614   4.263
    1C        C   19   3.019   2.650   4.383
    1C        C   20   3.206   2.550   4.502
    1C        C   21   3.074   2.602   4.503
    1C        C   22   3.275   2.528   4.623
    1C        C   23   3.206   2.551   4.744
    1C        C   24   3.410   2.480   4.864
    1C        C   25   3.268   2.500   4.860
    1C        C   26   3.487   2.484   4.981
    1C        C   27   2.846   2.766   3.284
    1C        C   28   2.904   2.727   3.406
    1C        C   29   2.853   2.777   3.529
    1C        C   30   3.019   2.644   3.651
    1C        C   31   2.903   2.725   3.650
    1C        C   32   3.078   2.606   3.773
    1C        C   33   3.014   2.641   3.894
    1C        C   34   3.206   2.551   4.015
    1C        C   35   3.075   2.604   4.016
    1C        C   36   3.274   2.531   4.137
    1C        C   37   3.211   2.554   4.262
    1C        C   38   3.417   2.501   4.380
    1C        C   39   3.278   2.528   4.383
    1C        C   40   3.486   2.499   4.504
    1C        C   41   3.414   2.502   4.626
    1C        C   42   3.630   2.482   4.744
    1C        C   43   3.487   2.480   4.744
    1C        C   44   3.704   2.484   4.864
    1C        C   45   3.626   2.481   4.980
    1C        C   46   2.836   2.750   2.793
    1C        C   47   2.894   2.709   2.915
    1C        C   48   2.847   2.762   3.037
    1C        C   49   3.017   2.640   3.161
    1C        C   50   2.901   2.720   3.161
    1C        C   51   3.079   2.609   3.284
    1C        C   52   3.021   2.647   3.407
    1C        C   53   3.208   2.546   3.528
    1C        C   54   3.081   2.609   3.529
    1C        C   55   3.276   2.526   3.651
    1C        C   56   3.209   2.553   3.772
    1C        C   57   3.416   2.508   3.895
    1C        C   58   3.276   2.530   3.895
    1C        C   59   3.488   2.501   4.016
    1C        C   60   3.413   2.506   4.136
    1C        C   61   3.626   2.494   4.259
    1C        C   62   3.485   2.496   4.257
    1C        C   63   3.700   2.502   4.379
    1C        C   64   3.627   2.498   4.500
    1C        C   65   3.834   2.538   4.621
    1C        C   66   3.699   2.495   4.622
    1C        C   67   3.903   2.559   4.742
    1C        C   68   3.839   2.525   4.863
    1C        C   69   4.049   2.580   4.974
    1C        C   70   3.923   2.519   4.975
    1C        C   71   2.825   2.732   2.307
    1C        C   72   2.884   2.691   2.429
    1C        C   73   2.835   2.748   2.549
    1C        C   74   3.006   2.623   2.671
    1C        C   75   2.889   2.702   2.671
    1C        C   76   3.072   2.596   2.793
    1C        C   77   3.013   2.632   2.916
    1C        C   78   3.202   2.539   3.037
    1C        C   79   3.076   2.602   3.038
    1C        C   80   3.272   2.522   3.158
    1C        C   81   3.207   2.549   3.281
    1C        C   82   3.410   2.497   3.402
    1C        C   83   3.272   2.524   3.404
    1C        C   84   3.480   2.489   3.525
    1C        C   85   3.414   2.499   3.650
    1C        C   86   3.626   2.496   3.767
    1C        C   87   3.485   2.496   3.772
    1C        C   88   3.695   2.503   3.890
    1C        C   89   3.629   2.501   4.015
    1C        C   90   3.836   2.543   4.135
    1C        C   91   3.699   2.507   4.138
    1C        C   92   3.904   2.568   4.257
    1C        C   93   3.834   2.544   4.377
    1C        C   94   4.025   2.634   4.499
    1C        C   95   3.902   2.565   4.500
    1C        C   96   4.084   2.677   4.619
    1C        C   97   4.026   2.632   4.740
    1C        C   98   4.184   2.769   4.861
    1C        C   99   4.089   2.662   4.864
    1C        C  100   4.211   2.845   4.975
    1C        C  101   2.828   2.734   2.068
    1C        C  102   2.987   2.585   2.187
    1C        C  103   2.880   2.679   2.187
    1C        C  104   3.059   2.564   2.308
    1C        C  105   2.998   2.609   2.428
    1C        C  106   3.196   2.527   2.549
    1C        C  107   3.068   2.586   2.549
    1C        C  108   3.263   2.505   2.671
    1C        C  109   3.199   2.534   2.793
    1C        C  110   3.407   2.484   2.915
    1C        C  111   3.268   2.513   2.914
    1C        C  112   3.481   2.484   3.035
    1C        C  113   3.412   2.501   3.157
    1C        C  114   3.623   2.499   3.279
    1C        C  115   3.481   2.494   3.280
    1C        C  116   3.691   2.511   3.401
    1C        C  117   3.621   2.499   3.523
    1C        C  118   3.831   2.541   3.646
    1C        C  119   3.694   2.504   3.644
    1C        C  120   3.895   2.571   3.769
    1C        C  121   3.830   2.545   3.892
    1C        C  122   4.023   2.639   4.011
    1C        C  123   3.900   2.569   4.012
    1C        C  124   4.086   2.672   4.133
    1C        C  125   4.027   2.638   4.256
    1C        C  126   4.195   2.765   4.374
    1C        C  127   4.087   2.675   4.378
    1C        C  128   4.243   2.820   4.495
    1C        C  129   4.190   2.770   4.616
    1C        C  130   4.320   2.937   4.739
    1C        C  131   4.231   2.826   4.740
    1C        C  132   4.352   3.007   4.857
    1C        C  133   4.284   2.963   4.972
    1C        C  134   3.172   2.462   2.080
    1C        C  135   3.039   2.507   2.079
    1C        C  136   3.260   2.475   2.189
    1C        C  137   3.192   2.516   2.306
    1C        C  138   3.402   2.478   2.428
    1C        C  139   3.263   2.500   2.427
    1C        C  140   3.473   2.480   2.550
    1C        C  141   3.404   2.490   2.672
    1C        C  142   3.618   2.492   2.792
    1C        C  143   3.477   2.480   2.792
    1C        C  144   3.690   2.505   2.913
    1C        C  145   3.622   2.494   3.036
    1C        C  146   3.831   2.539   3.156
    1C        C  147   3.695   2.503   3.157
    1C        C  148   3.898   2.561   3.278
    1C        C  149   3.829   2.543   3.400
    1C        C  150   4.023   2.625   3.522
    1C        C  151   3.896   2.564   3.523
    1C        C  152   4.083   2.666   3.644
    1C        C  153   4.021   2.635   3.767
    1C        C  154   4.193   2.762   3.888
    1C        C  155   4.080   2.677   3.888
    1C        C  156   4.245   2.812   4.010
    1C        C  157   4.194   2.763   4.132
    1C        C  158   4.335   2.925   4.252
    1C        C  159   4.247   2.815   4.252
    1C        C  160   4.371   2.988   4.373
    1C        C  161   4.325   2.935   4.496
    1C        C  162   4.437   3.116   4.616
    1C        C  163   4.363   2.996   4.618
    1C        C  164   4.466   3.185   4.735
    1C        C  165   4.425   3.127   4.857
    1C        C  166   4.508   3.320   4.971
    1C        C  167   4.471   3.186   4.976
    1C        C  168   3.474   2.435   2.072
    1C        C  169   3.399   2.454   2.189
    1C        C  170   3.618   2.462   2.307
    1C        C  171   3.475   2.459   2.308
    1C        C  172   3.688   2.481   2.428
    1C        C  173   3.615   2.485   2.549
    1C        C  174   3.823   2.536   2.664
    1C        C  175   3.688   2.497   2.669
    1C        C  176   3.889   2.564   2.786
    1C        C  177   3.827   2.540   2.910
    1C        C  178   4.023   2.621   3.032
    1C        C  179   3.894   2.565   3.032
    1C        C  180   4.085   2.658   3.154
    1C        C  181   4.024   2.626   3.277
    1C        C  182   4.191   2.754   3.398
    1C        C  183   4.082   2.664   3.400
    1C        C  184   4.241   2.805   3.520
    1C        C  185   4.191   2.757   3.643
    1C        C  186   4.332   2.918   3.762
    1C        C  187   4.242   2.809   3.764
    1C        C  188   4.375   2.976   3.883
    1C        C  189   4.336   2.920   4.007
    1C        C  190   4.436   3.109   4.125
    1C        C  191   4.374   2.982   4.128
    1C        C  192   4.460   3.174   4.248
    1C        C  193   4.443   3.109   4.373
    1C        C  194   4.513   3.311   4.489
    1C        C  195   4.474   3.176   4.493
    1C        C  196   4.527   3.385   4.609
    1C        C  197   4.513   3.319   4.734
    1C        C  198   4.551   3.536   4.847
    1C        C  199   4.527   3.395   4.854
    1C        C  200   4.584   3.622   4.956
    1C        C  201   3.612   2.410   2.076
    1C        C  202   3.824   2.509   2.181
    1C        C  203   3.691   2.457   2.186
    1C        C  204   3.894   2.540   2.301
    1C        C  205   3.824   2.520   2.422
    1C        C  206   4.018   2.618   2.542
    1C        C  207   3.890   2.559   2.541
    1C        C  208   4.077   2.657   2.664
    1C        C  209   4.017   2.624   2.788
    1C        C  210   4.194   2.743   2.907
    1C        C  211   4.083   2.654   2.909
    1C        C  212   4.241   2.796   3.029
    1C        C  213   4.194   2.749   3.153
    1C        C  214   4.329   2.913   3.271
    1C        C  215   4.242   2.802   3.275
    1C        C  216   4.366   2.974   3.393
    1C        C  217   4.330   2.914   3.515
    1C        C  218   4.433   3.100   3.639
    1C        C  219   4.367   2.975   3.637
    1C        C  220   4.466   3.168   3.758
    1C        C  221   4.438   3.102   3.880
    1C        C  222   4.503   3.306   4.003
    1C        C  223   4.465   3.170   4.001
    1C        C  224   4.514   3.379   4.123
    1C        C  225   4.499   3.310   4.245
    1C        C  226   4.521   3.521   4.366
    1C        C  227   4.521   3.380   4.366
    1C        C  228   4.517   3.597   4.485
    1C        C  229   4.530   3.526   4.607
    1C        C  230   4.507   3.744   4.723
    1C        C  231   4.536   3.605   4.724
    1C        C  232   4.504   3.823   4.840
    1C        C  233   4.549   3.758   4.956
    1C        C  234   4.016   2.605   2.061
    1C        C  235   3.890   2.546   2.063
    1C        C  236   4.078   2.649   2.178
    1C        C  237   4.020   2.606   2.300
    1C        C  238   4.194   2.735   2.421
    1C        C  239   4.081   2.649   2.420
    1C        C  240   4.252   2.779   2.542
    1C        C  241   4.193   2.738   2.664
    1C        C  242   4.331   2.903   2.785
    1C        C  243   4.243   2.793   2.784
    1C        C  244   4.374   2.964   2.905
    1C        C  245   4.329   2.906   3.026
    1C        C  246   4.437   3.091   3.148
    1C        C  247   4.369   2.967   3.147
    1C        C  248   4.457   3.160   3.269
    1C        C  249   4.431   3.100   3.395
    1C        C  250   4.492   3.304   3.514
    1C        C  251   4.458   3.166   3.516
    1C        C  252   4.509   3.374   3.635
    1C        C  253   4.501   3.305   3.758
    1C        C  254   4.528   3.515   3.877
    1C        C  255   4.515   3.375   3.881
    1C        C  256   4.521   3.589   3.998
    1C        C  257   4.524   3.520   4.121
    1C        C  258   4.492   3.731   4.240
    1C        C  259   4.517   3.592   4.243
    1C        C  260   4.474   3.804   4.359
    1C        C  261   4.490   3.735   4.482
    1C        C  262   4.428   3.941   4.603
    1C        C  263   4.479   3.810   4.601
    1C        C  264   4.404   4.011   4.723
    1C        C  265   4.440   3.948   4.844
    1C        C  266   4.317   4.132   4.960
    1C        C  267   4.401   4.021   4.958
    1C        C  268   4.261   2.773   2.061
    1C        C  269   4.192   2.732   2.176
    1C        C  270   4.336   2.891   2.299
    1C        C  271   4.245   2.782   2.297
    1C        C  272   4.377   2.953   2.419
    1C        C  273   4.340   2.889   2.540
    1C        C  274   4.440   3.080   2.657
    1C        C  275   4.372   2.956   2.660
    1C        C  276   4.464   3.150   2.777
    1C        C  277   4.442   3.088   2.902
    1C        C  278   4.497   3.292   3.024
    1C        C  279   4.467   3.154   3.024
    1C        C  280   4.514   3.361   3.146
    1C        C  281   4.495   3.296   3.270
    1C        C  282   4.515   3.510   3.389
    1C        C  283   4.507   3.369   3.390
    1C        C  284   4.515   3.583   3.510
    1C        C  285   4.520   3.515   3.634
    1C        C  286   4.489   3.724   3.752
    1C        C  287   4.520   3.587   3.756
    1C        C  288   4.473   3.795   3.873
    1C        C  289   4.492   3.727   3.996
    1C        C  290   4.424   3.930   4.116
    1C        C  291   4.471   3.797   4.117
    1C        C  292   4.393   3.999   4.236
    1C        C  293   4.426   3.936   4.358
    1C        C  294   4.330   4.127   4.478
    1C        C  295   4.400   4.004   4.479
    1C        C  296   4.288   4.189   4.598
    1C        C  297   4.332   4.134   4.720
    1C        C  298   4.201   4.312   4.837
    1C        C  299   4.284   4.195   4.839
    1C        C  300   4.168   4.399   4.946
    1C        C  301   4.344   2.885   2.062
    1C        C  302   4.461   3.071   2.173
    1C        C  303   4.386   2.949   2.180
    1C        C  304   4.478   3.142   2.295
    1C        C  305   4.442   3.079   2.416
    1C        C  306   4.503   3.284   2.537
    1C        C  307   4.471   3.146   2.537
    1C        C  308   4.516   3.356   2.658
    1C        C  309   4.504   3.286   2.780
    1C        C  310   4.522   3.500   2.901
    1C        C  311   4.513   3.359   2.901
    1C        C  312   4.519   3.572   3.022
    1C        C  313   4.523   3.502   3.145
    1C        C  314   4.489   3.717   3.264
    1C        C  315   4.512   3.577   3.264
    1C        C  316   4.472   3.786   3.386
    1C        C  317   4.486   3.721   3.511
    1C        C  318   4.430   3.929   3.627
    1C        C  319   4.473   3.795   3.630
    1C        C  320   4.388   3.988   3.748
    1C        C  321   4.420   3.926   3.871
    1C        C  322   4.314   4.109   3.989
    1C        C  323   4.394   3.993   3.993
    1C        C  324   4.274   4.170   4.110
    1C        C  325   4.321   4.120   4.233
    1C        C  326   4.190   4.286   4.351
    1C        C  327   4.285   4.182   4.355
    1C        C  328   4.135   4.335   4.471
    1C        C  329   4.188   4.289   4.593
    1C        C  330   4.022   4.426   4.712
    1C        C  331   4.140   4.346   4.713
    1C        C  332   3.966   4.486   4.827
    1C        C  333   4.049   4.473   4.939
    1C        C  334   4.556   3.266   2.061
    1C        C  335   4.532   3.128   2.063
    1C        C  336   4.533   3.349   2.171
    1C        C  337   4.507   3.282   2.292
    1C        C  338   4.518   3.494   2.411
    1C        C  339   4.511   3.353   2.414
    1C        C  340   4.519   3.566   2.533
    1C        C  341   4.518   3.497   2.656
    1C        C  342   4.490   3.707   2.771
    1C        C  343   4.516   3.569   2.778
    1C        C  344   4.477   3.777   2.894
    1C        C  345   4.494   3.711   3.017
    1C        C  346   4.421   3.911   3.137
    1C        C  347   4.468   3.778   3.139
    1C        C  348   4.391   3.979   3.258
    1C        C  349   4.428   3.920   3.381
    1C        C  350   4.316   4.103   3.501
    1C        C  351   4.396   3.987   3.502
    1C        C  352   4.271   4.163   3.621
    1C        C  353   4.315   4.109   3.744
    1C        C  354   4.176   4.268   3.867
    1C        C  355   4.276   4.168   3.866
    1C        C  356   4.118   4.311   3.988
    1C        C  357   4.174   4.270   4.111
    1C        C  358   4.010   4.405   4.228
    1C        C  359   4.128   4.328   4.231
    1C        C  360   3.946   4.440   4.349
    1C        C  361   4.015   4.410   4.469
    1C        C  362   3.827   4.510   4.592
    1C        C  363   3.956   4.454   4.590
    1C        C  364   3.760   4.549   4.710
    1C        C  365   3.837   4.543   4.828
    1C        C  366   3.625   4.592   4.948
    1C        C  367   3.762   4.568   4.944
    1C        C  368   4.505   3.562   2.050
    1C        C  369   4.524   3.490   2.169
    1C        C  370   4.497   3.705   2.287
    1C        C  371   4.515   3.565   2.289
    1C        C  372   4.483   3.776   2.408
    1C        C  373   4.496   3.706   2.530
    1C        C  374   4.417   3.907   2.649
    1C        C  375   4.469   3.776   2.649
    1C        C  376   4.392   3.973   2.771
    1C        C  377   4.427   3.909   2.892
    1C        C  378   4.314   4.090   3.011
    1C        C  379   4.392   3.972   3.013
    1C        C  380   4.270   4.147   3.132
    1C        C  381   4.314   4.097   3.257
    1C        C  382   4.171   4.255   3.376
    1C        C  383   4.269   4.154   3.378
    1C        C  384   4.118   4.305   3.497
    1C        C  385   4.170   4.261   3.621
    1C        C  386   4.006   4.390   3.742
    1C        C  387   4.124   4.313   3.744
    1C        C  388   3.940   4.426   3.862
    1C        C  389   4.003   4.394   3.984
    1C        C  390   3.817   4.493   4.108
    1C        C  391   3.946   4.437   4.106
    1C        C  392   3.748   4.516   4.229
    1C        C  393   3.816   4.495   4.351
    1C        C  394   3.613   4.548   4.475
    1C        C  395   3.753   4.530   4.473
    1C        C  396   3.540   4.564   4.595
    1C        C  397   3.620   4.564   4.712
    1C        C  398   3.409   4.550   4.837
    1C        C  399   3.548   4.574   4.833
    1C        C  400   3.338   4.520   4.955
    1C        C  401   4.491   3.700   2.051
    1C        C  402   4.444   3.914   2.166
    1C        C  403   4.484   3.778   2.167
    1C        C  404   4.409   3.977   2.287
    1C        C  405   4.431   3.907   2.408
    1C        C  406   4.326   4.097   2.524
    1C        C  407   4.397   3.975   2.527
    1C        C  408   4.278   4.149   2.646
    1C        C  409   4.314   4.091   2.770
    1C        C  410   4.172   4.251   2.887
    1C        C  411   4.271   4.150   2.890
    1C        C  412   4.120   4.297   3.009
    1C        C  413   4.172   4.249   3.131
    1C        C  414   4.000   4.377   3.253
    1C        C  415   4.114   4.294   3.252
    1C        C  416   3.940   4.415   3.375
    1C        C  417   4.003   4.387   3.498
    1C        C  418   3.811   4.477   3.617
    1C        C  419   3.943   4.425   3.620
    1C        C  420   3.746   4.502   3.740
    1C        C  421   3.809   4.478   3.864
    1C        C  422   3.607   4.536   3.986
    1C        C  423   3.745   4.508   3.987
    1C        C  424   3.538   4.541   4.110
    1C        C  425   3.609   4.538   4.232
    1C        C  426   3.399   4.555   4.355
    1C        C  427   3.540   4.551   4.354
    1C        C  428   3.326   4.554   4.476
    1C        C  429   3.399   4.557   4.596
    1C        C  430   3.191   4.521   4.724
    1C        C  431   3.331   4.546   4.719
    1C        C  432   3.122   4.499   4.847
    1C        C  433   3.201   4.499   4.962
    1C        C  434   4.386   4.125   2.053
    1C        C  435   4.443   3.997   2.053
    1C        C  436   4.301   4.164   2.161
    1C        C  437   4.333   4.098   2.283
    1C        C  438   4.180   4.251   2.401
    1C        C  439   4.281   4.152   2.402
    1C        C  440   4.125   4.298   2.522
    1C        C  441   4.177   4.248   2.643
    1C        C  442   4.001   4.372   2.761
    1C        C  443   4.119   4.295   2.763
    1C        C  444   3.944   4.411   2.884
    1C        C  445   4.005   4.380   3.008
    1C        C  446   3.812   4.471   3.127
    1C        C  447   3.940   4.412   3.129
    1C        C  448   3.748   4.495   3.251
    1C        C  449   3.812   4.474   3.375
    1C        C  450   3.605   4.528   3.497
    1C        C  451   3.744   4.503   3.496
    1C        C  452   3.539   4.543   3.621
    1C        C  453   3.609   4.537   3.743
    1C        C  454   3.395   4.546   3.862
    1C        C  455   3.536   4.542   3.864
    1C        C  456   3.330   4.535   3.987
    1C        C  457   3.397   4.545   4.110
    1C        C  458   3.191   4.506   4.235
    1C        C  459   3.328   4.539   4.233
    1C        C  460   3.123   4.490   4.358
    1C        C  461   3.190   4.517   4.479
    1C        C  462   2.998   4.432   4.601
    1C        C  463   3.124   4.495   4.602
    1C        C  464   2.935   4.397   4.723
    1C        C  465   2.988   4.449   4.845
    1C        C  466   2.799   4.335   4.957
    1C        C  467   2.906   4.426   4.960
    1C        C  468   4.123   4.284   2.039
    1C        C  469   4.190   4.254   2.158
    1C        C  470   4.009   4.375   2.276
    1C        C  471   4.128   4.298   2.278
    1C        C  472   3.942   4.405   2.397
    1C        C  473   4.005   4.372   2.519
    1C        C  474   3.809   4.464   2.642
    1C        C  475   3.937   4.405   2.639
    1C        C  476   3.744   4.490   2.764
    1C        C  477   3.814   4.466   2.885
    1C        C  478   3.605   4.519   3.008
    1C        C  479   3.743   4.489   3.005
    1C        C  480   3.536   4.525   3.131
    1C        C  481   3.609   4.519   3.252
    1C        C  482   3.396   4.531   3.375
    1C        C  483   3.537   4.532   3.373
    1C        C  484   3.325   4.532   3.497
    1C        C  485   3.397   4.542   3.618
    1C        C  486   3.188   4.502   3.743
    1C        C  487   3.325   4.536   3.740
    1C        C  488   3.125   4.479   3.867
    1C        C  489   3.193   4.500   3.989
    1C        C  490   3.004   4.408   4.115
    1C        C  491   3.127   4.478   4.112
    1C        C  492   2.944   4.376   4.239
    1C        C  493   2.996   4.426   4.360
    1C        C  494   2.829   4.297   4.481
    1C        C  495   2.934   4.391   4.482
    1C        C  496   2.774   4.255   4.605
    1C        C  497   2.823   4.310   4.725
    1C        C  498   2.662   4.164   4.844
    1C        C  499   2.752   4.273   4.841
    1C        C  500   2.596   4.110   4.955
    1C        C  501   4.004   4.358   2.039
    1C        C  502   3.814   4.463   2.153
    1C        C  503   3.940   4.401   2.155
    1C        C  504   3.744   4.477   2.275
    1C        C  505   3.810   4.454   2.398
    1C        C  506   3.603   4.507   2.520
    1C        C  507   3.743   4.483   2.519
    1C        C  508   3.533   4.511   2.642
    1C        C  509   3.604   4.511   2.764
    1C        C  510   3.394   4.523   2.884
    1C        C  511   3.535   4.531   2.886
    1C        C  512   3.323   4.518   3.007
    1C        C  513   3.395   4.528   3.128
    1C        C  514   3.189   4.491   3.255
    1C        C  515   3.327   4.520   3.252
    1C        C  516   3.122   4.468   3.377
    1C        C  517   3.189   4.494   3.498
    1C        C  518   2.996   4.411   3.622
    1C        C  519   3.123   4.474   3.621
    1C        C  520   2.939   4.374   3.746
    1C        C  521   3.000   4.412   3.867
    1C        C  522   2.839   4.279   3.994
    1C        C  523   2.951   4.366   3.991
    1C        C  524   2.793   4.229   4.118
    1C        C  525   2.837   4.284   4.240
    1C        C  526   2.691   4.130   4.362
    1C        C  527   2.781   4.239   4.362
    1C        C  528   2.655   4.075   4.487
    1C        C  529   2.694   4.138   4.608
    1C        C  530   2.585   3.956   4.730
    1C        C  531   2.639   4.088   4.727
    1C        C  532   2.545   3.895   4.852
    1C        C  533   2.530   3.987   4.961
    1C        C  534   3.619   4.555   2.042
    1C        C  535   3.753   4.512   2.037
    1C        C  536   3.535   4.527   2.154
    1C        C  537   3.604   4.502   2.276
    1C        C  538   3.392   4.512   2.399
    1C        C  539   3.533   4.511   2.398
    1C        C  540   3.320   4.508   2.521
    1C        C  541   3.392   4.511   2.643
    1C        C  542   3.182   4.482   2.763
    1C        C  543   3.321   4.508   2.765
    1C        C  544   3.122   4.461   2.889
    1C        C  545   3.186   4.486   3.012
    1C        C  546   2.994   4.400   3.132
    1C        C  547   3.118   4.467   3.135
    1C        C  548   2.937   4.363   3.256
    1C        C  549   2.995   4.405   3.377
    1C        C  550   2.831   4.275   3.503
    1C        C  551   2.936   4.369   3.501
    1C        C  552   2.783   4.227   3.627
    1C        C  553   2.835   4.279   3.747
    1C        C  554   2.700   4.120   3.876
    1C        C  555   2.790   4.229   3.872
    1C        C  556   2.661   4.059   3.997
    1C        C  557   2.704   4.119   4.117
    1C        C  558   2.599   3.939   4.244
    1C        C  559   2.659   4.067   4.240
    1C        C  560   2.573   3.876   4.368
    1C        C  561   2.595   3.948   4.487
    1C        C  562   2.522   3.750   4.612
    1C        C  563   2.563   3.886   4.610
    1C        C  564   2.515   3.680   4.735
    1C        C  565   2.515   3.755   4.856
    1C        C  566   2.521   3.542   4.973
    1C        C  567   2.517   3.681   4.975
    1C        C  568   3.327   4.475   2.037
    1C        C  569   3.394   4.507   2.156
    1C        C  570   3.183   4.469   2.278
    1C        C  571   3.320   4.505   2.278
    1C        C  572   3.114   4.454   2.400
    1C        C  573   3.181   4.482   2.521
    1C        C  574   2.984   4.400   2.648
    1C        C  575   3.111   4.463   2.642
    1C        C  576   2.930   4.360   2.772
    1C        C  577   2.997   4.395   2.891
    1C        C  578   2.825   4.266   3.013
    1C        C  579   2.933   4.358   3.012
    1C        C  580   2.778   4.218   3.137
    1C        C  581   2.833   4.267   3.258
    1C        C  582   2.696   4.109   3.385
    1C        C  583   2.785   4.218   3.382
    1C        C  584   2.662   4.052   3.510
    1C        C  585   2.706   4.108   3.632
    1C        C  586   2.600   3.929   3.755
    1C        C  587   2.661   4.057   3.755
    1C        C  588   2.573   3.865   3.877
    1C        C  589   2.604   3.929   3.999
    1C        C  590   2.539   3.733   4.127
    1C        C  591   2.573   3.870   4.124
    1C        C  592   2.522   3.668   4.251
    1C        C  593   2.532   3.740   4.372
    1C        C  594   2.505   3.532   4.497
    1C        C  595   2.513   3.673   4.495
    1C        C  596   2.511   3.460   4.619
    1C        C  597   2.514   3.538   4.737
    1C        C  598   2.538   3.324   4.861
    1C        C  599   2.525   3.464   4.857
    1C        C  600   2.536   3.243   4.975
    1C        C  601   3.198   4.428   2.045
    1C        C  602   2.979   4.389   2.157
    1C        C  603   3.114   4.438   2.157
    1C        C  604   2.921   4.358   2.283
    1C        C  605   2.986   4.393   2.403
    1C        C  606   2.814   4.272   2.525
    1C        C  607   2.924   4.360   2.526
    1C        C  608   2.766   4.220   2.648
    1C        C  609   2.822   4.268   2.768
    1C        C  610   2.690   4.104   2.894
    1C        C  611   2.775   4.217   2.891
    1C        C  612   2.654   4.048   3.018
    1C        C  613   2.688   4.109   3.141
    1C        C  614   2.585   3.925   3.265
    1C        C  615   2.651   4.050   3.264
    1C        C  616   2.560   3.863   3.389
    1C        C  617   2.594   3.928   3.510
    1C        C  618   2.530   3.729   3.635
    1C        C  619   2.568   3.865   3.633
    1C        C  620   2.513   3.662   3.758
    1C        C  621   2.530   3.730   3.881
    1C        C  622   2.507   3.524   4.007
    1C        C  623   2.518   3.665   4.006
    1C        C  624   2.506   3.455   4.130
    1C        C  625   2.504   3.528   4.251
    1C        C  626   2.533   3.321   4.377
    1C        C  627   2.508   3.460   4.375
    1C        C  628   2.546   3.250   4.498
    1C        C  629   2.532   3.321   4.620
    1C        C  630   2.590   3.114   4.742
    1C        C  631   2.547   3.250   4.741
    1C        C  632   2.604   3.043   4.864
    1C        C  633   2.554   3.104   4.984
    1C        C  634   2.781   4.299   2.050
    1C        C  635   2.887   4.391   2.048
    1C        C  636   2.745   4.228   2.165
    1C        C  637   2.810   4.269   2.284
    1C        C  638   2.677   4.105   2.409
    1C        C  639   2.764   4.216   2.406
    1C        C  640   2.635   4.047   2.532
    1C        C  641   2.679   4.109   2.651
    1C        C  642   2.581   3.920   2.778
    1C        C  643   2.649   4.044   2.773
    1C        C  644   2.556   3.855   2.901
    1C        C  645   2.593   3.920   3.020
    1C        C  646   2.524   3.721   3.146
    1C        C  647   2.566   3.856   3.143
    1C        C  648   2.509   3.654   3.269
    1C        C  649   2.522   3.727   3.389
    1C        C  650   2.514   3.518   3.515
    1C        C  651   2.515   3.660   3.513
    1C        C  652   2.511   3.449   3.638
    1C        C  653   2.511   3.520   3.761
    1C        C  654   2.535   3.313   3.887
    1C        C  655   2.510   3.452   3.885
    1C        C  656   2.549   3.245   4.010
    1C        C  657   2.535   3.317   4.132
    1C        C  658   2.604   3.120   4.257
    1C        C  659   2.554   3.252   4.256
    1C        C  660   2.633   3.054   4.379
    1C        C  661   2.596   3.118   4.499
    1C        C  662   2.705   2.935   4.622
    1C        C  663   2.625   3.051   4.621
    1C        C  664   2.749   2.881   4.745
    1C        C  665   2.690   2.928   4.866
    1C        C  666   2.734   2.866   4.983
    1C        C  667   2.682   4.018   2.057
    1C        C  668   2.683   4.101   2.170
    1C        C  669   2.575   3.914   2.291
    1C        C  670   2.636   4.043   2.289
    1C        C  671   2.549   3.849   2.414
    1C        C  672   2.579   3.918   2.534
    1C        C  673   2.518   3.716   2.656
    1C        C  674   2.555   3.853   2.657
    1C        C  675   2.505   3.646   2.778
    1C        C  676   2.521   3.718   2.899
    1C        C  677   2.501   3.510   3.029
    1C        C  678   2.512   3.651   3.023
    1C        C  679   2.500   3.440   3.152
    1C        C  680   2.497   3.513   3.273
    1C        C  681   2.520   3.303   3.399
    1C        C  682   2.503   3.443   3.396
    1C        C  683   2.536   3.236   3.523
    1C        C  684   2.521   3.308   3.643
    1C        C  685   2.583   3.106   3.770
    1C        C  686   2.543   3.241   3.766
    1C        C  687   2.627   3.048   3.891
    1C        C  688   2.596   3.112   4.014
    1C        C  689   2.710   2.935   4.137
    1C        C  690   2.629   3.050   4.136
    1C        C  691   2.756   2.879   4.258
    1C        C  692   2.709   2.935   4.379
    1C        C  693   2.746   2.875   4.501
    1C        C  694   2.626   3.890   2.058
    1C        C  695   2.520   3.703   2.175
    1C        C  696   2.568   3.836   2.173
    1C        C  697   2.500   3.635   2.298
    1C        C  698   2.517   3.712   2.415
    1C        C  699   2.487   3.502   2.541
    1C        C  700   2.502   3.642   2.537
    1C        C  701   2.499   3.433   2.664
    1C        C  702   2.505   3.505   2.785
    1C        C  703   2.524   3.297   2.911
    1C        C  704   2.502   3.437   2.909
    1C        C  705   2.541   3.231   3.035
    1C        C  706   2.528   3.302   3.156
    1C        C  707   2.599   3.102   3.278
    1C        C  708   2.549   3.235   3.279
    1C        C  709   2.630   3.045   3.403
    1C        C  710   2.591   3.106   3.525
    1C        C  711   2.702   2.930   3.649
    1C        C  712   2.617   3.042   3.649
    1C        C  713   2.754   2.877   3.770
    1C        C  714   2.712   2.935   3.892
    1C        C  715   2.756   2.880   4.015
    1C        C  716   2.444   3.501   2.060
    1C        C  717   2.492   3.633   2.058
    1C        C  718   2.466   3.422   2.177
    1C        C  719   2.479   3.495   2.298
    1C        C  720   2.517   3.289   2.422
    1C        C  721   2.482   3.426   2.422
    1C        C  722   2.535   3.222   2.544
    1C        C  723   2.522   3.294   2.665
    1C        C  724   2.595   3.097   2.789
    1C        C  725   2.545   3.229   2.789
    1C        C  726   2.624   3.034   2.912
    1C        C  727   2.597   3.102   3.033
    1C        C  728   2.709   2.922   3.159
    1C        C  729   2.626   3.037   3.156
    1C        C  730   2.750   2.869   3.283
    1C        C  731   2.702   2.924   3.405
    1C        C  732   2.753   2.876   3.528
    1C        C  733   2.486   3.194   2.070
    1C        C  734   2.486   3.280   2.181
    1C        C  735   2.582   3.085   2.305
    1C        C  736   2.527   3.217   2.301
    1C        C  737   2.613   3.019   2.426
    1C        C  738   2.585   3.090   2.545
    1C        C  739   2.701   2.912   2.669
    1C        C  740   2.625   3.031   2.668
    1C        C  741   2.741   2.855   2.793
    1C        C  742   2.703   2.917   2.914
    1C        C  743   2.750   2.864   3.037
    1C        C  744   2.550   3.070   2.071
    1C        C  745   2.685   2.896   2.185
    1C        C  746   2.608   3.015   2.186
    1C        C  747   2.728   2.835   2.305
    1C        C  748   2.691   2.902   2.424
    1C        C  749   2.741   2.853   2.547
    1C        C  750   2.743   2.843   2.069
    1C        C  751   3.652   2.307   1.978
    1C        O  752   3.639   2.184   2.002
    1C        O  753   3.638   2.328   1.840
    1C        C  754   4.608   3.055   1.960
    1C        O  755   4.574   3.049   1.838
    1C        O  756   4.742   3.016   1.975
    1C        C  757   4.467   4.230   1.985
    1C        O  758   4.460   4.351   2.017
    1C        O  759   4.523   4.203   1.860
    1C        C  760   3.601   4.680   1.965
    1C        O  761   3.592   4.797   2.013
    1C        O  762   3.583   4.688   1.827
    1C        C  763   2.879   4.502   1.951
    1C        O  764   2.897   4.474   1.829
    1C        O  765   2.800   4.615   1.974
    1C        C  766   2.310   3.502   1.996
    1C        O  767   2.306   3.515   1.871
    1C        O  768   2.203   3.563   2.062
    1C        C  769   4.680   3.581   5.061
    1C        O  770   4.648   3.590   5.182
    1C        O  771   4.808   3.637   5.052
    1C        C  772   4.275   4.478   5.010
    1C        O  773   4.322   4.439   5.121
    1C        O  774   4.381   4.540   4.943
    1C        C  775   4.143   2.521   5.072
    1C        O  776   4.236   2.440   5.043
    1C        O  777   4.101   2.489   5.202
    1C        C  778   2.888   4.539   5.053
    1C        O  779   2.798   4.623   5.025
    1C        O  780   2.896   4.504   5.189
    1C        C  781   2.454   3.051   5.079
    1C        O  782   2.339   3.019   5.040
    1C        O  783   2.471   3.033   5.216
    1C        C  784   2.419   3.986   5.059
    1C        O  785   2.309   4.042   5.032
    1C        O  786   2.428   3.945   5.192
    1C        C  787   2.944   2.425   2.000
    1C        O  788   2.924   2.456   1.879
    1C        O  789   2.896   2.297   2.028
    1C        C  790   3.176   2.370   5.050
    1C        O  791   3.116   2.265   5.015
    1C        O  792   3.228   2.371   5.180
    1C        H  793   4.290   3.016   5.065
    1C        H  794   4.176   2.817   5.073
    1C        H  795   4.500   3.130   5.062
    1C        H  796   4.550   3.359   5.061
    1C        H  797   4.571   3.817   5.043
    1C        H  798   4.471   4.018   5.038
    1C        H  799   4.260   4.157   5.047
    1C        H  800   4.015   4.521   5.028
    1C        H  801   3.813   4.548   5.036
    1C        H  802   3.591   4.630   5.042
    1C        H  803   3.389   4.514   5.049
    1C        H  804   3.164   4.467   5.057
    1C        H  805   3.890   2.465   5.061
    1C        H  806   3.668   2.526   5.068
    1C        H  807   2.989   2.551   5.055
    1C        H  808   3.441   2.439   5.067
    1C        H  809   2.916   2.792   5.059
    1C        H  810   2.678   2.881   5.073
    1C        H  811   2.548   3.298   5.066
    1C        H  812   2.584   3.510   5.054
    1C        H  813   2.599   3.714   5.035
    1C        H  814   2.577   4.180   5.034
    1C        H  815   2.735   4.334   5.043
    1C        H  816   2.723   2.885   1.972
    1C        H  817   2.863   2.701   1.972
    1C        H  818   3.213   2.429   1.987
    1C        H  819   3.445   2.516   2.008
    1C        H  820   3.830   2.560   1.975
    1C        H  821   4.076   2.573   1.978
    1C        H  822   4.281   2.699   1.987
    1C        H  823   4.397   2.903   1.971
    1C        H  824   4.625   3.302   1.987
    1C        H  825   4.553   3.523   1.962
    1C        H  826   4.431   3.740   1.972
    1C        H  827   3.815   4.562   1.965
    1C        H  828   3.941   4.344   1.954
    1C        H  829   4.129   4.216   1.957
    1C        H  830   4.484   3.968   1.958
    1C        H  831   2.673   3.826   1.986
    1C        H  832   2.731   4.047   1.966
    1C        H  833   2.699   4.322   1.985
    1C        H  834   3.341   4.544   1.957
    1C        H  835   3.153   4.400   1.952
    1C        H  836   2.511   3.000   2.000
    1C        H  837   2.454   3.229   1.974
    1C        H  838   2.555   3.652   1.973
    2V3OU   H29  839   2.813   3.555   3.216
    2V3OU   C27  840   2.794   3.501   3.312
    2V3OU   H27  841   2.728   3.567   3.374
    2V3OU   H28  842   2.735   3.407   3.296
    2V3OU   O11  843   2.915   3.478   3.384
    2V3OU   C15  844   2.929   3.395   3.494
    2V3OU   C13  845   3.056   3.371   3.551
    2V3OU   C14  846   3.080   3.265   3.639
    2V3OU   C16  847   2.978   3.182   3.684
    2V3OU    H6  848   2.987   3.099   3.756
    2V3OU   C12  849   3.212   3.228   3.694
    2V3OU    O2  850   3.234   3.124   3.760
    2V3OU   C10  851   3.327   3.309   3.652
    2V3OU    C8  852   3.457   3.268   3.680
    2V3OU   O10  853   3.489   3.160   3.757
    2V3OU   H26  854   3.406   3.121   3.787
    2V3OU    C6  855   3.562   3.350   3.629
    2V3OU    C5  856   3.540   3.465   3.555
    2V3OU    C4  857   3.700   3.293   3.632
    2V3OU    H4  858   3.720   3.231   3.725
    2V3OU    H5  859   3.714   3.225   3.543
    2V3OU    C2  860   3.815   3.393   3.635
    2V3OU    O6  861   3.803   3.466   3.757
    2V3OU   H21  862   3.756   3.550   3.743
    2V3OU    C3  863   3.781   3.489   3.521
    2V3OU    H2  864   3.864   3.564   3.519
    2V3OU    H3  865   3.783   3.443   3.419
    2V3OU   C25  866   3.949   3.321   3.617
    2V3OU    O7  867   3.995   3.292   3.507
    2V3OU   C26  868   4.030   3.288   3.741
    2V3OU   H22  869   4.066   3.382   3.791
    2V3OU   H23  870   4.119   3.226   3.712
    2V3OU    O8  871   3.955   3.210   3.831
    2V3OU   H24  872   3.921   3.269   3.900
    2V3OU    C1  873   3.651   3.565   3.538
    2V3OU    H1  874   3.627   3.617   3.441
    2V3OU    O3  875   3.660   3.654   3.650
    2V3OU   C19  876   3.622   3.791   3.635
    2V3OU    H9  877   3.526   3.798   3.575
    2V3OU    O4  878   3.717   3.848   3.549
    2V3OU   C20  879   3.847   3.876   3.602
    2V3OU   H10  880   3.899   3.779   3.625
    2V3OU   C24  881   3.607   3.852   3.775
    2V3OU   H16  882   3.544   3.784   3.838
    2V3OU   H17  883   3.563   3.955   3.767
    2V3OU   C23  884   3.747   3.873   3.834
    2V3OU   H15  885   3.794   3.772   3.859
    2V3OU    N1  886   3.739   3.952   3.955
    2V3OU   H19  887   3.799   3.919   4.028
    2V3OU   H20  888   3.650   3.927   3.992
    2V3OU   C21  889   3.848   3.945   3.739
    2V3OU   H11  890   3.949   3.923   3.784
    2V3OU    O5  891   3.829   4.086   3.747
    2V3OU   H18  892   3.774   4.097   3.827
    2V3OU   C22  893   3.921   3.952   3.493
    2V3OU   H12  894   3.872   4.051   3.475
    2V3OU   H13  895   3.909   3.896   3.397
    2V3OU   H14  896   4.028   3.959   3.525
    2V3OU   C11  897   3.164   3.470   3.541
    2V3OU    O1  898   3.128   3.585   3.510
    2V3OU    C9  899   3.302   3.422   3.569
    2V3OU    C7  900   3.405   3.502   3.522
    2V3OU    O9  901   3.385   3.618   3.451
    2V3OU   H25  902   3.288   3.628   3.457
    2V3OU   C17  903   2.828   3.314   3.548
    2V3OU    H7  904   2.729   3.361   3.549
    2V3OU   C18  905   2.850   3.211   3.638
    2V3OU    H8  906   2.786   3.170   3.718
    3SOL     OW  907   2.919   5.203   6.098
    3SOL    HW1  908   3.008   5.157   6.097
    3SOL    HW2  909   2.931   5.301   6.111
    4SOL     OW  910   6.833   0.174   1.023
    4SOL    HW1  911   6.832   0.272   1.004
    4SOL    HW2  912   6.804   0.159   1.118
    5SOL     OW  913   4.591   2.223   2.096
    5SOL    HW1  914   4.665   2.240   2.161
    5SOL    HW2  915   4.531   2.302   2.092
    6SOL     OW  916   4.250   1.928   2.089
    6SOL    HW1  917   4.189   1.854   2.117
    6SOL    HW2  918   4.197   1.997   2.039
    7SOL     OW  919   0.867   4.217   3.563
    7SOL    HW1  920   0.795   4.148   3.574
    7SOL    HW2  921   0.870   4.276   3.643
    8SOL     OW  922   2.385   2.220   5.342
    8SOL    HW1  923   2.364   2.303   5.393
    8SOL    HW2  924   2.342   2.142   5.386
    9SOL     OW  925   5.736   1.826   5.775
    9SOL    HW1  926   5.671   1.749   5.777
    9SOL    HW2  927   5.689   1.908   5.742
   10SOL     OW  928   3.018   5.146   5.232
   10SOL    HW1  929   2.927   5.108   5.217
   10SOL    HW2  930   3.082   5.073   5.253
   11SOL     OW  931   2.081   1.579   6.157
   11SOL    HW1  932   2.115   1.485   6.157
   11SOL    HW2  933   2.156   1.642   6.177
   12SOL     OW  934   2.958   4.887   3.536
   12SOL    HW1  935   2.907   4.831   3.471
   12SOL    HW2  936   3.008   4.828   3.598
   13SOL     OW  937   3.210   6.610   4.191
   13SOL    HW1  938   3.222   6.597   4.092
   13SOL    HW2  939   3.134   6.673   4.207
   14SOL     OW  940   3.977   5.108   6.054
   14SOL    HW1  941   3.906   5.171   6.088
   14SOL    HW2  942   4.048   5.098   6.124
   15SOL     OW  943   1.004   5.994   0.844
   15SOL    HW1  944   0.983   5.955   0.755
   15SOL    HW2  945   0.919   6.020   0.889
   16SOL     OW  946   5.195   3.120   6.573
   16SOL    HW1  947   5.217   3.113   6.670
   16SOL    HW2  948   5.231   3.041   6.524
   17SOL     OW  949   5.753   6.995   6.820
   17SOL    HW1  950   5.803   6.930   6.762
   17SOL    HW2  951   5.801   7.005   6.908
   18SOL     OW  952   3.379   1.099   5.329
   18SOL    HW1  953   3.297   1.115   5.383
   18SOL    HW2  954   3.382   1.003   5.300
   19SOL     OW  955   6.896   2.148   2.317
   19SOL    HW1  956   6.874   2.109   2.227
   19SOL    HW2  957   6.841   2.102   2.387
   20SOL     OW  958   4.869   1.655   5.636
   20SOL    HW1  959   4.859   1.736   5.579
   20SOL    HW2  960   4.918   1.584   5.585
   21SOL     OW  961   2.755   0.805   2.206
   21SOL    HW1  962   2.727   0.742   2.134
   21SOL    HW2  963   2.737   0.764   2.295
   22SOL     OW  964   0.972   5.911   0.299
   22SOL    HW1  965   0.998   6.004   0.324
   22SOL    HW2  966   0.996   5.894   0.204
   23SOL     OW  967   4.284   5.400   1.829
   23SOL    HW1  968   4.336   5.485   1.819
   23SOL    HW2  969   4.340   5.322   1.801
   24SOL     OW  970   3.308   0.521   2.552
   24SOL    HW1  971   3.304   0.455   2.477
   24SOL    HW2  972   3.350   0.479   2.632
   25SOL     OW  973   2.357   6.843   3.520
   25SOL    HW1  974   2.432   6.902   3.491
   25SOL    HW2  975   2.290   6.897   3.571
   26SOL     OW  976   6.339   2.036   0.304
   26SOL    HW1  977   6.335   1.986   0.390
   26SOL    HW2  978   6.406   2.109   0.310
   27SOL     OW  979   1.605   1.167   2.198
   27SOL    HW1  980   1.658   1.247   2.226
   27SOL    HW2  981   1.583   1.112   2.278
   28SOL     OW  982   1.398   0.523   5.281
   28SOL    HW1  983   1.324   0.531   5.214
   28SOL    HW2  984   1.486   0.528   5.233
   29SOL     OW  985   6.471   1.896   1.581
   29SOL    HW1  986   6.566   1.904   1.550
   29SOL    HW2  987   6.411   1.946   1.518
   30SOL     OW  988   4.373   0.783   4.025
   30SOL    HW1  989   4.467   0.803   3.995
   30SOL    HW2  990   4.323   0.869   4.036
   31SOL     OW  991   0.326   2.240   6.575
   31SOL    HW1  992   0.346   2.332   6.607
   31SOL    HW2  993   0.239   2.209   6.613
   32SOL     OW  994   0.565   2.056   2.489
   32SOL    HW1  995   0.627   2.072   2.412
   32SOL    HW2  996   0.604   1.988   2.550
   33SOL     OW  997   0.832   4.531   5.145
   33SOL    HW1  998   0.918   4.583   5.143
   33SOL    HW2  999   0.847   4.440   5.107
   34SOL     OW 1000   2.874   6.350   4.967
   34SOL    HW1 1001   2.814   6.320   5.041
   34SOL    HW2 1002   2.920   6.270   4.928
   35SOL     OW 1003   4.521   2.224   5.567
   35SOL    HW1 1004   4.503   2.321   5.582
   35SOL    HW2 1005   4.520   2.176   5.655
   36SOL     OW 1006   4.247   2.263   4.298
   36SOL    HW1 1007   4.277   2.172   4.272
   36SOL    HW2 1008   4.313   2.303   4.362
   37SOL     OW 1009   1.815   1.481   5.676
   37SOL    HW1 1010   1.866   1.535   5.610
   37SOL    HW2 1011   1.872   1.461   5.755
   38SOL     OW 1012   1.437   4.840   1.997
   38SOL    HW1 1013   1.485   4.811   1.914
   38SOL    HW2 1014   1.341   4.855   1.977
   39SOL     OW 1015   6.146   4.825   6.495
   39SOL    HW1 1016   6.180   4.891   6.429
   39SOL    HW2 1017   6.224   4.778   6.538
   40SOL     OW 1018   3.660   2.483   0.398
   40SOL    HW1 1019   3.630   2.430   0.478
   40SOL    HW2 1020   3.598   2.466   0.322
   41SOL     OW 1021   6.688   3.758   3.414
   41SOL    HW1 1022   6.613   3.692   3.409
   41SOL    HW2 1023   6.721   3.764   3.508
   42SOL     OW 1024   3.339   5.769   4.525
   42SOL    HW1 1025   3.271   5.841   4.511
   42SOL    HW2 1026   3.419   5.808   4.570
   43SOL     OW 1027   4.459   0.783   5.113
   43SOL    HW1 1028   4.504   0.761   5.200
   43SOL    HW2 1029   4.383   0.846   5.130
   44SOL     OW 1030   5.695   2.804   5.236
   44SOL    HW1 1031   5.598   2.805   5.213
   44SOL    HW2 1032   5.748   2.782   5.154
   45SOL     OW 1033   4.749   5.291   1.410
   45SOL    HW1 1034   4.680   5.262   1.477
   45SOL    HW2 1035   4.840   5.274   1.447
   46SOL     OW 1036   0.737   2.553   3.921
   46SOL    HW1 1037   0.661   2.576   3.861
   46SOL    HW2 1038   0.746   2.624   3.992
   47SOL     OW 1039   4.293   4.220   0.914
   47SOL    HW1 1040   4.337   4.152   0.856
   47SOL    HW2 1041   4.353   4.242   0.991
   48SOL     OW 1042   6.288   2.692   7.003
   48SOL    HW1 1043   6.205   2.723   0.027
   48SOL    HW2 1044   6.273   2.600   6.966
   49SOL     OW 1045   5.981   2.956   1.993
   49SOL    HW1 1046   5.902   2.987   1.940
   49SOL    HW2 1047   6.047   2.912   1.932
   50SOL     OW 1048   6.308   1.086   5.415
   50SOL    HW1 1049   6.353   1.167   5.454
   50SOL    HW2 1050   6.369   1.042   5.350
   51SOL     OW 1051   2.272   6.470   3.041
   51SOL    HW1 1052   2.278   6.561   3.001
   51SOL    HW2 1053   2.333   6.407   2.992
   52SOL     OW 1054   5.416   3.625   2.021
   52SOL    HW1 1055   5.481   3.622   1.945
   52SOL    HW2 1056   5.332   3.578   1.994
   53SOL     OW 1057   4.775   1.248   3.641
   53SOL    HW1 1058   4.801   1.321   3.704
   53SOL    HW2 1059   4.802   1.272   3.548
   54SOL     OW 1060   5.799   6.268   1.221
   54SOL    HW1 1061   5.705   6.236   1.234
   54SOL    HW2 1062   5.821   6.335   1.291
   55SOL     OW 1063   2.237   2.783   5.134
   55SOL    HW1 1064   2.274   2.876   5.137
   55SOL    HW2 1065   2.206   2.762   5.041
   56SOL     OW 1066   0.464   0.880   1.191
   56SOL    HW1 1067   0.531   0.922   1.252
   56SOL    HW2 1068   0.474   0.920   1.099
   57SOL     OW 1069   4.293   1.398   1.633
   57SOL    HW1 1070   4.266   1.446   1.550
   57SOL    HW2 1071   4.251   1.442   1.713
   58SOL     OW 1072   0.665   6.726   5.865
   58SOL    HW1 1073   0.693   6.756   5.774
   58SOL    HW2 1074   0.744   6.724   5.926
   59SOL     OW 1075   0.008   3.623   6.376
   59SOL    HW1 1076   0.057   3.644   6.461
   59SOL    HW2 1077   6.967   3.546   6.392
   60SOL     OW 1078   5.083   3.039   4.319
   60SOL    HW1 1079   4.999   3.058   4.269
   60SOL    HW2 1080   5.141   2.978   4.266
   61SOL     OW 1081   6.825   1.406   4.394
   61SOL    HW1 1082   6.774   1.441   4.472
   61SOL    HW2 1083   6.909   1.362   4.425
   62SOL     OW 1084   2.084   1.278   1.812
   62SOL    HW1 1085   2.089   1.322   1.901
   62SOL    HW2 1086   2.173   1.238   1.790
   63SOL     OW 1087   3.566   0.386   4.694
   63SOL    HW1 1088   3.588   0.296   4.657
   63SOL    HW2 1089   3.484   0.421   4.650
   64SOL     OW 1090   0.138   2.570   6.464
   64SOL    HW1 1091   0.052   2.520   6.459
   64SOL    HW2 1092   0.214   2.507   6.445
   65SOL     OW 1093   0.328   4.965   5.966
   65SOL    HW1 1094   0.263   5.019   6.020
   65SOL    HW2 1095   0.313   4.982   5.869
   66SOL     OW 1096   3.177   0.562   3.254
   66SOL    HW1 1097   3.259   0.507   3.241
   66SOL    HW2 1098   3.100   0.518   3.207
   67SOL     OW 1099   0.425   2.984   6.346
   67SOL    HW1 1100   0.482   2.986   6.264
   67SOL    HW2 1101   0.358   2.911   6.338
   68SOL     OW 1102   0.195   1.961   6.938
   68SOL    HW1 1103   0.188   2.033   7.006
   68SOL    HW2 1104   0.251   1.886   6.974
   69SOL     OW 1105   1.574   2.784   5.566
   69SOL    HW1 1106   1.499   2.826   5.617
   69SOL    HW2 1107   1.647   2.850   5.552
   70SOL     OW 1108   5.157   4.873   4.242
   70SOL    HW1 1109   5.122   4.802   4.181
   70SOL    HW2 1110   5.207   4.831   4.317
   71SOL     OW 1111   4.639   2.227   3.354
   71SOL    HW1 1112   4.589   2.150   3.395
   71SOL    HW2 1113   4.718   2.249   3.411
   72SOL     OW 1114   0.932   1.548   3.298
   72SOL    HW1 1115   0.966   1.634   3.261
   72SOL    HW2 1116   0.832   1.547   3.295
   73SOL     OW 1117   3.507   0.310   0.641
   73SOL    HW1 1118   3.580   0.277   0.581
   73SOL    HW2 1119   3.485   0.404   0.617
   74SOL     OW 1120   3.628   1.242   0.084
   74SOL    HW1 1121   3.614   1.287   0.173
   74SOL    HW2 1122   3.552   1.265   0.023
   75SOL     OW 1123   4.498   0.858   1.470
   75SOL    HW1 1124   4.470   0.898   1.557
   75SOL    HW2 1125   4.487   0.925   1.397
   76SOL     OW 1126   3.140   3.426   0.193
   76SOL    HW1 1127   3.166   3.372   0.112
   76SOL    HW2 1128   3.041   3.420   0.206
   77SOL     OW 1129   1.038   0.349   3.423
   77SOL    HW1 1130   1.016   0.255   3.449
   77SOL    HW2 1131   1.021   0.362   3.325
   78SOL     OW 1132   4.733   1.376   1.014
   78SOL    HW1 1133   4.757   1.465   1.053
   78SOL    HW2 1134   4.786   1.361   0.930
   79SOL     OW 1135   2.941   6.220   1.951
   79SOL    HW1 1136   3.009   6.234   1.880
   79SOL    HW2 1137   2.870   6.289   1.944
   80SOL     OW 1138   3.988   1.893   3.933
   80SOL    HW1 1139   3.983   1.987   3.965
   80SOL    HW2 1140   4.060   1.885   3.864
   81SOL     OW 1141   1.849   6.606   1.885
   81SOL    HW1 1142   1.853   6.562   1.974
   81SOL    HW2 1143   1.764   6.580   1.839
   82SOL     OW 1144   5.656   5.961   1.373
   82SOL    HW1 1145   5.592   6.015   1.318
   82SOL    HW2 1146   5.612   5.875   1.400
   83SOL     OW 1147   0.526   0.945   6.713
   83SOL    HW1 1148   0.538   0.861   6.660
   83SOL    HW2 1149   0.585   0.942   6.794
   84SOL     OW 1150   6.149   3.633   3.164
   84SOL    HW1 1151   6.243   3.648   3.132
   84SOL    HW2 1152   6.110   3.720   3.193
   85SOL     OW 1153   1.392   1.386   3.064
   85SOL    HW1 1154   1.419   1.473   3.023
   85SOL    HW2 1155   1.454   1.364   3.139
   86SOL     OW 1156   6.807   1.578   0.271
   86SOL    HW1 1157   6.715   1.600   0.239
   86SOL    HW2 1158   6.816   1.479   0.284
   87SOL     OW 1159   4.431   4.273   1.125
   87SOL    HW1 1160   4.375   4.209   1.177
   87SOL    HW2 1161   4.504   4.310   1.184
   88SOL     OW 1162   3.451   2.351   6.085
   88SOL    HW1 1163   3.434   2.391   5.995
   88SOL    HW2 1164   3.477   2.255   6.075
   89SOL     OW 1165   3.153   2.741   7.014
   89SOL    HW1 1166   3.139   2.765   6.918
   89SOL    HW2 1167   3.106   2.655   0.012
   90SOL     OW 1168   3.771   5.262   2.487
   90SOL    HW1 1169   3.731   5.199   2.554
   90SOL    HW2 1170   3.845   5.217   2.438
   91SOL     OW 1171   6.552   3.673   6.106
   91SOL    HW1 1172   6.626   3.622   6.149
   91SOL    HW2 1173   6.584   3.766   6.085
   92SOL     OW 1174   4.623   4.906   0.899
   92SOL    HW1 1175   4.698   4.953   0.852
   92SOL    HW2 1176   4.536   4.933   0.859
   93SOL     OW 1177   2.987   3.034   6.823
   93SOL    HW1 1178   3.034   3.083   6.750
   93SOL    HW2 1179   3.016   2.938   6.823
   94SOL     OW 1180   3.099   5.535   6.556
   94SOL    HW1 1181   3.025   5.555   6.492
   94SOL    HW2 1182   3.164   5.472   6.513
   95SOL     OW 1183   2.157   1.441   3.187
   95SOL    HW1 1184   2.090   1.366   3.189
   95SOL    HW2 1185   2.188   1.454   3.093
   96SOL     OW 1186   4.692   5.664   5.331
   96SOL    HW1 1187   4.686   5.637   5.427
   96SOL    HW2 1188   4.640   5.601   5.275
   97SOL     OW 1189   2.306   3.419   5.323
   97SOL    HW1 1190   2.313   3.330   5.280
   97SOL    HW2 1191   2.295   3.490   5.253
   98SOL     OW 1192   1.094   2.069   0.482
   98SOL    HW1 1193   1.080   2.133   0.406
   98SOL    HW2 1194   1.024   2.083   0.551
   99SOL     OW 1195   4.046   3.650   1.952
   99SOL    HW1 1196   4.127   3.627   1.899
   99SOL    HW2 1197   4.071   3.656   2.049
  100SOL     OW 1198   0.202   6.925   3.986
  100SOL    HW1 1199   0.148   6.842   4.000
  100SOL    HW2 1200   0.296   6.908   4.016
  101SOL     OW 1201   0.234   4.733   2.115
  101SOL    HW1 1202   0.320   4.750   2.161
  101SOL    HW2 1203   0.159   4.738   2.181
  102SOL     OW 1204   3.511   5.667   2.193
  102SOL    HW1 1205   3.423   5.638   2.232
  102SOL    HW2 1206   3.502   5.759   2.156
  103SOL     OW 1207   2.203   2.597   2.366
  103SOL    HW1 1208   2.139   2.521   2.357
  103SOL    HW2 1209   2.238   2.622   2.276
  104SOL     OW 1210   1.544   5.911   2.925
  104SOL    HW1 1211   1.527   5.937   3.020
  104SOL    HW2 1212   1.481   5.837   2.900
  105SOL     OW 1213   6.150   1.003   6.458
  105SOL    HW1 1214   6.066   0.970   6.413
  105SOL    HW2 1215   6.206   1.053   6.392
  106SOL     OW 1216   3.931   6.026   3.712
  106SOL    HW1 1217   3.934   5.927   3.728
  106SOL    HW2 1218   3.836   6.056   3.708
  107SOL     OW 1219   0.421   0.757   0.495
  107SOL    HW1 1220   0.449   0.762   0.399
  107SOL    HW2 1221   0.490   0.801   0.553
  108SOL     OW 1222   4.221   6.457   6.648
  108SOL    HW1 1223   4.186   6.512   6.572
  108SOL    HW2 1224   4.155   6.386   6.670
  109SOL     OW 1225   2.620   1.021   2.402
  109SOL    HW1 1226   2.627   0.924   2.379
  109SOL    HW2 1227   2.699   1.070   2.365
  110SOL     OW 1228   3.206   5.210   4.601
  110SOL    HW1 1229   3.149   5.180   4.524
  110SOL    HW2 1230   3.157   5.193   4.687
  111SOL     OW 1231   1.812   1.423   4.141
  111SOL    HW1 1232   1.715   1.431   4.118
  111SOL    HW2 1233   1.865   1.409   4.058
  112SOL     OW 1234   4.393   6.201   0.361
  112SOL    HW1 1235   4.484   6.161   0.349
  112SOL    HW2 1236   4.395   6.264   0.438
  113SOL     OW 1237   1.196   6.206   3.312
  113SOL    HW1 1238   1.124   6.160   3.363
  113SOL    HW2 1239   1.255   6.256   3.376
  114SOL     OW 1240   1.615   5.966   1.930
  114SOL    HW1 1241   1.592   6.029   2.005
  114SOL    HW2 1242   1.713   5.970   1.912
  115SOL     OW 1243   5.537   6.806   2.764
  115SOL    HW1 1244   5.502   6.712   2.770
  115SOL    HW2 1245   5.581   6.819   2.675
  116SOL     OW 1246   0.463   5.559   1.483
  116SOL    HW1 1247   0.500   5.649   1.458
  116SOL    HW2 1248   0.425   5.563   1.575
  117SOL     OW 1249   0.531   0.761   0.886
  117SOL    HW1 1250   0.492   0.677   0.847
  117SOL    HW2 1251   0.576   0.739   0.973
  118SOL     OW 1252   1.472   1.876   2.549
  118SOL    HW1 1253   1.385   1.866   2.596
  118SOL    HW2 1254   1.460   1.931   2.466
  119SOL     OW 1255   0.087   0.562   0.063
  119SOL    HW1 1256   0.074   0.508   7.001
  119SOL    HW2 1257   7.021   0.604   0.089
  120SOL     OW 1258   5.412   0.679   4.266
  120SOL    HW1 1259   5.491   0.677   4.327
  120SOL    HW2 1260   5.332   0.712   4.316
  121SOL     OW 1261   1.470   3.873   0.268
  121SOL    HW1 1262   1.500   3.959   0.225
  121SOL    HW2 1263   1.544   3.837   0.325
  122SOL     OW 1264   1.367   3.161   0.465
  122SOL    HW1 1265   1.446   3.141   0.408
  122SOL    HW2 1266   1.320   3.242   0.430
  123SOL     OW 1267   1.161   1.330   1.746
  123SOL    HW1 1268   1.253   1.299   1.771
  123SOL    HW2 1269   1.154   1.429   1.759
  124SOL     OW 1270   2.995   2.356   0.990
  124SOL    HW1 1271   2.971   2.393   0.900
  124SOL    HW2 1272   3.075   2.403   1.025
  125SOL     OW 1273   3.775   3.070   0.705
  125SOL    HW1 1274   3.684   3.110   0.695
  125SOL    HW2 1275   3.827   3.084   0.621
  126SOL     OW 1276   3.500   2.884   2.780
  126SOL    HW1 1277   3.423   2.846   2.729
  126SOL    HW2 1278   3.492   2.858   2.877
  127SOL     OW 1279   7.008   5.209   6.723
  127SOL    HW1 1280   0.068   5.157   6.696
  127SOL    HW2 1281   6.958   5.238   6.641
  128SOL     OW 1282   4.765   3.143   1.448
  128SOL    HW1 1283   4.756   3.223   1.506
  128SOL    HW2 1284   4.677   3.097   1.441
  129SOL     OW 1285   2.864   3.357   0.311
  129SOL    HW1 1286   2.773   3.395   0.294
  129SOL    HW2 1287   2.866   3.261   0.282
  130SOL     OW 1288   6.792   0.169   4.504
  130SOL    HW1 1289   6.768   0.261   4.474
  130SOL    HW2 1290   6.886   0.149   4.478
  131SOL     OW 1291   5.220   0.438   3.738
  131SOL    HW1 1292   5.309   0.470   3.705
  131SOL    HW2 1293   5.166   0.405   3.661
  132SOL     OW 1294   3.020   2.417   1.348
  132SOL    HW1 1295   2.995   2.429   1.252
  132SOL    HW2 1296   3.082   2.490   1.376
  133SOL     OW 1297   5.605   1.117   3.532
  133SOL    HW1 1298   5.520   1.063   3.525
  133SOL    HW2 1299   5.682   1.061   3.500
  134SOL     OW 1300   0.020   0.467   3.003
  134SOL    HW1 1301   6.957   0.490   3.050
  134SOL    HW2 1302   0.094   0.527   3.036
  135SOL     OW 1303   5.102   4.002   4.245
  135SOL    HW1 1304   5.180   3.946   4.275
  135SOL    HW2 1305   5.048   4.029   4.324
  136SOL     OW 1306   2.029   5.335   4.949
  136SOL    HW1 1307   2.127   5.319   4.950
  136SOL    HW2 1308   1.983   5.262   5.000
  137SOL     OW 1309   4.556   1.583   3.805
  137SOL    HW1 1310   4.513   1.671   3.828
  137SOL    HW2 1311   4.618   1.596   3.728
  138SOL     OW 1312   0.887   4.004   3.164
  138SOL    HW1 1313   0.986   4.004   3.147
  138SOL    HW2 1314   0.865   4.071   3.235
  139SOL     OW 1315   2.025   6.094   5.480
  139SOL    HW1 1316   1.940   6.107   5.429
  139SOL    HW2 1317   2.057   6.182   5.514
  140SOL     OW 1318   1.600   6.256   3.835
  140SOL    HW1 1319   1.665   6.184   3.858
  140SOL    HW2 1320   1.536   6.222   3.765
  141SOL     OW 1321   6.579   2.871   5.364
  141SOL    HW1 1322   6.542   2.794   5.311
  141SOL    HW2 1323   6.560   2.857   5.461
  142SOL     OW 1324   1.981   3.411   2.093
  142SOL    HW1 1325   2.060   3.472   2.097
  142SOL    HW2 1326   2.000   3.327   2.143
  143SOL     OW 1327   5.429   5.850   1.081
  143SOL    HW1 1328   5.463   5.924   1.023
  143SOL    HW2 1329   5.507   5.798   1.116
  144SOL     OW 1330   2.179   4.585   5.355
  144SOL    HW1 1331   2.146   4.505   5.404
  144SOL    HW2 1332   2.128   4.596   5.270
  145SOL     OW 1333   2.409   5.469   1.255
  145SOL    HW1 1334   2.415   5.457   1.156
  145SOL    HW2 1335   2.447   5.389   1.301
  146SOL     OW 1336   5.285   0.138   6.881
  146SOL    HW1 1337   5.282   0.154   6.783
  146SOL    HW2 1338   5.214   0.072   6.907
  147SOL     OW 1339   5.473   0.968   5.952
  147SOL    HW1 1340   5.386   0.922   5.967
  147SOL    HW2 1341   5.541   0.933   6.016
  148SOL     OW 1342   0.555   5.325   1.422
  148SOL    HW1 1343   0.649   5.328   1.454
  148SOL    HW2 1344   0.506   5.406   1.453
  149SOL     OW 1345   3.319   2.013   4.906
  149SOL    HW1 1346   3.407   1.994   4.863
  149SOL    HW2 1347   3.272   2.086   4.855
  150SOL     OW 1348   5.021   0.166   6.571
  150SOL    HW1 1349   4.996   0.263   6.572
  150SOL    HW2 1350   5.118   0.156   6.595
  151SOL     OW 1351   3.545   0.506   2.198
  151SOL    HW1 1352   3.574   0.591   2.242
  151SOL    HW2 1353   3.608   0.485   2.123
  152SOL     OW 1354   6.939   1.757   0.422
  152SOL    HW1 1355   6.910   1.679   0.367
  152SOL    HW2 1356   6.858   1.799   0.465
  153SOL     OW 1357   3.218   6.385   3.106
  153SOL    HW1 1358   3.227   6.323   3.185
  153SOL    HW2 1359   3.304   6.385   3.055
  154SOL     OW 1360   0.467   3.565   1.054
  154SOL    HW1 1361   0.438   3.497   1.122
  154SOL    HW2 1362   0.470   3.655   1.096
  155SOL     OW 1363   0.869   0.869   3.226
  155SOL    HW1 1364   0.841   0.924   3.147
  155SOL    HW2 1365   0.949   0.815   3.203
  156SOL     OW 1366   6.723   0.122   0.070
  156SOL    HW1 1367   6.789   0.197   0.061
  156SOL    HW2 1368   6.741   0.053   7.020
  157SOL     OW 1369   5.696   3.532   0.566
  157SOL    HW1 1370   5.793   3.535   0.541
  157SOL    HW2 1371   5.665   3.436   0.567
  158SOL     OW 1372   1.962   2.932   1.204
  158SOL    HW1 1373   1.979   2.893   1.294
  158SOL    HW2 1374   2.041   2.914   1.144
  159SOL     OW 1375   4.087   5.006   1.441
  159SOL    HW1 1376   4.150   4.929   1.445
  159SOL    HW2 1377   4.132   5.089   1.476
  160SOL     OW 1378   5.986   0.222   0.824
  160SOL    HW1 1379   5.892   0.245   0.797
  160SOL    HW2 1380   6.038   0.198   0.742
  161SOL     OW 1381   1.404   0.327   2.755
  161SOL    HW1 1382   1.461   0.280   2.688
  161SOL    HW2 1383   1.378   0.417   2.720
  162SOL     OW 1384   3.614   5.830   6.545
  162SOL    HW1 1385   3.520   5.805   6.520
  162SOL    HW2 1386   3.669   5.747   6.554
  163SOL     OW 1387   0.397   5.933   2.562
  163SOL    HW1 1388   0.304   5.947   2.528
  163SOL    HW2 1389   0.455   5.902   2.487
  164SOL     OW 1390   1.105   3.424   2.549
  164SOL    HW1 1391   1.083   3.482   2.628
  164SOL    HW2 1392   1.141   3.337   2.581
  165SOL     OW 1393   5.130   5.211   6.902
  165SOL    HW1 1394   5.047   5.262   6.923
  165SOL    HW2 1395   5.198   5.273   6.863
  166SOL     OW 1396   0.351   3.581   2.158
  166SOL    HW1 1397   0.405   3.496   2.163
  166SOL    HW2 1398   0.374   3.639   2.236
  167SOL     OW 1399   6.331   1.782   6.127
  167SOL    HW1 1400   6.263   1.845   6.166
  167SOL    HW2 1401   6.285   1.698   6.098
  168SOL     OW 1402   4.399   2.373   1.081
  168SOL    HW1 1403   4.327   2.308   1.058
  168SOL    HW2 1404   4.463   2.331   1.145
  169SOL     OW 1405   5.550   2.846   6.918
  169SOL    HW1 1406   5.560   2.806   6.827
  169SOL    HW2 1407   5.497   2.783   6.976
  170SOL     OW 1408   0.061   5.738   2.176
  170SOL    HW1 1409   0.067   5.702   2.269
  170SOL    HW2 1410   0.059   5.662   2.111
  171SOL     OW 1411   2.667   4.546   0.456
  171SOL    HW1 1412   2.692   4.482   0.384
  171SOL    HW2 1413   2.746   4.562   0.516
  172SOL     OW 1414   6.012   1.779   2.829
  172SOL    HW1 1415   6.088   1.726   2.792
  172SOL    HW2 1416   6.045   1.867   2.862
  173SOL     OW 1417   5.801   1.364   4.715
  173SOL    HW1 1418   5.816   1.462   4.700
  173SOL    HW2 1419   5.886   1.320   4.744
  174SOL     OW 1420   4.417   5.261   3.178
  174SOL    HW1 1421   4.403   5.323   3.256
  174SOL    HW2 1422   4.328   5.232   3.142
  175SOL     OW 1423   3.523   0.826   0.680
  175SOL    HW1 1424   3.506   0.909   0.627
  175SOL    HW2 1425   3.602   0.840   0.740
  176SOL     OW 1426   5.348   4.729   2.344
  176SOL    HW1 1427   5.419   4.794   2.371
  176SOL    HW2 1428   5.363   4.700   2.250
  177SOL     OW 1429   4.873   3.276   4.536
  177SOL    HW1 1430   4.781   3.275   4.575
  177SOL    HW2 1431   4.913   3.185   4.542
  178SOL     OW 1432   2.639   4.869   5.406
  178SOL    HW1 1433   2.595   4.913   5.484
  178SOL    HW2 1434   2.723   4.824   5.436
  179SOL     OW 1435   4.182   0.318   6.846
  179SOL    HW1 1436   4.207   0.385   6.776
  179SOL    HW2 1437   4.118   0.252   6.809
  180SOL     OW 1438   2.568   0.149   0.422
  180SOL    HW1 1439   2.503   0.192   0.485
  180SOL    HW2 1440   2.579   0.206   0.341
  181SOL     OW 1441   3.103   3.515   5.653
  181SOL    HW1 1442   3.181   3.524   5.715
  181SOL    HW2 1443   3.100   3.595   5.592
  182SOL     OW 1444   4.088   2.171   6.416
  182SOL    HW1 1445   3.991   2.172   6.441
  182SOL    HW2 1446   4.138   2.236   6.473
  183SOL     OW 1447   3.337   2.073   3.697
  183SOL    HW1 1448   3.258   2.038   3.748
  183SOL    HW2 1449   3.404   1.999   3.685
  184SOL     OW 1450   0.286   6.293   3.132
  184SOL    HW1 1451   0.235   6.302   3.046
  184SOL    HW2 1452   0.343   6.211   3.128
  185SOL     OW 1453   1.285   1.278   4.952
  185SOL    HW1 1454   1.263   1.269   5.049
  185SOL    HW2 1455   1.203   1.303   4.901
  186SOL     OW 1456   5.925   0.894   4.116
  186SOL    HW1 1457   5.930   0.817   4.053
  186SOL    HW2 1458   5.893   0.863   4.206
  187SOL     OW 1459   6.028   6.617   2.330
  187SOL    HW1 1460   5.940   6.660   2.312
  187SOL    HW2 1461   6.067   6.583   2.245
  188SOL     OW 1462   0.541   3.156   3.935
  188SOL    HW1 1463   0.585   3.083   3.883
  188SOL    HW2 1464   0.467   3.196   3.882
  189SOL     OW 1465   1.965   5.222   7.014
  189SOL    HW1 1466   1.932   5.248   0.084
  189SOL    HW2 1467   1.888   5.219   6.950
  190SOL     OW 1468   6.364   4.586   5.790
  190SOL    HW1 1469   6.325   4.512   5.736
  190SOL    HW2 1470   6.457   4.562   5.818
  191SOL     OW 1471   6.366   1.304   6.607
  191SOL    HW1 1472   6.389   1.400   6.594
  191SOL    HW2 1473   6.334   1.265   6.521
  192SOL     OW 1474   0.272   4.440   1.519
  192SOL    HW1 1475   0.282   4.444   1.419
  192SOL    HW2 1476   0.270   4.344   1.548
  193SOL     OW 1477   5.095   4.023   5.408
  193SOL    HW1 1478   5.149   4.105   5.390
  193SOL    HW2 1479   5.156   3.945   5.419
  194SOL     OW 1480   3.716   6.433   3.544
  194SOL    HW1 1481   3.781   6.361   3.521
  194SOL    HW2 1482   3.624   6.407   3.516
  195SOL     OW 1483   1.538   1.400   3.830
  195SOL    HW1 1484   1.439   1.397   3.815
  195SOL    HW2 1485   1.557   1.389   3.928
  196SOL     OW 1486   2.884   0.199   6.490
  196SOL    HW1 1487   2.851   0.203   6.584
  196SOL    HW2 1488   2.919   0.289   6.463
  197SOL     OW 1489   2.875   7.004   0.379
  197SOL    HW1 1490   2.821   0.023   0.305
  197SOL    HW2 1491   2.905   0.054   0.442
  198SOL     OW 1492   4.638   6.764   2.254
  198SOL    HW1 1493   4.634   6.855   2.295
  198SOL    HW2 1494   4.579   6.761   2.173
  199SOL     OW 1495   6.520   1.350   3.240
  199SOL    HW1 1496   6.592   1.419   3.247
  199SOL    HW2 1497   6.449   1.368   3.308
  200SOL     OW 1498   0.882   3.898   1.800
  200SOL    HW1 1499   0.935   3.920   1.883
  200SOL    HW2 1500   0.872   3.980   1.744
  201SOL     OW 1501   4.923   6.836   6.305
  201SOL    HW1 1502   4.927   6.738   6.326
  201SOL    HW2 1503   4.896   6.848   6.210
  202SOL     OW 1504   5.351   0.339   5.824
  202SOL    HW1 1505   5.387   0.406   5.889
  202SOL    HW2 1506   5.304   0.387   5.750
  203SOL     OW 1507   4.603   2.237   4.668
  203SOL    HW1 1508   4.584   2.163   4.603
  203SOL    HW2 1509   4.671   2.299   4.629
  204SOL     OW 1510   0.050   0.904   6.574
  204SOL    HW1 1511   0.077   0.885   6.480
  204SOL    HW2 1512   0.128   0.890   6.635
  205SOL     OW 1513   0.947   0.789   2.275
  205SOL    HW1 1514   0.997   0.731   2.339
  205SOL    HW2 1515   0.958   0.753   2.182
  206SOL     OW 1516   6.940   4.793   2.695
  206SOL    HW1 1517   6.856   4.838   2.664
  206SOL    HW2 1518   7.015   4.859   2.696
  207SOL     OW 1519   3.967   0.775   4.041
  207SOL    HW1 1520   4.012   0.778   4.130
  207SOL    HW2 1521   4.013   0.708   3.982
  208SOL     OW 1522   5.296   3.823   5.417
  208SOL    HW1 1523   5.255   3.735   5.394
  208SOL    HW2 1524   5.367   3.811   5.486
  209SOL     OW 1525   1.197   4.981   4.646
  209SOL    HW1 1526   1.191   5.031   4.732
  209SOL    HW2 1527   1.121   4.916   4.641
  210SOL     OW 1528   4.364   1.897   1.439
  210SOL    HW1 1529   4.387   1.947   1.355
  210SOL    HW2 1530   4.337   1.963   1.509
  211SOL     OW 1531   1.162   6.215   3.754
  211SOL    HW1 1532   1.241   6.194   3.695
  211SOL    HW2 1533   1.171   6.308   3.789
  212SOL     OW 1534   2.243   4.649   2.440
  212SOL    HW1 1535   2.279   4.666   2.532
  212SOL    HW2 1536   2.288   4.569   2.400
  213SOL     OW 1537   3.455   0.840   5.937
  213SOL    HW1 1538   3.391   0.769   5.910
  213SOL    HW2 1539   3.494   0.883   5.856
  214SOL     OW 1540   4.102   5.746   1.998
  214SOL    HW1 1541   4.055   5.729   1.912
  214SOL    HW2 1542   4.126   5.659   2.042
  215SOL     OW 1543   2.996   4.095   1.839
  215SOL    HW1 1544   3.052   4.105   1.922
  215SOL    HW2 1545   2.901   4.119   1.861
  216SOL     OW 1546   1.799   6.161   4.963
  216SOL    HW1 1547   1.884   6.138   5.010
  216SOL    HW2 1548   1.725   6.102   4.996
  217SOL     OW 1549   2.776   2.346   3.454
  217SOL    HW1 1550   2.858   2.297   3.423
  217SOL    HW2 1551   2.701   2.281   3.466
  218SOL     OW 1552   0.290   3.430   4.438
  218SOL    HW1 1553   0.220   3.398   4.501
  218SOL    HW2 1554   0.247   3.472   4.358
  219SOL     OW 1555   3.183   6.583   6.394
  219SOL    HW1 1556   3.199   6.625   6.304
  219SOL    HW2 1557   3.247   6.508   6.407
  220SOL     OW 1558   3.742   6.633   6.524
  220SOL    HW1 1559   3.765   6.537   6.540
  220SOL    HW2 1560   3.644   6.640   6.502
  221SOL     OW 1561   0.108   3.755   2.517
  221SOL    HW1 1562   0.038   3.772   2.447
  221SOL    HW2 1563   0.066   3.758   2.607
  222SOL     OW 1564   2.187   5.085   5.833
  222SOL    HW1 1565   2.145   5.156   5.776
  222SOL    HW2 1566   2.253   5.033   5.779
  223SOL     OW 1567   5.913   3.535   1.063
  223SOL    HW1 1568   5.931   3.543   1.161
  223SOL    HW2 1569   5.861   3.614   1.032
  224SOL     OW 1570   2.695   1.453   3.845
  224SOL    HW1 1571   2.757   1.427   3.771
  224SOL    HW2 1572   2.609   1.484   3.806
  225SOL     OW 1573   5.309   1.200   5.867
  225SOL    HW1 1574   5.320   1.100   5.860
  225SOL    HW2 1575   5.381   1.238   5.924
  226SOL     OW 1576   0.917   0.237   5.848
  226SOL    HW1 1577   1.001   0.223   5.901
  226SOL    HW2 1578   0.926   0.319   5.792
  227SOL     OW 1579   1.354   3.925   1.985
  227SOL    HW1 1580   1.390   4.017   2.003
  227SOL    HW2 1581   1.402   3.885   1.907
  228SOL     OW 1582   3.346   6.270   3.882
  228SOL    HW1 1583   3.327   6.239   3.975
  228SOL    HW2 1584   3.357   6.191   3.822
  229SOL     OW 1585   5.168   6.884   0.412
  229SOL    HW1 1586   5.161   6.785   0.403
  229SOL    HW2 1587   5.091   6.927   0.364
  230SOL     OW 1588   2.689   4.925   2.460
  230SOL    HW1 1589   2.708   5.015   2.421
  230SOL    HW2 1590   2.737   4.855   2.408
  231SOL     OW 1591   6.595   2.165   6.299
  231SOL    HW1 1592   6.656   2.103   6.348
  231SOL    HW2 1593   6.523   2.196   6.360
  232SOL     OW 1594   1.542   4.214   6.058
  232SOL    HW1 1595   1.593   4.300   6.055
  232SOL    HW2 1596   1.605   4.138   6.043
  233SOL     OW 1597   2.322   1.087   3.952
  233SOL    HW1 1598   2.357   1.147   4.024
  233SOL    HW2 1599   2.366   1.110   3.865
  234SOL     OW 1600   2.912   5.938   5.345
  234SOL    HW1 1601   2.933   5.967   5.252
  234SOL    HW2 1602   2.894   6.018   5.402
  235SOL     OW 1603   2.969   3.876   2.481
  235SOL    HW1 1604   2.928   3.861   2.571
  235SOL    HW2 1605   2.902   3.855   2.410
  236SOL     OW 1606   5.833   2.720   6.810
  236SOL    HW1 1607   5.767   2.710   6.736
  236SOL    HW2 1608   5.925   2.714   6.774
  237SOL     OW 1609   6.589   6.508   0.796
  237SOL    HW1 1610   6.566   6.559   0.879
  237SOL    HW2 1611   6.542   6.548   0.718
  238SOL     OW 1612   5.927   2.021   6.839
  238SOL    HW1 1613   5.952   2.032   6.743
  238SOL    HW2 1614   5.839   1.974   6.846
  239SOL     OW 1615   6.981   5.792   0.064
  239SOL    HW1 1616   6.937   5.807   6.996
  239SOL    HW2 1617   6.945   5.710   0.106
  240SOL     OW 1618   0.642   2.893   5.873
  240SOL    HW1 1619   0.595   2.860   5.955
  240SOL    HW2 1620   0.620   2.990   5.858
  241SOL     OW 1621   1.441   0.304   4.134
  241SOL    HW1 1622   1.505   0.233   4.105
  241SOL    HW2 1623   1.409   0.355   4.054
  242SOL     OW 1624   2.374   3.138   6.397
  242SOL    HW1 1625   2.445   3.107   6.460
  242SOL    HW2 1626   2.339   3.227   6.428
  243SOL     OW 1627   5.297   0.213   6.611
  243SOL    HW1 1628   5.380   0.268   6.609
  243SOL    HW2 1629   5.321   0.117   6.597
  244SOL     OW 1630   4.853   3.100   4.173
  244SOL    HW1 1631   4.790   3.024   4.192
  244SOL    HW2 1632   4.825   3.180   4.226
  245SOL     OW 1633   0.100   2.503   5.113
  245SOL    HW1 1634   0.193   2.490   5.147
  245SOL    HW2 1635   0.045   2.423   5.137
  246SOL     OW 1636   5.344   3.390   3.502
  246SOL    HW1 1637   5.306   3.464   3.446
  246SOL    HW2 1638   5.285   3.377   3.583
  247SOL     OW 1639   2.370   1.352   1.976
  247SOL    HW1 1640   2.355   1.435   2.030
  247SOL    HW2 1641   2.419   1.375   1.892
  248SOL     OW 1642   4.189   1.793   4.307
  248SOL    HW1 1643   4.262   1.860   4.320
  248SOL    HW2 1644   4.127   1.796   4.385
  249SOL     OW 1645   4.844   6.979   5.671
  249SOL    HW1 1646   4.936   6.946   5.652
  249SOL    HW2 1647   4.790   6.977   5.586
  250SOL     OW 1648   4.831   2.009   6.102
  250SOL    HW1 1649   4.783   2.091   6.131
  250SOL    HW2 1650   4.920   2.005   6.147
  251SOL     OW 1651   4.457   4.936   6.658
  251SOL    HW1 1652   4.467   5.035   6.653
  251SOL    HW2 1653   4.546   4.894   6.676
  252SOL     OW 1654   0.268   0.756   7.014
  252SOL    HW1 1655   0.191   0.713   0.039
  252SOL    HW2 1656   0.348   0.696   7.017
  253SOL     OW 1657   2.134   4.125   0.146
  253SOL    HW1 1658   2.046   4.173   0.145
  253SOL    HW2 1659   2.148   4.078   0.059
  254SOL     OW 1660   6.608   2.565   3.535
  254SOL    HW1 1661   6.619   2.633   3.463
  254SOL    HW2 1662   6.597   2.474   3.495
  255SOL     OW 1663   1.874   3.110   4.161
  255SOL    HW1 1664   1.936   3.089   4.085
  255SOL    HW2 1665   1.810   3.182   4.133
  256SOL     OW 1666   6.198   4.362   0.254
  256SOL    HW1 1667   6.242   4.354   0.343
  256SOL    HW2 1668   6.135   4.439   0.255
  257SOL     OW 1669   3.655   5.540   4.957
  257SOL    HW1 1670   3.653   5.639   4.973
  257SOL    HW2 1671   3.749   5.513   4.933
  258SOL     OW 1672   5.416   5.064   4.679
  258SOL    HW1 1673   5.501   5.020   4.650
  258SOL    HW2 1674   5.342   4.997   4.680
  259SOL     OW 1675   1.965   2.870   2.306
  259SOL    HW1 1676   2.017   2.898   2.386
  259SOL    HW2 1677   2.028   2.838   2.235
  260SOL     OW 1678   4.659   1.246   1.669
  260SOL    HW1 1679   4.592   1.248   1.743
  260SOL    HW2 1680   4.628   1.305   1.594
  261SOL     OW 1681   6.628   3.942   0.888
  261SOL    HW1 1682   6.728   3.950   0.893
  261SOL    HW2 1683   6.587   3.986   0.968
  262SOL     OW 1684   0.741   3.741   1.304
  262SOL    HW1 1685   0.759   3.825   1.253
  262SOL    HW2 1686   0.693   3.763   1.389
  263SOL     OW 1687   0.663   1.398   3.726
  263SOL    HW1 1688   0.639   1.340   3.804
  263SOL    HW2 1689   0.645   1.494   3.750
  264SOL     OW 1690   5.342   4.168   4.927
  264SOL    HW1 1691   5.328   4.217   4.841
  264SOL    HW2 1692   5.254   4.131   4.958
  265SOL     OW 1693   4.447   4.481   2.857
  265SOL    HW1 1694   4.416   4.386   2.857
  265SOL    HW2 1695   4.467   4.509   2.763
  266SOL     OW 1696   3.392   3.157   5.852
  266SOL    HW1 1697   3.395   3.209   5.767
  266SOL    HW2 1698   3.339   3.208   5.920
  267SOL     OW 1699   6.791   2.674   6.204
  267SOL    HW1 1700   6.796   2.761   6.155
  267SOL    HW2 1701   6.695   2.647   6.212
  268SOL     OW 1702   4.646   6.685   5.070
  268SOL    HW1 1703   4.675   6.774   5.033
  268SOL    HW2 1704   4.619   6.696   5.166
  269SOL     OW 1705   1.850   2.049   0.362
  269SOL    HW1 1706   1.807   1.964   0.331
  269SOL    HW2 1707   1.783   2.103   0.413
  270SOL     OW 1708   0.233   0.273   1.901
  270SOL    HW1 1709   0.167   0.318   1.842
  270SOL    HW2 1710   0.185   0.218   1.970
  271SOL     OW 1711   2.407   2.514   0.219
  271SOL    HW1 1712   2.479   2.558   0.166
  271SOL    HW2 1713   2.321   2.565   0.207
  272SOL     OW 1714   3.171   5.553   4.316
  272SOL    HW1 1715   3.129   5.510   4.395
  272SOL    HW2 1716   3.137   5.647   4.307
  273SOL     OW 1717   1.765   5.345   5.493
  273SOL    HW1 1718   1.841   5.399   5.529
  273SOL    HW2 1719   1.796   5.251   5.476
  274SOL     OW 1720   5.437   2.188   4.009
  274SOL    HW1 1721   5.364   2.159   3.948
  274SOL    HW2 1722   5.459   2.114   4.073
  275SOL     OW 1723   6.934   5.718   6.493
  275SOL    HW1 1724   6.950   5.662   6.574
  275SOL    HW2 1725   6.840   5.753   6.495
  276SOL     OW 1726   6.707   5.220   3.589
  276SOL    HW1 1727   6.642   5.242   3.662
  276SOL    HW2 1728   6.660   5.215   3.502
  277SOL     OW 1729   2.633   1.398   0.356
  277SOL    HW1 1730   2.563   1.469   0.365
  277SOL    HW2 1731   2.723   1.440   0.364
  278SOL     OW 1732   6.612   3.639   1.614
  278SOL    HW1 1733   6.658   3.675   1.695
  278SOL    HW2 1734   6.517   3.672   1.613
  279SOL     OW 1735   6.020   2.808   4.661
  279SOL    HW1 1736   6.008   2.907   4.673
  279SOL    HW2 1737   6.101   2.790   4.606
  280SOL     OW 1738   3.962   6.799   2.577
  280SOL    HW1 1739   3.942   6.896   2.589
  280SOL    HW2 1740   3.891   6.757   2.520
  281SOL     OW 1741   2.700   4.664   2.763
  281SOL    HW1 1742   2.743   4.620   2.684
  281SOL    HW2 1743   2.719   4.762   2.760
  282SOL     OW 1744   3.894   2.354   5.315
  282SOL    HW1 1745   3.958   2.402   5.255
  282SOL    HW2 1746   3.826   2.306   5.260
  283SOL     OW 1747   6.527   1.056   6.104
  283SOL    HW1 1748   6.596   1.022   6.040
  283SOL    HW2 1749   6.506   0.986   6.172
  284SOL     OW 1750   0.289   4.776   5.014
  284SOL    HW1 1751   0.217   4.838   5.047
  284SOL    HW2 1752   0.343   4.742   5.091
  285SOL     OW 1753   4.968   5.818   6.824
  285SOL    HW1 1754   5.029   5.895   6.841
  285SOL    HW2 1755   4.915   5.798   6.906
  286SOL     OW 1756   4.122   4.878   5.037
  286SOL    HW1 1757   4.056   4.925   5.095
  286SOL    HW2 1758   4.185   4.826   5.095
  287SOL     OW 1759   0.254   5.071   6.661
  287SOL    HW1 1760   0.270   5.067   6.759
  287SOL    HW2 1761   0.300   4.995   6.616
  288SOL     OW 1762   3.728   1.591   0.521
  288SOL    HW1 1763   3.791   1.604   0.444
  288SOL    HW2 1764   3.781   1.575   0.605
  289SOL     OW 1765   0.444   5.184   4.766
  289SOL    HW1 1766   0.393   5.159   4.683
  289SOL    HW2 1767   0.396   5.150   4.846
  290SOL     OW 1768   5.126   1.779   3.366
  290SOL    HW1 1769   5.210   1.833   3.356
  290SOL    HW2 1770   5.071   1.817   3.441
  291SOL     OW 1771   3.709   1.179   4.216
  291SOL    HW1 1772   3.762   1.238   4.155
  291SOL    HW2 1773   3.696   1.090   4.173
  292SOL     OW 1774   4.407   1.853   3.781
  292SOL    HW1 1775   4.459   1.926   3.738
  292SOL    HW2 1776   4.312   1.858   3.751
  293SOL     OW 1777   3.957   6.105   1.546
  293SOL    HW1 1778   3.928   6.142   1.634
  293SOL    HW2 1779   3.890   6.039   1.513
  294SOL     OW 1780   6.476   5.734   6.984
  294SOL    HW1 1781   6.469   5.809   0.028
  294SOL    HW2 1782   6.390   5.683   6.981
  295SOL     OW 1783   3.087   1.578   5.269
  295SOL    HW1 1784   3.089   1.670   5.230
  295SOL    HW2 1785   2.996   1.538   5.258
  296SOL     OW 1786   6.127   2.667   1.734
  296SOL    HW1 1787   6.168   2.754   1.762
  296SOL    HW2 1788   6.080   2.626   1.812
  297SOL     OW 1789   3.025   4.910   2.735
  297SOL    HW1 1790   2.926   4.918   2.742
  297SOL    HW2 1791   3.068   4.949   2.816
  298SOL     OW 1792   4.086   0.033   6.991
  298SOL    HW1 1793   4.058   0.078   6.906
  298SOL    HW2 1794   4.179   0.061   7.014
  299SOL     OW 1795   4.651   2.203   6.416
  299SOL    HW1 1796   4.557   2.168   6.414
  299SOL    HW2 1797   4.663   2.272   6.345
  300SOL     OW 1798   4.714   1.110   2.135
  300SOL    HW1 1799   4.794   1.074   2.182
  300SOL    HW2 1800   4.677   1.040   2.073
  301SOL     OW 1801   4.845   1.506   0.623
  301SOL    HW1 1802   4.898   1.556   0.554
  301SOL    HW2 1803   4.750   1.535   0.619
  302SOL     OW 1804   6.910   0.325   2.635
  302SOL    HW1 1805   7.008   0.344   2.635
  302SOL    HW2 1806   6.887   0.269   2.715
  303SOL     OW 1807   6.469   6.114   2.253
  303SOL    HW1 1808   6.467   6.210   2.281
  303SOL    HW2 1809   6.518   6.105   2.166
  304SOL     OW 1810   2.116   6.056   5.921
  304SOL    HW1 1811   2.167   6.118   5.862
  304SOL    HW2 1812   2.168   5.971   5.932
  305SOL     OW 1813   1.213   2.964   0.564
  305SOL    HW1 1814   1.277   3.032   0.531
  305SOL    HW2 1815   1.119   2.993   0.541
  306SOL     OW 1816   0.799   0.868   2.783
  306SOL    HW1 1817   0.892   0.847   2.813
  306SOL    HW2 1818   0.751   0.783   2.764
  307SOL     OW 1819   4.711   4.367   0.703
  307SOL    HW1 1820   4.803   4.368   0.664
  307SOL    HW2 1821   4.679   4.462   0.713
  308SOL     OW 1822   5.858   3.827   4.445
  308SOL    HW1 1823   5.850   3.809   4.346
  308SOL    HW2 1824   5.769   3.856   4.481
  309SOL     OW 1825   1.306   5.863   0.533
  309SOL    HW1 1826   1.325   5.804   0.612
  309SOL    HW2 1827   1.250   5.813   0.467
  310SOL     OW 1828   5.157   5.790   4.361
  310SOL    HW1 1829   5.061   5.819   4.359
  310SOL    HW2 1830   5.189   5.788   4.456
  311SOL     OW 1831   3.160   5.016   2.944
  311SOL    HW1 1832   3.162   5.116   2.942
  311SOL    HW2 1833   3.157   4.984   3.038
  312SOL     OW 1834   3.748   1.563   4.101
  312SOL    HW1 1835   3.844   1.576   4.125
  312SOL    HW2 1836   3.726   1.620   4.022
  313SOL     OW 1837   3.246   3.814   2.462
  313SOL    HW1 1838   3.288   3.892   2.415
  313SOL    HW2 1839   3.149   3.835   2.478
  314SOL     OW 1840   2.675   4.645   6.199
  314SOL    HW1 1841   2.735   4.572   6.165
  314SOL    HW2 1842   2.690   4.657   6.297
  315SOL     OW 1843   0.871   2.944   4.286
  315SOL    HW1 1844   0.947   2.984   4.235
  315SOL    HW2 1845   0.815   3.018   4.325
  316SOL     OW 1846   3.406   0.571   4.507
  316SOL    HW1 1847   3.314   0.592   4.475
  316SOL    HW2 1848   3.453   0.655   4.533
  317SOL     OW 1849   6.775   1.730   1.029
  317SOL    HW1 1850   6.732   1.779   0.954
  317SOL    HW2 1851   6.767   1.631   1.013
  318SOL     OW 1852   0.271   6.282   6.957
  318SOL    HW1 1853   0.236   6.199   6.999
  318SOL    HW2 1854   0.332   6.258   6.881
  319SOL     OW 1855   6.528   1.280   3.754
  319SOL    HW1 1856   6.471   1.207   3.717
  319SOL    HW2 1857   6.470   1.357   3.782
  320SOL     OW 1858   5.400   2.676   0.036
  320SOL    HW1 1859   5.373   2.603   6.995
  320SOL    HW2 1860   5.405   2.641   0.130
  321SOL     OW 1861   3.684   1.856   6.857
  321SOL    HW1 1862   3.737   1.834   6.774
  321SOL    HW2 1863   3.662   1.953   6.857
  322SOL     OW 1864   3.046   3.251   4.036
  322SOL    HW1 1865   3.027   3.235   4.133
  322SOL    HW2 1866   2.985   3.323   4.002
  323SOL     OW 1867   1.007   2.725   6.298
  323SOL    HW1 1868   1.046   2.773   6.219
  323SOL    HW2 1869   0.975   2.635   6.270
  324SOL     OW 1870   2.994   0.439   3.089
  324SOL    HW1 1871   3.025   0.346   3.071
  324SOL    HW2 1872   2.897   0.437   3.116
  325SOL     OW 1873   0.593   2.794   1.995
  325SOL    HW1 1874   0.591   2.889   2.028
  325SOL    HW2 1875   0.562   2.733   2.068
  326SOL     OW 1876   1.327   3.993   6.176
  326SOL    HW1 1877   1.250   4.023   6.232
  326SOL    HW2 1878   1.305   4.005   6.079
  327SOL     OW 1879   1.649   4.603   2.354
  327SOL    HW1 1880   1.747   4.620   2.368
  327SOL    HW2 1881   1.597   4.684   2.383
  328SOL     OW 1882   1.724   5.703   1.731
  328SOL    HW1 1883   1.695   5.744   1.818
  328SOL    HW2 1884   1.644   5.671   1.681
  329SOL     OW 1885   2.913   3.563   5.219
  329SOL    HW1 1886   2.887   3.651   5.180
  329SOL    HW2 1887   2.980   3.519   5.159
  330SOL     OW 1888   3.277   6.272   1.516
  330SOL    HW1 1889   3.366   6.241   1.482
  330SOL    HW2 1890   3.287   6.362   1.557
  331SOL     OW 1891   4.336   5.769   0.772
  331SOL    HW1 1892   4.417   5.713   0.794
  331SOL    HW2 1893   4.340   5.795   0.675
  332SOL     OW 1894   5.364   2.505   5.593
  332SOL    HW1 1895   5.369   2.589   5.539
  332SOL    HW2 1896   5.452   2.488   5.637
  333SOL     OW 1897   4.436   0.939   5.494
  333SOL    HW1 1898   4.494   0.940   5.575
  333SOL    HW2 1899   4.476   0.999   5.424
  334SOL     OW 1900   3.514   1.528   0.135
  334SOL    HW1 1901   3.544   1.502   0.227
  334SOL    HW2 1902   3.432   1.475   0.111
  335SOL     OW 1903   4.487   6.616   6.286
  335SOL    HW1 1904   4.505   6.705   6.329
  335SOL    HW2 1905   4.522   6.543   6.345
  336SOL     OW 1906   2.816   1.212   3.401
  336SOL    HW1 1907   2.736   1.211   3.341
  336SOL    HW2 1908   2.867   1.126   3.391
  337SOL     OW 1909   0.241   3.149   6.042
  337SOL    HW1 1910   0.178   3.226   6.025
  337SOL    HW2 1911   0.292   3.166   6.126
  338SOL     OW 1912   2.947   2.178   1.428
  338SOL    HW1 1913   2.961   2.174   1.527
  338SOL    HW2 1914   2.971   2.269   1.394
  339SOL     OW 1915   4.515   5.758   5.025
  339SOL    HW1 1916   4.535   5.685   4.960
  339SOL    HW2 1917   4.417   5.757   5.047
  340SOL     OW 1918   5.533   3.819   5.223
  340SOL    HW1 1919   5.562   3.744   5.163
  340SOL    HW2 1920   5.435   3.809   5.243
  341SOL     OW 1921   6.174   6.770   4.366
  341SOL    HW1 1922   6.086   6.817   4.358
  341SOL    HW2 1923   6.170   6.683   4.317
  342SOL     OW 1924   5.536   3.842   0.417
  342SOL    HW1 1925   5.477   3.884   0.347
  342SOL    HW2 1926   5.581   3.914   0.470
  343SOL     OW 1927   0.969   6.167   1.269
  343SOL    HW1 1928   1.062   6.132   1.257
  343SOL    HW2 1929   0.963   6.214   1.357
  344SOL     OW 1930   0.991   3.332   1.554
  344SOL    HW1 1931   1.004   3.423   1.516
  344SOL    HW2 1932   1.067   3.310   1.614
  345SOL     OW 1933   5.568   2.226   3.493
  345SOL    HW1 1934   5.599   2.140   3.535
  345SOL    HW2 1935   5.533   2.286   3.565
  346SOL     OW 1936   1.634   1.004   2.720
  346SOL    HW1 1937   1.723   1.048   2.706
  346SOL    HW2 1938   1.596   1.033   2.808
  347SOL     OW 1939   2.917   5.420   6.959
  347SOL    HW1 1940   2.882   5.327   6.971
  347SOL    HW2 1941   2.940   5.459   0.026
  348SOL     OW 1942   4.953   4.091   2.458
  348SOL    HW1 1943   5.023   4.082   2.529
  348SOL    HW2 1944   4.908   4.002   2.444
  349SOL     OW 1945   7.016   4.900   0.904
  349SOL    HW1 1946   0.054   4.828   0.939
  349SOL    HW2 1947   0.042   4.988   0.910
  350SOL     OW 1948   2.809   2.063   0.983
  350SOL    HW1 1949   2.770   2.044   0.893
  350SOL    HW2 1950   2.901   2.101   0.973
  351SOL     OW 1951   2.894   3.771   0.901
  351SOL    HW1 1952   2.952   3.692   0.921
  351SOL    HW2 1953   2.842   3.796   0.983
  352SOL     OW 1954   3.132   0.052   3.883
  352SOL    HW1 1955   3.213   7.018   3.903
  352SOL    HW2 1956   3.116   0.054   3.784
  353SOL     OW 1957   3.031   0.014   0.006
  353SOL    HW1 1958   3.052   6.965   0.073
  353SOL    HW2 1959   2.947   7.011   6.979
  354SOL     OW 1960   4.180   3.049   1.157
  354SOL    HW1 1961   4.263   2.995   1.146
  354SOL    HW2 1962   4.150   3.046   1.253
  355SOL     OW 1963   1.514   3.989   2.819
  355SOL    HW1 1964   1.494   3.958   2.912
  355SOL    HW2 1965   1.582   3.928   2.777
  356SOL     OW 1966   2.007   7.019   5.763
  356SOL    HW1 1967   2.013   0.054   5.681
  356SOL    HW2 1968   2.062   6.936   5.751
  357SOL     OW 1969   0.013   6.355   5.552
  357SOL    HW1 1970   0.092   6.414   5.538
  357SOL    HW2 1971   0.037   6.279   5.612
  358SOL     OW 1972   4.744   6.642   0.483
  358SOL    HW1 1973   4.650   6.676   0.490
  358SOL    HW2 1974   4.808   6.715   0.507
  359SOL     OW 1975   3.025   2.197   1.707
  359SOL    HW1 1976   3.021   2.143   1.791
  359SOL    HW2 1977   2.969   2.279   1.719
  360SOL     OW 1978   1.489   4.084   5.687
  360SOL    HW1 1979   1.412   4.029   5.719
  360SOL    HW2 1980   1.574   4.036   5.707
  361SOL     OW 1981   6.522   6.130   2.562
  361SOL    HW1 1982   6.615   6.166   2.564
  361SOL    HW2 1983   6.524   6.033   2.539
  362SOL     OW 1984   3.513   2.929   1.490
  362SOL    HW1 1985   3.535   2.831   1.494
  362SOL    HW2 1986   3.524   2.968   1.581
  363SOL     OW 1987   5.732   4.083   2.968
  363SOL    HW1 1988   5.664   4.015   2.940
  363SOL    HW2 1989   5.794   4.101   2.891
  364SOL     OW 1990   6.380   4.707   6.547
  364SOL    HW1 1991   6.478   4.690   6.537
  364SOL    HW2 1992   6.332   4.622   6.567
  365SOL     OW 1993   5.254   6.906   2.102
  365SOL    HW1 1994   5.253   6.955   2.189
  365SOL    HW2 1995   5.321   6.947   2.040
  366SOL     OW 1996   5.271   0.536   6.838
  366SOL    HW1 1997   5.345   0.502   6.898
  366SOL    HW2 1998   5.287   0.504   6.745
  367SOL     OW 1999   6.021   2.869   1.420
  367SOL    HW1 2000   6.104   2.905   1.378
  367SOL    HW2 2001   5.944   2.929   1.399
  368SOL     OW 2002   0.618   2.507   5.746
  368SOL    HW1 2003   0.617   2.576   5.673
  368SOL    HW2 2004   0.666   2.426   5.713
  369SOL     OW 2005   6.339   5.138   2.684
  369SOL    HW1 2006   6.250   5.128   2.638
  369SOL    HW2 2007   6.327   5.129   2.783
  370SOL     OW 2008   1.628   1.750   5.132
  370SOL    HW1 2009   1.584   1.840   5.128
  370SOL    HW2 2010   1.694   1.742   5.057
  371SOL     OW 2011   1.704   4.608   5.480
  371SOL    HW1 2012   1.785   4.659   5.508
  371SOL    HW2 2013   1.640   4.670   5.435
  372SOL     OW 2014   1.300   6.454   6.491
  372SOL    HW1 2015   1.246   6.461   6.408
  372SOL    HW2 2016   1.388   6.412   6.470
  373SOL     OW 2017   5.983   6.775   4.722
  373SOL    HW1 2018   6.057   6.733   4.670
  373SOL    HW2 2019   5.896   6.760   4.674
  374SOL     OW 2020   2.608   1.688   3.962
  374SOL    HW1 2021   2.622   1.780   3.927
  374SOL    HW2 2022   2.622   1.622   3.889
  375SOL     OW 2023   1.020   4.778   4.380
  375SOL    HW1 2024   0.962   4.760   4.300
  375SOL    HW2 2025   0.978   4.849   4.437
  376SOL     OW 2026   2.462   1.028   5.466
  376SOL    HW1 2027   2.466   1.013   5.368
  376SOL    HW2 2028   2.533   1.094   5.493
  377SOL     OW 2029   1.053   1.762   1.177
  377SOL    HW1 2030   1.103   1.682   1.142
  377SOL    HW2 2031   0.992   1.734   1.250
  378SOL     OW 2032   4.841   2.520   6.401
  378SOL    HW1 2033   4.876   2.472   6.482
  378SOL    HW2 2034   4.745   2.545   6.416
  379SOL     OW 2035   5.873   2.666   1.605
  379SOL    HW1 2036   5.897   2.608   1.682
  379SOL    HW2 2037   5.935   2.744   1.602
  380SOL     OW 2038   3.014   1.151   0.590
  380SOL    HW1 2039   2.996   1.124   0.685
  380SOL    HW2 2040   3.085   1.091   0.552
  381SOL     OW 2041   1.262   4.128   2.741
  381SOL    HW1 2042   1.320   4.063   2.790
  381SOL    HW2 2043   1.320   4.199   2.700
  382SOL     OW 2044   5.810   0.466   6.965
  382SOL    HW1 2045   5.775   0.390   7.021
  382SOL    HW2 2046   5.910   0.464   6.966
  383SOL     OW 2047   4.001   4.230   6.550
  383SOL    HW1 2048   4.069   4.198   6.615
  383SOL    HW2 2049   3.947   4.304   6.591
  384SOL     OW 2050   6.837   5.398   3.742
  384SOL    HW1 2051   6.800   5.335   3.674
  384SOL    HW2 2052   6.932   5.417   3.721
  385SOL     OW 2053   3.055   4.644   5.335
  385SOL    HW1 2054   3.008   4.575   5.281
  385SOL    HW2 2055   3.129   4.601   5.387
  386SOL     OW 2056   2.667   6.982   4.881
  386SOL    HW1 2057   2.751   0.006   4.851
  386SOL    HW2 2058   2.666   6.888   4.848
  387SOL     OW 2059   1.573   6.536   2.107
  387SOL    HW1 2060   1.617   6.449   2.082
  387SOL    HW2 2061   1.486   6.544   2.059
  388SOL     OW 2062   1.391   1.940   5.376
  388SOL    HW1 2063   1.422   2.025   5.419
  388SOL    HW2 2064   1.404   1.945   5.278
  389SOL     OW 2065   3.701   3.392   1.534
  389SOL    HW1 2066   3.613   3.440   1.527
  389SOL    HW2 2067   3.765   3.447   1.588
  390SOL     OW 2068   3.017   1.780   1.922
  390SOL    HW1 2069   3.104   1.804   1.879
  390SOL    HW2 2070   2.966   1.863   1.943
  391SOL     OW 2071   1.794   2.774   0.046
  391SOL    HW1 2072   1.843   2.717   7.001
  391SOL    HW2 2073   1.704   2.798   0.009
  392SOL     OW 2074   1.814   4.228   0.838
  392SOL    HW1 2075   1.827   4.262   0.931
  392SOL    HW2 2076   1.877   4.151   0.823
  393SOL     OW 2077   1.807   4.644   6.802
  393SOL    HW1 2078   1.708   4.633   6.787
  393SOL    HW2 2079   1.857   4.587   6.737
  394SOL     OW 2080   6.707   1.798   0.036
  394SOL    HW1 2081   6.672   1.722   0.092
  394SOL    HW2 2082   6.740   1.870   0.097
  395SOL     OW 2083   4.980   3.897   2.931
  395SOL    HW1 2084   5.050   3.834   2.965
  395SOL    HW2 2085   5.006   3.930   2.840
  396SOL     OW 2086   3.194   3.989   1.688
  396SOL    HW1 2087   3.223   4.031   1.603
  396SOL    HW2 2088   3.097   4.005   1.703
  397SOL     OW 2089   6.078   1.538   5.232
  397SOL    HW1 2090   6.036   1.501   5.315
  397SOL    HW2 2091   6.104   1.462   5.172
  398SOL     OW 2092   1.195   6.896   1.976
  398SOL    HW1 2093   1.275   6.954   1.990
  398SOL    HW2 2094   1.129   6.914   2.049
  399SOL     OW 2095   6.271   5.890   2.282
  399SOL    HW1 2096   6.185   5.885   2.231
  399SOL    HW2 2097   6.279   5.980   2.325
  400SOL     OW 2098   6.052   6.282   5.666
  400SOL    HW1 2099   6.057   6.354   5.596
  400SOL    HW2 2100   5.981   6.216   5.640
  401SOL     OW 2101   5.806   0.503   6.183
  401SOL    HW1 2102   5.844   0.423   6.228
  401SOL    HW2 2103   5.789   0.575   6.250
  402SOL     OW 2104   5.781   7.017   3.481
  402SOL    HW1 2105   5.815   6.948   3.545
  402SOL    HW2 2106   5.846   0.006   3.405
  403SOL     OW 2107   3.419   2.162   4.139
  403SOL    HW1 2108   3.366   2.078   4.126
  403SOL    HW2 2109   3.393   2.204   4.226
  404SOL     OW 2110   1.410   5.013   3.998
  404SOL    HW1 2111   1.367   5.100   4.020
  404SOL    HW2 2112   1.364   4.939   4.046
  405SOL     OW 2113   1.549   3.462   2.078
  405SOL    HW1 2114   1.598   3.530   2.133
  405SOL    HW2 2115   1.464   3.502   2.043
  406SOL     OW 2116   1.108   3.974   4.765
  406SOL    HW1 2117   1.146   3.952   4.675
  406SOL    HW2 2118   1.086   3.889   4.813
  407SOL     OW 2119   1.526   1.108   4.520
  407SOL    HW1 2120   1.563   1.017   4.505
  407SOL    HW2 2121   1.579   1.155   4.591
  408SOL     OW 2122   1.297   2.694   3.111
  408SOL    HW1 2123   1.277   2.627   3.182
  408SOL    HW2 2124   1.267   2.784   3.141
  409SOL     OW 2125   0.045   2.985   2.097
  409SOL    HW1 2126   0.009   3.072   2.062
  409SOL    HW2 2127   6.993   2.936   2.143
  410SOL     OW 2128   1.965   1.515   0.992
  410SOL    HW1 2129   1.975   1.606   1.033
  410SOL    HW2 2130   1.986   1.445   1.061
  411SOL     OW 2131   5.936   6.932   1.819
  411SOL    HW1 2132   5.891   7.008   1.773
  411SOL    HW2 2133   5.925   6.849   1.764
  412SOL     OW 2134   3.743   5.681   3.784
  412SOL    HW1 2135   3.747   5.643   3.692
  412SOL    HW2 2136   3.821   5.742   3.798
  413SOL     OW 2137   5.082   3.543   1.378
  413SOL    HW1 2138   5.018   3.564   1.452
  413SOL    HW2 2139   5.081   3.617   1.311
  414SOL     OW 2140   3.467   5.338   3.770
  414SOL    HW1 2141   3.514   5.375   3.691
  414SOL    HW2 2142   3.534   5.311   3.839
  415SOL     OW 2143   1.139   5.833   0.051
  415SOL    HW1 2144   1.177   5.917   0.014
  415SOL    HW2 2145   1.072   5.795   7.008
  416SOL     OW 2146   4.730   6.613   4.366
  416SOL    HW1 2147   4.826   6.612   4.395
  416SOL    HW2 2148   4.714   6.694   4.309
  417SOL     OW 2149   2.416   5.861   6.405
  417SOL    HW1 2150   2.318   5.847   6.417
  417SOL    HW2 2151   2.465   5.829   6.487
  418SOL     OW 2152   4.062   6.588   6.901
  418SOL    HW1 2153   4.096   6.585   6.807
  418SOL    HW2 2154   3.996   6.515   6.915
  419SOL     OW 2155   2.279   6.901   1.588
  419SOL    HW1 2156   2.312   6.990   1.559
  419SOL    HW2 2157   2.189   6.910   1.630
  420SOL     OW 2158   5.863   1.073   0.106
  420SOL    HW1 2159   5.892   1.005   0.039
  420SOL    HW2 2160   5.765   1.089   0.098
  421SOL     OW 2161   0.113   4.151   5.393
  421SOL    HW1 2162   0.048   4.104   5.333
  421SOL    HW2 2163   0.206   4.140   5.357
  422SOL     OW 2164   5.627   3.583   1.372
  422SOL    HW1 2165   5.579   3.499   1.346
  422SOL    HW2 2166   5.605   3.655   1.307
  423SOL     OW 2167   0.753   1.813   6.128
  423SOL    HW1 2168   0.653   1.818   6.131
  423SOL    HW2 2169   0.783   1.812   6.033
  424SOL     OW 2170   1.770   5.448   0.929
  424SOL    HW1 2171   1.703   5.514   0.895
  424SOL    HW2 2172   1.860   5.491   0.934
  425SOL     OW 2173   5.030   1.522   3.417
  425SOL    HW1 2174   5.111   1.509   3.475
  425SOL    HW2 2175   5.024   1.617   3.389
  426SOL     OW 2176   3.240   2.132   4.496
  426SOL    HW1 2177   3.244   2.164   4.591
  426SOL    HW2 2178   3.161   2.172   4.451
  427SOL     OW 2179   5.730   6.347   3.728
  427SOL    HW1 2180   5.715   6.445   3.741
  427SOL    HW2 2181   5.682   6.296   3.799
  428SOL     OW 2182   4.148   0.608   3.930
  428SOL    HW1 2183   4.220   0.676   3.945
  428SOL    HW2 2184   4.189   0.517   3.924
  429SOL     OW 2185   1.102   4.755   1.479
  429SOL    HW1 2186   1.030   4.693   1.510
  429SOL    HW2 2187   1.189   4.728   1.519
  430SOL     OW 2188   0.912   0.253   4.449
  430SOL    HW1 2189   0.945   0.336   4.405
  430SOL    HW2 2190   0.842   0.210   4.391
  431SOL     OW 2191   2.592   0.318   0.674
  431SOL    HW1 2192   2.538   0.235   0.657
  431SOL    HW2 2193   2.686   0.292   0.696
  432SOL     OW 2194   6.226   1.585   0.766
  432SOL    HW1 2195   6.253   1.679   0.787
  432SOL    HW2 2196   6.139   1.586   0.716
  433SOL     OW 2197   1.793   6.601   4.895
  433SOL    HW1 2198   1.731   6.662   4.945
  433SOL    HW2 2199   1.863   6.566   4.956
  434SOL     OW 2200   3.527   5.168   3.165
  434SOL    HW1 2201   3.427   5.163   3.166
  434SOL    HW2 2202   3.556   5.253   3.120
  435SOL     OW 2203   4.829   2.853   6.471
  435SOL    HW1 2204   4.866   2.833   6.380
  435SOL    HW2 2205   4.828   2.769   6.526
  436SOL     OW 2206   3.474   5.896   2.065
  436SOL    HW1 2207   3.472   5.869   1.969
  436SOL    HW2 2208   3.502   5.992   2.072
  437SOL     OW 2209   0.617   1.396   0.156
  437SOL    HW1 2210   0.680   1.347   0.216
  437SOL    HW2 2211   0.571   1.332   0.095
  438SOL     OW 2212   2.132   4.045   3.388
  438SOL    HW1 2213   2.084   4.088   3.465
  438SOL    HW2 2214   2.217   4.096   3.369
  439SOL     OW 2215   6.046   5.132   2.643
  439SOL    HW1 2216   6.048   5.225   2.607
  439SOL    HW2 2217   5.976   5.079   2.593
  440SOL     OW 2218   2.323   1.543   4.699
  440SOL    HW1 2219   2.416   1.546   4.736
  440SOL    HW2 2220   2.318   1.600   4.617
  441SOL     OW 2221   0.531   3.045   4.183
  441SOL    HW1 2222   0.549   3.080   4.092
  441SOL    HW2 2223   0.483   2.957   4.177
  442SOL     OW 2224   4.377   5.630   5.294
  442SOL    HW1 2225   4.388   5.716   5.343
  442SOL    HW2 2226   4.315   5.643   5.216
  443SOL     OW 2227   5.928   4.767   3.548
  443SOL    HW1 2228   5.934   4.692   3.613
  443SOL    HW2 2229   5.922   4.731   3.455
  444SOL     OW 2230   4.642   0.737   7.012
  444SOL    HW1 2231   4.734   0.698   7.002
  444SOL    HW2 2232   4.584   0.704   6.938
  445SOL     OW 2233   0.577   5.739   2.780
  445SOL    HW1 2234   0.511   5.728   2.706
  445SOL    HW2 2235   0.545   5.690   2.861
  446SOL     OW 2236   3.285   4.955   3.652
  446SOL    HW1 2237   3.246   5.045   3.628
  446SOL    HW2 2238   3.221   4.907   3.712
  447SOL     OW 2239   0.418   2.675   6.461
  447SOL    HW1 2240   0.323   2.692   6.435
  447SOL    HW2 2241   0.454   2.600   6.406
  448SOL     OW 2242   1.963   0.525   3.553
  448SOL    HW1 2243   2.031   0.507   3.625
  448SOL    HW2 2244   1.925   0.439   3.520
  449SOL     OW 2245   2.659   0.972   3.759
  449SOL    HW1 2246   2.729   0.919   3.806
  449SOL    HW2 2247   2.674   0.969   3.661
  450SOL     OW 2248   1.371   4.969   2.819
  450SOL    HW1 2249   1.338   4.958   2.725
  450SOL    HW2 2250   1.354   5.063   2.848
  451SOL     OW 2251   1.023   2.553   4.173
  451SOL    HW1 2252   1.039   2.559   4.075
  451SOL    HW2 2253   1.070   2.628   4.219
  452SOL     OW 2254   5.329   6.394   0.289
  452SOL    HW1 2255   5.307   6.445   0.206
  452SOL    HW2 2256   5.428   6.389   0.299
  453SOL     OW 2257   4.375   0.561   6.364
  453SOL    HW1 2258   4.284   0.528   6.387
  453SOL    HW2 2259   4.404   0.522   6.277
  454SOL     OW 2260   6.830   4.331   5.950
  454SOL    HW1 2261   6.910   4.289   5.905
  454SOL    HW2 2262   6.811   4.419   5.907
  455SOL     OW 2263   5.795   2.307   4.325
  455SOL    HW1 2264   5.813   2.227   4.267
  455SOL    HW2 2265   5.782   2.388   4.268
  456SOL     OW 2266   0.085   6.693   3.723
  456SOL    HW1 2267   0.125   6.613   3.767
  456SOL    HW2 2268   0.156   6.763   3.710
  457SOL     OW 2269   1.870   2.608   4.255
  457SOL    HW1 2270   1.830   2.563   4.176
  457SOL    HW2 2271   1.799   2.660   4.303
  458SOL     OW 2272   4.032   5.692   2.971
  458SOL    HW1 2273   3.990   5.723   3.056
  458SOL    HW2 2274   3.971   5.713   2.894
  459SOL     OW 2275   1.734   6.861   5.797
  459SOL    HW1 2276   1.770   6.902   5.880
  459SOL    HW2 2277   1.738   6.928   5.722
  460SOL     OW 2278   2.687   6.697   4.803
  460SOL    HW1 2279   2.785   6.704   4.785
  460SOL    HW2 2280   2.646   6.632   4.739
  461SOL     OW 2281   6.815   5.879   5.797
  461SOL    HW1 2282   6.815   5.971   5.757
  461SOL    HW2 2283   6.872   5.879   5.880
  462SOL     OW 2284   4.020   3.464   0.164
  462SOL    HW1 2285   3.972   3.382   0.133
  462SOL    HW2 2286   4.062   3.446   0.253
  463SOL     OW 2287   5.477   5.985   3.595
  463SOL    HW1 2288   5.559   5.983   3.538
  463SOL    HW2 2289   5.414   5.913   3.566
  464SOL     OW 2290   3.045   1.054   5.732
  464SOL    HW1 2291   3.091   1.123   5.788
  464SOL    HW2 2292   3.062   1.073   5.635
  465SOL     OW 2293   0.540   2.715   0.573
  465SOL    HW1 2294   0.488   2.705   0.658
  465SOL    HW2 2295   0.533   2.810   0.542
  466SOL     OW 2296   1.949   6.396   3.710
  466SOL    HW1 2297   1.867   6.434   3.752
  466SOL    HW2 2298   2.030   6.431   3.758
  467SOL     OW 2299   1.916   1.207   0.845
  467SOL    HW1 2300   1.898   1.270   0.769
  467SOL    HW2 2301   2.007   1.224   0.881
  468SOL     OW 2302   4.027   6.313   5.594
  468SOL    HW1 2303   4.064   6.240   5.651
  468SOL    HW2 2304   4.030   6.399   5.643
  469SOL     OW 2305   3.113   3.421   6.726
  469SOL    HW1 2306   3.174   3.474   6.667
  469SOL    HW2 2307   3.026   3.469   6.738
  470SOL     OW 2308   4.731   6.729   1.301
  470SOL    HW1 2309   4.703   6.641   1.264
  470SOL    HW2 2310   4.830   6.730   1.314
  471SOL     OW 2311   2.434   2.598   3.856
  471SOL    HW1 2312   2.518   2.622   3.806
  471SOL    HW2 2313   2.457   2.580   3.952
  472SOL     OW 2314   4.151   3.832   6.593
  472SOL    HW1 2315   4.153   3.898   6.668
  472SOL    HW2 2316   4.185   3.876   6.510
  473SOL     OW 2317   1.321   2.229   2.498
  473SOL    HW1 2318   1.337   2.233   2.399
  473SOL    HW2 2319   1.253   2.159   2.517
  474SOL     OW 2320   5.271   5.558   4.982
  474SOL    HW1 2321   5.312   5.639   4.938
  474SOL    HW2 2322   5.193   5.527   4.929
  475SOL     OW 2323   6.089   1.843   6.606
  475SOL    HW1 2324   6.030   1.769   6.638
  475SOL    HW2 2325   6.184   1.814   6.609
  476SOL     OW 2326   0.530   3.407   2.902
  476SOL    HW1 2327   0.533   3.355   2.817
  476SOL    HW2 2328   0.539   3.344   2.979
  477SOL     OW 2329   2.878   6.336   3.249
  477SOL    HW1 2330   2.947   6.397   3.289
  477SOL    HW2 2331   2.864   6.258   3.310
  478SOL     OW 2332   3.738   6.696   2.734
  478SOL    HW1 2333   3.740   6.641   2.651
  478SOL    HW2 2334   3.805   6.660   2.799
  479SOL     OW 2335   3.834   2.490   6.013
  479SOL    HW1 2336   3.820   2.407   6.068
  479SOL    HW2 2337   3.871   2.562   6.071
  480SOL     OW 2338   2.641   0.840   0.259
  480SOL    HW1 2339   2.548   0.873   0.275
  480SOL    HW2 2340   2.641   0.771   0.186
  481SOL     OW 2341   2.168   6.493   1.733
  481SOL    HW1 2342   2.262   6.479   1.766
  481SOL    HW2 2343   2.167   6.497   1.633
  482SOL     OW 2344   4.124   4.826   2.239
  482SOL    HW1 2345   4.149   4.799   2.145
  482SOL    HW2 2346   4.208   4.843   2.291
  483SOL     OW 2347   6.728   2.317   3.069
  483SOL    HW1 2348   6.807   2.254   3.070
  483SOL    HW2 2349   6.644   2.264   3.075
  484SOL     OW 2350   1.764   3.206   5.381
  484SOL    HW1 2351   1.826   3.266   5.431
  484SOL    HW2 2352   1.796   3.194   5.287
  485SOL     OW 2353   3.958   4.867   2.654
  485SOL    HW1 2354   3.938   4.958   2.690
  485SOL    HW2 2355   3.930   4.863   2.558
  486SOL     OW 2356   6.236   1.004   0.371
  486SOL    HW1 2357   6.282   0.923   0.335
  486SOL    HW2 2358   6.294   1.048   0.439
  487SOL     OW 2359   1.061   0.719   3.090
  487SOL    HW1 2360   1.067   0.619   3.095
  487SOL    HW2 2361   1.052   0.747   2.995
  488SOL     OW 2362   1.139   1.290   2.091
  488SOL    HW1 2363   1.181   1.201   2.108
  488SOL    HW2 2364   1.079   1.284   2.011
  489SOL     OW 2365   4.446   5.818   5.526
  489SOL    HW1 2366   4.541   5.841   5.548
  489SOL    HW2 2367   4.418   5.738   5.580
  490SOL     OW 2368   0.797   6.134   2.950
  490SOL    HW1 2369   0.883   6.186   2.945
  490SOL    HW2 2370   0.721   6.194   2.925
  491SOL     OW 2371   1.584   3.792   1.832
  491SOL    HW1 2372   1.627   3.719   1.780
  491SOL    HW2 2373   1.651   3.865   1.849
  492SOL     OW 2374   1.361   0.707   5.454
  492SOL    HW1 2375   1.452   0.748   5.464
  492SOL    HW2 2376   1.366   0.629   5.392
  493SOL     OW 2377   4.048   6.586   5.672
  493SOL    HW1 2378   4.087   6.561   5.761
  493SOL    HW2 2379   4.032   6.685   5.670
  494SOL     OW 2380   1.017   6.546   0.087
  494SOL    HW1 2381   1.062   6.599   0.158
  494SOL    HW2 2382   1.016   6.598   0.002
  495SOL     OW 2383   4.363   5.753   3.677
  495SOL    HW1 2384   4.306   5.737   3.597
  495SOL    HW2 2385   4.436   5.818   3.653
  496SOL     OW 2386   5.124   3.054   1.942
  496SOL    HW1 2387   5.149   3.042   2.038
  496SOL    HW2 2388   5.155   2.974   1.890
  497SOL     OW 2389   2.929   2.038   4.761
  497SOL    HW1 2390   2.885   1.951   4.738
  497SOL    HW2 2391   2.921   2.055   4.859
  498SOL     OW 2392   0.631   4.391   1.629
  498SOL    HW1 2393   0.680   4.385   1.716
  498SOL    HW2 2394   0.626   4.486   1.599
  499SOL     OW 2395   1.472   5.383   4.049
  499SOL    HW1 2396   1.566   5.364   4.021
  499SOL    HW2 2397   1.412   5.382   3.968
  500SOL     OW 2398   0.031   1.688   5.862
  500SOL    HW1 2399   0.019   1.762   5.929
  500SOL    HW2 2400   6.984   1.617   5.879
  501SOL     OW 2401   3.507   0.358   0.900
  501SOL    HW1 2402   3.501   0.340   0.802
  501SOL    HW2 2403   3.487   0.274   0.951
  502SOL     OW 2404   1.104   3.573   6.142
  502SOL    HW1 2405   1.108   3.546   6.238
  502SOL    HW2 2406   1.053   3.659   6.134
  503SOL     OW 2407   6.921   4.865   6.743
  503SOL    HW1 2408   6.917   4.926   6.822
  503SOL    HW2 2409   6.947   4.917   6.662
  504SOL     OW 2410   0.844   4.994   2.088
  504SOL    HW1 2411   0.864   5.048   2.169
  504SOL    HW2 2412   0.829   4.898   2.114
  505SOL     OW 2413   2.787   5.793   4.721
  505SOL    HW1 2414   2.853   5.848   4.669
  505SOL    HW2 2415   2.697   5.835   4.716
  506SOL     OW 2416   3.259   4.972   4.017
  506SOL    HW1 2417   3.209   4.914   3.952
  506SOL    HW2 2418   3.272   5.063   3.979
  507SOL     OW 2419   3.059   0.307   3.537
  507SOL    HW1 2420   3.120   0.274   3.465
  507SOL    HW2 2421   2.964   0.302   3.506
  508SOL     OW 2422   0.090   3.530   2.810
  508SOL    HW1 2423   0.185   3.561   2.807
  508SOL    HW2 2424   0.088   3.430   2.803
  509SOL     OW 2425   2.985   1.085   1.413
  509SOL    HW1 2426   2.913   1.120   1.472
  509SOL    HW2 2427   3.074   1.107   1.452
  510SOL     OW 2428   6.138   4.303   6.780
  510SOL    HW1 2429   6.112   4.264   6.868
  510SOL    HW2 2430   6.113   4.240   6.707
  511SOL     OW 2431   0.692   2.268   6.004
  511SOL    HW1 2432   0.782   2.226   6.013
  511SOL    HW2 2433   0.700   2.367   6.008
  512SOL     OW 2434   0.129   2.669   6.726
  512SOL    HW1 2435   0.059   2.655   6.656
  512SOL    HW2 2436   0.208   2.612   6.706
  513SOL     OW 2437   6.089   6.422   3.363
  513SOL    HW1 2438   6.038   6.373   3.434
  513SOL    HW2 2439   6.025   6.465   3.300
  514SOL     OW 2440   6.523   0.943   4.588
  514SOL    HW1 2441   6.557   0.903   4.673
  514SOL    HW2 2442   6.425   0.925   4.580
  515SOL     OW 2443   1.234   6.379   1.141
  515SOL    HW1 2444   1.316   6.434   1.124
  515SOL    HW2 2445   1.156   6.439   1.157
  516SOL     OW 2446   2.833   4.758   2.299
  516SOL    HW1 2447   2.845   4.737   2.201
  516SOL    HW2 2448   2.920   4.788   2.337
  517SOL     OW 2449   4.099   5.259   1.585
  517SOL    HW1 2450   4.157   5.331   1.548
  517SOL    HW2 2451   4.018   5.301   1.628
  518SOL     OW 2452   2.231   1.701   3.713
  518SOL    HW1 2453   2.296   1.765   3.672
  518SOL    HW2 2454   2.165   1.671   3.645
  519SOL     OW 2455   0.635   6.367   4.078
  519SOL    HW1 2456   0.538   6.383   4.062
  519SOL    HW2 2457   0.649   6.335   4.172
  520SOL     OW 2458   5.995   3.896   6.716
  520SOL    HW1 2459   6.094   3.881   6.723
  520SOL    HW2 2460   5.956   3.834   6.649
  521SOL     OW 2461   6.272   6.116   4.906
  521SOL    HW1 2462   6.306   6.170   4.828
  521SOL    HW2 2463   6.173   6.127   4.913
  522SOL     OW 2464   3.219   3.269   4.572
  522SOL    HW1 2465   3.149   3.333   4.542
  522SOL    HW2 2466   3.177   3.183   4.600
  523SOL     OW 2467   0.916   5.692   1.792
  523SOL    HW1 2468   0.943   5.613   1.737
  523SOL    HW2 2469   0.915   5.773   1.734
  524SOL     OW 2470   0.374   1.954   2.307
  524SOL    HW1 2471   0.400   1.974   2.401
  524SOL    HW2 2472   0.363   1.855   2.295
  525SOL     OW 2473   2.168   3.909   5.735
  525SOL    HW1 2474   2.145   3.905   5.638
  525SOL    HW2 2475   2.235   3.981   5.752
  526SOL     OW 2476   3.466   5.627   4.183
  526SOL    HW1 2477   3.467   5.577   4.270
  526SOL    HW2 2478   3.554   5.617   4.137
  527SOL     OW 2479   6.070   2.841   0.744
  527SOL    HW1 2480   6.030   2.909   0.805
  527SOL    HW2 2481   6.147   2.881   0.695
  528SOL     OW 2482   1.286   2.754   3.707
  528SOL    HW1 2483   1.375   2.709   3.706
  528SOL    HW2 2484   1.218   2.696   3.663
  529SOL     OW 2485   1.586   5.876   4.636
  529SOL    HW1 2486   1.575   5.782   4.670
  529SOL    HW2 2487   1.556   5.881   4.541
  530SOL     OW 2488   3.550   3.638   4.066
  530SOL    HW1 2489   3.490   3.601   3.995
  530SOL    HW2 2490   3.578   3.565   4.128
  531SOL     OW 2491   0.459   2.027   2.855
  531SOL    HW1 2492   0.514   2.106   2.826
  531SOL    HW2 2493   0.467   2.016   2.955
  532SOL     OW 2494   0.775   3.215   0.080
  532SOL    HW1 2495   0.704   3.236   0.148
  532SOL    HW2 2496   0.836   3.294   0.069
  533SOL     OW 2497   3.961   6.625   4.026
  533SOL    HW1 2498   3.959   6.699   3.959
  533SOL    HW2 2499   3.883   6.564   4.011
  534SOL     OW 2500   5.279   6.572   2.359
  534SOL    HW1 2501   5.305   6.494   2.302
  534SOL    HW2 2502   5.352   6.640   2.358
  535SOL     OW 2503   6.925   3.429   4.449
  535SOL    HW1 2504   6.840   3.385   4.477
  535SOL    HW2 2505   6.955   3.391   4.361
  536SOL     OW 2506   6.235   4.571   2.467
  536SOL    HW1 2507   6.289   4.512   2.527
  536SOL    HW2 2508   6.168   4.622   2.522
  537SOL     OW 2509   2.355   6.428   4.816
  537SOL    HW1 2510   2.323   6.344   4.772
  537SOL    HW2 2511   2.276   6.485   4.839
  538SOL     OW 2512   1.161   5.130   4.425
  538SOL    HW1 2513   1.242   5.152   4.371
  538SOL    HW2 2514   1.186   5.064   4.497
  539SOL     OW 2515   1.958   5.574   1.307
  539SOL    HW1 2516   1.930   5.613   1.395
  539SOL    HW2 2517   2.047   5.529   1.317
  540SOL     OW 2518   1.682   1.514   2.827
  540SOL    HW1 2519   1.583   1.529   2.835
  540SOL    HW2 2520   1.731   1.587   2.875
  541SOL     OW 2521   4.908   5.456   3.833
  541SOL    HW1 2522   4.845   5.390   3.795
  541SOL    HW2 2523   4.987   5.409   3.873
  542SOL     OW 2524   5.595   5.847   6.896
  542SOL    HW1 2525   5.507   5.806   6.872
  542SOL    HW2 2526   5.669   5.784   6.872
  543SOL     OW 2527   0.724   3.151   4.382
  543SOL    HW1 2528   0.751   3.244   4.357
  543SOL    HW2 2529   0.657   3.117   4.315
  544SOL     OW 2530   2.086   4.885   0.348
  544SOL    HW1 2531   2.102   4.942   0.268
  544SOL    HW2 2532   2.042   4.940   0.420
  545SOL     OW 2533   3.265   1.530   1.737
  545SOL    HW1 2534   3.300   1.542   1.830
  545SOL    HW2 2535   3.339   1.501   1.676
  546SOL     OW 2536   2.185   2.856   0.671
  546SOL    HW1 2537   2.230   2.865   0.582
  546SOL    HW2 2538   2.203   2.764   0.707
  547SOL     OW 2539   3.249   1.125   0.432
  547SOL    HW1 2540   3.213   1.209   0.392
  547SOL    HW2 2541   3.254   1.054   0.362
  548SOL     OW 2542   3.518   3.523   2.100
  548SOL    HW1 2543   3.458   3.556   2.173
  548SOL    HW2 2544   3.613   3.539   2.125
  549SOL     OW 2545   5.551   3.209   1.044
  549SOL    HW1 2546   5.489   3.133   1.025
  549SOL    HW2 2547   5.520   3.259   1.125
  550SOL     OW 2548   0.719   5.666   4.026
  550SOL    HW1 2549   0.661   5.744   4.004
  550SOL    HW2 2550   0.672   5.581   3.999
  551SOL     OW 2551   1.428   0.378   2.059
  551SOL    HW1 2552   1.359   0.336   2.001
  551SOL    HW2 2553   1.415   0.477   2.062
  552SOL     OW 2554   6.144   4.580   6.848
  552SOL    HW1 2555   6.136   4.492   6.895
  552SOL    HW2 2556   6.086   4.581   6.768
  553SOL     OW 2557   3.169   6.157   2.935
  553SOL    HW1 2558   3.205   6.213   3.010
  553SOL    HW2 2559   3.093   6.100   2.969
  554SOL     OW 2560   5.900   6.811   6.704
  554SOL    HW1 2561   5.995   6.842   6.697
  554SOL    HW2 2562   5.873   6.769   6.618
  555SOL     OW 2563   2.075   4.564   4.716
  555SOL    HW1 2564   1.977   4.546   4.726
  555SOL    HW2 2565   2.119   4.484   4.676
  556SOL     OW 2566   3.852   2.134   3.867
  556SOL    HW1 2567   3.760   2.171   3.881
  556SOL    HW2 2568   3.915   2.180   3.930
  557SOL     OW 2569   0.440   5.370   0.764
  557SOL    HW1 2570   0.516   5.433   0.772
  557SOL    HW2 2571   0.357   5.413   0.800
  558SOL     OW 2572   2.899   3.477   3.952
  558SOL    HW1 2573   2.804   3.493   3.979
  558SOL    HW2 2574   2.915   3.515   3.861
  559SOL     OW 2575   6.830   6.034   0.327
  559SOL    HW1 2576   6.897   5.964   0.352
  559SOL    HW2 2577   6.788   6.010   0.240
  560SOL     OW 2578   5.301   4.324   6.005
  560SOL    HW1 2579   5.357   4.389   5.954
  560SOL    HW2 2580   5.351   4.238   6.016
  561SOL     OW 2581   0.902   1.566   1.308
  561SOL    HW1 2582   0.874   1.511   1.229
  561SOL    HW2 2583   0.905   1.508   1.389
  562SOL     OW 2584   4.883   0.711   6.034
  562SOL    HW1 2585   4.834   0.759   6.107
  562SOL    HW2 2586   4.916   0.777   5.967
  563SOL     OW 2587   2.520   0.317   3.636
  563SOL    HW1 2588   2.516   0.413   3.608
  563SOL    HW2 2589   2.427   0.279   3.638
  564SOL     OW 2590   1.456   1.963   6.891
  564SOL    HW1 2591   1.449   1.889   6.823
  564SOL    HW2 2592   1.368   2.010   6.897
  565SOL     OW 2593   2.757   2.674   5.504
  565SOL    HW1 2594   2.824   2.670   5.430
  565SOL    HW2 2595   2.672   2.713   5.470
  566SOL     OW 2596   6.687   4.921   3.410
  566SOL    HW1 2597   6.769   4.872   3.440
  566SOL    HW2 2598   6.687   4.928   3.310
  567SOL     OW 2599   2.712   2.792   1.268
  567SOL    HW1 2600   2.808   2.806   1.293
  567SOL    HW2 2601   2.707   2.737   1.184
  568SOL     OW 2602   5.029   0.568   0.161
  568SOL    HW1 2603   5.074   0.498   0.216
  568SOL    HW2 2604   5.007   0.647   0.218
  569SOL     OW 2605   1.471   3.364   6.513
  569SOL    HW1 2606   1.517   3.314   6.586
  569SOL    HW2 2607   1.377   3.386   6.540
  570SOL     OW 2608   3.404   6.433   6.497
  570SOL    HW1 2609   3.408   6.515   6.553
  570SOL    HW2 2610   3.441   6.356   6.548
  571SOL     OW 2611   3.239   0.108   2.033
  571SOL    HW1 2612   3.316   0.155   2.076
  571SOL    HW2 2613   3.229   0.017   2.073
  572SOL     OW 2614   2.368   4.747   5.442
  572SOL    HW1 2615   2.295   4.685   5.413
  572SOL    HW2 2616   2.457   4.708   5.417
  573SOL     OW 2617   5.438   1.446   5.618
  573SOL    HW1 2618   5.492   1.366   5.642
  573SOL    HW2 2619   5.472   1.485   5.532
  574SOL     OW 2620   3.713   1.889   4.115
  574SOL    HW1 2621   3.623   1.883   4.073
  574SOL    HW2 2622   3.780   1.844   4.056
  575SOL     OW 2623   5.084   4.243   6.697
  575SOL    HW1 2624   5.041   4.152   6.698
  575SOL    HW2 2625   5.180   4.234   6.724
  576SOL     OW 2626   0.830   2.292   2.749
  576SOL    HW1 2627   0.734   2.280   2.723
  576SOL    HW2 2628   0.876   2.351   2.683
  577SOL     OW 2629   1.371   1.205   2.678
  577SOL    HW1 2630   1.446   1.140   2.689
  577SOL    HW2 2631   1.380   1.251   2.589
  578SOL     OW 2632   5.921   6.288   3.541
  578SOL    HW1 2633   5.841   6.311   3.597
  578SOL    HW2 2634   5.893   6.224   3.469
  579SOL     OW 2635   1.713   3.064   2.949
  579SOL    HW1 2636   1.754   3.136   2.894
  579SOL    HW2 2637   1.738   2.975   2.912
  580SOL     OW 2638   5.724   5.533   0.645
  580SOL    HW1 2639   5.819   5.509   0.627
  580SOL    HW2 2640   5.715   5.565   0.739
  581SOL     OW 2641   2.364   3.170   1.301
  581SOL    HW1 2642   2.445   3.225   1.321
  581SOL    HW2 2643   2.379   3.077   1.333
  582SOL     OW 2644   4.352   6.867   1.560
  582SOL    HW1 2645   4.313   6.799   1.623
  582SOL    HW2 2646   4.373   6.823   1.473
  583SOL     OW 2647   2.945   5.628   5.574
  583SOL    HW1 2648   2.873   5.592   5.514
  583SOL    HW2 2649   2.910   5.636   5.667
  584SOL     OW 2650   2.781   4.386   6.350
  584SOL    HW1 2651   2.759   4.302   6.302
  584SOL    HW2 2652   2.880   4.402   6.346
  585SOL     OW 2653   5.404   2.852   6.235
  585SOL    HW1 2654   5.403   2.777   6.169
  585SOL    HW2 2655   5.428   2.937   6.187
  586SOL     OW 2656   3.750   1.279   6.045
  586SOL    HW1 2657   3.754   1.379   6.037
  586SOL    HW2 2658   3.656   1.251   6.066
  587SOL     OW 2659   4.322   1.914   5.231
  587SOL    HW1 2660   4.319   1.990   5.166
  587SOL    HW2 2661   4.261   1.841   5.201
  588SOL     OW 2662   1.486   4.163   1.977
  588SOL    HW1 2663   1.477   4.250   2.025
  588SOL    HW2 2664   1.559   4.170   1.909
  589SOL     OW 2665   3.127   4.704   1.396
  589SOL    HW1 2666   3.140   4.791   1.444
  589SOL    HW2 2667   3.070   4.719   1.315
  590SOL     OW 2668   5.026   2.900   3.773
  590SOL    HW1 2669   4.952   2.962   3.799
  590SOL    HW2 2670   4.999   2.848   3.692
  591SOL     OW 2671   3.279   5.257   3.984
  591SOL    HW1 2672   3.229   5.338   4.016
  591SOL    HW2 2673   3.333   5.281   3.903
  592SOL     OW 2674   3.480   0.920   1.098
  592SOL    HW1 2675   3.521   0.915   1.008
  592SOL    HW2 2676   3.493   1.012   1.136
  593SOL     OW 2677   4.635   2.618   3.594
  593SOL    HW1 2678   4.690   2.701   3.602
  593SOL    HW2 2679   4.615   2.600   3.498
  594SOL     OW 2680   6.390   2.175   6.960
  594SOL    HW1 2681   6.318   2.238   6.929
  594SOL    HW2 2682   6.349   2.102   7.014
  595SOL     OW 2683   5.957   6.905   3.273
  595SOL    HW1 2684   5.955   6.812   3.311
  595SOL    HW2 2685   6.045   6.920   3.229
  596SOL     OW 2686   1.052   4.634   3.359
  596SOL    HW1 2687   1.009   4.630   3.449
  596SOL    HW2 2688   1.136   4.688   3.365
  597SOL     OW 2689   3.349   0.779   0.038
  597SOL    HW1 2690   3.418   0.780   0.110
  597SOL    HW2 2691   3.355   0.694   7.008
  598SOL     OW 2692   4.408   4.978   5.391
  598SOL    HW1 2693   4.370   5.069   5.381
  598SOL    HW2 2694   4.369   4.935   5.473
  599SOL     OW 2695   2.249   6.046   2.235
  599SOL    HW1 2696   2.174   6.015   2.176
  599SOL    HW2 2697   2.309   6.106   2.182
  600SOL     OW 2698   0.241   1.298   6.989
  600SOL    HW1 2699   0.241   1.218   0.029
  600SOL    HW2 2700   0.161   1.295   6.930
  601SOL     OW 2701   2.698   0.436   4.227
  601SOL    HW1 2702   2.640   0.362   4.195
  601SOL    HW2 2703   2.742   0.480   4.149
  602SOL     OW 2704   1.753   2.845   6.540
  602SOL    HW1 2705   1.672   2.875   6.590
  602SOL    HW2 2706   1.823   2.817   6.605
  603SOL     OW 2707   2.515   2.195   4.811
  603SOL    HW1 2708   2.543   2.251   4.889
  603SOL    HW2 2709   2.423   2.160   4.827
  604SOL     OW 2710   1.049   3.062   1.821
  604SOL    HW1 2711   1.033   3.048   1.724
  604SOL    HW2 2712   1.067   3.158   1.839
  605SOL     OW 2713   6.637   6.658   1.930
  605SOL    HW1 2714   6.657   6.683   2.025
  605SOL    HW2 2715   6.712   6.688   1.871
  606SOL     OW 2716   4.372   0.190   6.559
  606SOL    HW1 2717   4.359   0.287   6.580
  606SOL    HW2 2718   4.453   0.179   6.502
  607SOL     OW 2719   6.635   6.790   6.182
  607SOL    HW1 2720   6.629   6.824   6.276
  607SOL    HW2 2721   6.725   6.746   6.169
  608SOL     OW 2722   3.257   6.212   6.140
  608SOL    HW1 2723   3.312   6.138   6.101
  608SOL    HW2 2724   3.318   6.286   6.169
  609SOL     OW 2725   3.914   3.058   3.355
  609SOL    HW1 2726   3.888   3.035   3.449
  609SOL    HW2 2727   4.003   3.104   3.355
  610SOL     OW 2728   5.362   3.849   2.182
  610SOL    HW1 2729   5.358   3.783   2.107
  610SOL    HW2 2730   5.400   3.935   2.148
  611SOL     OW 2731   3.584   6.636   0.935
  611SOL    HW1 2732   3.522   6.713   0.922
  611SOL    HW2 2733   3.537   6.551   0.908
  612SOL     OW 2734   4.031   6.866   5.697
  612SOL    HW1 2735   4.029   6.933   5.623
  612SOL    HW2 2736   4.028   6.914   5.785
  613SOL     OW 2737   3.791   6.531   5.742
  613SOL    HW1 2738   3.713   6.592   5.728
  613SOL    HW2 2739   3.856   6.543   5.667
  614SOL     OW 2740   4.778   5.051   1.295
  614SOL    HW1 2741   4.775   5.143   1.333
  614SOL    HW2 2742   4.800   4.985   1.368
  615SOL     OW 2743   6.469   2.785   2.103
  615SOL    HW1 2744   6.433   2.878   2.107
  615SOL    HW2 2745   6.477   2.748   2.196
  616SOL     OW 2746   6.983   1.766   3.914
  616SOL    HW1 2747   6.996   1.794   3.819
  616SOL    HW2 2748   6.965   1.667   3.917
  617SOL     OW 2749   6.396   4.484   6.377
  617SOL    HW1 2750   6.428   4.493   6.472
  617SOL    HW2 2751   6.298   4.462   6.377
  618SOL     OW 2752   6.186   2.478   6.413
  618SOL    HW1 2753   6.268   2.470   6.471
  618SOL    HW2 2754   6.214   2.490   6.318
  619SOL     OW 2755   4.435   1.107   6.774
  619SOL    HW1 2756   4.513   1.134   6.716
  619SOL    HW2 2757   4.412   1.011   6.757
  620SOL     OW 2758   4.455   3.138   1.391
  620SOL    HW1 2759   4.388   3.066   1.370
  620SOL    HW2 2760   4.458   3.153   1.489
  621SOL     OW 2761   2.792   5.992   6.710
  621SOL    HW1 2762   2.845   6.018   6.791
  621SOL    HW2 2763   2.788   5.892   6.704
  622SOL     OW 2764   1.624   0.907   4.913
  622SOL    HW1 2765   1.659   0.981   4.856
  622SOL    HW2 2766   1.527   0.923   4.932
  623SOL     OW 2767   0.484   5.908   6.073
  623SOL    HW1 2768   0.406   5.961   6.041
  623SOL    HW2 2769   0.509   5.937   6.165
  624SOL     OW 2770   0.117   2.076   1.470
  624SOL    HW1 2771   0.039   2.137   1.459
  624SOL    HW2 2772   0.145   2.039   1.381
  625SOL     OW 2773   1.535   1.617   2.212
  625SOL    HW1 2774   1.560   1.558   2.136
  625SOL    HW2 2775   1.600   1.693   2.219
  626SOL     OW 2776   1.094   5.716   3.230
  626SOL    HW1 2777   1.096   5.648   3.157
  626SOL    HW2 2778   1.035   5.792   3.202
  627SOL     OW 2779   6.144   6.378   0.593
  627SOL    HW1 2780   6.175   6.463   0.634
  627SOL    HW2 2781   6.193   6.362   0.508
  628SOL     OW 2782   5.835   5.534   5.403
  628SOL    HW1 2783   5.777   5.605   5.444
  628SOL    HW2 2784   5.931   5.556   5.419
  629SOL     OW 2785   0.245   0.662   6.464
  629SOL    HW1 2786   0.227   0.748   6.417
  629SOL    HW2 2787   0.291   0.681   6.552
  630SOL     OW 2788   0.326   1.435   1.178
  630SOL    HW1 2789   0.308   1.458   1.082
  630SOL    HW2 2790   0.311   1.338   1.192
  631SOL     OW 2791   4.101   0.673   5.159
  631SOL    HW1 2792   4.013   0.625   5.164
  631SOL    HW2 2793   4.170   0.620   5.208
  632SOL     OW 2794   3.584   1.290   1.406
  632SOL    HW1 2795   3.606   1.298   1.308
  632SOL    HW2 2796   3.567   1.193   1.427
  633SOL     OW 2797   3.225   3.589   6.940
  633SOL    HW1 2798   3.287   3.652   6.892
  633SOL    HW2 2799   3.166   3.543   6.873
  634SOL     OW 2800   4.075   3.271   2.336
  634SOL    HW1 2801   3.986   3.314   2.346
  634SOL    HW2 2802   4.070   3.176   2.369
  635SOL     OW 2803   4.996   5.510   0.793
  635SOL    HW1 2804   4.922   5.521   0.726
  635SOL    HW2 2805   4.959   5.469   0.877
  636SOL     OW 2806   2.410   6.359   0.351
  636SOL    HW1 2807   2.321   6.403   0.334
  636SOL    HW2 2808   2.453   6.335   0.264
  637SOL     OW 2809   0.003   3.227   3.049
  637SOL    HW1 2810   0.004   3.326   3.061
  637SOL    HW2 2811   0.097   3.193   3.045
  638SOL     OW 2812   5.990   2.378   3.986
  638SOL    HW1 2813   6.010   2.422   3.899
  638SOL    HW2 2814   5.978   2.448   4.057
  639SOL     OW 2815   4.914   3.670   3.258
  639SOL    HW1 2816   4.827   3.659   3.307
  639SOL    HW2 2817   4.914   3.611   3.177
  640SOL     OW 2818   0.434   5.668   3.799
  640SOL    HW1 2819   0.447   5.725   3.717
  640SOL    HW2 2820   0.497   5.590   3.795
  641SOL     OW 2821   0.001   5.034   4.690
  641SOL    HW1 2822   6.946   5.060   4.630
  641SOL    HW2 2823   6.987   4.981   4.768
  642SOL     OW 2824   6.833   2.863   4.431
  642SOL    HW1 2825   6.793   2.924   4.499
  642SOL    HW2 2826   6.920   2.827   4.464
  643SOL     OW 2827   6.120   5.300   5.404
  643SOL    HW1 2828   6.036   5.250   5.428
  643SOL    HW2 2829   6.111   5.338   5.312
  644SOL     OW 2830   1.437   6.432   4.312
  644SOL    HW1 2831   1.430   6.345   4.361
  644SOL    HW2 2832   1.463   6.415   4.218
  645SOL     OW 2833   4.257   0.588   4.684
  645SOL    HW1 2834   4.211   0.614   4.600
  645SOL    HW2 2835   4.242   0.659   4.754
  646SOL     OW 2836   3.235   0.975   4.633
  646SOL    HW1 2837   3.325   0.934   4.619
  646SOL    HW2 2838   3.164   0.907   4.615
  647SOL     OW 2839   5.582   1.506   5.393
  647SOL    HW1 2840   5.553   1.457   5.311
  647SOL    HW2 2841   5.649   1.576   5.368
  648SOL     OW 2842   0.564   3.693   3.540
  648SOL    HW1 2843   0.652   3.726   3.574
  648SOL    HW2 2844   0.572   3.597   3.512
  649SOL     OW 2845   3.078   4.202   0.585
  649SOL    HW1 2846   3.136   4.172   0.510
  649SOL    HW2 2847   2.990   4.234   0.549
  650SOL     OW 2848   5.710   4.195   0.313
  650SOL    HW1 2849   5.765   4.157   0.387
  650SOL    HW2 2850   5.766   4.206   0.231
  651SOL     OW 2851   0.699   6.214   6.164
  651SOL    HW1 2852   0.740   6.285   6.107
  651SOL    HW2 2853   0.664   6.256   6.248
  652SOL     OW 2854   4.899   0.527   3.696
  652SOL    HW1 2855   4.934   0.588   3.767
  652SOL    HW2 2856   4.849   0.452   3.739
  653SOL     OW 2857   0.716   5.382   6.130
  653SOL    HW1 2858   0.719   5.334   6.217
  653SOL    HW2 2859   0.784   5.456   6.130
  654SOL     OW 2860   0.503   4.465   5.987
  654SOL    HW1 2861   0.556   4.430   5.909
  654SOL    HW2 2862   0.547   4.547   6.023
  655SOL     OW 2863   0.434   6.084   1.590
  655SOL    HW1 2864   0.367   6.013   1.611
  655SOL    HW2 2865   0.389   6.173   1.583
  656SOL     OW 2866   2.009   6.091   1.276
  656SOL    HW1 2867   1.964   6.004   1.297
  656SOL    HW2 2868   2.004   6.108   1.177
  657SOL     OW 2869   2.318   3.707   1.701
  657SOL    HW1 2870   2.348   3.676   1.611
  657SOL    HW2 2871   2.314   3.629   1.763
  658SOL     OW 2872   2.521   4.129   6.945
  658SOL    HW1 2873   2.493   4.216   6.986
  658SOL    HW2 2874   2.600   4.093   6.993
  659SOL     OW 2875   1.487   5.401   5.530
  659SOL    HW1 2876   1.581   5.373   5.511
  659SOL    HW2 2877   1.481   5.436   5.623
  660SOL     OW 2878   5.648   3.568   2.516
  660SOL    HW1 2879   5.553   3.540   2.499
  660SOL    HW2 2880   5.694   3.497   2.570
  661SOL     OW 2881   5.035   4.691   3.364
  661SOL    HW1 2882   4.983   4.738   3.436
  661SOL    HW2 2883   5.106   4.751   3.330
  662SOL     OW 2884   3.876   0.705   4.507
  662SOL    HW1 2885   3.910   0.797   4.528
  662SOL    HW2 2886   3.868   0.694   4.408
  663SOL     OW 2887   1.859   3.668   0.153
  663SOL    HW1 2888   1.784   3.708   0.100
  663SOL    HW2 2889   1.924   3.739   0.178
  664SOL     OW 2890   6.945   5.025   6.320
  664SOL    HW1 2891   6.866   4.980   6.279
  664SOL    HW2 2892   6.913   5.097   6.382
  665SOL     OW 2893   4.358   4.910   1.216
  665SOL    HW1 2894   4.325   4.822   1.250
  665SOL    HW2 2895   4.458   4.908   1.209
  666SOL     OW 2896   4.841   1.938   3.098
  666SOL    HW1 2897   4.788   1.992   3.033
  666SOL    HW2 2898   4.803   1.846   3.104
  667SOL     OW 2899   6.154   3.957   3.876
  667SOL    HW1 2900   6.182   3.869   3.838
  667SOL    HW2 2901   6.236   4.012   3.895
  668SOL     OW 2902   4.759   5.905   6.556
  668SOL    HW1 2903   4.850   5.863   6.563
  668SOL    HW2 2904   4.695   5.854   6.613
  669SOL     OW 2905   3.914   6.576   3.665
  669SOL    HW1 2906   3.830   6.545   3.621
  669SOL    HW2 2907   3.961   6.499   3.708
  670SOL     OW 2908   2.598   2.875   0.872
  670SOL    HW1 2909   2.679   2.824   0.842
  670SOL    HW2 2910   2.563   2.835   0.957
  671SOL     OW 2911   2.558   5.929   0.839
  671SOL    HW1 2912   2.529   5.857   0.902
  671SOL    HW2 2913   2.486   5.998   0.833
  672SOL     OW 2914   1.206   4.733   2.198
  672SOL    HW1 2915   1.141   4.692   2.263
  672SOL    HW2 2916   1.299   4.717   2.230
  673SOL     OW 2917   0.332   0.616   1.138
  673SOL    HW1 2918   0.232   0.614   1.138
  673SOL    HW2 2919   0.364   0.709   1.124
  674SOL     OW 2920   0.157   3.048   4.922
  674SOL    HW1 2921   0.191   3.025   4.830
  674SOL    HW2 2922   0.132   3.144   4.925
  675SOL     OW 2923   0.396   0.621   4.349
  675SOL    HW1 2924   0.312   0.671   4.330
  675SOL    HW2 2925   0.425   0.572   4.267
  676SOL     OW 2926   4.183   6.247   3.014
  676SOL    HW1 2927   4.244   6.325   3.026
  676SOL    HW2 2928   4.184   6.218   2.919
  677SOL     OW 2929   6.290   1.504   0.145
  677SOL    HW1 2930   6.196   1.511   0.112
  677SOL    HW2 2931   6.297   1.547   0.235
  678SOL     OW 2932   2.002   1.346   5.147
  678SOL    HW1 2933   1.925   1.293   5.182
  678SOL    HW2 2934   1.979   1.443   5.150
  679SOL     OW 2935   4.302   1.836   4.046
  679SOL    HW1 2936   4.203   1.828   4.056
  679SOL    HW2 2937   4.326   1.827   3.949
  680SOL     OW 2938   5.942   5.106   5.486
  680SOL    HW1 2939   5.864   5.166   5.469
  680SOL    HW2 2940   5.910   5.017   5.519
  681SOL     OW 2941   5.265   5.404   1.817
  681SOL    HW1 2942   5.360   5.433   1.816
  681SOL    HW2 2943   5.240   5.372   1.908
  682SOL     OW 2944   1.456   1.101   0.343
  682SOL    HW1 2945   1.421   1.192   0.318
  682SOL    HW2 2946   1.540   1.084   0.291
  683SOL     OW 2947   3.395   3.003   0.209
  683SOL    HW1 2948   3.306   2.957   0.207
  683SOL    HW2 2949   3.382   3.101   0.228
  684SOL     OW 2950   0.180   1.074   0.095
  684SOL    HW1 2951   0.238   1.012   0.147
  684SOL    HW2 2952   0.086   1.041   0.097
  685SOL     OW 2953   4.883   1.378   3.984
  685SOL    HW1 2954   4.867   1.285   3.950
  685SOL    HW2 2955   4.975   1.383   4.025
  686SOL     OW 2956   5.702   2.514   3.898
  686SOL    HW1 2957   5.764   2.593   3.898
  686SOL    HW2 2958   5.672   2.495   3.805
  687SOL     OW 2959   0.300   2.448   4.666
  687SOL    HW1 2960   0.331   2.542   4.680
  687SOL    HW2 2961   0.379   2.391   4.643
  688SOL     OW 2962   0.709   2.416   0.312
  688SOL    HW1 2963   0.737   2.372   0.397
  688SOL    HW2 2964   0.775   2.488   0.289
  689SOL     OW 2965   0.140   4.091   6.176
  689SOL    HW1 2966   0.140   3.995   6.205
  689SOL    HW2 2967   0.226   4.134   6.203
  690SOL     OW 2968   0.562   4.189   3.173
  690SOL    HW1 2969   0.510   4.162   3.254
  690SOL    HW2 2970   0.659   4.196   3.197
  691SOL     OW 2971   2.458   0.266   6.122
  691SOL    HW1 2972   2.440   0.174   6.087
  691SOL    HW2 2973   2.548   0.268   6.166
  692SOL     OW 2974   3.457   5.734   3.842
  692SOL    HW1 2975   3.492   5.795   3.913
  692SOL    HW2 2976   3.470   5.639   3.869
  693SOL     OW 2977   6.282   0.856   3.480
  693SOL    HW1 2978   6.235   0.870   3.567
  693SOL    HW2 2979   6.217   0.868   3.405
  694SOL     OW 2980   4.439   6.204   2.611
  694SOL    HW1 2981   4.355   6.152   2.627
  694SOL    HW2 2982   4.415   6.294   2.574
  695SOL     OW 2983   4.116   6.162   4.436
  695SOL    HW1 2984   4.069   6.147   4.523
  695SOL    HW2 2985   4.200   6.214   4.452
  696SOL     OW 2986   3.891   4.857   2.394
  696SOL    HW1 2987   3.797   4.859   2.359
  696SOL    HW2 2988   3.952   4.820   2.323
  697SOL     OW 2989   2.077   3.154   3.473
  697SOL    HW1 2990   2.117   3.212   3.402
  697SOL    HW2 2991   2.028   3.078   3.430
  698SOL     OW 2992   6.019   6.380   0.225
  698SOL    HW1 2993   5.939   6.384   0.166
  698SOL    HW2 2994   6.055   6.286   0.226
  699SOL     OW 2995   2.094   3.632   6.508
  699SOL    HW1 2996   2.130   3.690   6.581
  699SOL    HW2 2997   2.136   3.541   6.513
  700SOL     OW 2998   2.594   1.436   3.046
  700SOL    HW1 2999   2.571   1.427   2.949
  700SOL    HW2 3000   2.590   1.532   3.073
  701SOL     OW 3001   5.922   3.764   5.059
  701SOL    HW1 3002   5.872   3.696   5.005
  701SOL    HW2 3003   6.018   3.765   5.031
  702SOL     OW 3004   0.773   6.319   5.619
  702SOL    HW1 3005   0.706   6.279   5.557
  702SOL    HW2 3006   0.725   6.369   5.692
  703SOL     OW 3007   3.732   3.824   6.332
  703SOL    HW1 3008   3.680   3.751   6.289
  703SOL    HW2 3009   3.687   3.852   6.416
  704SOL     OW 3010   1.595   2.005   0.121
  704SOL    HW1 3011   1.565   2.017   0.027
  704SOL    HW2 3012   1.650   1.922   0.129
  705SOL     OW 3013   6.569   5.856   2.605
  705SOL    HW1 3014   6.509   5.792   2.557
  705SOL    HW2 3015   6.633   5.805   2.663
  706SOL     OW 3016   4.405   2.414   4.462
  706SOL    HW1 3017   4.475   2.468   4.415
  706SOL    HW2 3018   4.408   2.434   4.560
  707SOL     OW 3019   5.202   6.791   2.580
  707SOL    HW1 3020   5.281   6.734   2.557
  707SOL    HW2 3021   5.157   6.755   2.662
  708SOL     OW 3022   4.262   0.134   1.659
  708SOL    HW1 3023   4.282   0.203   1.589
  708SOL    HW2 3024   4.294   0.045   1.628
  709SOL     OW 3025   1.159   5.511   1.431
  709SOL    HW1 3026   1.244   5.534   1.478
  709SOL    HW2 3027   1.152   5.562   1.346
  710SOL     OW 3028   3.714   3.028   2.626
  710SOL    HW1 3029   3.777   3.065   2.695
  710SOL    HW2 3030   3.634   2.991   2.672
  711SOL     OW 3031   0.018   2.603   5.363
  711SOL    HW1 3032   7.010   2.548   5.285
  711SOL    HW2 3033   0.023   2.545   5.445
  712SOL     OW 3034   3.972   3.642   1.401
  712SOL    HW1 3035   3.958   3.635   1.302
  712SOL    HW2 3036   3.985   3.550   1.439
  713SOL     OW 3037   4.226   2.509   6.281
  713SOL    HW1 3038   4.146   2.450   6.279
  713SOL    HW2 3039   4.211   2.587   6.221
  714SOL     OW 3040   6.901   4.317   4.264
  714SOL    HW1 3041   6.807   4.284   4.256
  714SOL    HW2 3042   6.936   4.293   4.355
  715SOL     OW 3043   5.538   6.012   0.414
  715SOL    HW1 3044   5.583   6.050   0.495
  715SOL    HW2 3045   5.605   5.962   0.359
  716SOL     OW 3046   0.621   6.978   1.537
  716SOL    HW1 3047   0.670   6.944   1.617
  716SOL    HW2 3048   0.545   0.015   1.565
  717SOL     OW 3049   6.169   4.762   5.636
  717SOL    HW1 3050   6.209   4.702   5.706
  717SOL    HW2 3051   6.232   4.772   5.560
  718SOL     OW 3052   5.092   1.979   6.219
  718SOL    HW1 3053   5.108   1.906   6.286
  718SOL    HW2 3054   5.159   1.971   6.145
  719SOL     OW 3055   6.203   0.598   1.860
  719SOL    HW1 3056   6.118   0.640   1.826
  719SOL    HW2 3057   6.231   0.645   1.944
  720SOL     OW 3058   3.383   1.002   6.145
  720SOL    HW1 3059   3.416   0.943   6.071
  720SOL    HW2 3060   3.285   0.988   6.158
  721SOL     OW 3061   2.907   1.389   4.213
  721SOL    HW1 3062   2.841   1.436   4.272
  721SOL    HW2 3063   2.887   1.291   4.213
  722SOL     OW 3064   2.612   0.768   5.080
  722SOL    HW1 3065   2.646   0.727   4.995
  722SOL    HW2 3066   2.621   0.701   5.155
  723SOL     OW 3067   1.957   3.885   3.210
  723SOL    HW1 3068   1.868   3.915   3.177
  723SOL    HW2 3069   2.000   3.958   3.263
  724SOL     OW 3070   1.062   3.031   4.104
  724SOL    HW1 3071   1.012   3.103   4.056
  724SOL    HW2 3072   1.085   2.957   4.040
  725SOL     OW 3073   2.928   5.562   0.195
  725SOL    HW1 3074   3.008   5.530   0.247
  725SOL    HW2 3075   2.898   5.650   0.231
  726SOL     OW 3076   4.133   4.953   0.940
  726SOL    HW1 3077   4.081   4.895   1.002
  726SOL    HW2 3078   4.169   5.032   0.990
  727SOL     OW 3079   5.652   4.273   5.650
  727SOL    HW1 3080   5.699   4.356   5.680
  727SOL    HW2 3081   5.664   4.262   5.551
  728SOL     OW 3082   6.585   2.873   5.070
  728SOL    HW1 3083   6.496   2.917   5.070
  728SOL    HW2 3084   6.646   2.920   5.134
  729SOL     OW 3085   1.339   1.736   1.011
  729SOL    HW1 3086   1.293   1.649   1.022
  729SOL    HW2 3087   1.272   1.809   0.997
  730SOL     OW 3088   5.864   0.822   3.800
  730SOL    HW1 3089   5.875   0.755   3.874
  730SOL    HW2 3090   5.906   0.909   3.828
  731SOL     OW 3091   5.816   4.308   6.217
  731SOL    HW1 3092   5.742   4.344   6.274
  731SOL    HW2 3093   5.791   4.218   6.183
  732SOL     OW 3094   6.441   2.329   1.515
  732SOL    HW1 3095   6.496   2.406   1.484
  732SOL    HW2 3096   6.395   2.352   1.600
  733SOL     OW 3097   5.697   6.219   5.298
  733SOL    HW1 3098   5.631   6.281   5.256
  733SOL    HW2 3099   5.782   6.268   5.318
  734SOL     OW 3100   0.016   4.846   2.972
  734SOL    HW1 3101   6.955   4.811   2.928
  734SOL    HW2 3102   0.054   4.921   2.918
  735SOL     OW 3103   3.604   2.123   0.403
  735SOL    HW1 3104   3.644   2.034   0.427
  735SOL    HW2 3105   3.601   2.133   0.304
  736SOL     OW 3106   0.425   1.254   3.500
  736SOL    HW1 3107   0.518   1.290   3.488
  736SOL    HW2 3108   0.375   1.263   3.414
  737SOL     OW 3109   4.883   1.914   5.364
  737SOL    HW1 3110   4.828   1.990   5.398
  737SOL    HW2 3111   4.824   1.849   5.315
  738SOL     OW 3112   2.144   4.202   1.597
  738SOL    HW1 3113   2.111   4.251   1.517
  738SOL    HW2 3114   2.116   4.106   1.593
  739SOL     OW 3115   4.368   0.078   4.110
  739SOL    HW1 3116   4.387   0.150   4.176
  739SOL    HW2 3117   4.451   0.058   4.057
  740SOL     OW 3118   5.974   0.467   1.301
  740SOL    HW1 3119   5.979   0.520   1.386
  740SOL    HW2 3120   5.886   0.419   1.298
  741SOL     OW 3121   2.479   6.185   3.401
  741SOL    HW1 3122   2.422   6.107   3.424
  741SOL    HW2 3123   2.423   6.257   3.360
  742SOL     OW 3124   2.707   6.732   2.282
  742SOL    HW1 3125   2.752   6.643   2.289
  742SOL    HW2 3126   2.760   6.800   2.333
  743SOL     OW 3127   0.341   3.639   3.656
  743SOL    HW1 3128   0.316   3.713   3.719
  743SOL    HW2 3129   0.416   3.669   3.597
  744SOL     OW 3130   6.069   0.489   6.777
  744SOL    HW1 3131   6.096   0.419   6.843
  744SOL    HW2 3132   6.057   0.448   6.687
  745SOL     OW 3133   1.184   5.553   5.181
  745SOL    HW1 3134   1.087   5.562   5.161
  745SOL    HW2 3135   1.209   5.457   5.188
  746SOL     OW 3136   0.362   4.240   6.260
  746SOL    HW1 3137   0.458   4.250   6.234
  746SOL    HW2 3138   0.306   4.295   6.199
  747SOL     OW 3139   3.574   6.263   4.223
  747SOL    HW1 3140   3.659   6.249   4.172
  747SOL    HW2 3141   3.569   6.358   4.252
  748SOL     OW 3142   3.639   5.252   2.237
  748SOL    HW1 3143   3.704   5.275   2.309
  748SOL    HW2 3144   3.678   5.181   2.179
  749SOL     OW 3145   5.892   4.669   4.760
  749SOL    HW1 3146   5.916   4.588   4.814
  749SOL    HW2 3147   5.843   4.734   4.817
  750SOL     OW 3148   1.714   1.551   1.268
  750SOL    HW1 3149   1.635   1.537   1.208
  750SOL    HW2 3150   1.709   1.643   1.308
  751SOL     OW 3151   4.111   2.247   6.918
  751SOL    HW1 3152   4.052   2.224   6.996
  751SOL    HW2 3153   4.195   2.289   6.951
  752SOL     OW 3154   3.446   0.910   2.510
  752SOL    HW1 3155   3.363   0.854   2.517
  752SOL    HW2 3156   3.490   0.915   2.599
  753SOL     OW 3157   2.052   3.151   5.373
  753SOL    HW1 3158   2.147   3.130   5.398
  753SOL    HW2 3159   1.990   3.109   5.440
  754SOL     OW 3160   5.124   2.398   5.489
  754SOL    HW1 3161   5.097   2.458   5.414
  754SOL    HW2 3162   5.213   2.427   5.524
  755SOL     OW 3163   1.417   4.317   5.522
  755SOL    HW1 3164   1.398   4.389   5.589
  755SOL    HW2 3165   1.436   4.231   5.570
  756SOL     OW 3166   2.990   6.404   6.679
  756SOL    HW1 3167   3.023   6.487   6.634
  756SOL    HW2 3168   3.044   6.386   6.760
  757SOL     OW 3169   0.520   0.836   3.648
  757SOL    HW1 3170   0.548   0.796   3.561
  757SOL    HW2 3171   0.543   0.773   3.722
  758SOL     OW 3172   3.449   0.234   2.146
  758SOL    HW1 3173   3.514   0.176   2.096
  758SOL    HW2 3174   3.485   0.327   2.151
  759SOL     OW 3175   0.090   1.448   1.353
  759SOL    HW1 3176   0.085   1.535   1.402
  759SOL    HW2 3177   0.146   1.459   1.271
  760SOL     OW 3178   5.576   0.215   5.295
  760SOL    HW1 3179   5.571   0.116   5.285
  760SOL    HW2 3180   5.556   0.259   5.207
  761SOL     OW 3181   5.495   3.212   5.841
  761SOL    HW1 3182   5.510   3.310   5.858
  761SOL    HW2 3183   5.455   3.200   5.750
  762SOL     OW 3184   2.305   0.668   4.817
  762SOL    HW1 3185   2.284   0.583   4.770
  762SOL    HW2 3186   2.322   0.740   4.750
  763SOL     OW 3187   4.172   5.109   6.556
  763SOL    HW1 3188   4.119   5.158   6.487
  763SOL    HW2 3189   4.118   5.097   6.639
  764SOL     OW 3190   5.066   1.634   5.244
  764SOL    HW1 3191   5.123   1.694   5.187
  764SOL    HW2 3192   4.972   1.635   5.210
  765SOL     OW 3193   1.696   6.103   1.285
  765SOL    HW1 3194   1.648   6.134   1.366
  765SOL    HW2 3195   1.747   6.019   1.306
  766SOL     OW 3196   2.848   3.429   6.418
  766SOL    HW1 3197   2.823   3.381   6.502
  766SOL    HW2 3198   2.818   3.375   6.339
  767SOL     OW 3199   6.124   5.548   1.734
  767SOL    HW1 3200   6.124   5.629   1.676
  767SOL    HW2 3201   6.035   5.538   1.779
  768SOL     OW 3202   2.289   6.652   2.376
  768SOL    HW1 3203   2.378   6.635   2.417
  768SOL    HW2 3204   2.300   6.674   2.279
  769SOL     OW 3205   3.006   1.089   5.033
  769SOL    HW1 3206   3.011   1.092   5.133
  769SOL    HW2 3207   2.968   1.175   4.999
  770SOL     OW 3208   1.673   4.412   2.942
  770SOL    HW1 3209   1.666   4.362   2.856
  770SOL    HW2 3210   1.733   4.491   2.930
  771SOL     OW 3211   1.835   5.091   2.469
  771SOL    HW1 3212   1.887   5.107   2.552
  771SOL    HW2 3213   1.878   5.017   2.416
  772SOL     OW 3214   5.675   5.622   0.394
  772SOL    HW1 3215   5.684   5.627   0.494
  772SOL    HW2 3216   5.732   5.692   0.352
  773SOL     OW 3217   0.338   3.752   4.729
  773SOL    HW1 3218   0.408   3.681   4.731
  773SOL    HW2 3219   0.357   3.815   4.653
  774SOL     OW 3220   1.420   1.532   1.314
  774SOL    HW1 3221   1.425   1.621   1.358
  774SOL    HW2 3222   1.389   1.464   1.380
  775SOL     OW 3223   0.558   2.290   3.235
  775SOL    HW1 3224   0.472   2.296   3.184
  775SOL    HW2 3225   0.635   2.306   3.172
  776SOL     OW 3226   1.553   6.581   6.174
  776SOL    HW1 3227   1.515   6.647   6.108
  776SOL    HW2 3228   1.478   6.533   6.220
  777SOL     OW 3229   2.395   4.899   1.741
  777SOL    HW1 3230   2.389   4.835   1.818
  777SOL    HW2 3231   2.485   4.890   1.697
  778SOL     OW 3232   2.347   1.602   2.150
  778SOL    HW1 3233   2.344   1.581   2.248
  778SOL    HW2 3234   2.293   1.684   2.132
  779SOL     OW 3235   6.657   3.110   2.185
  779SOL    HW1 3236   6.711   3.186   2.219
  779SOL    HW2 3237   6.595   3.078   2.256
  780SOL     OW 3238   6.806   3.672   4.502
  780SOL    HW1 3239   6.815   3.723   4.416
  780SOL    HW2 3240   6.842   3.580   4.490
  781SOL     OW 3241   5.827   0.279   0.154
  781SOL    HW1 3242   5.757   0.219   0.194
  781SOL    HW2 3243   5.870   0.332   0.227
  782SOL     OW 3244   1.729   4.277   6.449
  782SOL    HW1 3245   1.692   4.195   6.405
  782SOL    HW2 3246   1.742   4.349   6.381
  783SOL     OW 3247   4.981   5.020   1.106
  783SOL    HW1 3248   4.915   5.018   1.181
  783SOL    HW2 3249   5.064   5.068   1.135
  784SOL     OW 3250   4.594   5.644   0.795
  784SOL    HW1 3251   4.657   5.581   0.749
  784SOL    HW2 3252   4.606   5.736   0.756
  785SOL     OW 3253   0.489   2.605   3.623
  785SOL    HW1 3254   0.450   2.536   3.683
  785SOL    HW2 3255   0.519   2.562   3.538
  786SOL     OW 3256   1.597   1.058   2.438
  786SOL    HW1 3257   1.696   1.067   2.431
  786SOL    HW2 3258   1.573   1.011   2.523
  787SOL     OW 3259   2.411   0.682   6.706
  787SOL    HW1 3260   2.369   0.664   6.617
  787SOL    HW2 3261   2.340   0.696   6.775
  788SOL     OW 3262   3.308   2.839   5.880
  788SOL    HW1 3263   3.264   2.921   5.915
  788SOL    HW2 3264   3.256   2.802   5.803
  789SOL     OW 3265   5.372   4.328   0.583
  789SOL    HW1 3266   5.395   4.379   0.667
  789SOL    HW2 3267   5.303   4.260   0.604
  790SOL     OW 3268   2.243   1.357   3.826
  790SOL    HW1 3269   2.221   1.281   3.764
  790SOL    HW2 3270   2.338   1.384   3.812
  791SOL     OW 3271   2.624   5.787   3.661
  791SOL    HW1 3272   2.685   5.794   3.739
  791SOL    HW2 3273   2.592   5.878   3.636
  792SOL     OW 3274   1.153   7.005   0.944
  792SOL    HW1 3275   1.249   6.975   0.944
  792SOL    HW2 3276   1.098   6.941   0.891
  793SOL     OW 3277   4.827   4.546   3.723
  793SOL    HW1 3278   4.858   4.495   3.803
  793SOL    HW2 3279   4.792   4.482   3.654
  794SOL     OW 3280   3.740   3.523   5.540
  794SOL    HW1 3281   3.798   3.488   5.466
  794SOL    HW2 3282   3.754   3.469   5.623
  795SOL     OW 3283   3.010   6.782   4.248
  795SOL    HW1 3284   2.914   6.793   4.219
  795SOL    HW2 3285   3.060   6.866   4.227
  796SOL     OW 3286   0.034   1.511   6.269
  796SOL    HW1 3287   6.968   1.500   6.221
  796SOL    HW2 3288   0.062   1.423   6.307
  797SOL     OW 3289   5.447   3.077   0.699
  797SOL    HW1 3290   5.511   3.008   0.731
  797SOL    HW2 3291   5.497   3.162   0.680
  798SOL     OW 3292   3.967   0.070   2.580
  798SOL    HW1 3293   3.884   0.125   2.583
  798SOL    HW2 3294   4.033   0.105   2.647
  799SOL     OW 3295   0.193   6.902   6.068
  799SOL    HW1 3296   0.183   6.900   5.968
  799SOL    HW2 3297   0.275   6.954   6.092
  800SOL     OW 3298   5.236   2.586   2.738
  800SOL    HW1 3299   5.310   2.646   2.769
  800SOL    HW2 3300   5.265   2.491   2.744
  801SOL     OW 3301   1.675   3.503   4.160
  801SOL    HW1 3302   1.743   3.568   4.193
  801SOL    HW2 3303   1.720   3.430   4.108
  802SOL     OW 3304   3.666   2.300   1.242
  802SOL    HW1 3305   3.645   2.227   1.177
  802SOL    HW2 3306   3.616   2.382   1.216
  803SOL     OW 3307   0.276   6.409   5.473
  803SOL    HW1 3308   0.301   6.314   5.494
  803SOL    HW2 3309   0.309   6.469   5.547
  804SOL     OW 3310   5.315   5.664   6.488
  804SOL    HW1 3311   5.227   5.682   6.533
  804SOL    HW2 3312   5.334   5.565   6.492
  805SOL     OW 3313   3.372   0.038   4.938
  805SOL    HW1 3314   3.373   0.072   4.844
  805SOL    HW2 3315   3.277   0.027   4.968
  806SOL     OW 3316   5.024   1.153   4.665
  806SOL    HW1 3317   5.110   1.134   4.711
  806SOL    HW2 3318   5.009   1.084   4.593
  807SOL     OW 3319   1.669   1.670   4.424
  807SOL    HW1 3320   1.584   1.712   4.391
  807SOL    HW2 3321   1.647   1.583   4.469
  808SOL     OW 3322   4.653   3.293   6.127
  808SOL    HW1 3323   4.566   3.333   6.154
  808SOL    HW2 3324   4.664   3.301   6.028
  809SOL     OW 3325   6.807   4.726   0.801
  809SOL    HW1 3326   6.859   4.809   0.822
  809SOL    HW2 3327   6.862   4.645   0.821
  810SOL     OW 3328   3.368   3.466   1.226
  810SOL    HW1 3329   3.380   3.542   1.163
  810SOL    HW2 3330   3.285   3.479   1.280
  811SOL     OW 3331   4.558   5.482   5.138
  811SOL    HW1 3332   4.515   5.456   5.051
  811SOL    HW2 3333   4.499   5.548   5.185
  812SOL     OW 3334   0.701   1.183   2.163
  812SOL    HW1 3335   0.618   1.145   2.122
  812SOL    HW2 3336   0.777   1.120   2.148
  813SOL     OW 3337   3.399   6.513   4.974
  813SOL    HW1 3338   3.497   6.533   4.967
  813SOL    HW2 3339   3.386   6.426   5.021
  814SOL     OW 3340   6.652   6.104   2.047
  814SOL    HW1 3341   6.734   6.067   2.091
  814SOL    HW2 3342   6.673   6.192   2.004
  815SOL     OW 3343   0.577   3.471   3.362
  815SOL    HW1 3344   0.492   3.483   3.310
  815SOL    HW2 3345   0.655   3.491   3.302
  816SOL     OW 3346   6.459   6.627   0.591
  816SOL    HW1 3347   6.430   6.577   0.509
  816SOL    HW2 3348   6.450   6.725   0.575
  817SOL     OW 3349   2.205   4.492   0.819
  817SOL    HW1 3350   2.228   4.427   0.747
  817SOL    HW2 3351   2.287   4.514   0.872
  818SOL     OW 3352   6.644   2.998   2.450
  818SOL    HW1 3353   6.553   3.021   2.484
  818SOL    HW2 3354   6.647   2.901   2.426
  819SOL     OW 3355   5.774   2.600   3.003
  819SOL    HW1 3356   5.735   2.687   2.972
  819SOL    HW2 3357   5.736   2.525   2.948
  820SOL     OW 3358   2.973   2.257   5.295
  820SOL    HW1 3359   3.047   2.298   5.241
  820SOL    HW2 3360   2.885   2.291   5.261
  821SOL     OW 3361   1.590   4.809   1.361
  821SOL    HW1 3362   1.606   4.787   1.265
  821SOL    HW2 3363   1.676   4.802   1.412
  822SOL     OW 3364   1.369   4.727   4.042
  822SOL    HW1 3365   1.300   4.715   3.971
  822SOL    HW2 3366   1.459   4.703   4.005
  823SOL     OW 3367   4.947   4.004   6.692
  823SOL    HW1 3368   4.995   3.923   6.657
  823SOL    HW2 3369   4.858   4.011   6.648
  824SOL     OW 3370   5.619   0.799   6.121
  824SOL    HW1 3371   5.693   0.771   6.182
  824SOL    HW2 3372   5.596   0.724   6.059
  825SOL     OW 3373   0.330   4.230   1.050
  825SOL    HW1 3374   0.335   4.219   1.149
  825SOL    HW2 3375   0.343   4.326   1.026
  826SOL     OW 3376   5.350   3.069   5.553
  826SOL    HW1 3377   5.325   3.096   5.460
  826SOL    HW2 3378   5.275   3.090   5.616
  827SOL     OW 3379   2.615   4.765   5.157
  827SOL    HW1 3380   2.639   4.783   5.253
  827SOL    HW2 3381   2.674   4.692   5.122
  828SOL     OW 3382   5.543   6.580   6.516
  828SOL    HW1 3383   5.541   6.585   6.416
  828SOL    HW2 3384   5.483   6.506   6.547
  829SOL     OW 3385   3.832   4.050   3.152
  829SOL    HW1 3386   3.872   4.131   3.108
  829SOL    HW2 3387   3.742   4.073   3.188
  830SOL     OW 3388   5.032   5.317   6.441
  830SOL    HW1 3389   4.962   5.250   6.415
  830SOL    HW2 3390   5.122   5.274   6.436
  831SOL     OW 3391   6.199   0.253   0.604
  831SOL    HW1 3392   6.269   0.250   0.533
  831SOL    HW2 3393   6.199   0.344   0.647
  832SOL     OW 3394   3.500   0.737   1.609
  832SOL    HW1 3395   3.527   0.776   1.698
  832SOL    HW2 3396   3.403   0.752   1.595
  833SOL     OW 3397   0.999   3.908   5.761
  833SOL    HW1 3398   0.966   3.952   5.677
  833SOL    HW2 3399   0.940   3.831   5.784
  834SOL     OW 3400   4.052   3.853   0.579
  834SOL    HW1 3401   4.026   3.759   0.603
  834SOL    HW2 3402   4.133   3.851   0.520
  835SOL     OW 3403   3.527   0.002   5.305
  835SOL    HW1 3404   3.529   0.070   5.232
  835SOL    HW2 3405   3.616   7.020   5.350
  836SOL     OW 3406   3.645   6.194   6.302
  836SOL    HW1 3407   3.665   6.162   6.209
  836SOL    HW2 3408   3.571   6.261   6.298
  837SOL     OW 3409   5.720   0.765   0.747
  837SOL    HW1 3410   5.642   0.703   0.749
  837SOL    HW2 3411   5.702   0.844   0.805
  838SOL     OW 3412   1.923   0.665   4.472
  838SOL    HW1 3413   1.940   0.567   4.472
  838SOL    HW2 3414   1.862   0.689   4.397
  839SOL     OW 3415   1.222   2.789   2.116
  839SOL    HW1 3416   1.223   2.708   2.057
  839SOL    HW2 3417   1.315   2.819   2.133
  840SOL     OW 3418   6.352   6.247   0.422
  840SOL    HW1 3419   6.375   6.179   0.353
  840SOL    HW2 3420   6.423   6.248   0.493
  841SOL     OW 3421   4.286   5.035   6.872
  841SOL    HW1 3422   4.187   5.047   6.863
  841SOL    HW2 3423   4.317   4.968   6.805
  842SOL     OW 3424   4.194   0.196   5.230
  842SOL    HW1 3425   4.097   0.212   5.249
  842SOL    HW2 3426   4.246   0.280   5.245
  843SOL     OW 3427   0.554   1.206   1.299
  843SOL    HW1 3428   0.653   1.216   1.285
  843SOL    HW2 3429   0.521   1.283   1.354
  844SOL     OW 3430   5.888   0.840   0.549
  844SOL    HW1 3431   5.828   0.884   0.482
  844SOL    HW2 3432   5.835   0.818   0.631
  845SOL     OW 3433   4.867   4.708   4.924
  845SOL    HW1 3434   4.872   4.632   4.860
  845SOL    HW2 3435   4.779   4.707   4.971
  846SOL     OW 3436   2.145   2.107   6.592
  846SOL    HW1 3437   2.054   2.067   6.607
  846SOL    HW2 3438   2.136   2.206   6.579
  847SOL     OW 3439   1.320   3.006   1.385
  847SOL    HW1 3440   1.270   2.922   1.406
  847SOL    HW2 3441   1.369   3.037   1.467
  848SOL     OW 3442   6.325   0.374   6.126
  848SOL    HW1 3443   6.389   0.403   6.055
  848SOL    HW2 3444   6.300   0.279   6.113
  849SOL     OW 3445   0.445   4.021   6.399
  849SOL    HW1 3446   0.435   4.116   6.370
  849SOL    HW2 3447   0.380   4.001   6.473
  850SOL     OW 3448   5.052   0.526   3.297
  850SOL    HW1 3449   5.010   0.586   3.366
  850SOL    HW2 3450   4.980   0.479   3.245
  851SOL     OW 3451   0.359   1.685   2.261
  851SOL    HW1 3452   0.284   1.658   2.322
  851SOL    HW2 3453   0.380   1.610   2.199
  852SOL     OW 3454   1.189   3.260   6.879
  852SOL    HW1 3455   1.194   3.199   6.800
  852SOL    HW2 3456   1.261   3.329   6.874
  853SOL     OW 3457   1.892   4.364   1.728
  853SOL    HW1 3458   1.850   4.455   1.726
  853SOL    HW2 3459   1.984   4.371   1.766
  854SOL     OW 3460   4.823   5.975   1.103
  854SOL    HW1 3461   4.888   6.036   1.058
  854SOL    HW2 3462   4.819   5.995   1.201
  855SOL     OW 3463   0.018   6.631   1.414
  855SOL    HW1 3464   7.021   6.715   1.362
  855SOL    HW2 3465   0.024   6.554   1.351
  856SOL     OW 3466   1.041   2.398   5.390
  856SOL    HW1 3467   1.139   2.399   5.407
  856SOL    HW2 3468   1.020   2.326   5.324
  857SOL     OW 3469   5.961   4.196   1.730
  857SOL    HW1 3470   6.052   4.231   1.754
  857SOL    HW2 3471   5.934   4.126   1.796
  858SOL     OW 3472   2.493   3.490   0.968
  858SOL    HW1 3473   2.485   3.524   0.874
  858SOL    HW2 3474   2.402   3.474   1.006
  859SOL     OW 3475   5.678   6.034   5.063
  859SOL    HW1 3476   5.587   6.068   5.038
  859SOL    HW2 3477   5.718   6.094   5.132
  860SOL     OW 3478   5.158   3.325   0.804
  860SOL    HW1 3479   5.083   3.260   0.817
  860SOL    HW2 3480   5.240   3.290   0.849
  861SOL     OW 3481   2.560   5.659   3.377
  861SOL    HW1 3482   2.611   5.664   3.291
  861SOL    HW2 3483   2.596   5.726   3.442
  862SOL     OW 3484   0.789   4.228   5.078
  862SOL    HW1 3485   0.690   4.226   5.065
  862SOL    HW2 3486   0.827   4.137   5.063
  863SOL     OW 3487   6.186   0.906   0.917
  863SOL    HW1 3488   6.116   0.858   0.971
  863SOL    HW2 3489   6.145   0.940   0.832
  864SOL     OW 3490   4.332   4.744   3.504
  864SOL    HW1 3491   4.368   4.835   3.483
  864SOL    HW2 3492   4.246   4.752   3.553
  865SOL     OW 3493   0.609   6.480   5.766
  865SOL    HW1 3494   0.661   6.555   5.806
  865SOL    HW2 3495   0.519   6.512   5.739
  866SOL     OW 3496   1.741   1.737   1.649
  866SOL    HW1 3497   1.770   1.830   1.672
  866SOL    HW2 3498   1.733   1.683   1.733
  867SOL     OW 3499   3.927   3.911   1.099
  867SOL    HW1 3500   3.987   3.890   1.021
  867SOL    HW2 3501   3.928   4.009   1.117
  868SOL     OW 3502   6.016   1.315   1.415
  868SOL    HW1 3503   6.094   1.262   1.448
  868SOL    HW2 3504   5.975   1.268   1.337
  869SOL     OW 3505   0.173   5.095   3.302
  869SOL    HW1 3506   0.239   5.025   3.276
  869SOL    HW2 3507   0.178   5.112   3.400
  870SOL     OW 3508   4.536   3.305   0.620
  870SOL    HW1 3509   4.562   3.398   0.594
  870SOL    HW2 3510   4.504   3.305   0.715
  871SOL     OW 3511   4.347   2.422   3.474
  871SOL    HW1 3512   4.436   2.376   3.468
  871SOL    HW2 3513   4.361   2.517   3.503
  872SOL     OW 3514   5.348   3.758   3.491
  872SOL    HW1 3515   5.434   3.712   3.470
  872SOL    HW2 3516   5.368   3.849   3.528
  873SOL     OW 3517   5.500   6.873   3.965
  873SOL    HW1 3518   5.491   6.790   3.909
  873SOL    HW2 3519   5.509   6.953   3.905
  874SOL     OW 3520   0.749   4.028   6.437
  874SOL    HW1 3521   0.654   4.019   6.408
  874SOL    HW2 3522   0.806   4.053   6.359
  875SOL     OW 3523   3.540   3.177   0.638
  875SOL    HW1 3524   3.460   3.235   0.654
  875SOL    HW2 3525   3.582   3.202   0.551
  876SOL     OW 3526   0.091   5.033   2.722
  876SOL    HW1 3527   0.068   5.107   2.785
  876SOL    HW2 3528   0.190   5.028   2.711
  877SOL     OW 3529   4.218   3.929   6.331
  877SOL    HW1 3530   4.129   3.954   6.291
  877SOL    HW2 3531   4.276   4.010   6.335
  878SOL     OW 3532   3.925   6.034   5.428
  878SOL    HW1 3533   3.853   5.969   5.404
  878SOL    HW2 3534   3.944   6.028   5.526
  879SOL     OW 3535   3.234   2.600   1.411
  879SOL    HW1 3536   3.225   2.699   1.396
  879SOL    HW2 3537   3.297   2.584   1.487
  880SOL     OW 3538   3.450   4.320   5.352
  880SOL    HW1 3539   3.373   4.363   5.400
  880SOL    HW2 3540   3.532   4.376   5.364
  881SOL     OW 3541   4.720   4.128   5.042
  881SOL    HW1 3542   4.672   4.171   5.119
  881SOL    HW2 3543   4.765   4.044   5.073
  882SOL     OW 3544   0.778   2.452   4.282
  882SOL    HW1 3545   0.805   2.423   4.374
  882SOL    HW2 3546   0.850   2.508   4.242
  883SOL     OW 3547   4.616   5.814   6.041
  883SOL    HW1 3548   4.663   5.778   6.121
  883SOL    HW2 3549   4.678   5.874   5.990
  884SOL     OW 3550   0.246   4.010   0.114
  884SOL    HW1 3551   0.289   3.978   0.199
  884SOL    HW2 3552   0.182   3.941   0.080
  885SOL     OW 3553   4.744   5.755   6.284
  885SOL    HW1 3554   4.801   5.673   6.281
  885SOL    HW2 3555   4.753   5.798   6.373
  886SOL     OW 3556   4.166   1.041   1.425
  886SOL    HW1 3557   4.088   1.098   1.450
  886SOL    HW2 3558   4.147   0.945   1.449
  887SOL     OW 3559   3.448   6.901   4.326
  887SOL    HW1 3560   3.539   6.888   4.286
  887SOL    HW2 3561   3.381   6.849   4.273
  888SOL     OW 3562   6.008   5.690   3.161
  888SOL    HW1 3563   5.935   5.707   3.094
  888SOL    HW2 3564   6.023   5.591   3.170
  889SOL     OW 3565   1.673   6.367   6.076
  889SOL    HW1 3566   1.670   6.372   5.976
  889SOL    HW2 3567   1.638   6.452   6.114
  890SOL     OW 3568   2.318   5.055   2.114
  890SOL    HW1 3569   2.349   5.078   2.206
  890SOL    HW2 3570   2.383   5.091   2.047
  891SOL     OW 3571   6.259   3.956   0.176
  891SOL    HW1 3572   6.350   3.919   0.195
  891SOL    HW2 3573   6.208   3.963   0.261
  892SOL     OW 3574   3.941   3.970   5.503
  892SOL    HW1 3575   3.914   3.961   5.407
  892SOL    HW2 3576   3.928   3.882   5.549
  893SOL     OW 3577   1.964   0.990   2.109
  893SOL    HW1 3578   1.923   1.005   2.199
  893SOL    HW2 3579   1.954   0.893   2.085
  894SOL     OW 3580   1.372   2.569   2.861
  894SOL    HW1 3581   1.342   2.581   2.766
  894SOL    HW2 3582   1.347   2.650   2.914
  895SOL     OW 3583   0.699   5.150   4.178
  895SOL    HW1 3584   0.762   5.113   4.246
  895SOL    HW2 3585   0.622   5.088   4.166
  896SOL     OW 3586   6.356   6.650   1.516
  896SOL    HW1 3587   6.413   6.610   1.587
  896SOL    HW2 3588   6.357   6.591   1.435
  897SOL     OW 3589   4.578   0.686   6.616
  897SOL    HW1 3590   4.560   0.709   6.520
  897SOL    HW2 3591   4.643   0.611   6.620
  898SOL     OW 3592   3.767   6.300   3.179
  898SOL    HW1 3593   3.767   6.256   3.269
  898SOL    HW2 3594   3.695   6.260   3.123
  899SOL     OW 3595   0.586   5.001   0.862
  899SOL    HW1 3596   0.655   4.933   0.886
  899SOL    HW2 3597   0.588   5.018   0.764
  900SOL     OW 3598   4.301   6.488   0.202
  900SOL    HW1 3599   4.339   6.489   0.110
  900SOL    HW2 3600   4.212   6.534   0.203
  901SOL     OW 3601   1.177   1.204   5.220
  901SOL    HW1 3602   1.119   1.127   5.194
  901SOL    HW2 3603   1.187   1.207   5.319
  902SOL     OW 3604   0.777   1.982   0.927
  902SOL    HW1 3605   0.856   1.936   0.886
  902SOL    HW2 3606   0.730   1.919   0.988
  903SOL     OW 3607   6.856   3.713   5.859
  903SOL    HW1 3608   6.873   3.750   5.950
  903SOL    HW2 3609   6.795   3.634   5.866
  904SOL     OW 3610   1.832   2.788   2.875
  904SOL    HW1 3611   1.833   2.754   2.969
  904SOL    HW2 3612   1.821   2.711   2.812
  905SOL     OW 3613   4.794   3.979   5.968
  905SOL    HW1 3614   4.754   3.969   6.059
  905SOL    HW2 3615   4.721   3.981   5.900
  906SOL     OW 3616   0.879   3.012   6.331
  906SOL    HW1 3617   0.907   2.956   6.409
  906SOL    HW2 3618   0.949   3.081   6.312
  907SOL     OW 3619   5.439   2.699   2.894
  907SOL    HW1 3620   5.424   2.777   2.954
  907SOL    HW2 3621   5.425   2.614   2.945
  908SOL     OW 3622   2.050   5.518   3.066
  908SOL    HW1 3623   1.969   5.505   3.008
  908SOL    HW2 3624   2.021   5.548   3.157
  909SOL     OW 3625   2.979   5.940   2.453
  909SOL    HW1 3626   2.941   5.993   2.529
  909SOL    HW2 3627   3.076   5.920   2.472
  910SOL     OW 3628   2.713   0.980   0.835
  910SOL    HW1 3629   2.628   0.979   0.887
  910SOL    HW2 3630   2.715   0.901   0.773
  911SOL     OW 3631   0.096   5.321   0.830
  911SOL    HW1 3632   0.063   5.351   0.741
  911SOL    HW2 3633   0.095   5.398   0.894
  912SOL     OW 3634   5.820   0.390   3.763
  912SOL    HW1 3635   5.791   0.348   3.677
  912SOL    HW2 3636   5.900   0.342   3.798
  913SOL     OW 3637   1.281   0.942   3.168
  913SOL    HW1 3638   1.200   0.894   3.134
  913SOL    HW2 3639   1.339   0.878   3.219
  914SOL     OW 3640   2.317   5.640   4.797
  914SOL    HW1 3641   2.392   5.658   4.861
  914SOL    HW2 3642   2.248   5.712   4.804
  915SOL     OW 3643   0.957   3.668   0.349
  915SOL    HW1 3644   1.032   3.646   0.288
  915SOL    HW2 3645   0.982   3.745   0.408
  916SOL     OW 3646   1.282   2.529   1.971
  916SOL    HW1 3647   1.244   2.473   1.897
  916SOL    HW2 3648   1.334   2.470   2.033
  917SOL     OW 3649   5.697   0.812   1.922
  917SOL    HW1 3650   5.721   0.906   1.946
  917SOL    HW2 3651   5.603   0.793   1.951
  918SOL     OW 3652   3.073   6.850   0.184
  918SOL    HW1 3653   3.169   6.829   0.204
  918SOL    HW2 3654   3.027   6.881   0.267
  919SOL     OW 3655   6.510   5.423   2.712
  919SOL    HW1 3656   6.545   5.351   2.771
  919SOL    HW2 3657   6.585   5.463   2.660
  920SOL     OW 3658   2.293   5.653   3.029
  920SOL    HW1 3659   2.211   5.604   3.059
  920SOL    HW2 3660   2.299   5.740   3.080
  921SOL     OW 3661   4.763   4.447   2.676
  921SOL    HW1 3662   4.757   4.373   2.609
  921SOL    HW2 3663   4.709   4.525   2.645
  922SOL     OW 3664   3.324   3.051   5.548
  922SOL    HW1 3665   3.340   3.137   5.596
  922SOL    HW2 3666   3.392   2.984   5.577
  923SOL     OW 3667   2.824   5.054   5.864
  923SOL    HW1 3668   2.863   5.014   5.946
  923SOL    HW2 3669   2.845   5.152   5.861
  924SOL     OW 3670   6.185   2.480   2.855
  924SOL    HW1 3671   6.147   2.548   2.792
  924SOL    HW2 3672   6.112   2.445   2.914
  925SOL     OW 3673   0.009   1.916   6.434
  925SOL    HW1 3674   0.036   1.994   6.491
  925SOL    HW2 3675   0.026   1.831   6.483
  926SOL     OW 3676   5.754   1.600   0.577
  926SOL    HW1 3677   5.765   1.501   0.593
  926SOL    HW2 3678   5.658   1.624   0.584
  927SOL     OW 3679   6.101   3.517   3.714
  927SOL    HW1 3680   6.154   3.598   3.689
  927SOL    HW2 3681   6.025   3.507   3.650
  928SOL     OW 3682   1.126   5.419   0.736
  928SOL    HW1 3683   1.200   5.400   0.802
  928SOL    HW2 3684   1.090   5.511   0.753
  929SOL     OW 3685   0.007   0.584   1.556
  929SOL    HW1 3686   0.105   0.581   1.575
  929SOL    HW2 3687   7.013   0.600   1.459
  930SOL     OW 3688   5.221   6.363   4.364
  930SOL    HW1 3689   5.131   6.400   4.389
  930SOL    HW2 3690   5.261   6.318   4.443
  931SOL     OW 3691   5.653   2.438   2.846
  931SOL    HW1 3692   5.650   2.354   2.900
  931SOL    HW2 3693   5.590   2.431   2.769
  932SOL     OW 3694   3.551   6.694   2.974
  932SOL    HW1 3695   3.587   6.671   3.064
  932SOL    HW2 3696   3.624   6.687   2.906
  933SOL     OW 3697   0.837   5.349   3.096
  933SOL    HW1 3698   0.750   5.309   3.126
  933SOL    HW2 3699   0.913   5.296   3.135
  934SOL     OW 3700   1.766   0.690   4.983
  934SOL    HW1 3701   1.703   0.767   4.970
  934SOL    HW2 3702   1.812   0.670   4.897
  935SOL     OW 3703   4.927   4.429   4.938
  935SOL    HW1 3704   4.985   4.349   4.959
  935SOL    HW2 3705   4.933   4.495   5.013
  936SOL     OW 3706   1.294   0.504   6.387
  936SOL    HW1 3707   1.291   0.574   6.458
  936SOL    HW2 3708   1.383   0.458   6.389
  937SOL     OW 3709   5.091   1.276   4.960
  937SOL    HW1 3710   5.124   1.183   4.948
  937SOL    HW2 3711   4.994   1.276   4.981
  938SOL     OW 3712   6.752   5.658   6.000
  938SOL    HW1 3713   6.699   5.711   5.934
  938SOL    HW2 3714   6.826   5.713   6.037
  939SOL     OW 3715   5.964   0.407   5.781
  939SOL    HW1 3716   5.973   0.481   5.848
  939SOL    HW2 3717   5.949   0.446   5.690
  940SOL     OW 3718   0.513   2.917   1.740
  940SOL    HW1 3719   0.549   2.854   1.809
  940SOL    HW2 3720   0.588   2.955   1.686
  941SOL     OW 3721   6.079   1.098   5.596
  941SOL    HW1 3722   6.169   1.097   5.552
  941SOL    HW2 3723   6.069   1.017   5.653
  942SOL     OW 3724   5.021   0.154   3.511
  942SOL    HW1 3725   5.009   0.083   3.442
  942SOL    HW2 3726   4.933   0.173   3.555
  943SOL     OW 3727   1.948   3.521   3.502
  943SOL    HW1 3728   1.873   3.581   3.475
  943SOL    HW2 3729   1.949   3.440   3.443
  944SOL     OW 3730   6.969   3.861   5.645
  944SOL    HW1 3731   6.927   3.815   5.723
  944SOL    HW2 3732   0.047   3.862   5.657
  945SOL     OW 3733   6.190   4.094   5.154
  945SOL    HW1 3734   6.258   4.154   5.112
  945SOL    HW2 3735   6.195   4.004   5.112
  946SOL     OW 3736   4.806   2.290   6.009
  946SOL    HW1 3737   4.779   2.334   5.923
  946SOL    HW2 3738   4.731   2.232   6.042
  947SOL     OW 3739   3.731   2.912   4.259
  947SOL    HW1 3740   3.791   2.935   4.183
  947SOL    HW2 3741   3.639   2.893   4.223
  948SOL     OW 3742   4.145   0.617   1.301
  948SOL    HW1 3743   4.240   0.615   1.270
  948SOL    HW2 3744   4.140   0.659   1.392
  949SOL     OW 3745   0.805   5.959   6.197
  949SOL    HW1 3746   0.787   5.902   6.117
  949SOL    HW2 3747   0.762   6.048   6.185
  950SOL     OW 3748   4.732   5.149   1.627
  950SOL    HW1 3749   4.639   5.113   1.622
  950SOL    HW2 3750   4.797   5.075   1.640
  951SOL     OW 3751   2.209   0.677   3.806
  951SOL    HW1 3752   2.231   0.768   3.771
  951SOL    HW2 3753   2.289   0.618   3.796
  952SOL     OW 3754   5.062   2.501   3.040
  952SOL    HW1 3755   5.018   2.420   2.999
  952SOL    HW2 3756   5.159   2.483   3.054
  953SOL     OW 3757   5.148   5.392   4.050
  953SOL    HW1 3758   5.064   5.340   4.066
  953SOL    HW2 3759   5.152   5.468   4.115
  954SOL     OW 3760   4.731   5.903   0.825
  954SOL    HW1 3761   4.830   5.888   0.832
  954SOL    HW2 3762   4.695   5.926   0.916
  955SOL     OW 3763   6.958   4.115   2.690
  955SOL    HW1 3764   6.924   4.063   2.768
  955SOL    HW2 3765   6.895   4.105   2.613
  956SOL     OW 3766   0.058   2.476   2.814
  956SOL    HW1 3767   0.122   2.548   2.841
  956SOL    HW2 3768   0.108   2.390   2.800
  957SOL     OW 3769   0.038   4.596   5.026
  957SOL    HW1 3770   6.990   4.544   5.077
  957SOL    HW2 3771   0.110   4.625   5.089
  958SOL     OW 3772   4.366   1.376   2.556
  958SOL    HW1 3773   4.405   1.442   2.491
  958SOL    HW2 3774   4.312   1.424   2.624
  959SOL     OW 3775   3.679   5.373   3.085
  959SOL    HW1 3776   3.720   5.399   2.998
  959SOL    HW2 3777   3.710   5.435   3.157
  960SOL     OW 3778   1.227   5.578   3.433
  960SOL    HW1 3779   1.327   5.582   3.433
  960SOL    HW2 3780   1.193   5.617   3.347
  961SOL     OW 3781   4.798   0.150   3.653
  961SOL    HW1 3782   4.786   0.212   3.731
  961SOL    HW2 3783   4.742   0.068   3.667
  962SOL     OW 3784   1.005   0.675   4.759
  962SOL    HW1 3785   0.966   0.584   4.774
  962SOL    HW2 3786   1.092   0.667   4.711
  963SOL     OW 3787   6.949   1.880   6.033
  963SOL    HW1 3788   6.917   1.970   6.062
  963SOL    HW2 3789   7.004   1.839   6.106
  964SOL     OW 3790   5.788   4.370   6.925
  964SOL    HW1 3791   5.807   4.303   6.854
  964SOL    HW2 3792   5.763   4.323   7.010
  965SOL     OW 3793   5.776   1.893   0.968
  965SOL    HW1 3794   5.724   1.878   0.884
  965SOL    HW2 3795   5.732   1.964   1.022
  966SOL     OW 3796   5.274   2.597   1.585
  966SOL    HW1 3797   5.335   2.523   1.612
  966SOL    HW2 3798   5.182   2.562   1.572
  967SOL     OW 3799   1.850   4.280   2.018
  967SOL    HW1 3800   1.834   4.313   1.925
  967SOL    HW2 3801   1.785   4.323   2.081
  968SOL     OW 3802   3.599   1.170   1.794
  968SOL    HW1 3803   3.542   1.123   1.861
  968SOL    HW2 3804   3.597   1.269   1.812
  969SOL     OW 3805   3.216   5.993   5.736
  969SOL    HW1 3806   3.314   5.986   5.756
  969SOL    HW2 3807   3.196   5.948   5.649
  970SOL     OW 3808   5.328   0.702   6.155
  970SOL    HW1 3809   5.279   0.783   6.123
  970SOL    HW2 3810   5.376   0.660   6.078
  971SOL     OW 3811   6.831   1.862   3.187
  971SOL    HW1 3812   6.754   1.896   3.132
  971SOL    HW2 3813   6.903   1.829   3.126
  972SOL     OW 3814   5.341   3.824   1.530
  972SOL    HW1 3815   5.398   3.906   1.522
  972SOL    HW2 3816   5.384   3.760   1.594
  973SOL     OW 3817   6.930   4.519   6.972
  973SOL    HW1 3818   6.942   4.427   6.935
  973SOL    HW2 3819   6.892   4.513   0.043
  974SOL     OW 3820   5.446   6.378   2.578
  974SOL    HW1 3821   5.535   6.421   2.563
  974SOL    HW2 3822   5.447   6.285   2.541
  975SOL     OW 3823   1.861   6.021   6.305
  975SOL    HW1 3824   1.823   5.939   6.350
  975SOL    HW2 3825   1.794   6.058   6.241
  976SOL     OW 3826   0.381   3.476   3.173
  976SOL    HW1 3827   0.341   3.392   3.136
  976SOL    HW2 3828   0.370   3.550   3.106
  977SOL     OW 3829   1.294   0.509   2.550
  977SOL    HW1 3830   1.369   0.523   2.485
  977SOL    HW2 3831   1.242   0.428   2.524
  978SOL     OW 3832   4.738   3.869   5.545
  978SOL    HW1 3833   4.661   3.828   5.496
  978SOL    HW2 3834   4.715   3.876   5.643
  979SOL     OW 3835   6.367   2.173   0.625
  979SOL    HW1 3836   6.379   2.212   0.717
  979SOL    HW2 3837   6.276   2.131   0.619
  980SOL     OW 3838   4.481   2.492   4.126
  980SOL    HW1 3839   4.513   2.545   4.204
  980SOL    HW2 3840   4.468   2.552   4.047
  981SOL     OW 3841   0.914   1.686   4.988
  981SOL    HW1 3842   0.877   1.717   4.901
  981SOL    HW2 3843   1.011   1.663   4.977
  982SOL     OW 3844   2.443   2.292   3.842
  982SOL    HW1 3845   2.432   2.368   3.777
  982SOL    HW2 3846   2.535   2.295   3.881
  983SOL     OW 3847   5.436   2.509   4.696
  983SOL    HW1 3848   5.449   2.438   4.765
  983SOL    HW2 3849   5.504   2.498   4.623
  984SOL     OW 3850   2.736   1.496   4.394
  984SOL    HW1 3851   2.661   1.443   4.433
  984SOL    HW2 3852   2.702   1.586   4.364
  985SOL     OW 3853   5.492   4.536   5.899
  985SOL    HW1 3854   5.504   4.566   5.805
  985SOL    HW2 3855   5.415   4.586   5.940
  986SOL     OW 3856   6.095   4.241   0.712
  986SOL    HW1 3857   6.173   4.276   0.660
  986SOL    HW2 3858   6.083   4.297   0.794
  987SOL     OW 3859   4.586   6.939   1.666
  987SOL    HW1 3860   4.492   6.913   1.643
  987SOL    HW2 3861   4.622   7.001   1.597
  988SOL     OW 3862   3.333   3.644   3.099
  988SOL    HW1 3863   3.386   3.563   3.122
  988SOL    HW2 3864   3.321   3.649   3.000
  989SOL     OW 3865   6.366   0.412   5.290
  989SOL    HW1 3866   6.267   0.400   5.297
  989SOL    HW2 3867   6.408   0.388   5.378
  990SOL     OW 3868   3.685   0.425   2.003
  990SOL    HW1 3869   3.721   0.341   2.043
  990SOL    HW2 3870   3.751   0.463   1.938
  991SOL     OW 3871   1.323   2.884   5.359
  991SOL    HW1 3872   1.338   2.796   5.404
  991SOL    HW2 3873   1.284   2.870   5.268
  992SOL     OW 3874   6.603   2.739   2.367
  992SOL    HW1 3875   6.688   2.687   2.380
  992SOL    HW2 3876   6.531   2.701   2.425
  993SOL     OW 3877   1.443   4.110   1.595
  993SOL    HW1 3878   1.482   4.165   1.668
  993SOL    HW2 3879   1.363   4.061   1.629
  994SOL     OW 3880   3.422   4.101   2.346
  994SOL    HW1 3881   3.324   4.095   2.326
  994SOL    HW2 3882   3.462   4.175   2.291
  995SOL     OW 3883   3.691   2.710   5.500
  995SOL    HW1 3884   3.670   2.727   5.403
  995SOL    HW2 3885   3.761   2.638   5.506
  996SOL     OW 3886   2.984   4.827   4.086
  996SOL    HW1 3887   2.992   4.847   4.184
  996SOL    HW2 3888   2.931   4.744   4.074
  997SOL     OW 3889   1.251   1.216   3.218
  997SOL    HW1 3890   1.315   1.252   3.150
  997SOL    HW2 3891   1.264   1.117   3.226
  998SOL     OW 3892   4.678   0.384   4.367
  998SOL    HW1 3893   4.777   0.377   4.363
  998SOL    HW2 3894   4.651   0.422   4.456
  999SOL     OW 3895   5.119   4.693   2.486
  999SOL    HW1 3896   5.055   4.622   2.458
  999SOL    HW2 3897   5.204   4.685   2.434
 1000SOL     OW 3898   2.400   1.135   2.190
 1000SOL    HW1 3899   2.390   1.207   2.121
 1000SOL    HW2 3900   2.476   1.158   2.251
 1001SOL     OW 3901   5.113   6.598   0.347
 1001SOL    HW1 3902   5.202   6.553   0.341
 1001SOL    HW2 3903   5.044   6.539   0.304
 1002SOL     OW 3904   6.020   1.851   0.550
 1002SOL    HW1 3905   6.014   1.797   0.466
 1002SOL    HW2 3906   6.002   1.791   0.629
 1003SOL     OW 3907   2.049   5.957   2.035
 1003SOL    HW1 3908   2.140   5.930   2.003
 1003SOL    HW2 3909   2.007   5.881   2.083
 1004SOL     OW 3910   0.513   0.065   2.205
 1004SOL    HW1 3911   0.551   0.156   2.222
 1004SOL    HW2 3912   0.422   0.059   2.247
 1005SOL     OW 3913   2.030   2.775   3.868
 1005SOL    HW1 3914   2.065   2.702   3.810
 1005SOL    HW2 3915   2.058   2.759   3.963
 1006SOL     OW 3916   1.449   4.567   0.990
 1006SOL    HW1 3917   1.504   4.645   1.022
 1006SOL    HW2 3918   1.501   4.517   0.921
 1007SOL     OW 3919   4.477   0.281   5.309
 1007SOL    HW1 3920   4.502   0.188   5.283
 1007SOL    HW2 3921   4.527   0.347   5.253
 1008SOL     OW 3922   1.665   2.791   4.884
 1008SOL    HW1 3923   1.697   2.799   4.978
 1008SOL    HW2 3924   1.606   2.710   4.875
 1009SOL     OW 3925   0.209   5.596   4.955
 1009SOL    HW1 3926   0.282   5.631   5.014
 1009SOL    HW2 3927   0.122   5.637   4.981
 1010SOL     OW 3928   3.479   2.850   5.638
 1010SOL    HW1 3929   3.448   2.865   5.732
 1010SOL    HW2 3930   3.573   2.817   5.638
 1011SOL     OW 3931   2.350   5.090   2.404
 1011SOL    HW1 3932   2.292   5.156   2.453
 1011SOL    HW2 3933   2.371   5.013   2.464
 1012SOL     OW 3934   6.880   0.381   1.387
 1012SOL    HW1 3935   6.858   0.474   1.416
 1012SOL    HW2 3936   6.798   0.324   1.391
 1013SOL     OW 3937   0.777   1.079   5.324
 1013SOL    HW1 3938   0.732   1.153   5.272
 1013SOL    HW2 3939   0.867   1.061   5.284
 1014SOL     OW 3940   5.446   5.907   6.542
 1014SOL    HW1 3941   5.372   5.968   6.515
 1014SOL    HW2 3942   5.424   5.813   6.513
 1015SOL     OW 3943   2.745   6.486   5.731
 1015SOL    HW1 3944   2.704   6.431   5.658
 1015SOL    HW2 3945   2.783   6.425   5.801
 1016SOL     OW 3946   3.991   3.507   6.785
 1016SOL    HW1 3947   4.080   3.518   6.831
 1016SOL    HW2 3948   3.953   3.417   6.808
 1017SOL     OW 3949   4.108   2.750   1.485
 1017SOL    HW1 3950   4.097   2.668   1.430
 1017SOL    HW2 3951   4.141   2.726   1.576
 1018SOL     OW 3952   0.503   3.632   4.450
 1018SOL    HW1 3953   0.456   3.559   4.401
 1018SOL    HW2 3954   0.518   3.604   4.545
 1019SOL     OW 3955   0.006   6.862   1.275
 1019SOL    HW1 3956   0.025   6.950   1.320
 1019SOL    HW2 3957   6.961   6.877   1.202
 1020SOL     OW 3958   0.645   0.661   1.429
 1020SOL    HW1 3959   0.694   0.744   1.400
 1020SOL    HW2 3960   0.618   0.609   1.349
 1021SOL     OW 3961   5.015   6.748   1.384
 1021SOL    HW1 3962   4.969   6.756   1.473
 1021SOL    HW2 3963   5.112   6.773   1.395
 1022SOL     OW 3964   4.123   5.016   5.530
 1022SOL    HW1 3965   4.158   5.083   5.595
 1022SOL    HW2 3966   4.075   5.062   5.456
 1023SOL     OW 3967   0.918   6.578   2.904
 1023SOL    HW1 3968   0.976   6.659   2.911
 1023SOL    HW2 3969   0.833   6.601   2.855
 1024SOL     OW 3970   0.106   2.173   4.283
 1024SOL    HW1 3971   0.085   2.257   4.233
 1024SOL    HW2 3972   0.086   2.094   4.225
 1025SOL     OW 3973   2.509   2.649   1.112
 1025SOL    HW1 3974   2.567   2.580   1.068
 1025SOL    HW2 3975   2.423   2.606   1.141
 1026SOL     OW 3976   2.104   2.771   1.567
 1026SOL    HW1 3977   2.008   2.785   1.540
 1026SOL    HW2 3978   2.108   2.706   1.643
 1027SOL     OW 3979   3.047   6.551   1.497
 1027SOL    HW1 3980   2.951   6.570   1.518
 1027SOL    HW2 3981   3.058   6.540   1.398
 1028SOL     OW 3982   3.159   6.218   0.220
 1028SOL    HW1 3983   3.061   6.238   0.224
 1028SOL    HW2 3984   3.183   6.156   0.295
 1029SOL     OW 3985   1.746   6.793   6.995
 1029SOL    HW1 3986   1.791   6.815   0.060
 1029SOL    HW2 3987   1.684   6.867   6.970
 1030SOL     OW 3988   2.872   3.327   1.979
 1030SOL    HW1 3989   2.925   3.246   1.951
 1030SOL    HW2 3990   2.829   3.367   1.898
 1031SOL     OW 3991   5.157   4.885   0.727
 1031SOL    HW1 3992   5.085   4.872   0.795
 1031SOL    HW2 3993   5.203   4.798   0.710
 1032SOL     OW 3994   2.344   1.848   4.703
 1032SOL    HW1 3995   2.249   1.820   4.714
 1032SOL    HW2 3996   2.391   1.838   4.791
 1033SOL     OW 3997   1.779   6.612   0.999
 1033SOL    HW1 3998   1.769   6.697   0.947
 1033SOL    HW2 3999   1.806   6.538   0.937
 1034SOL     OW 4000   0.561   5.428   4.830
 1034SOL    HW1 4001   0.513   5.426   4.918
 1034SOL    HW2 4002   0.515   5.367   4.765
 1035SOL     OW 4003   1.039   0.959   4.832
 1035SOL    HW1 4004   1.054   0.869   4.790
 1035SOL    HW2 4005   0.952   0.959   4.882
 1036SOL     OW 4006   3.433   1.053   1.982
 1036SOL    HW1 4007   3.464   1.060   2.077
 1036SOL    HW2 4008   3.334   1.041   1.981
 1037SOL     OW 4009   1.472   0.970   1.613
 1037SOL    HW1 4010   1.527   0.894   1.578
 1037SOL    HW2 4011   1.376   0.942   1.618
 1038SOL     OW 4012   1.042   0.016   5.114
 1038SOL    HW1 4013   1.055   0.064   5.027
 1038SOL    HW2 4014   1.014   6.943   5.097
 1039SOL     OW 4015   3.319   3.559   5.810
 1039SOL    HW1 4016   3.361   3.518   5.891
 1039SOL    HW2 4017   3.337   3.658   5.809
 1040SOL     OW 4018   4.944   3.054   2.560
 1040SOL    HW1 4019   4.935   3.004   2.647
 1040SOL    HW2 4020   4.923   2.992   2.484
 1041SOL     OW 4021   6.832   6.942   3.555
 1041SOL    HW1 4022   6.861   6.897   3.470
 1041SOL    HW2 4023   6.820   6.873   3.626
 1042SOL     OW 4024   4.656   5.102   2.277
 1042SOL    HW1 4025   4.559   5.078   2.286
 1042SOL    HW2 4026   4.683   5.162   2.353
 1043SOL     OW 4027   3.702   1.612   5.209
 1043SOL    HW1 4028   3.679   1.515   5.208
 1043SOL    HW2 4029   3.783   1.627   5.266
 1044SOL     OW 4030   5.397   4.434   2.388
 1044SOL    HW1 4031   5.457   4.420   2.310
 1044SOL    HW2 4032   5.365   4.529   2.389
 1045SOL     OW 4033   4.350   6.405   2.438
 1045SOL    HW1 4034   4.317   6.493   2.404
 1045SOL    HW2 4035   4.275   6.339   2.441
 1046SOL     OW 4036   1.281   0.695   0.223
 1046SOL    HW1 4037   1.299   0.776   0.278
 1046SOL    HW2 4038   1.201   0.647   0.259
 1047SOL     OW 4039   1.592   1.375   3.253
 1047SOL    HW1 4040   1.614   1.454   3.311
 1047SOL    HW2 4041   1.667   1.309   3.257
 1048SOL     OW 4042   5.362   6.569   4.219
 1048SOL    HW1 4043   5.284   6.631   4.224
 1048SOL    HW2 4044   5.346   6.491   4.280
 1049SOL     OW 4045   6.497   5.978   4.031
 1049SOL    HW1 4046   6.497   6.074   4.058
 1049SOL    HW2 4047   6.409   5.937   4.055
 1050SOL     OW 4048   4.500   5.232   0.943
 1050SOL    HW1 4049   4.592   5.192   0.939
 1050SOL    HW2 4050   4.497   5.304   1.013
 1051SOL     OW 4051   2.784   5.662   0.944
 1051SOL    HW1 4052   2.849   5.589   0.924
 1051SOL    HW2 4053   2.792   5.689   1.040
 1052SOL     OW 4054   3.634   0.587   4.847
 1052SOL    HW1 4055   3.733   0.596   4.848
 1052SOL    HW2 4056   3.605   0.548   4.759
 1053SOL     OW 4057   5.756   5.028   3.281
 1053SOL    HW1 4058   5.720   5.058   3.370
 1053SOL    HW2 4059   5.686   5.040   3.211
 1054SOL     OW 4060   2.797   4.146   5.935
 1054SOL    HW1 4061   2.848   4.161   6.020
 1054SOL    HW2 4062   2.737   4.225   5.918
 1055SOL     OW 4063   4.316   0.023   4.543
 1055SOL    HW1 4064   4.331   0.038   4.641
 1055SOL    HW2 4065   4.235   6.987   4.530
 1056SOL     OW 4066   1.949   5.097   6.243
 1056SOL    HW1 4067   1.993   5.063   6.326
 1056SOL    HW2 4068   1.870   5.152   6.268
 1057SOL     OW 4069   3.188   3.435   2.243
 1057SOL    HW1 4070   3.100   3.399   2.275
 1057SOL    HW2 4071   3.197   3.417   2.145
 1058SOL     OW 4072   4.616   1.509   3.481
 1058SOL    HW1 4073   4.674   1.523   3.561
 1058SOL    HW2 4074   4.659   1.444   3.419
 1059SOL     OW 4075   2.377   6.829   1.296
 1059SOL    HW1 4076   2.313   6.813   1.371
 1059SOL    HW2 4077   2.405   6.741   1.257
 1060SOL     OW 4078   0.176   4.386   4.348
 1060SOL    HW1 4079   0.211   4.447   4.419
 1060SOL    HW2 4080   0.103   4.328   4.387
 1061SOL     OW 4081   5.607   3.802   1.164
 1061SOL    HW1 4082   5.639   3.747   1.086
 1061SOL    HW2 4083   5.511   3.827   1.151
 1062SOL     OW 4084   5.836   3.962   6.354
 1062SOL    HW1 4085   5.856   3.874   6.396
 1062SOL    HW2 4086   5.761   3.952   6.288
 1063SOL     OW 4087   1.874   4.807   1.994
 1063SOL    HW1 4088   1.940   4.881   2.011
 1063SOL    HW2 4089   1.786   4.832   2.034
 1064SOL     OW 4090   1.725   3.819   1.504
 1064SOL    HW1 4091   1.697   3.911   1.476
 1064SOL    HW2 4092   1.659   3.752   1.470
 1065SOL     OW 4093   3.849   0.221   3.876
 1065SOL    HW1 4094   3.780   0.287   3.906
 1065SOL    HW2 4095   3.888   0.250   3.789
 1066SOL     OW 4096   4.624   0.575   3.914
 1066SOL    HW1 4097   4.609   0.650   3.849
 1066SOL    HW2 4098   4.614   0.609   4.007
 1067SOL     OW 4099   0.496   3.469   0.806
 1067SOL    HW1 4100   0.533   3.377   0.792
 1067SOL    HW2 4101   0.471   3.481   0.902
 1068SOL     OW 4102   5.698   5.132   2.832
 1068SOL    HW1 4103   5.659   5.209   2.781
 1068SOL    HW2 4104   5.796   5.126   2.812
 1069SOL     OW 4105   4.374   4.926   0.796
 1069SOL    HW1 4106   4.285   4.927   0.842
 1069SOL    HW2 4107   4.361   4.902   0.700
 1070SOL     OW 4108   0.248   0.113   2.307
 1070SOL    HW1 4109   0.249   0.206   2.344
 1070SOL    HW2 4110   0.219   0.049   2.379
 1071SOL     OW 4111   1.639   0.939   3.162
 1071SOL    HW1 4112   1.582   0.917   3.241
 1071SOL    HW2 4113   1.702   0.864   3.144
 1072SOL     OW 4114   2.346   0.642   0.533
 1072SOL    HW1 4115   2.289   0.565   0.563
 1072SOL    HW2 4116   2.442   0.615   0.538
 1073SOL     OW 4117   4.847   0.010   1.446
 1073SOL    HW1 4118   4.932   0.020   1.394
 1073SOL    HW2 4119   4.853   6.951   1.505
 1074SOL     OW 4120   2.501   5.698   0.960
 1074SOL    HW1 4121   2.464   5.607   0.947
 1074SOL    HW2 4122   2.595   5.692   0.992
 1075SOL     OW 4123   4.704   6.800   4.120
 1075SOL    HW1 4124   4.765   6.753   4.056
 1075SOL    HW2 4125   4.672   6.885   4.078
 1076SOL     OW 4126   6.902   3.092   5.882
 1076SOL    HW1 4127   6.860   3.148   5.810
 1076SOL    HW2 4128   6.998   3.076   5.859
 1077SOL     OW 4129   5.670   0.357   1.252
 1077SOL    HW1 4130   5.662   0.332   1.155
 1077SOL    HW2 4131   5.627   0.446   1.267
 1078SOL     OW 4132   1.024   1.606   2.730
 1078SOL    HW1 4133   0.946   1.548   2.751
 1078SOL    HW2 4134   1.021   1.634   2.635
 1079SOL     OW 4135   2.269   6.115   2.545
 1079SOL    HW1 4136   2.297   6.203   2.582
 1079SOL    HW2 4137   2.269   6.118   2.445
 1080SOL     OW 4138   1.135   4.211   4.112
 1080SOL    HW1 4139   1.176   4.301   4.125
 1080SOL    HW2 4140   1.200   4.150   4.067
 1081SOL     OW 4141   6.962   5.797   6.096
 1081SOL    HW1 4142   0.029   5.782   6.141
 1081SOL    HW2 4143   6.922   5.883   6.129
 1082SOL     OW 4144   3.868   1.968   5.717
 1082SOL    HW1 4145   3.828   2.049   5.760
 1082SOL    HW2 4146   3.796   1.902   5.696
 1083SOL     OW 4147   4.430   3.799   0.109
 1083SOL    HW1 4148   4.345   3.765   0.150
 1083SOL    HW2 4149   4.492   3.723   0.092
 1084SOL     OW 4150   5.992   6.064   6.933
 1084SOL    HW1 4151   6.020   6.128   6.861
 1084SOL    HW2 4152   6.059   6.067   7.007
 1085SOL     OW 4153   1.233   3.961   4.504
 1085SOL    HW1 4154   1.328   3.970   4.534
 1085SOL    HW2 4155   1.213   4.034   4.438
 1086SOL     OW 4156   6.636   6.292   1.172
 1086SOL    HW1 4157   6.702   6.247   1.111
 1086SOL    HW2 4158   6.672   6.293   1.265
 1087SOL     OW 4159   5.583   2.250   5.163
 1087SOL    HW1 4160   5.635   2.182   5.110
 1087SOL    HW2 4161   5.623   2.258   5.254
 1088SOL     OW 4162   6.321   4.393   3.376
 1088SOL    HW1 4163   6.272   4.463   3.429
 1088SOL    HW2 4164   6.267   4.309   3.374
 1089SOL     OW 4165   1.399   6.170   4.421
 1089SOL    HW1 4166   1.464   6.131   4.356
 1089SOL    HW2 4167   1.440   6.172   4.512
 1090SOL     OW 4168   2.107   1.759   3.475
 1090SOL    HW1 4169   2.074   1.850   3.502
 1090SOL    HW2 4170   2.037   1.691   3.495
 1091SOL     OW 4171   2.666   2.230   5.421
 1091SOL    HW1 4172   2.574   2.214   5.386
 1091SOL    HW2 4173   2.665   2.226   5.520
 1092SOL     OW 4174   2.149   4.397   1.119
 1092SOL    HW1 4175   2.196   4.310   1.106
 1092SOL    HW2 4176   2.139   4.443   1.031
 1093SOL     OW 4177   2.078   1.406   2.062
 1093SOL    HW1 4178   2.040   1.316   2.086
 1093SOL    HW2 4179   2.073   1.466   2.142
 1094SOL     OW 4180   0.987   6.766   3.446
 1094SOL    HW1 4181   1.010   6.709   3.524
 1094SOL    HW2 4182   0.889   6.756   3.426
 1095SOL     OW 4183   0.418   2.869   6.665
 1095SOL    HW1 4184   0.435   2.819   6.580
 1095SOL    HW2 4185   0.504   2.895   6.707
 1096SOL     OW 4186   3.368   4.586   1.651
 1096SOL    HW1 4187   3.409   4.495   1.639
 1096SOL    HW2 4188   3.421   4.637   1.719
 1097SOL     OW 4189   2.074   4.347   4.183
 1097SOL    HW1 4190   2.137   4.274   4.211
 1097SOL    HW2 4191   2.013   4.369   4.259
 1098SOL     OW 4192   4.608   3.595   0.525
 1098SOL    HW1 4193   4.586   3.673   0.466
 1098SOL    HW2 4194   4.696   3.556   0.497
 1099SOL     OW 4195   4.625   1.676   5.415
 1099SOL    HW1 4196   4.642   1.747   5.483
 1099SOL    HW2 4197   4.533   1.686   5.377
 1100SOL     OW 4198   3.511   2.084   6.068
 1100SOL    HW1 4199   3.469   2.082   6.159
 1100SOL    HW2 4200   3.607   2.056   6.075
 1101SOL     OW 4201   5.899   2.383   0.017
 1101SOL    HW1 4202   5.880   2.301   0.071
 1101SOL    HW2 4203   5.820   2.444   0.020
 1102SOL     OW 4204   0.701   5.889   4.808
 1102SOL    HW1 4205   0.612   5.923   4.775
 1102SOL    HW2 4206   0.708   5.791   4.790
 1103SOL     OW 4207   3.634   2.148   1.018
 1103SOL    HW1 4208   3.582   2.136   0.933
 1103SOL    HW2 4209   3.716   2.091   1.015
 1104SOL     OW 4210   2.301   3.052   5.413
 1104SOL    HW1 4211   2.371   3.048   5.342
 1104SOL    HW2 4212   2.328   3.118   5.483
 1105SOL     OW 4213   6.511   3.702   4.829
 1105SOL    HW1 4214   6.444   3.663   4.767
 1105SOL    HW2 4215   6.487   3.797   4.849
 1106SOL     OW 4216   0.908   1.780   1.663
 1106SOL    HW1 4217   0.869   1.805   1.751
 1106SOL    HW2 4218   0.977   1.709   1.675
 1107SOL     OW 4219   1.779   0.537   6.458
 1107SOL    HW1 4220   1.835   0.550   6.375
 1107SOL    HW2 4221   1.805   0.451   6.502
 1108SOL     OW 4222   3.879   0.317   5.599
 1108SOL    HW1 4223   3.926   0.323   5.687
 1108SOL    HW2 4224   3.787   0.279   5.614
 1109SOL     OW 4225   4.507   0.581   4.543
 1109SOL    HW1 4226   4.572   0.655   4.523
 1109SOL    HW2 4227   4.450   0.608   4.620
 1110SOL     OW 4228   2.549   1.959   3.422
 1110SOL    HW1 4229   2.612   1.978   3.346
 1110SOL    HW2 4230   2.472   1.905   3.388
 1111SOL     OW 4231   5.143   5.385   5.971
 1111SOL    HW1 4232   5.145   5.289   5.945
 1111SOL    HW2 4233   5.185   5.440   5.899
 1112SOL     OW 4234   5.058   1.603   2.469
 1112SOL    HW1 4235   5.121   1.591   2.546
 1112SOL    HW2 4236   5.013   1.516   2.449
 1113SOL     OW 4237   0.062   3.435   2.504
 1113SOL    HW1 4238   0.089   3.405   2.413
 1113SOL    HW2 4239   0.124   3.508   2.534
 1114SOL     OW 4240   3.832   1.812   6.642
 1114SOL    HW1 4241   3.931   1.814   6.647
 1114SOL    HW2 4242   3.803   1.795   6.547
 1115SOL     OW 4243   4.082   3.411   0.413
 1115SOL    HW1 4244   4.164   3.355   0.402
 1115SOL    HW2 4245   4.093   3.470   0.493
 1116SOL     OW 4246   5.069   6.750   4.905
 1116SOL    HW1 4247   5.083   6.700   4.990
 1116SOL    HW2 4248   5.131   6.828   4.900
 1117SOL     OW 4249   1.074   2.336   2.070
 1117SOL    HW1 4250   1.001   2.300   2.012
 1117SOL    HW2 4251   1.058   2.433   2.088
 1118SOL     OW 4252   2.459   4.555   1.258
 1118SOL    HW1 4253   2.389   4.627   1.258
 1118SOL    HW2 4254   2.541   4.588   1.305
 1119SOL     OW 4255   4.439   4.505   0.278
 1119SOL    HW1 4256   4.448   4.452   0.362
 1119SOL    HW2 4257   4.464   4.448   0.200
 1120SOL     OW 4258   6.128   6.957   5.173
 1120SOL    HW1 4259   6.156   6.895   5.247
 1120SOL    HW2 4260   6.117   6.905   5.088
 1121SOL     OW 4261   5.132   5.044   2.857
 1121SOL    HW1 4262   5.223   5.063   2.822
 1121SOL    HW2 4263   5.081   5.130   2.865
 1122SOL     OW 4264   5.359   3.482   6.651
 1122SOL    HW1 4265   5.343   3.445   6.559
 1122SOL    HW2 4266   5.301   3.562   6.665
 1123SOL     OW 4267   5.136   1.253   3.151
 1123SOL    HW1 4268   5.118   1.167   3.199
 1123SOL    HW2 4269   5.226   1.288   3.179
 1124SOL     OW 4270   6.599   3.642   5.607
 1124SOL    HW1 4271   6.503   3.611   5.608
 1124SOL    HW2 4272   6.650   3.593   5.678
 1125SOL     OW 4273   3.355   1.643   5.038
 1125SOL    HW1 4274   3.363   1.549   5.072
 1125SOL    HW2 4275   3.358   1.643   4.938
 1126SOL     OW 4276   6.325   5.049   6.763
 1126SOL    HW1 4277   6.395   5.110   6.799
 1126SOL    HW2 4278   6.330   4.961   6.809
 1127SOL     OW 4279   4.659   5.050   4.358
 1127SOL    HW1 4280   4.745   5.061   4.308
 1127SOL    HW2 4281   4.587   5.022   4.295
 1128SOL     OW 4282   5.602   1.941   5.489
 1128SOL    HW1 4283   5.536   1.927   5.563
 1128SOL    HW2 4284   5.624   2.038   5.482
 1129SOL     OW 4285   3.239   0.566   6.856
 1129SOL    HW1 4286   3.157   0.603   6.813
 1129SOL    HW2 4287   3.320   0.612   6.820
 1130SOL     OW 4288   2.651   4.888   0.409
 1130SOL    HW1 4289   2.626   4.804   0.457
 1130SOL    HW2 4290   2.668   4.961   0.476
 1131SOL     OW 4291   0.175   6.355   6.200
 1131SOL    HW1 4292   0.191   6.445   6.160
 1131SOL    HW2 4293   0.096   6.312   6.156
 1132SOL     OW 4294   5.329   0.170   1.287
 1132SOL    HW1 4295   5.368   0.152   1.196
 1132SOL    HW2 4296   5.401   0.159   1.356
 1133SOL     OW 4297   0.897   0.528   1.243
 1133SOL    HW1 4298   0.929   0.574   1.160
 1133SOL    HW2 4299   0.815   0.574   1.278
 1134SOL     OW 4300   5.297   1.163   1.635
 1134SOL    HW1 4301   5.351   1.094   1.589
 1134SOL    HW2 4302   5.356   1.241   1.659
 1135SOL     OW 4303   2.348   1.191   2.808
 1135SOL    HW1 4304   2.286   1.121   2.773
 1135SOL    HW2 4305   2.297   1.275   2.827
 1136SOL     OW 4306   3.130   4.883   4.652
 1136SOL    HW1 4307   3.050   4.823   4.657
 1136SOL    HW2 4308   3.186   4.857   4.574
 1137SOL     OW 4309   0.969   1.589   6.246
 1137SOL    HW1 4310   0.923   1.670   6.212
 1137SOL    HW2 4311   0.945   1.510   6.189
 1138SOL     OW 4312   0.196   0.877   6.283
 1138SOL    HW1 4313   0.211   0.966   6.326
 1138SOL    HW2 4314   0.258   0.866   6.206
 1139SOL     OW 4315   3.613   5.283   1.261
 1139SOL    HW1 4316   3.597   5.340   1.181
 1139SOL    HW2 4317   3.559   5.318   1.338
 1140SOL     OW 4318   4.153   1.103   2.022
 1140SOL    HW1 4319   4.150   1.026   2.086
 1140SOL    HW2 4320   4.214   1.080   1.946
 1141SOL     OW 4321   0.400   6.620   6.633
 1141SOL    HW1 4322   0.320   6.561   6.642
 1141SOL    HW2 4323   0.483   6.565   6.643
 1142SOL     OW 4324   2.924   0.095   4.806
 1142SOL    HW1 4325   2.944   0.181   4.853
 1142SOL    HW2 4326   2.934   0.109   4.707
 1143SOL     OW 4327   1.682   3.512   2.502
 1143SOL    HW1 4328   1.598   3.549   2.541
 1143SOL    HW2 4329   1.701   3.557   2.415
 1144SOL     OW 4330   6.494   5.002   5.268
 1144SOL    HW1 4331   6.537   5.077   5.218
 1144SOL    HW2 4332   6.420   5.038   5.325
 1145SOL     OW 4333   0.159   3.963   2.130
 1145SOL    HW1 4334   0.185   3.894   2.063
 1145SOL    HW2 4335   0.237   4.022   2.149
 1146SOL     OW 4336   6.263   0.761   2.106
 1146SOL    HW1 4337   6.334   0.800   2.047
 1146SOL    HW2 4338   6.290   0.772   2.201
 1147SOL     OW 4339   2.153   5.390   1.432
 1147SOL    HW1 4340   2.193   5.334   1.360
 1147SOL    HW2 4341   2.210   5.471   1.446
 1148SOL     OW 4342   4.823   6.838   0.689
 1148SOL    HW1 4343   4.827   6.913   0.622
 1148SOL    HW2 4344   4.781   6.871   0.773
 1149SOL     OW 4345   6.576   4.234   2.711
 1149SOL    HW1 4346   6.652   4.271   2.657
 1149SOL    HW2 4347   6.553   4.142   2.679
 1150SOL     OW 4348   2.907   3.989   0.325
 1150SOL    HW1 4349   2.823   3.936   0.337
 1150SOL    HW2 4350   2.985   3.935   0.355
 1151SOL     OW 4351   4.198   5.545   6.925
 1151SOL    HW1 4352   4.116   5.493   6.945
 1151SOL    HW2 4353   4.278   5.485   6.931
 1152SOL     OW 4354   6.399   4.791   6.010
 1152SOL    HW1 4355   6.338   4.851   5.957
 1152SOL    HW2 4356   6.424   4.712   5.955
 1153SOL     OW 4357   2.410   0.119   1.525
 1153SOL    HW1 4358   2.399   0.214   1.551
 1153SOL    HW2 4359   2.441   0.113   1.430
 1154SOL     OW 4360   0.736   4.184   1.452
 1154SOL    HW1 4361   0.698   4.250   1.517
 1154SOL    HW2 4362   0.670   4.165   1.380
 1155SOL     OW 4363   2.151   5.485   6.482
 1155SOL    HW1 4364   2.132   5.547   6.406
 1155SOL    HW2 4365   2.247   5.458   6.480
 1156SOL     OW 4366   2.933   1.678   4.520
 1156SOL    HW1 4367   2.954   1.585   4.492
 1156SOL    HW2 4368   3.016   1.734   4.516
 1157SOL     OW 4369   5.920   0.466   5.513
 1157SOL    HW1 4370   6.014   0.494   5.495
 1157SOL    HW2 4371   5.905   0.374   5.476
 1158SOL     OW 4372   6.654   5.620   5.415
 1158SOL    HW1 4373   6.718   5.551   5.379
 1158SOL    HW2 4374   6.627   5.682   5.341
 1159SOL     OW 4375   6.038   0.060   4.389
 1159SOL    HW1 4376   6.009   0.039   4.482
 1159SOL    HW2 4377   5.969   0.028   4.324
 1160SOL     OW 4378   3.830   3.909   1.358
 1160SOL    HW1 4379   3.850   3.877   1.265
 1160SOL    HW2 4380   3.798   3.833   1.414
 1161SOL     OW 4381   6.555   0.596   6.717
 1161SOL    HW1 4382   6.564   0.592   6.618
 1161SOL    HW2 4383   6.464   0.632   6.741
 1162SOL     OW 4384   2.561   1.879   6.607
 1162SOL    HW1 4385   2.567   1.897   6.509
 1162SOL    HW2 4386   2.473   1.913   6.642
 1163SOL     OW 4387   6.899   3.167   1.303
 1163SOL    HW1 4388   6.832   3.092   1.308
 1163SOL    HW2 4389   6.893   3.222   1.386
 1164SOL     OW 4390   5.665   2.721   5.493
 1164SOL    HW1 4391   5.567   2.735   5.501
 1164SOL    HW2 4392   5.699   2.766   5.411
 1165SOL     OW 4393   2.525   4.612   3.736
 1165SOL    HW1 4394   2.550   4.697   3.781
 1165SOL    HW2 4395   2.553   4.616   3.640
 1166SOL     OW 4396   3.484   6.882   6.995
 1166SOL    HW1 4397   3.544   6.916   6.923
 1166SOL    HW2 4398   3.414   6.950   7.016
 1167SOL     OW 4399   4.615   6.556   6.599
 1167SOL    HW1 4400   4.543   6.621   6.624
 1167SOL    HW2 4401   4.589   6.464   6.630
 1168SOL     OW 4402   5.047   2.130   3.763
 1168SOL    HW1 4403   5.096   2.108   3.847
 1168SOL    HW2 4404   5.090   2.083   3.685
 1169SOL     OW 4405   5.005   2.182   5.889
 1169SOL    HW1 4406   4.976   2.218   5.801
 1169SOL    HW2 4407   4.928   2.182   5.952
 1170SOL     OW 4408   5.222   1.244   2.882
 1170SOL    HW1 4409   5.205   1.253   2.980
 1170SOL    HW2 4410   5.247   1.150   2.860
 1171SOL     OW 4411   2.872   6.362   6.966
 1171SOL    HW1 4412   2.895   6.450   6.924
 1171SOL    HW2 4413   2.773   6.355   6.977
 1172SOL     OW 4414   3.117   4.063   2.066
 1172SOL    HW1 4415   3.108   3.973   2.108
 1172SOL    HW2 4416   3.208   4.072   2.026
 1173SOL     OW 4417   3.615   0.876   6.640
 1173SOL    HW1 4418   3.565   0.808   6.695
 1173SOL    HW2 4419   3.582   0.968   6.662
 1174SOL     OW 4420   3.600   4.730   0.411
 1174SOL    HW1 4421   3.691   4.689   0.419
 1174SOL    HW2 4422   3.536   4.681   0.469
 1175SOL     OW 4423   3.923   3.193   6.783
 1175SOL    HW1 4424   3.887   3.219   6.693
 1175SOL    HW2 4425   4.012   3.148   6.771
 1176SOL     OW 4426   6.036   4.919   6.759
 1176SOL    HW1 4427   5.989   4.834   6.735
 1176SOL    HW2 4428   6.097   4.946   6.684
 1177SOL     OW 4429   6.657   2.048   5.591
 1177SOL    HW1 4430   6.699   1.978   5.648
 1177SOL    HW2 4431   6.576   2.084   5.637
 1178SOL     OW 4432   3.006   3.528   1.103
 1178SOL    HW1 4433   2.997   3.500   1.007
 1178SOL    HW2 4434   3.061   3.611   1.108
 1179SOL     OW 4435   3.245   6.677   0.762
 1179SOL    HW1 4436   3.316   6.707   0.698
 1179SOL    HW2 4437   3.287   6.657   0.850
 1180SOL     OW 4438   2.553   6.084   3.700
 1180SOL    HW1 4439   2.503   6.062   3.616
 1180SOL    HW2 4440   2.494   6.067   3.779
 1181SOL     OW 4441   0.499   3.346   5.709
 1181SOL    HW1 4442   0.584   3.360   5.658
 1181SOL    HW2 4443   0.521   3.315   5.801
 1182SOL     OW 4444   2.937   5.102   3.146
 1182SOL    HW1 4445   2.864   5.170   3.148
 1182SOL    HW2 4446   2.970   5.087   3.239
 1183SOL     OW 4447   3.599   5.669   1.836
 1183SOL    HW1 4448   3.577   5.587   1.890
 1183SOL    HW2 4449   3.603   5.645   1.739
 1184SOL     OW 4450   5.587   6.853   6.550
 1184SOL    HW1 4451   5.589   6.753   6.558
 1184SOL    HW2 4452   5.494   6.886   6.564
 1185SOL     OW 4453   1.098   1.040   1.099
 1185SOL    HW1 4454   1.073   0.988   1.017
 1185SOL    HW2 4455   1.101   0.979   1.178
 1186SOL     OW 4456   5.764   5.912   5.373
 1186SOL    HW1 4457   5.702   5.990   5.388
 1186SOL    HW2 4458   5.731   5.858   5.295
 1187SOL     OW 4459   5.197   7.020   5.302
 1187SOL    HW1 4460   5.103   0.035   5.303
 1187SOL    HW2 4461   5.254   0.057   5.244
 1188SOL     OW 4462   3.800   5.596   5.976
 1188SOL    HW1 4463   3.805   5.613   5.877
 1188SOL    HW2 4464   3.711   5.628   6.010
 1189SOL     OW 4465   5.772   0.466   1.687
 1189SOL    HW1 4466   5.859   0.417   1.688
 1189SOL    HW2 4467   5.748   0.493   1.780
 1190SOL     OW 4468   3.426   5.695   3.028
 1190SOL    HW1 4469   3.371   5.679   2.946
 1190SOL    HW2 4470   3.521   5.712   3.002
 1191SOL     OW 4471   2.680   6.461   4.296
 1191SOL    HW1 4472   2.657   6.394   4.366
 1191SOL    HW2 4473   2.600   6.519   4.278
 1192SOL     OW 4474   5.851   6.134   3.309
 1192SOL    HW1 4475   5.928   6.078   3.276
 1192SOL    HW2 4476   5.800   6.170   3.231
 1193SOL     OW 4477   0.269   0.650   5.044
 1193SOL    HW1 4478   0.213   0.567   5.041
 1193SOL    HW2 4479   0.359   0.628   5.082
 1194SOL     OW 4480   6.625   1.611   0.782
 1194SOL    HW1 4481   6.715   1.576   0.811
 1194SOL    HW2 4482   6.596   1.561   0.700
 1195SOL     OW 4483   6.280   3.773   0.645
 1195SOL    HW1 4484   6.316   3.684   0.620
 1195SOL    HW2 4485   6.322   3.843   0.588
 1196SOL     OW 4486   5.884   4.413   2.766
 1196SOL    HW1 4487   5.875   4.443   2.861
 1196SOL    HW2 4488   5.800   4.433   2.716
 1197SOL     OW 4489   4.384   6.444   4.167
 1197SOL    HW1 4490   4.339   6.492   4.242
 1197SOL    HW2 4491   4.361   6.490   4.081
 1198SOL     OW 4492   1.187   3.764   2.232
 1198SOL    HW1 4493   1.110   3.722   2.184
 1198SOL    HW2 4494   1.239   3.694   2.280
 1199SOL     OW 4495   3.252   3.107   2.808
 1199SOL    HW1 4496   3.237   3.118   2.906
 1199SOL    HW2 4497   3.288   3.191   2.770
 1200SOL     OW 4498   3.872   3.990   4.559
 1200SOL    HW1 4499   3.869   4.021   4.464
 1200SOL    HW2 4500   3.924   3.904   4.564
 1201SOL     OW 4501   6.884   0.946   4.866
 1201SOL    HW1 4502   6.905   1.043   4.865
 1201SOL    HW2 4503   6.955   0.896   4.816
 1202SOL     OW 4504   6.428   6.614   5.333
 1202SOL    HW1 4505   6.435   6.541   5.265
 1202SOL    HW2 4506   6.499   6.682   5.317
 1203SOL     OW 4507   0.462   6.346   0.568
 1203SOL    HW1 4508   0.491   6.439   0.588
 1203SOL    HW2 4509   0.527   6.304   0.504
 1204SOL     OW 4510   4.915   1.456   1.760
 1204SOL    HW1 4511   4.841   1.431   1.697
 1204SOL    HW2 4512   4.906   1.403   1.844
 1205SOL     OW 4513   3.581   3.564   0.340
 1205SOL    HW1 4514   3.671   3.584   0.301
 1205SOL    HW2 4515   3.510   3.602   0.281
 1206SOL     OW 4516   1.105   3.188   4.559
 1206SOL    HW1 4517   1.169   3.115   4.536
 1206SOL    HW2 4518   1.027   3.151   4.608
 1207SOL     OW 4519   0.453   0.469   0.520
 1207SOL    HW1 4520   0.430   0.566   0.521
 1207SOL    HW2 4521   0.432   0.429   0.609
 1208SOL     OW 4522   3.181   3.720   1.788
 1208SOL    HW1 4523   3.167   3.817   1.766
 1208SOL    HW2 4524   3.278   3.698   1.777
 1209SOL     OW 4525   5.372   0.451   4.123
 1209SOL    HW1 4526   5.283   0.430   4.082
 1209SOL    HW2 4527   5.365   0.535   4.177
 1210SOL     OW 4528   4.863   6.668   3.911
 1210SOL    HW1 4529   4.878   6.594   3.976
 1210SOL    HW2 4530   4.870   6.633   3.818
 1211SOL     OW 4531   0.693   3.161   2.964
 1211SOL    HW1 4532   0.662   3.182   3.056
 1211SOL    HW2 4533   0.617   3.121   2.912
 1212SOL     OW 4534   6.619   0.461   6.143
 1212SOL    HW1 4535   6.694   0.407   6.181
 1212SOL    HW2 4536   6.596   0.426   6.052
 1213SOL     OW 4537   5.477   1.993   2.257
 1213SOL    HW1 4538   5.483   2.092   2.243
 1213SOL    HW2 4539   5.523   1.946   2.182
 1214SOL     OW 4540   0.335   2.504   6.667
 1214SOL    HW1 4541   0.413   2.484   6.726
 1214SOL    HW2 4542   0.359   2.580   6.606
 1215SOL     OW 4543   1.526   4.831   2.496
 1215SOL    HW1 4544   1.561   4.920   2.468
 1215SOL    HW2 4545   1.428   4.837   2.514
 1216SOL     OW 4546   6.043   1.356   0.931
 1216SOL    HW1 4547   6.036   1.288   1.004
 1216SOL    HW2 4548   5.994   1.439   0.957
 1217SOL     OW 4549   3.257   5.003   0.896
 1217SOL    HW1 4550   3.317   5.082   0.886
 1217SOL    HW2 4551   3.192   5.020   0.970
 1218SOL     OW 4552   1.793   2.926   5.449
 1218SOL    HW1 4553   1.802   3.016   5.406
 1218SOL    HW2 4554   1.730   2.870   5.395
 1219SOL     OW 4555   5.156   5.172   1.704
 1219SOL    HW1 4556   5.072   5.203   1.659
 1219SOL    HW2 4557   5.197   5.248   1.755
 1220SOL     OW 4558   6.786   4.013   1.983
 1220SOL    HW1 4559   6.788   3.938   1.917
 1220SOL    HW2 4560   6.866   4.071   1.970
 1221SOL     OW 4561   5.368   3.826   6.488
 1221SOL    HW1 4562   5.386   3.750   6.425
 1221SOL    HW2 4563   5.417   3.810   6.574
 1222SOL     OW 4564   0.246   0.907   6.754
 1222SOL    HW1 4565   0.345   0.919   6.748
 1222SOL    HW2 4566   0.218   0.911   6.849
 1223SOL     OW 4567   3.822   1.110   0.287
 1223SOL    HW1 4568   3.765   1.147   0.214
 1223SOL    HW2 4569   3.796   1.015   0.304
 1224SOL     OW 4570   3.173   5.929   6.750
 1224SOL    HW1 4571   3.102   5.987   6.789
 1224SOL    HW2 4572   3.155   5.915   6.652
 1225SOL     OW 4573   3.654   2.601   7.015
 1225SOL    HW1 4574   3.705   2.534   0.047
 1225SOL    HW2 4575   3.633   2.680   0.051
 1226SOL     OW 4576   3.355   6.152   0.050
 1226SOL    HW1 4577   3.325   6.165   6.977
 1226SOL    HW2 4578   3.288   6.195   0.112
 1227SOL     OW 4579   5.460   5.254   5.582
 1227SOL    HW1 4580   5.407   5.318   5.527
 1227SOL    HW2 4581   5.473   5.291   5.674
 1228SOL     OW 4582   3.843   2.326   6.298
 1228SOL    HW1 4583   3.868   2.400   6.360
 1228SOL    HW2 4584   3.818   2.245   6.351
 1229SOL     OW 4585   1.950   5.277   0.261
 1229SOL    HW1 4586   1.886   5.337   0.309
 1229SOL    HW2 4587   2.033   5.265   0.316
 1230SOL     OW 4588   6.017   5.971   2.184
 1230SOL    HW1 4589   5.949   5.919   2.236
 1230SOL    HW2 4590   5.972   6.044   2.133
 1231SOL     OW 4591   1.665   2.108   5.233
 1231SOL    HW1 4592   1.583   2.068   5.191
 1231SOL    HW2 4593   1.644   2.134   5.327
 1232SOL     OW 4594   6.224   1.019   4.876
 1232SOL    HW1 4595   6.171   0.965   4.941
 1232SOL    HW2 4596   6.184   1.012   4.785
 1233SOL     OW 4597   0.706   5.621   4.703
 1233SOL    HW1 4598   0.785   5.588   4.651
 1233SOL    HW2 4599   0.666   5.545   4.754
 1234SOL     OW 4600   5.912   2.172   5.483
 1234SOL    HW1 4601   5.813   2.188   5.476
 1234SOL    HW2 4602   5.956   2.255   5.517
 1235SOL     OW 4603   5.978   4.640   1.597
 1235SOL    HW1 4604   5.984   4.740   1.605
 1235SOL    HW2 4605   6.071   4.602   1.594
 1236SOL     OW 4606   4.286   1.585   1.861
 1236SOL    HW1 4607   4.261   1.540   1.947
 1236SOL    HW2 4608   4.375   1.629   1.870
 1237SOL     OW 4609   1.060   4.683   5.193
 1237SOL    HW1 4610   1.147   4.657   5.152
 1237SOL    HW2 4611   1.076   4.721   5.284
 1238SOL     OW 4612   1.597   0.105   5.857
 1238SOL    HW1 4613   1.696   0.118   5.869
 1238SOL    HW2 4614   1.554   0.194   5.843
 1239SOL     OW 4615   0.328   6.793   6.434
 1239SOL    HW1 4616   0.262   6.863   6.462
 1239SOL    HW2 4617   0.357   6.740   6.514
 1240SOL     OW 4618   5.931   6.009   1.470
 1240SOL    HW1 4619   5.837   6.038   1.452
 1240SOL    HW2 4620   5.983   6.086   1.507
 1241SOL     OW 4621   5.971   4.293   5.511
 1241SOL    HW1 4622   6.027   4.250   5.582
 1241SOL    HW2 4623   5.958   4.230   5.435
 1242SOL     OW 4624   2.185   4.106   1.069
 1242SOL    HW1 4625   2.275   4.130   1.104
 1242SOL    HW2 4626   2.143   4.037   1.128
 1243SOL     OW 4627   0.979   0.977   5.196
 1243SOL    HW1 4628   1.047   0.907   5.220
 1243SOL    HW2 4629   0.920   0.942   5.123
 1244SOL     OW 4630   5.360   6.199   4.561
 1244SOL    HW1 4631   5.306   6.171   4.641
 1244SOL    HW2 4632   5.448   6.152   4.562
 1245SOL     OW 4633   5.186   4.155   6.974
 1245SOL    HW1 4634   5.212   4.085   6.907
 1245SOL    HW2 4635   5.097   4.132   7.013
 1246SOL     OW 4636   3.145   1.690   1.489
 1246SOL    HW1 4637   3.217   1.697   1.420
 1246SOL    HW2 4638   3.185   1.663   1.576
 1247SOL     OW 4639   0.034   6.684   5.852
 1247SOL    HW1 4640   0.100   6.609   5.854
 1247SOL    HW2 4641   0.065   6.756   5.790
 1248SOL     OW 4642   1.947   6.823   3.660
 1248SOL    HW1 4643   1.980   6.837   3.567
 1248SOL    HW2 4644   1.870   6.759   3.659
 1249SOL     OW 4645   6.574   2.327   1.936
 1249SOL    HW1 4646   6.543   2.407   1.988
 1249SOL    HW2 4647   6.667   2.304   1.963
 1250SOL     OW 4648   5.934   5.098   3.565
 1250SOL    HW1 4649   5.892   5.086   3.655
 1250SOL    HW2 4650   5.960   5.009   3.529
 1251SOL     OW 4651   1.789   1.114   3.042
 1251SOL    HW1 4652   1.723   1.049   3.081
 1251SOL    HW2 4653   1.741   1.174   2.978
 1252SOL     OW 4654   4.154   4.631   6.868
 1252SOL    HW1 4655   4.089   4.622   6.793
 1252SOL    HW2 4656   4.134   4.714   6.920
 1253SOL     OW 4657   3.780   6.597   2.475
 1253SOL    HW1 4658   3.834   6.513   2.482
 1253SOL    HW2 4659   3.724   6.594   2.392
 1254SOL     OW 4660   0.624   2.267   3.722
 1254SOL    HW1 4661   0.663   2.295   3.810
 1254SOL    HW2 4662   0.564   2.188   3.737
 1255SOL     OW 4663   5.816   1.382   6.307
 1255SOL    HW1 4664   5.875   1.354   6.232
 1255SOL    HW2 4665   5.731   1.422   6.271
 1256SOL     OW 4666   0.163   0.153   3.667
 1256SOL    HW1 4667   0.065   0.164   3.686
 1256SOL    HW2 4668   0.180   0.165   3.569
 1257SOL     OW 4669   0.007   5.154   5.321
 1257SOL    HW1 4670   0.065   5.224   5.279
 1257SOL    HW2 4671   7.017   5.174   5.418
 1258SOL     OW 4672   1.459   5.289   2.995
 1258SOL    HW1 4673   1.475   5.200   3.039
 1258SOL    HW2 4674   1.517   5.297   2.914
 1259SOL     OW 4675   3.870   0.051   4.487
 1259SOL    HW1 4676   3.778   0.090   4.478
 1259SOL    HW2 4677   3.865   6.991   4.545
 1260SOL     OW 4678   3.267   1.737   0.438
 1260SOL    HW1 4679   3.197   1.772   0.500
 1260SOL    HW2 4680   3.335   1.686   0.490
 1261SOL     OW 4681   6.562   5.256   6.785
 1261SOL    HW1 4682   6.592   5.324   6.719
 1261SOL    HW2 4683   6.639   5.200   6.814
 1262SOL     OW 4684   5.590   4.798   1.121
 1262SOL    HW1 4685   5.508   4.742   1.108
 1262SOL    HW2 4686   5.615   4.841   1.034
 1263SOL     OW 4687   6.682   2.215   1.589
 1263SOL    HW1 4688   6.593   2.243   1.553
 1263SOL    HW2 4689   6.693   2.117   1.578
 1264SOL     OW 4690   0.232   3.595   1.329
 1264SOL    HW1 4691   0.309   3.531   1.326
 1264SOL    HW2 4692   0.151   3.550   1.292
 1265SOL     OW 4693   5.242   5.549   3.565
 1265SOL    HW1 4694   5.236   5.501   3.652
 1265SOL    HW2 4695   5.232   5.484   3.490
 1266SOL     OW 4696   0.871   1.207   4.294
 1266SOL    HW1 4697   0.919   1.294   4.306
 1266SOL    HW2 4698   0.807   1.194   4.370
 1267SOL     OW 4699   5.413   6.312   1.551
 1267SOL    HW1 4700   5.369   6.377   1.613
 1267SOL    HW2 4701   5.347   6.282   1.482
 1268SOL     OW 4702   3.755   3.019   0.376
 1268SOL    HW1 4703   3.718   2.935   0.417
 1268SOL    HW2 4704   3.680   3.082   0.357
 1269SOL     OW 4705   5.571   5.511   5.032
 1269SOL    HW1 4706   5.475   5.532   5.014
 1269SOL    HW2 4707   5.578   5.423   5.080
 1270SOL     OW 4708   2.080   4.157   3.625
 1270SOL    HW1 4709   2.065   4.254   3.603
 1270SOL    HW2 4710   2.065   4.143   3.723
 1271SOL     OW 4711   2.828   2.248   3.691
 1271SOL    HW1 4712   2.825   2.288   3.599
 1271SOL    HW2 4713   2.839   2.149   3.684
 1272SOL     OW 4714   5.596   5.635   0.074
 1272SOL    HW1 4715   5.650   5.642   0.158
 1272SOL    HW2 4716   5.601   5.721   0.024
 1273SOL     OW 4717   0.670   4.220   6.579
 1273SOL    HW1 4718   0.729   4.147   6.545
 1273SOL    HW2 4719   0.633   4.195   6.668
 1274SOL     OW 4720   6.659   4.332   1.235
 1274SOL    HW1 4721   6.610   4.308   1.319
 1274SOL    HW2 4722   6.605   4.396   1.181
 1275SOL     OW 4723   3.547   1.707   4.507
 1275SOL    HW1 4724   3.560   1.648   4.427
 1275SOL    HW2 4725   3.516   1.797   4.477
 1276SOL     OW 4726   6.942   6.752   4.673
 1276SOL    HW1 4727   6.883   6.691   4.726
 1276SOL    HW2 4728   6.888   6.802   4.606
 1277SOL     OW 4729   1.281   5.787   6.435
 1277SOL    HW1 4730   1.219   5.849   6.386
 1277SOL    HW2 4731   1.331   5.731   6.369
 1278SOL     OW 4732   0.727   0.011   5.294
 1278SOL    HW1 4733   0.822   0.007   5.326
 1278SOL    HW2 4734   0.721   6.993   5.202
 1279SOL     OW 4735   3.146   6.504   0.202
 1279SOL    HW1 4736   3.137   6.551   0.114
 1279SOL    HW2 4737   3.155   6.405   0.186
 1280SOL     OW 4738   3.126   6.475   5.011
 1280SOL    HW1 4739   3.044   6.422   4.989
 1280SOL    HW2 4740   3.204   6.413   5.023
 1281SOL     OW 4741   1.537   6.640   3.512
 1281SOL    HW1 4742   1.504   6.685   3.429
 1281SOL    HW2 4743   1.624   6.596   3.493
 1282SOL     OW 4744   0.570   2.000   6.790
 1282SOL    HW1 4745   0.549   1.991   6.887
 1282SOL    HW2 4746   0.639   2.071   6.777
 1283SOL     OW 4747   6.921   2.824   5.445
 1283SOL    HW1 4748   6.942   2.735   5.407
 1283SOL    HW2 4749   6.862   2.814   5.525
 1284SOL     OW 4750   4.794   1.762   1.775
 1284SOL    HW1 4751   4.769   1.789   1.868
 1284SOL    HW2 4752   4.752   1.673   1.755
 1285SOL     OW 4753   4.823   1.992   6.501
 1285SOL    HW1 4754   4.747   2.056   6.499
 1285SOL    HW2 4755   4.902   2.034   6.545
 1286SOL     OW 4756   5.043   3.875   2.038
 1286SOL    HW1 4757   5.062   3.969   2.066
 1286SOL    HW2 4758   5.086   3.858   1.949
 1287SOL     OW 4759   5.689   5.741   5.143
 1287SOL    HW1 4760   5.716   5.816   5.083
 1287SOL    HW2 4761   5.651   5.666   5.088
 1288SOL     OW 4762   4.241   3.535   6.871
 1288SOL    HW1 4763   4.310   3.607   6.876
 1288SOL    HW2 4764   4.271   3.456   6.925
 1289SOL     OW 4765   1.344   5.966   2.205
 1289SOL    HW1 4766   1.326   5.874   2.170
 1289SOL    HW2 4767   1.393   5.959   2.292
 1290SOL     OW 4768   0.909   6.428   6.364
 1290SOL    HW1 4769   0.882   6.520   6.391
 1290SOL    HW2 4770   0.980   6.395   6.427
 1291SOL     OW 4771   0.319   3.674   5.480
 1291SOL    HW1 4772   0.297   3.653   5.575
 1291SOL    HW2 4773   0.418   3.669   5.467
 1292SOL     OW 4774   0.434   5.679   2.092
 1292SOL    HW1 4775   0.531   5.683   2.068
 1292SOL    HW2 4776   0.382   5.740   2.033
 1293SOL     OW 4777   1.182   1.786   0.563
 1293SOL    HW1 4778   1.263   1.753   0.516
 1293SOL    HW2 4779   1.141   1.860   0.509
 1294SOL     OW 4780   0.979   3.232   6.700
 1294SOL    HW1 4781   0.972   3.132   6.698
 1294SOL    HW2 4782   1.027   3.261   6.783
 1295SOL     OW 4783   0.140   3.302   2.294
 1295SOL    HW1 4784   0.070   3.254   2.241
 1295SOL    HW2 4785   0.229   3.288   2.251
 1296SOL     OW 4786   3.590   0.311   5.701
 1296SOL    HW1 4787   3.576   0.410   5.708
 1296SOL    HW2 4788   3.655   0.282   5.771
 1297SOL     OW 4789   6.092   0.969   1.285
 1297SOL    HW1 4790   6.068   0.903   1.212
 1297SOL    HW2 4791   6.127   0.919   1.364
 1298SOL     OW 4792   5.743   4.526   2.482
 1298SOL    HW1 4793   5.831   4.478   2.476
 1298SOL    HW2 4794   5.688   4.483   2.554
 1299SOL     OW 4795   1.448   3.912   3.074
 1299SOL    HW1 4796   1.435   3.815   3.091
 1299SOL    HW2 4797   1.362   3.961   3.088
 1300SOL     OW 4798   2.999   2.897   1.724
 1300SOL    HW1 4799   3.098   2.900   1.713
 1300SOL    HW2 4800   2.966   2.805   1.703
 1301SOL     OW 4801   1.020   5.820   1.445
 1301SOL    HW1 4802   1.094   5.873   1.488
 1301SOL    HW2 4803   1.053   5.728   1.425
 1302SOL     OW 4804   5.081   0.881   5.440
 1302SOL    HW1 4805   5.125   0.802   5.397
 1302SOL    HW2 4806   5.071   0.954   5.372
 1303SOL     OW 4807   4.462   1.583   2.089
 1303SOL    HW1 4808   4.499   1.672   2.061
 1303SOL    HW2 4809   4.498   1.558   2.178
 1304SOL     OW 4810   2.132   1.301   6.476
 1304SOL    HW1 4811   2.112   1.205   6.461
 1304SOL    HW2 4812   2.091   1.356   6.403
 1305SOL     OW 4813   5.079   3.481   0.001
 1305SOL    HW1 4814   5.140   3.552   0.036
 1305SOL    HW2 4815   5.108   3.392   0.036
 1306SOL     OW 4816   0.501   4.983   4.117
 1306SOL    HW1 4817   0.434   4.965   4.189
 1306SOL    HW2 4818   0.466   4.951   4.029
 1307SOL     OW 4819   0.666   4.268   4.230
 1307SOL    HW1 4820   0.633   4.323   4.307
 1307SOL    HW2 4821   0.669   4.172   4.256
 1308SOL     OW 4822   5.539   6.404   5.108
 1308SOL    HW1 4823   5.455   6.433   5.155
 1308SOL    HW2 4824   5.612   6.469   5.127
 1309SOL     OW 4825   5.270   3.148   5.279
 1309SOL    HW1 4826   5.278   3.234   5.227
 1309SOL    HW2 4827   5.184   3.104   5.255
 1310SOL     OW 4828   6.790   3.627   4.185
 1310SOL    HW1 4829   6.768   3.724   4.174
 1310SOL    HW2 4830   6.878   3.607   4.141
 1311SOL     OW 4831   0.641   6.697   4.872
 1311SOL    HW1 4832   0.654   6.610   4.919
 1311SOL    HW2 4833   0.678   6.691   4.779
 1312SOL     OW 4834   1.391   6.863   6.655
 1312SOL    HW1 4835   1.326   6.811   6.710
 1312SOL    HW2 4836   1.482   6.823   6.664
 1313SOL     OW 4837   0.800   3.929   3.925
 1313SOL    HW1 4838   0.830   4.007   3.980
 1313SOL    HW2 4839   0.861   3.852   3.940
 1314SOL     OW 4840   4.185   1.464   5.712
 1314SOL    HW1 4841   4.247   1.397   5.754
 1314SOL    HW2 4842   4.239   1.536   5.668
 1315SOL     OW 4843   0.254   1.174   1.230
 1315SOL    HW1 4844   0.353   1.157   1.232
 1315SOL    HW2 4845   0.209   1.116   1.298
 1316SOL     OW 4846   2.026   6.163   5.157
 1316SOL    HW1 4847   2.098   6.166   5.087
 1316SOL    HW2 4848   1.999   6.068   5.173
 1317SOL     OW 4849   2.380   4.605   6.483
 1317SOL    HW1 4850   2.330   4.529   6.522
 1317SOL    HW2 4851   2.367   4.687   6.539
 1318SOL     OW 4852   0.648   1.383   1.048
 1318SOL    HW1 4853   0.675   1.395   0.953
 1318SOL    HW2 4854   0.601   1.465   1.081
 1319SOL     OW 4855   6.957   0.856   0.273
 1319SOL    HW1 4856   6.877   0.859   0.212
 1319SOL    HW2 4857   6.963   0.765   0.315
 1320SOL     OW 4858   4.552   4.167   0.636
 1320SOL    HW1 4859   4.523   4.111   0.713
 1320SOL    HW2 4860   4.618   4.235   0.667
 1321SOL     OW 4861   5.516   1.450   6.279
 1321SOL    HW1 4862   5.511   1.390   6.359
 1321SOL    HW2 4863   5.525   1.545   6.310
 1322SOL     OW 4864   3.709   0.936   4.072
 1322SOL    HW1 4865   3.690   0.997   3.995
 1322SOL    HW2 4866   3.779   0.869   4.044
 1323SOL     OW 4867   5.222   0.912   5.667
 1323SOL    HW1 4868   5.157   0.921   5.742
 1323SOL    HW2 4869   5.173   0.889   5.583
 1324SOL     OW 4870   1.302   3.419   0.364
 1324SOL    HW1 4871   1.217   3.469   0.348
 1324SOL    HW2 4872   1.350   3.408   0.277
 1325SOL     OW 4873   2.062   0.075   2.834
 1325SOL    HW1 4874   2.074   0.007   2.762
 1325SOL    HW2 4875   1.965   0.078   2.861
 1326SOL     OW 4876   4.943   3.416   5.059
 1326SOL    HW1 4877   4.902   3.507   5.049
 1326SOL    HW2 4878   4.890   3.363   5.125
 1327SOL     OW 4879   1.458   4.616   2.146
 1327SOL    HW1 4880   1.552   4.603   2.178
 1327SOL    HW2 4881   1.454   4.694   2.084
 1328SOL     OW 4882   1.496   2.942   0.936
 1328SOL    HW1 4883   1.467   3.011   0.869
 1328SOL    HW2 4884   1.590   2.959   0.963
 1329SOL     OW 4885   0.251   2.321   1.167
 1329SOL    HW1 4886   0.279   2.332   1.262
 1329SOL    HW2 4887   0.157   2.288   1.163
 1330SOL     OW 4888   0.365   1.497   1.772
 1330SOL    HW1 4889   0.391   1.549   1.854
 1330SOL    HW2 4890   0.267   1.507   1.757
 1331SOL     OW 4891   4.943   2.749   3.539
 1331SOL    HW1 4892   4.917   2.668   3.591
 1331SOL    HW2 4893   4.995   2.721   3.458
 1332SOL     OW 4894   2.744   0.196   6.252
 1332SOL    HW1 4895   2.741   0.294   6.229
 1332SOL    HW2 4896   2.784   0.184   6.342
 1333SOL     OW 4897   4.069   3.901   5.151
 1333SOL    HW1 4898   4.019   3.832   5.099
 1333SOL    HW2 4899   4.020   3.988   5.147
 1334SOL     OW 4900   6.406   1.798   4.607
 1334SOL    HW1 4901   6.370   1.754   4.525
 1334SOL    HW2 4902   6.468   1.871   4.582
 1335SOL     OW 4903   2.706   2.089   3.223
 1335SOL    HW1 4904   2.787   2.146   3.233
 1335SOL    HW2 4905   2.628   2.146   3.196
 1336SOL     OW 4906   1.950   1.957   5.391
 1336SOL    HW1 4907   1.943   1.967   5.292
 1336SOL    HW2 4908   2.045   1.969   5.419
 1337SOL     OW 4909   1.794   2.266   4.529
 1337SOL    HW1 4910   1.770   2.362   4.545
 1337SOL    HW2 4911   1.759   2.238   4.439
 1338SOL     OW 4912   5.742   2.099   5.003
 1338SOL    HW1 4913   5.841   2.096   5.016
 1338SOL    HW2 4914   5.705   2.006   5.004
 1339SOL     OW 4915   0.335   1.692   6.480
 1339SOL    HW1 4916   0.342   1.650   6.389
 1339SOL    HW2 4917   0.241   1.684   6.513
 1340SOL     OW 4918   0.193   1.978   2.821
 1340SOL    HW1 4919   0.285   2.011   2.837
 1340SOL    HW2 4920   0.136   2.052   2.786
 1341SOL     OW 4921   5.286   0.152   6.160
 1341SOL    HW1 4922   5.234   0.101   6.228
 1341SOL    HW2 4923   5.252   0.132   6.068
 1342SOL     OW 4924   1.782   5.619   5.982
 1342SOL    HW1 4925   1.768   5.632   5.884
 1342SOL    HW2 4926   1.877   5.638   6.005
 1343SOL     OW 4927   4.624   6.129   3.312
 1343SOL    HW1 4928   4.683   6.198   3.353
 1343SOL    HW2 4929   4.680   6.057   3.272
 1344SOL     OW 4930   6.931   5.428   4.356
 1344SOL    HW1 4931   6.880   5.367   4.418
 1344SOL    HW2 4932   6.996   5.374   4.303
 1345SOL     OW 4933   1.746   0.571   2.804
 1345SOL    HW1 4934   1.818   0.640   2.811
 1345SOL    HW2 4935   1.773   0.490   2.856
 1346SOL     OW 4936   0.951   6.172   4.523
 1346SOL    HW1 4937   0.960   6.241   4.452
 1346SOL    HW2 4938   0.893   6.097   4.490
 1347SOL     OW 4939   6.201   6.410   4.756
 1347SOL    HW1 4940   6.104   6.392   4.771
 1347SOL    HW2 4941   6.211   6.493   4.701
 1348SOL     OW 4942   5.584   5.140   2.544
 1348SOL    HW1 4943   5.536   5.147   2.456
 1348SOL    HW2 4944   5.531   5.083   2.606
 1349SOL     OW 4945   4.414   2.553   5.917
 1349SOL    HW1 4946   4.360   2.626   5.876
 1349SOL    HW2 4947   4.448   2.491   5.846
 1350SOL     OW 4948   5.557   4.974   5.878
 1350SOL    HW1 4949   5.554   5.061   5.829
 1350SOL    HW2 4950   5.483   4.972   5.946
 1351SOL     OW 4951   6.217   1.234   3.463
 1351SOL    HW1 4952   6.272   1.312   3.433
 1351SOL    HW2 4953   6.268   1.149   3.449
 1352SOL     OW 4954   6.893   6.673   2.589
 1352SOL    HW1 4955   6.986   6.665   2.623
 1352SOL    HW2 4956   6.829   6.672   2.666
 1353SOL     OW 4957   0.146   3.315   6.963
 1353SOL    HW1 4958   0.231   3.314   6.911
 1353SOL    HW2 4959   0.153   3.249   0.017
 1354SOL     OW 4960   1.003   3.376   0.458
 1354SOL    HW1 4961   0.993   3.476   0.461
 1354SOL    HW2 4962   0.982   3.338   0.547
 1355SOL     OW 4963   6.552   2.394   5.300
 1355SOL    HW1 4964   6.563   2.310   5.247
 1355SOL    HW2 4965   6.552   2.473   5.239
 1356SOL     OW 4966   2.878   3.589   2.833
 1356SOL    HW1 4967   2.886   3.682   2.868
 1356SOL    HW2 4968   2.863   3.591   2.734
 1357SOL     OW 4969   1.536   3.316   5.559
 1357SOL    HW1 4970   1.520   3.256   5.480
 1357SOL    HW2 4971   1.605   3.384   5.535
 1358SOL     OW 4972   4.233   1.014   5.647
 1358SOL    HW1 4973   4.302   0.997   5.577
 1358SOL    HW2 4974   4.228   0.934   5.708
 1359SOL     OW 4975   5.814   4.502   1.807
 1359SOL    HW1 4976   5.853   4.410   1.798
 1359SOL    HW2 4977   5.860   4.564   1.744
 1360SOL     OW 4978   3.956   2.589   0.254
 1360SOL    HW1 4979   3.893   2.667   0.254
 1360SOL    HW2 4980   4.029   2.605   0.320
 1361SOL     OW 4981   0.171   5.336   5.194
 1361SOL    HW1 4982   0.167   5.352   5.095
 1361SOL    HW2 4983   0.133   5.415   5.241
 1362SOL     OW 4984   2.929   3.783   4.419
 1362SOL    HW1 4985   2.919   3.766   4.517
 1362SOL    HW2 4986   2.979   3.869   4.405
 1363SOL     OW 4987   0.096   5.362   3.797
 1363SOL    HW1 4988   0.146   5.436   3.752
 1363SOL    HW2 4989   0.138   5.274   3.773
 1364SOL     OW 4990   6.661   2.116   1.219
 1364SOL    HW1 4991   6.711   2.093   1.303
 1364SOL    HW2 4992   6.633   2.031   1.173
 1365SOL     OW 4993   0.746   2.537   5.981
 1365SOL    HW1 4994   0.799   2.620   5.965
 1365SOL    HW2 4995   0.688   2.519   5.902
 1366SOL     OW 4996   0.818   4.602   6.920
 1366SOL    HW1 4997   0.805   4.542   6.999
 1366SOL    HW2 4998   0.788   4.555   6.838
 1367SOL     OW 4999   1.817   6.700   2.604
 1367SOL    HW1 5000   1.894   6.749   2.563
 1367SOL    HW2 5001   1.767   6.652   2.532
 1368SOL     OW 5002   6.906   0.262   3.820
 1368SOL    HW1 5003   6.886   0.308   3.734
 1368SOL    HW2 5004   6.967   0.320   3.875
 1369SOL     OW 5005   2.504   0.134   2.052
 1369SOL    HW1 5006   2.408   0.159   2.064
 1369SOL    HW2 5007   2.509   0.040   2.017
 1370SOL     OW 5008   4.147   1.499   2.339
 1370SOL    HW1 5009   4.148   1.457   2.248
 1370SOL    HW2 5010   4.057   1.485   2.381
 1371SOL     OW 5011   6.245   1.249   4.580
 1371SOL    HW1 5012   6.326   1.308   4.574
 1371SOL    HW2 5013   6.271   1.154   4.564
 1372SOL     OW 5014   0.937   2.737   0.496
 1372SOL    HW1 5015   0.887   2.732   0.582
 1372SOL    HW2 5016   0.927   2.829   0.458
 1373SOL     OW 5017   4.881   1.975   6.799
 1373SOL    HW1 5018   4.826   1.899   6.765
 1373SOL    HW2 5019   4.829   2.027   6.867
 1374SOL     OW 5020   4.731   1.765   0.428
 1374SOL    HW1 5021   4.758   1.725   0.340
 1374SOL    HW2 5022   4.664   1.706   0.473
 1375SOL     OW 5023   0.625   4.730   6.308
 1375SOL    HW1 5024   0.613   4.686   6.219
 1375SOL    HW2 5025   0.557   4.692   6.372
 1376SOL     OW 5026   4.570   4.835   5.246
 1376SOL    HW1 5027   4.523   4.898   5.307
 1376SOL    HW2 5028   4.627   4.886   5.182
 1377SOL     OW 5029   0.797   3.037   5.603
 1377SOL    HW1 5030   0.815   3.088   5.687
 1377SOL    HW2 5031   0.821   3.095   5.524
 1378SOL     OW 5032   6.026   1.251   4.760
 1378SOL    HW1 5033   6.075   1.254   4.673
 1378SOL    HW2 5034   6.087   1.220   4.832
 1379SOL     OW 5035   3.946   6.761   3.057
 1379SOL    HW1 5036   3.907   6.711   3.134
 1379SOL    HW2 5037   3.968   6.697   2.983
 1380SOL     OW 5038   0.631   6.994   2.613
 1380SOL    HW1 5039   0.710   6.933   2.617
 1380SOL    HW2 5040   0.564   6.967   2.681
 1381SOL     OW 5041   5.760   2.343   6.590
 1381SOL    HW1 5042   5.771   2.245   6.601
 1381SOL    HW2 5043   5.844   2.382   6.552
 1382SOL     OW 5044   4.822   3.413   0.123
 1382SOL    HW1 5045   4.912   3.452   0.102
 1382SOL    HW2 5046   4.823   3.315   0.103
 1383SOL     OW 5047   0.956   0.204   1.907
 1383SOL    HW1 5048   0.896   0.125   1.905
 1383SOL    HW2 5049   0.927   0.270   1.837
 1384SOL     OW 5050   4.980   0.386   2.151
 1384SOL    HW1 5051   4.981   0.382   2.051
 1384SOL    HW2 5052   4.963   0.480   2.180
 1385SOL     OW 5053   2.045   4.383   3.383
 1385SOL    HW1 5054   2.136   4.421   3.401
 1385SOL    HW2 5055   1.989   4.451   3.335
 1386SOL     OW 5056   3.068   0.550   4.424
 1386SOL    HW1 5057   3.074   0.545   4.324
 1386SOL    HW2 5058   2.995   0.491   4.456
 1387SOL     OW 5059   3.737   5.945   2.424
 1387SOL    HW1 5060   3.655   5.913   2.471
 1387SOL    HW2 5061   3.768   5.874   2.360
 1388SOL     OW 5062   0.435   0.279   3.010
 1388SOL    HW1 5063   0.488   0.291   2.927
 1388SOL    HW2 5064   0.497   0.269   3.088
 1389SOL     OW 5065   6.465   1.176   4.173
 1389SOL    HW1 5066   6.418   1.110   4.114
 1389SOL    HW2 5067   6.535   1.224   4.119
 1390SOL     OW 5068   6.659   3.143   6.035
 1390SOL    HW1 5069   6.753   3.153   6.001
 1390SOL    HW2 5070   6.617   3.234   6.042
 1391SOL     OW 5071   5.726   6.815   5.443
 1391SOL    HW1 5072   5.755   6.891   5.502
 1391SOL    HW2 5073   5.664   6.755   5.494
 1392SOL     OW 5074   5.527   6.579   6.230
 1392SOL    HW1 5075   5.545   6.577   6.131
 1392SOL    HW2 5076   5.433   6.609   6.246
 1393SOL     OW 5077   6.842   3.909   6.070
 1393SOL    HW1 5078   6.758   3.962   6.064
 1393SOL    HW2 5079   6.897   3.942   6.147
 1394SOL     OW 5080   3.714   6.078   4.937
 1394SOL    HW1 5081   3.734   6.088   5.035
 1394SOL    HW2 5082   3.615   6.078   4.923
 1395SOL     OW 5083   1.794   4.057   4.380
 1395SOL    HW1 5084   1.756   3.989   4.316
 1395SOL    HW2 5085   1.833   4.009   4.459
 1396SOL     OW 5086   0.459   0.328   4.557
 1396SOL    HW1 5087   0.417   0.418   4.549
 1396SOL    HW2 5088   0.397   0.266   4.605
 1397SOL     OW 5089   0.356   6.178   4.626
 1397SOL    HW1 5090   0.311   6.179   4.537
 1397SOL    HW2 5091   0.287   6.188   4.698
 1398SOL     OW 5092   2.446   1.255   6.936
 1398SOL    HW1 5093   2.519   1.259   7.004
 1398SOL    HW2 5094   2.416   1.161   6.925
 1399SOL     OW 5095   3.758   6.091   0.386
 1399SOL    HW1 5096   3.770   6.075   0.484
 1399SOL    HW2 5097   3.673   6.048   0.355
 1400SOL     OW 5098   0.429   1.734   4.434
 1400SOL    HW1 5099   0.370   1.656   4.452
 1400SOL    HW2 5100   0.385   1.795   4.368
 1401SOL     OW 5101   5.700   0.426   4.554
 1401SOL    HW1 5102   5.761   0.387   4.622
 1401SOL    HW2 5103   5.711   0.377   4.467
 1402SOL     OW 5104   5.726   4.510   6.433
 1402SOL    HW1 5105   5.650   4.537   6.374
 1402SOL    HW2 5106   5.802   4.573   6.420
 1403SOL     OW 5107   1.832   2.002   1.193
 1403SOL    HW1 5108   1.773   2.050   1.128
 1403SOL    HW2 5109   1.873   2.069   1.256
 1404SOL     OW 5110   6.841   0.646   0.084
 1404SOL    HW1 5111   6.826   0.640   7.007
 1404SOL    HW2 5112   6.753   0.655   0.131
 1405SOL     OW 5113   2.984   4.102   1.139
 1405SOL    HW1 5114   2.911   4.162   1.104
 1405SOL    HW2 5115   2.955   4.007   1.132
 1406SOL     OW 5116   1.710   5.430   1.203
 1406SOL    HW1 5117   1.743   5.427   1.108
 1406SOL    HW2 5118   1.786   5.412   1.265
 1407SOL     OW 5119   1.145   3.893   3.339
 1407SOL    HW1 5120   1.208   3.854   3.406
 1407SOL    HW2 5121   1.119   3.985   3.367
 1408SOL     OW 5122   5.639   0.163   6.507
 1408SOL    HW1 5123   5.629   0.225   6.584
 1408SOL    HW2 5124   5.660   0.071   6.541
 1409SOL     OW 5125   0.657   0.350   5.371
 1409SOL    HW1 5126   0.689   0.437   5.409
 1409SOL    HW2 5127   0.714   0.276   5.406
 1410SOL     OW 5128   2.053   4.350   6.291
 1410SOL    HW1 5129   1.998   4.322   6.212
 1410SOL    HW2 5130   2.060   4.274   6.355
 1411SOL     OW 5131   3.606   6.248   0.026
 1411SOL    HW1 5132   3.672   6.174   0.037
 1411SOL    HW2 5133   3.514   6.213   0.039
 1412SOL     OW 5134   0.935   4.177   1.064
 1412SOL    HW1 5135   0.906   4.089   1.026
 1412SOL    HW2 5136   1.031   4.193   1.041
 1413SOL     OW 5137   2.145   1.307   4.706
 1413SOL    HW1 5138   2.215   1.367   4.745
 1413SOL    HW2 5139   2.094   1.356   4.635
 1414SOL     OW 5140   2.461   1.400   1.734
 1414SOL    HW1 5141   2.494   1.340   1.661
 1414SOL    HW2 5142   2.513   1.485   1.732
 1415SOL     OW 5143   3.072   1.464   3.986
 1415SOL    HW1 5144   3.043   1.544   3.933
 1415SOL    HW2 5145   3.011   1.452   4.064
 1416SOL     OW 5146   3.965   6.465   4.425
 1416SOL    HW1 5147   3.947   6.431   4.333
 1416SOL    HW2 5148   4.064   6.473   4.439
 1417SOL     OW 5149   3.139   2.538   6.531
 1417SOL    HW1 5150   3.066   2.472   6.547
 1417SOL    HW2 5151   3.130   2.575   6.438
 1418SOL     OW 5152   2.870   3.309   1.233
 1418SOL    HW1 5153   2.936   3.375   1.198
 1418SOL    HW2 5154   2.875   3.307   1.333
 1419SOL     OW 5155   3.519   6.088   4.416
 1419SOL    HW1 5156   3.518   6.172   4.361
 1419SOL    HW2 5157   3.501   6.009   4.357
 1420SOL     OW 5158   3.628   5.984   3.362
 1420SOL    HW1 5159   3.590   5.936   3.441
 1420SOL    HW2 5160   3.588   5.947   3.279
 1421SOL     OW 5161   1.055   4.039   4.293
 1421SOL    HW1 5162   1.095   4.102   4.226
 1421SOL    HW2 5163   0.998   4.091   4.357
 1422SOL     OW 5164   2.577   4.164   6.550
 1422SOL    HW1 5165   2.548   4.169   6.455
 1422SOL    HW2 5166   2.597   4.256   6.584
 1423SOL     OW 5167   4.142   0.748   4.246
 1423SOL    HW1 5168   4.138   0.672   4.311
 1423SOL    HW2 5169   4.227   0.744   4.194
 1424SOL     OW 5170   6.933   3.704   6.674
 1424SOL    HW1 5171   7.020   3.657   6.663
 1424SOL    HW2 5172   6.859   3.637   6.685
 1425SOL     OW 5173   2.203   5.397   5.311
 1425SOL    HW1 5174   2.135   5.439   5.251
 1425SOL    HW2 5175   2.208   5.448   5.397
 1426SOL     OW 5176   2.560   2.139   6.270
 1426SOL    HW1 5177   2.594   2.044   6.272
 1426SOL    HW2 5178   2.567   2.174   6.177
 1427SOL     OW 5179   6.599   6.682   4.048
 1427SOL    HW1 5180   6.542   6.602   4.032
 1427SOL    HW2 5181   6.692   6.653   4.071
 1428SOL     OW 5182   1.064   2.093   1.524
 1428SOL    HW1 5183   1.049   2.169   1.461
 1428SOL    HW2 5184   0.979   2.074   1.573
 1429SOL     OW 5185   5.320   1.766   0.052
 1429SOL    HW1 5186   5.228   1.762   0.090
 1429SOL    HW2 5187   5.387   1.749   0.124
 1430SOL     OW 5188   2.309   4.861   3.776
 1430SOL    HW1 5189   2.408   4.875   3.786
 1430SOL    HW2 5190   2.275   4.916   3.700
 1431SOL     OW 5191   3.042   2.516   0.017
 1431SOL    HW1 5192   3.000   2.470   6.960
 1431SOL    HW2 5193   3.062   2.449   0.088
 1432SOL     OW 5194   3.173   1.052   1.047
 1432SOL    HW1 5195   3.075   1.059   1.030
 1432SOL    HW2 5196   3.196   0.958   1.072
 1433SOL     OW 5197   5.060   1.009   5.196
 1433SOL    HW1 5198   4.961   1.019   5.208
 1433SOL    HW2 5199   5.084   1.031   5.102
 1434SOL     OW 5200   0.744   0.881   6.440
 1434SOL    HW1 5201   0.701   0.965   6.406
 1434SOL    HW2 5202   0.833   0.903   6.481
 1435SOL     OW 5203   6.675   0.025   3.071
 1435SOL    HW1 5204   6.582   0.043   3.105
 1435SOL    HW2 5205   6.680   0.051   2.974
 1436SOL     OW 5206   5.431   4.313   6.998
 1436SOL    HW1 5207   5.418   4.413   6.999
 1436SOL    HW2 5208   5.344   4.268   7.012
 1437SOL     OW 5209   3.705   1.530   6.025
 1437SOL    HW1 5210   3.702   1.570   6.116
 1437SOL    HW2 5211   3.645   1.581   5.964
 1438SOL     OW 5212   2.482   0.089   1.272
 1438SOL    HW1 5213   2.506   0.107   1.176
 1438SOL    HW2 5214   2.458   7.013   1.282
 1439SOL     OW 5215   6.920   4.631   0.497
 1439SOL    HW1 5216   7.010   4.671   0.514
 1439SOL    HW2 5217   6.852   4.704   0.492
 1440SOL     OW 5218   3.108   2.881   5.703
 1440SOL    HW1 5219   3.011   2.861   5.695
 1440SOL    HW2 5220   3.126   2.975   5.673
 1441SOL     OW 5221   6.203   3.050   4.072
 1441SOL    HW1 5222   6.118   3.079   4.114
 1441SOL    HW2 5223   6.280   3.072   4.133
 1442SOL     OW 5224   6.419   5.294   7.011
 1442SOL    HW1 5225   6.470   5.289   6.925
 1442SOL    HW2 5226   6.440   5.214   0.045
 1443SOL     OW 5227   0.527   2.848   4.511
 1443SOL    HW1 5228   0.552   2.819   4.418
 1443SOL    HW2 5229   0.468   2.779   4.553
 1444SOL     OW 5230   4.265   6.011   1.150
 1444SOL    HW1 5231   4.189   6.001   1.086
 1444SOL    HW2 5232   4.239   6.073   1.224
 1445SOL     OW 5233   0.137   2.638   1.808
 1445SOL    HW1 5234   0.043   2.641   1.771
 1445SOL    HW2 5235   0.202   2.638   1.732
 1446SOL     OW 5236   4.813   2.123   0.045
 1446SOL    HW1 5237   4.861   2.193   0.098
 1446SOL    HW2 5238   4.788   2.047   0.105
 1447SOL     OW 5239   5.926   6.592   5.728
 1447SOL    HW1 5240   6.022   6.596   5.702
 1447SOL    HW2 5241   5.899   6.497   5.741
 1448SOL     OW 5242   6.581   2.600   0.352
 1448SOL    HW1 5243   6.642   2.522   0.365
 1448SOL    HW2 5244   6.501   2.572   0.300
 1449SOL     OW 5245   0.014   1.288   6.854
 1449SOL    HW1 5246   7.004   1.298   6.760
 1449SOL    HW2 5247   6.963   1.247   6.910
 1450SOL     OW 5248   0.899   2.296   1.835
 1450SOL    HW1 5249   0.812   2.340   1.812
 1450SOL    HW2 5250   0.969   2.324   1.769
 1451SOL     OW 5251   2.358   0.959   2.481
 1451SOL    HW1 5252   2.306   0.968   2.396
 1451SOL    HW2 5253   2.456   0.972   2.462
 1452SOL     OW 5254   4.083   1.136   4.323
 1452SOL    HW1 5255   4.082   1.094   4.232
 1452SOL    HW2 5256   4.167   1.187   4.335
 1453SOL     OW 5257   6.861   3.473   5.110
 1453SOL    HW1 5258   6.915   3.459   5.028
 1453SOL    HW2 5259   6.912   3.442   5.190
 1454SOL     OW 5260   6.661   2.764   2.882
 1454SOL    HW1 5261   6.754   2.746   2.913
 1454SOL    HW2 5262   6.647   2.720   2.793
 1455SOL     OW 5263   1.358   0.218   1.595
 1455SOL    HW1 5264   1.351   0.314   1.569
 1455SOL    HW2 5265   1.319   0.205   1.686
 1456SOL     OW 5266   6.405   0.030   5.205
 1456SOL    HW1 5267   6.308   0.030   5.226
 1456SOL    HW2 5268   6.420   0.074   5.116
 1457SOL     OW 5269   1.483   6.918   1.498
 1457SOL    HW1 5270   1.393   6.924   1.541
 1457SOL    HW2 5271   1.473   6.892   1.402
 1458SOL     OW 5272   5.720   5.967   3.475
 1458SOL    HW1 5273   5.759   6.031   3.409
 1458SOL    HW2 5274   5.793   5.916   3.519
 1459SOL     OW 5275   2.702   5.272   5.598
 1459SOL    HW1 5276   2.685   5.176   5.622
 1459SOL    HW2 5277   2.696   5.283   5.499
 1460SOL     OW 5278   0.051   5.465   6.180
 1460SOL    HW1 5279   0.020   5.559   6.189
 1460SOL    HW2 5280   0.151   5.461   6.192
 1461SOL     OW 5281   0.369   5.246   3.887
 1461SOL    HW1 5282   0.406   5.153   3.886
 1461SOL    HW2 5283   0.416   5.301   3.817
 1462SOL     OW 5284   1.110   0.948   6.301
 1462SOL    HW1 5285   1.083   1.012   6.373
 1462SOL    HW2 5286   1.194   0.980   6.257
 1463SOL     OW 5287   0.132   5.465   0.088
 1463SOL    HW1 5288   0.227   5.449   0.060
 1463SOL    HW2 5289   0.070   5.435   0.016
 1464SOL     OW 5290   5.891   6.599   0.747
 1464SOL    HW1 5291   5.869   6.690   0.712
 1464SOL    HW2 5292   5.968   6.562   0.696
 1465SOL     OW 5293   1.529   1.671   3.738
 1465SOL    HW1 5294   1.612   1.701   3.787
 1465SOL    HW2 5295   1.515   1.573   3.753
 1466SOL     OW 5296   1.604   1.461   2.419
 1466SOL    HW1 5297   1.579   1.524   2.345
 1466SOL    HW2 5298   1.525   1.403   2.441
 1467SOL     OW 5299   2.299   2.281   1.747
 1467SOL    HW1 5300   2.224   2.269   1.681
 1467SOL    HW2 5301   2.385   2.291   1.697
 1468SOL     OW 5302   5.694   5.411   3.144
 1468SOL    HW1 5303   5.714   5.496   3.095
 1468SOL    HW2 5304   5.732   5.415   3.236
 1469SOL     OW 5305   0.871   0.979   2.052
 1469SOL    HW1 5306   0.873   1.028   1.965
 1469SOL    HW2 5307   0.962   0.946   2.074
 1470SOL     OW 5308   1.797   1.366   2.226
 1470SOL    HW1 5309   1.891   1.360   2.259
 1470SOL    HW2 5310   1.738   1.403   2.298
 1471SOL     OW 5311   1.146   0.396   0.404
 1471SOL    HW1 5312   1.198   0.373   0.486
 1471SOL    HW2 5313   1.066   0.336   0.397
 1472SOL     OW 5314   4.040   6.032   5.084
 1472SOL    HW1 5315   4.080   5.941   5.098
 1472SOL    HW2 5316   3.942   6.029   5.101
 1473SOL     OW 5317   5.391   6.460   3.914
 1473SOL    HW1 5318   5.453   6.384   3.893
 1473SOL    HW2 5319   5.384   6.472   4.013
 1474SOL     OW 5320   6.006   5.428   3.189
 1474SOL    HW1 5321   5.957   5.375   3.258
 1474SOL    HW2 5322   6.007   5.379   3.102
 1475SOL     OW 5323   6.297   0.279   1.890
 1475SOL    HW1 5324   6.359   0.357   1.876
 1475SOL    HW2 5325   6.344   0.208   1.942
 1476SOL     OW 5326   2.524   1.250   1.496
 1476SOL    HW1 5327   2.487   1.178   1.437
 1476SOL    HW2 5328   2.557   1.326   1.440
 1477SOL     OW 5329   3.523   0.813   6.336
 1477SOL    HW1 5330   3.504   0.823   6.433
 1477SOL    HW2 5331   3.493   0.895   6.287
 1478SOL     OW 5332   5.810   5.286   0.110
 1478SOL    HW1 5333   5.758   5.280   0.024
 1478SOL    HW2 5334   5.853   5.198   0.128
 1479SOL     OW 5335   1.531   3.422   0.142
 1479SOL    HW1 5336   1.495   3.511   0.113
 1479SOL    HW2 5337   1.620   3.434   0.185
 1480SOL     OW 5338   3.660   6.974   6.118
 1480SOL    HW1 5339   3.673   6.923   6.032
 1480SOL    HW2 5340   3.743   0.004   6.139
 1481SOL     OW 5341   6.745   2.778   5.673
 1481SOL    HW1 5342   6.764   2.689   5.714
 1481SOL    HW2 5343   6.647   2.787   5.657
 1482SOL     OW 5344   4.717   2.716   1.424
 1482SOL    HW1 5345   4.731   2.680   1.516
 1482SOL    HW2 5346   4.622   2.743   1.413
 1483SOL     OW 5347   5.674   2.044   6.154
 1483SOL    HW1 5348   5.640   1.954   6.125
 1483SOL    HW2 5349   5.600   2.110   6.152
 1484SOL     OW 5350   5.764   5.146   3.896
 1484SOL    HW1 5351   5.815   5.069   3.858
 1484SOL    HW2 5352   5.684   5.112   3.946
 1485SOL     OW 5353   2.960   1.942   3.247
 1485SOL    HW1 5354   2.921   1.975   3.161
 1485SOL    HW2 5355   2.894   1.954   3.321
 1486SOL     OW 5356   5.082   2.238   3.274
 1486SOL    HW1 5357   5.161   2.269   3.327
 1486SOL    HW2 5358   5.000   2.243   3.331
 1487SOL     OW 5359   6.494   2.926   6.657
 1487SOL    HW1 5360   6.561   2.937   6.583
 1487SOL    HW2 5361   6.499   3.005   6.718
 1488SOL     OW 5362   5.273   2.099   3.574
 1488SOL    HW1 5363   5.349   2.058   3.625
 1488SOL    HW2 5364   5.295   2.100   3.476
 1489SOL     OW 5365   3.693   5.199   3.936
 1489SOL    HW1 5366   3.670   5.254   4.016
 1489SOL    HW2 5367   3.641   5.113   3.939
 1490SOL     OW 5368   1.100   2.949   0.920
 1490SOL    HW1 5369   1.095   2.917   1.015
 1490SOL    HW2 5370   1.177   3.013   0.911
 1491SOL     OW 5371   6.621   3.924   3.810
 1491SOL    HW1 5372   6.615   4.023   3.826
 1491SOL    HW2 5373   6.660   3.908   3.719
 1492SOL     OW 5374   5.975   1.470   2.269
 1492SOL    HW1 5375   5.992   1.396   2.204
 1492SOL    HW2 5376   5.998   1.439   2.361
 1493SOL     OW 5377   4.306   0.550   4.354
 1493SOL    HW1 5378   4.380   0.545   4.421
 1493SOL    HW2 5379   4.291   0.460   4.313
 1494SOL     OW 5380   5.935   1.925   5.593
 1494SOL    HW1 5381   5.868   1.882   5.653
 1494SOL    HW2 5382   5.898   2.011   5.557
 1495SOL     OW 5383   6.826   2.564   5.147
 1495SOL    HW1 5384   6.727   2.577   5.153
 1495SOL    HW2 5385   6.861   2.616   5.069
 1496SOL     OW 5386   0.569   1.259   1.782
 1496SOL    HW1 5387   0.658   1.258   1.736
 1496SOL    HW2 5388   0.527   1.350   1.771
 1497SOL     OW 5389   6.846   2.994   3.598
 1497SOL    HW1 5390   6.755   3.020   3.632
 1497SOL    HW2 5391   6.901   2.958   3.674
 1498SOL     OW 5392   1.881   4.711   5.998
 1498SOL    HW1 5393   1.911   4.621   5.966
 1498SOL    HW2 5394   1.935   4.782   5.952
 1499SOL     OW 5395   0.986   3.611   6.823
 1499SOL    HW1 5396   1.001   3.547   6.899
 1499SOL    HW2 5397   0.952   3.561   6.743
 1500SOL     OW 5398   6.664   6.080   0.098
 1500SOL    HW1 5399   6.602   6.063   0.021
 1500SOL    HW2 5400   6.685   6.178   0.103
 1501SOL     OW 5401   5.620   1.806   6.062
 1501SOL    HW1 5402   5.675   1.811   5.979
 1501SOL    HW2 5403   5.630   1.715   6.103
 1502SOL     OW 5404   5.510   0.596   1.219
 1502SOL    HW1 5405   5.469   0.537   1.150
 1502SOL    HW2 5406   5.440   0.625   1.284
 1503SOL     OW 5407   1.887   2.334   1.939
 1503SOL    HW1 5408   1.936   2.250   1.961
 1503SOL    HW2 5409   1.920   2.409   1.997
 1504SOL     OW 5410   0.987   0.367   5.175
 1504SOL    HW1 5411   1.000   0.275   5.138
 1504SOL    HW2 5412   0.992   0.364   5.274
 1505SOL     OW 5413   6.033   0.826   5.852
 1505SOL    HW1 5414   6.117   0.812   5.798
 1505SOL    HW2 5415   6.010   0.742   5.900
 1506SOL     OW 5416   1.816   5.179   1.061
 1506SOL    HW1 5417   1.814   5.185   1.161
 1506SOL    HW2 5418   1.826   5.271   1.023
 1507SOL     OW 5419   0.814   1.859   5.844
 1507SOL    HW1 5420   0.903   1.901   5.825
 1507SOL    HW2 5421   0.764   1.848   5.758
 1508SOL     OW 5422   6.710   0.460   1.993
 1508SOL    HW1 5423   6.633   0.509   1.952
 1508SOL    HW2 5424   6.795   0.492   1.950
 1509SOL     OW 5425   4.826   2.678   5.527
 1509SOL    HW1 5426   4.746   2.730   5.494
 1509SOL    HW2 5427   4.875   2.641   5.448
 1510SOL     OW 5428   5.232   2.585   4.928
 1510SOL    HW1 5429   5.269   2.533   5.006
 1510SOL    HW2 5430   5.214   2.522   4.852
 1511SOL     OW 5431   3.038   3.159   1.796
 1511SOL    HW1 5432   3.138   3.169   1.794
 1511SOL    HW2 5433   3.013   3.066   1.771
 1512SOL     OW 5434   0.895   4.973   1.384
 1512SOL    HW1 5435   0.951   5.055   1.381
 1512SOL    HW2 5436   0.947   4.899   1.427
 1513SOL     OW 5437   3.439   0.654   3.485
 1513SOL    HW1 5438   3.538   0.670   3.485
 1513SOL    HW2 5439   3.396   0.712   3.416
 1514SOL     OW 5440   4.232   2.263   5.899
 1514SOL    HW1 5441   4.286   2.205   5.839
 1514SOL    HW2 5442   4.261   2.248   5.994
 1515SOL     OW 5443   5.652   2.145   4.731
 1515SOL    HW1 5444   5.591   2.067   4.722
 1515SOL    HW2 5445   5.717   2.128   4.805
 1516SOL     OW 5446   6.828   0.191   0.598
 1516SOL    HW1 5447   6.768   0.184   0.677
 1516SOL    HW2 5448   6.862   0.100   0.574
 1517SOL     OW 5449   4.321   6.139   3.763
 1517SOL    HW1 5450   4.279   6.221   3.723
 1517SOL    HW2 5451   4.419   6.139   3.741
 1518SOL     OW 5452   0.920   3.430   0.059
 1518SOL    HW1 5453   0.848   3.489   0.095
 1518SOL    HW2 5454   1.009   3.466   0.087
 1519SOL     OW 5455   6.187   4.993   2.313
 1519SOL    HW1 5456   6.282   4.987   2.343
 1519SOL    HW2 5457   6.134   5.044   2.380
 1520SOL     OW 5458   0.457   3.748   2.348
 1520SOL    HW1 5459   0.522   3.760   2.273
 1520SOL    HW2 5460   0.417   3.836   2.371
 1521SOL     OW 5461   2.196   4.067   0.412
 1521SOL    HW1 5462   2.143   4.133   0.465
 1521SOL    HW2 5463   2.188   4.088   0.315
 1522SOL     OW 5464   6.514   6.838   5.037
 1522SOL    HW1 5465   6.528   6.916   4.977
 1522SOL    HW2 5466   6.437   6.857   5.099
 1523SOL     OW 5467   4.840   4.585   6.931
 1523SOL    HW1 5468   4.889   4.672   6.923
 1523SOL    HW2 5469   4.784   4.586   7.014
 1524SOL     OW 5470   1.386   2.002   2.306
 1524SOL    HW1 5471   1.346   2.079   2.257
 1524SOL    HW2 5472   1.330   1.920   2.292
 1525SOL     OW 5473   6.549   2.472   0.704
 1525SOL    HW1 5474   6.570   2.475   0.802
 1525SOL    HW2 5475   6.612   2.410   0.658
 1526SOL     OW 5476   0.554   6.556   6.988
 1526SOL    HW1 5477   0.576   6.507   6.903
 1526SOL    HW2 5478   0.455   6.569   6.994
 1527SOL     OW 5479   3.746   1.103   5.561
 1527SOL    HW1 5480   3.721   1.079   5.468
 1527SOL    HW2 5481   3.820   1.043   5.592
 1528SOL     OW 5482   5.043   5.842   2.382
 1528SOL    HW1 5483   5.112   5.888   2.437
 1528SOL    HW2 5484   5.062   5.743   2.380
 1529SOL     OW 5485   4.000   0.210   0.459
 1529SOL    HW1 5486   3.902   0.220   0.471
 1529SOL    HW2 5487   4.043   0.300   0.457
 1530SOL     OW 5488   3.392   1.571   2.733
 1530SOL    HW1 5489   3.335   1.626   2.793
 1530SOL    HW2 5490   3.357   1.477   2.731
 1531SOL     OW 5491   5.379   1.098   4.766
 1531SOL    HW1 5492   5.365   1.027   4.697
 1531SOL    HW2 5493   5.414   1.181   4.721
 1532SOL     OW 5494   2.679   3.694   5.950
 1532SOL    HW1 5495   2.773   3.726   5.961
 1532SOL    HW2 5496   2.634   3.693   6.039
 1533SOL     OW 5497   6.395   3.085   0.308
 1533SOL    HW1 5498   6.393   2.994   0.349
 1533SOL    HW2 5499   6.440   3.148   0.371
 1534SOL     OW 5500   1.695   5.015   6.397
 1534SOL    HW1 5501   1.704   4.985   6.492
 1534SOL    HW2 5502   1.719   4.939   6.336
 1535SOL     OW 5503   5.010   6.588   4.380
 1535SOL    HW1 5504   5.056   6.642   4.310
 1535SOL    HW2 5505   5.059   6.599   4.467
 1536SOL     OW 5506   4.171   4.292   5.282
 1536SOL    HW1 5507   4.228   4.227   5.334
 1536SOL    HW2 5508   4.229   4.346   5.221
 1537SOL     OW 5509   4.070   5.978   3.495
 1537SOL    HW1 5510   4.159   6.023   3.494
 1537SOL    HW2 5511   4.024   5.997   3.582
 1538SOL     OW 5512   3.758   6.072   5.192
 1538SOL    HW1 5513   3.745   6.153   5.249
 1538SOL    HW2 5514   3.744   5.990   5.246
 1539SOL     OW 5515   4.293   3.640   1.768
 1539SOL    HW1 5516   4.387   3.672   1.752
 1539SOL    HW2 5517   4.236   3.663   1.690
 1540SOL     OW 5518   2.080   6.205   6.385
 1540SOL    HW1 5519   1.992   6.165   6.359
 1540SOL    HW2 5520   2.151   6.167   6.326
 1541SOL     OW 5521   3.318   3.085   2.407
 1541SOL    HW1 5522   3.378   3.010   2.435
 1541SOL    HW2 5523   3.232   3.079   2.457
 1542SOL     OW 5524   6.714   5.929   1.808
 1542SOL    HW1 5525   6.767   5.974   1.735
 1542SOL    HW2 5526   6.674   5.998   1.867
 1543SOL     OW 5527   3.509   3.899   4.837
 1543SOL    HW1 5528   3.511   3.856   4.747
 1543SOL    HW2 5529   3.601   3.926   4.863
 1544SOL     OW 5530   3.596   3.792   2.959
 1544SOL    HW1 5531   3.542   3.872   2.986
 1544SOL    HW2 5532   3.634   3.749   3.040
 1545SOL     OW 5533   5.313   0.887   3.832
 1545SOL    HW1 5534   5.353   0.971   3.797
 1545SOL    HW2 5535   5.377   0.843   3.895
 1546SOL     OW 5536   4.556   6.892   6.100
 1546SOL    HW1 5537   4.543   6.868   6.197
 1546SOL    HW2 5538   4.650   6.872   6.073
 1547SOL     OW 5539   1.772   3.627   3.265
 1547SOL    HW1 5540   1.761   3.592   3.172
 1547SOL    HW2 5541   1.857   3.679   3.270
 1548SOL     OW 5542   4.630   4.116   5.784
 1548SOL    HW1 5543   4.695   4.148   5.715
 1548SOL    HW2 5544   4.605   4.193   5.844
 1549SOL     OW 5545   3.878   1.053   2.864
 1549SOL    HW1 5546   3.783   1.048   2.833
 1549SOL    HW2 5547   3.879   1.074   2.962
 1550SOL     OW 5548   2.303   4.983   6.095
 1550SOL    HW1 5549   2.344   5.046   6.160
 1550SOL    HW2 5550   2.282   5.032   6.010
 1551SOL     OW 5551   2.057   4.208   6.831
 1551SOL    HW1 5552   2.064   4.279   6.900
 1551SOL    HW2 5553   2.146   4.193   6.788
 1552SOL     OW 5554   0.237   6.927   0.605
 1552SOL    HW1 5555   0.233   7.018   0.645
 1552SOL    HW2 5556   0.273   6.933   0.511
 1553SOL     OW 5557   0.013   0.810   5.922
 1553SOL    HW1 5558   6.987   0.778   5.840
 1553SOL    HW2 5559   0.054   0.732   5.969
 1554SOL     OW 5560   3.764   1.723   3.304
 1554SOL    HW1 5561   3.728   1.687   3.218
 1554SOL    HW2 5562   3.771   1.823   3.299
 1555SOL     OW 5563   5.002   1.943   0.364
 1555SOL    HW1 5564   4.916   1.992   0.348
 1555SOL    HW2 5565   5.014   1.874   0.292
 1556SOL     OW 5566   3.541   1.069   0.497
 1556SOL    HW1 5567   3.545   1.124   0.580
 1556SOL    HW2 5568   3.474   1.109   0.434
 1557SOL     OW 5569   2.287   1.021   6.576
 1557SOL    HW1 5570   2.345   1.103   6.574
 1557SOL    HW2 5571   2.202   1.042   6.624
 1558SOL     OW 5572   5.229   1.176   4.011
 1558SOL    HW1 5573   5.184   1.122   3.939
 1558SOL    HW2 5574   5.193   1.150   4.100
 1559SOL     OW 5575   0.133   2.627   0.447
 1559SOL    HW1 5576   0.191   2.606   0.368
 1559SOL    HW2 5577   0.176   2.592   0.530
 1560SOL     OW 5578   3.185   1.532   5.836
 1560SOL    HW1 5579   3.235   1.561   5.754
 1560SOL    HW2 5580   3.097   1.494   5.810
 1561SOL     OW 5581   0.027   6.165   2.380
 1561SOL    HW1 5582   0.089   6.217   2.321
 1561SOL    HW2 5583   6.978   6.121   2.325
 1562SOL     OW 5584   4.185   6.224   1.652
 1562SOL    HW1 5585   4.200   6.322   1.639
 1562SOL    HW2 5586   4.088   6.206   1.667
 1563SOL     OW 5587   2.263   1.087   6.158
 1563SOL    HW1 5588   2.254   1.051   6.066
 1563SOL    HW2 5589   2.268   1.012   6.224
 1564SOL     OW 5590   1.117   2.671   2.641
 1564SOL    HW1 5591   1.172   2.590   2.623
 1564SOL    HW2 5592   1.107   2.684   2.740
 1565SOL     OW 5593   4.434   5.255   3.819
 1565SOL    HW1 5594   4.392   5.345   3.832
 1565SOL    HW2 5595   4.374   5.198   3.763
 1566SOL     OW 5596   5.595   5.264   4.290
 1566SOL    HW1 5597   5.504   5.223   4.287
 1566SOL    HW2 5598   5.664   5.192   4.284
 1567SOL     OW 5599   6.386   6.110   0.188
 1567SOL    HW1 5600   6.459   6.141   0.127
 1567SOL    HW2 5601   6.356   6.019   0.158
 1568SOL     OW 5602   2.470   6.112   1.401
 1568SOL    HW1 5603   2.389   6.144   1.450
 1568SOL    HW2 5604   2.465   6.140   1.305
 1569SOL     OW 5605   2.986   7.017   3.281
 1569SOL    HW1 5606   3.082   7.007   3.254
 1569SOL    HW2 5607   2.944   6.927   3.291
 1570SOL     OW 5608   2.387   6.499   0.656
 1570SOL    HW1 5609   2.463   6.454   0.610
 1570SOL    HW2 5610   2.366   6.585   0.610
 1571SOL     OW 5611   6.191   1.639   2.637
 1571SOL    HW1 5612   6.206   1.727   2.592
 1571SOL    HW2 5613   6.256   1.572   2.600
 1572SOL     OW 5614   1.328   5.625   0.746
 1572SOL    HW1 5615   1.337   5.600   0.650
 1572SOL    HW2 5616   1.231   5.632   0.770
 1573SOL     OW 5617   6.352   3.729   1.642
 1573SOL    HW1 5618   6.277   3.763   1.585
 1573SOL    HW2 5619   6.389   3.803   1.697
 1574SOL     OW 5620   6.617   1.047   3.537
 1574SOL    HW1 5621   6.649   1.092   3.619
 1574SOL    HW2 5622   6.681   1.063   3.462
 1575SOL     OW 5623   2.011   2.203   1.295
 1575SOL    HW1 5624   2.110   2.201   1.283
 1575SOL    HW2 5625   1.980   2.297   1.296
 1576SOL     OW 5626   1.066   0.573   2.724
 1576SOL    HW1 5627   1.140   0.517   2.686
 1576SOL    HW2 5628   1.053   0.654   2.668
 1577SOL     OW 5629   2.630   0.508   5.829
 1577SOL    HW1 5630   2.630   0.409   5.837
 1577SOL    HW2 5631   2.557   0.537   5.767
 1578SOL     OW 5632   5.380   2.663   5.996
 1578SOL    HW1 5633   5.370   2.755   5.959
 1578SOL    HW2 5634   5.290   2.620   6.002
 1579SOL     OW 5635   0.235   1.765   1.949
 1579SOL    HW1 5636   0.236   1.782   1.851
 1579SOL    HW2 5637   0.313   1.813   1.992
 1580SOL     OW 5638   3.328   3.952   3.871
 1580SOL    HW1 5639   3.383   3.912   3.944
 1580SOL    HW2 5640   3.241   3.984   3.908
 1581SOL     OW 5641   6.317   4.505   4.833
 1581SOL    HW1 5642   6.265   4.488   4.750
 1581SOL    HW2 5643   6.285   4.589   4.876
 1582SOL     OW 5644   2.042   6.789   4.378
 1582SOL    HW1 5645   2.101   6.867   4.359
 1582SOL    HW2 5646   2.068   6.712   4.321
 1583SOL     OW 5647   0.793   5.340   2.411
 1583SOL    HW1 5648   0.818   5.430   2.376
 1583SOL    HW2 5649   0.778   5.346   2.510
 1584SOL     OW 5650   0.459   6.035   6.474
 1584SOL    HW1 5651   0.391   6.047   6.402
 1584SOL    HW2 5652   0.434   5.955   6.529
 1585SOL     OW 5653   4.493   1.758   3.383
 1585SOL    HW1 5654   4.414   1.713   3.342
 1585SOL    HW2 5655   4.548   1.691   3.433
 1586SOL     OW 5656   3.135   4.865   2.110
 1586SOL    HW1 5657   3.178   4.852   2.199
 1586SOL    HW2 5658   3.198   4.838   2.037
 1587SOL     OW 5659   2.654   5.634   6.066
 1587SOL    HW1 5660   2.668   5.722   6.111
 1587SOL    HW2 5661   2.567   5.635   6.017
 1588SOL     OW 5662   3.634   1.042   2.801
 1588SOL    HW1 5663   3.588   1.095   2.872
 1588SOL    HW2 5664   3.600   1.072   2.711
 1589SOL     OW 5665   7.016   3.251   2.051
 1589SOL    HW1 5666   6.931   3.298   2.027
 1589SOL    HW2 5667   0.071   3.297   2.006
 1590SOL     OW 5668   3.873   0.198   4.756
 1590SOL    HW1 5669   3.844   0.231   4.666
 1590SOL    HW2 5670   3.880   0.275   4.819
 1591SOL     OW 5671   0.069   5.294   1.600
 1591SOL    HW1 5672   0.030   5.202   1.605
 1591SOL    HW2 5673   0.157   5.295   1.648
 1592SOL     OW 5674   2.204   3.848   6.926
 1592SOL    HW1 5675   2.243   3.838   6.835
 1592SOL    HW2 5676   2.118   3.797   6.931
 1593SOL     OW 5677   0.596   6.638   5.484
 1593SOL    HW1 5678   0.666   6.666   5.549
 1593SOL    HW2 5679   0.619   6.672   5.393
 1594SOL     OW 5680   1.173   6.424   1.674
 1594SOL    HW1 5681   1.110   6.386   1.606
 1594SOL    HW2 5682   1.221   6.502   1.634
 1595SOL     OW 5683   2.022   5.035   0.562
 1595SOL    HW1 5684   2.077   5.111   0.597
 1595SOL    HW2 5685   1.948   5.016   0.627
 1596SOL     OW 5686   0.409   2.272   4.090
 1596SOL    HW1 5687   0.373   2.227   4.009
 1596SOL    HW2 5688   0.438   2.202   4.156
 1597SOL     OW 5689   1.357   6.572   0.417
 1597SOL    HW1 5690   1.313   6.600   0.503
 1597SOL    HW2 5691   1.290   6.525   0.360
 1598SOL     OW 5692   0.057   4.606   5.488
 1598SOL    HW1 5693   0.076   4.537   5.558
 1598SOL    HW2 5694   6.996   4.657   5.513
 1599SOL     OW 5695   4.512   5.332   4.658
 1599SOL    HW1 5696   4.430   5.275   4.644
 1599SOL    HW2 5697   4.577   5.315   4.584
 1600SOL     OW 5698   3.697   1.373   3.129
 1600SOL    HW1 5699   3.779   1.386   3.073
 1600SOL    HW2 5700   3.713   1.301   3.196
 1601SOL     OW 5701   6.693   5.912   4.424
 1601SOL    HW1 5702   6.765   5.854   4.460
 1601SOL    HW2 5703   6.623   5.926   4.494
 1602SOL     OW 5704   3.986   5.578   4.179
 1602SOL    HW1 5705   4.014   5.664   4.135
 1602SOL    HW2 5706   4.032   5.570   4.268
 1603SOL     OW 5707   1.669   6.368   3.354
 1603SOL    HW1 5708   1.572   6.385   3.340
 1603SOL    HW2 5709   1.699   6.292   3.295
 1604SOL     OW 5710   5.359   4.278   0.949
 1604SOL    HW1 5711   5.433   4.214   0.927
 1604SOL    HW2 5712   5.274   4.247   0.906
 1605SOL     OW 5713   6.450   5.045   1.397
 1605SOL    HW1 5714   6.375   5.036   1.462
 1605SOL    HW2 5715   6.529   4.994   1.431
 1606SOL     OW 5716   4.024   7.018   5.454
 1606SOL    HW1 5717   4.005   0.085   5.411
 1606SOL    HW2 5718   4.073   6.959   5.390
 1607SOL     OW 5719   4.232   1.626   0.986
 1607SOL    HW1 5720   4.263   1.532   1.001
 1607SOL    HW2 5721   4.273   1.662   0.902
 1608SOL     OW 5722   0.733   1.327   3.441
 1608SOL    HW1 5723   0.709   1.382   3.522
 1608SOL    HW2 5724   0.821   1.281   3.457
 1609SOL     OW 5725   4.515   0.322   6.787
 1609SOL    HW1 5726   4.479   0.363   6.703
 1609SOL    HW2 5727   4.475   0.231   6.799
 1610SOL     OW 5728   6.349   4.442   6.657
 1610SOL    HW1 5729   6.394   4.497   6.727
 1610SOL    HW2 5730   6.268   4.398   6.696
 1611SOL     OW 5731   2.740   3.919   0.716
 1611SOL    HW1 5732   2.696   3.858   0.650
 1611SOL    HW2 5733   2.814   3.869   0.762
 1612SOL     OW 5734   2.832   0.156   6.785
 1612SOL    HW1 5735   2.929   0.170   6.805
 1612SOL    HW2 5736   2.803   0.067   6.820
 1613SOL     OW 5737   1.369   5.588   2.037
 1613SOL    HW1 5738   1.370   5.493   2.069
 1613SOL    HW2 5739   1.334   5.647   2.110
 1614SOL     OW 5740   4.958   3.093   6.477
 1614SOL    HW1 5741   5.052   3.096   6.512
 1614SOL    HW2 5742   4.912   3.012   6.513
 1615SOL     OW 5743   6.070   5.775   0.684
 1615SOL    HW1 5744   6.009   5.699   0.661
 1615SOL    HW2 5745   6.157   5.764   0.637
 1616SOL     OW 5746   3.357   1.448   5.264
 1616SOL    HW1 5747   3.263   1.458   5.232
 1616SOL    HW2 5748   3.392   1.537   5.293
 1617SOL     OW 5749   5.922   6.727   2.596
 1617SOL    HW1 5750   5.956   6.730   2.691
 1617SOL    HW2 5751   5.995   6.692   2.537
 1618SOL     OW 5752   1.281   5.605   2.519
 1618SOL    HW1 5753   1.362   5.662   2.534
 1618SOL    HW2 5754   1.294   5.517   2.565
 1619SOL     OW 5755   0.886   3.977   1.378
 1619SOL    HW1 5756   0.829   4.058   1.388
 1619SOL    HW2 5757   0.932   3.978   1.289
 1620SOL     OW 5758   2.683   4.664   1.728
 1620SOL    HW1 5759   2.614   4.593   1.714
 1620SOL    HW2 5760   2.737   4.642   1.810
 1621SOL     OW 5761   6.769   1.014   0.624
 1621SOL    HW1 5762   6.703   1.002   0.550
 1621SOL    HW2 5763   6.762   0.937   0.688
 1622SOL     OW 5764   0.490   3.087   4.917
 1622SOL    HW1 5765   0.423   3.079   4.842
 1622SOL    HW2 5766   0.532   3.178   4.913
 1623SOL     OW 5767   2.126   2.956   4.908
 1623SOL    HW1 5768   2.104   3.010   4.827
 1623SOL    HW2 5769   2.196   3.003   4.962
 1624SOL     OW 5770   3.141   1.142   5.473
 1624SOL    HW1 5771   3.150   1.231   5.517
 1624SOL    HW2 5772   3.054   1.137   5.424
 1625SOL     OW 5773   1.616   5.217   0.265
 1625SOL    HW1 5774   1.653   5.285   0.328
 1625SOL    HW2 5775   1.606   5.130   0.313
 1626SOL     OW 5776   4.456   1.498   0.186
 1626SOL    HW1 5777   4.432   1.426   0.121
 1626SOL    HW2 5778   4.496   1.457   0.268
 1627SOL     OW 5779   6.303   3.053   3.562
 1627SOL    HW1 5780   6.287   3.111   3.642
 1627SOL    HW2 5781   6.236   2.979   3.560
 1628SOL     OW 5782   4.970   4.838   0.158
 1628SOL    HW1 5783   5.050   4.897   0.142
 1628SOL    HW2 5784   4.990   4.746   0.126
 1629SOL     OW 5785   2.899   0.803   3.584
 1629SOL    HW1 5786   2.980   0.818   3.641
 1629SOL    HW2 5787   2.856   0.717   3.609
 1630SOL     OW 5788   1.610   4.488   5.795
 1630SOL    HW1 5789   1.533   4.424   5.797
 1630SOL    HW2 5790   1.590   4.562   5.731
 1631SOL     OW 5791   1.006   3.161   0.321
 1631SOL    HW1 5792   1.072   3.159   0.245
 1631SOL    HW2 5793   1.014   3.247   0.370
 1632SOL     OW 5794   5.779   2.437   0.763
 1632SOL    HW1 5795   5.701   2.378   0.744
 1632SOL    HW2 5796   5.863   2.394   0.731
 1633SOL     OW 5797   5.442   3.988   4.268
 1633SOL    HW1 5798   5.370   3.929   4.302
 1633SOL    HW2 5799   5.425   4.011   4.172
 1634SOL     OW 5800   3.985   5.691   4.494
 1634SOL    HW1 5801   4.029   5.721   4.578
 1634SOL    HW2 5802   4.010   5.595   4.476
 1635SOL     OW 5803   0.291   5.085   6.918
 1635SOL    HW1 5804   0.210   5.116   6.969
 1635SOL    HW2 5805   0.361   5.055   6.983
 1636SOL     OW 5806   2.781   4.314   1.626
 1636SOL    HW1 5807   2.846   4.336   1.553
 1636SOL    HW2 5808   2.790   4.381   1.700
 1637SOL     OW 5809   0.650   0.645   2.767
 1637SOL    HW1 5810   0.599   0.588   2.703
 1637SOL    HW2 5811   0.587   0.689   2.831
 1638SOL     OW 5812   6.832   4.386   3.850
 1638SOL    HW1 5813   6.774   4.461   3.818
 1638SOL    HW2 5814   6.776   4.304   3.864
 1639SOL     OW 5815   5.041   6.739   2.298
 1639SOL    HW1 5816   5.094   6.823   2.284
 1639SOL    HW2 5817   5.101   6.666   2.330
 1640SOL     OW 5818   5.758   0.695   0.132
 1640SOL    HW1 5819   5.765   0.612   0.076
 1640SOL    HW2 5820   5.849   0.730   0.152
 1641SOL     OW 5821   4.530   1.882   3.137
 1641SOL    HW1 5822   4.594   1.820   3.093
 1641SOL    HW2 5823   4.539   1.874   3.236
 1642SOL     OW 5824   6.534   3.555   6.423
 1642SOL    HW1 5825   6.608   3.583   6.362
 1642SOL    HW2 5826   6.510   3.460   6.405
 1643SOL     OW 5827   2.850   4.768   4.616
 1643SOL    HW1 5828   2.840   4.867   4.629
 1643SOL    HW2 5829   2.790   4.719   4.679
 1644SOL     OW 5830   6.027   3.294   0.246
 1644SOL    HW1 5831   6.119   3.297   0.284
 1644SOL    HW2 5832   5.983   3.383   0.257
 1645SOL     OW 5833   3.423   4.781   6.366
 1645SOL    HW1 5834   3.370   4.768   6.450
 1645SOL    HW2 5835   3.520   4.783   6.388
 1646SOL     OW 5836   2.848   6.609   6.866
 1646SOL    HW1 5837   2.803   6.656   6.943
 1646SOL    HW2 5838   2.786   6.607   6.788
 1647SOL     OW 5839   5.723   3.152   4.633
 1647SOL    HW1 5840   5.749   3.178   4.540
 1647SOL    HW2 5841   5.643   3.092   4.629
 1648SOL     OW 5842   5.470   5.820   0.773
 1648SOL    HW1 5843   5.442   5.804   0.679
 1648SOL    HW2 5844   5.538   5.751   0.799
 1649SOL     OW 5845   3.355   1.181   4.072
 1649SOL    HW1 5846   3.332   1.091   4.108
 1649SOL    HW2 5847   3.277   1.217   4.020
 1650SOL     OW 5848   1.632   6.342   5.814
 1650SOL    HW1 5849   1.708   6.277   5.812
 1650SOL    HW2 5850   1.595   6.353   5.722
 1651SOL     OW 5851   0.608   1.693   1.527
 1651SOL    HW1 5852   0.706   1.678   1.543
 1651SOL    HW2 5853   0.577   1.771   1.582
 1652SOL     OW 5854   1.223   3.437   2.167
 1652SOL    HW1 5855   1.258   3.494   2.093
 1652SOL    HW2 5856   1.239   3.483   2.254
 1653SOL     OW 5857   0.640   6.503   0.896
 1653SOL    HW1 5858   0.610   6.534   0.805
 1653SOL    HW2 5859   0.622   6.573   0.964
 1654SOL     OW 5860   0.568   3.604   1.581
 1654SOL    HW1 5861   0.591   3.531   1.517
 1654SOL    HW2 5862   0.639   3.610   1.651
 1655SOL     OW 5863   0.987   2.150   5.240
 1655SOL    HW1 5864   0.993   2.176   5.144
 1655SOL    HW2 5865   0.902   2.185   5.280
 1656SOL     OW 5866   2.429   4.431   2.598
 1656SOL    HW1 5867   2.401   4.512   2.651
 1656SOL    HW2 5868   2.471   4.364   2.659
 1657SOL     OW 5869   0.112   1.153   4.080
 1657SOL    HW1 5870   0.160   1.143   4.167
 1657SOL    HW2 5871   0.017   1.181   4.098
 1658SOL     OW 5872   0.184   6.484   0.770
 1658SOL    HW1 5873   0.237   6.568   0.756
 1658SOL    HW2 5874   0.238   6.417   0.820
 1659SOL     OW 5875   3.770   6.809   6.756
 1659SOL    HW1 5876   3.773   6.781   6.852
 1659SOL    HW2 5877   3.758   6.728   6.698
 1660SOL     OW 5878   1.186   5.726   3.680
 1660SOL    HW1 5879   1.163   5.666   3.604
 1660SOL    HW2 5880   1.104   5.742   3.736
 1661SOL     OW 5881   2.977   7.000   1.104
 1661SOL    HW1 5882   2.989   7.000   1.203
 1661SOL    HW2 5883   2.880   7.010   1.082
 1662SOL     OW 5884   6.733   0.243   4.204
 1662SOL    HW1 5885   6.767   0.163   4.154
 1662SOL    HW2 5886   6.635   0.235   4.217
 1663SOL     OW 5887   4.680   6.694   3.176
 1663SOL    HW1 5888   4.747   6.725   3.108
 1663SOL    HW2 5889   4.592   6.681   3.131
 1664SOL     OW 5890   2.110   6.853   4.808
 1664SOL    HW1 5891   2.016   6.864   4.775
 1664SOL    HW2 5892   2.159   6.791   4.747
 1665SOL     OW 5893   0.324   2.328   3.115
 1665SOL    HW1 5894   0.285   2.344   3.024
 1665SOL    HW2 5895   0.266   2.370   3.184
 1666SOL     OW 5896   5.711   2.074   6.555
 1666SOL    HW1 5897   5.718   1.994   6.496
 1666SOL    HW2 5898   5.663   2.049   6.639
 1667SOL     OW 5899   6.788   5.990   1.247
 1667SOL    HW1 5900   6.743   5.901   1.240
 1667SOL    HW2 5901   6.833   6.011   1.161
 1668SOL     OW 5902   5.516   6.446   4.527
 1668SOL    HW1 5903   5.461   6.379   4.577
 1668SOL    HW2 5904   5.588   6.399   4.475
 1669SOL     OW 5905   6.594   5.129   6.470
 1669SOL    HW1 5906   6.535   5.199   6.510
 1669SOL    HW2 5907   6.542   5.077   6.402
 1670SOL     OW 5908   0.498   3.894   6.072
 1670SOL    HW1 5909   0.532   3.812   6.025
 1670SOL    HW2 5910   0.429   3.868   6.139
 1671SOL     OW 5911   5.903   1.387   2.531
 1671SOL    HW1 5912   5.852   1.359   2.613
 1671SOL    HW2 5913   5.921   1.485   2.534
 1672SOL     OW 5914   1.540   2.693   0.676
 1672SOL    HW1 5915   1.574   2.740   0.758
 1672SOL    HW2 5916   1.441   2.681   0.684
 1673SOL     OW 5917   1.205   1.485   4.637
 1673SOL    HW1 5918   1.280   1.451   4.580
 1673SOL    HW2 5919   1.141   1.411   4.656
 1674SOL     OW 5920   0.763   3.185   2.373
 1674SOL    HW1 5921   0.781   3.154   2.466
 1674SOL    HW2 5922   0.793   3.279   2.362
 1675SOL     OW 5923   5.560   0.010   0.575
 1675SOL    HW1 5924   5.522   7.010   0.484
 1675SOL    HW2 5925   5.654   6.998   0.580
 1676SOL     OW 5926   2.345   2.681   2.128
 1676SOL    HW1 5927   2.399   2.740   2.188
 1676SOL    HW2 5928   2.395   2.596   2.112
 1677SOL     OW 5929   3.119   3.597   4.536
 1677SOL    HW1 5930   3.198   3.623   4.592
 1677SOL    HW2 5931   3.041   3.579   4.595
 1678SOL     OW 5932   5.478   4.270   4.140
 1678SOL    HW1 5933   5.456   4.211   4.218
 1678SOL    HW2 5934   5.539   4.222   4.078
 1679SOL     OW 5935   2.412   2.697   4.478
 1679SOL    HW1 5936   2.385   2.774   4.536
 1679SOL    HW2 5937   2.450   2.624   4.536
 1680SOL     OW 5938   0.294   2.943   5.171
 1680SOL    HW1 5939   0.369   2.965   5.234
 1680SOL    HW2 5940   0.307   2.991   5.085
 1681SOL     OW 5941   6.922   5.453   0.276
 1681SOL    HW1 5942   7.002   5.444   0.217
 1681SOL    HW2 5943   6.906   5.550   0.295
 1682SOL     OW 5944   1.639   1.271   4.732
 1682SOL    HW1 5945   1.734   1.241   4.740
 1682SOL    HW2 5946   1.611   1.317   4.817
 1683SOL     OW 5947   5.014   5.284   1.490
 1683SOL    HW1 5948   5.073   5.241   1.421
 1683SOL    HW2 5949   5.049   5.375   1.512
 1684SOL     OW 5950   1.176   5.709   2.176
 1684SOL    HW1 5951   1.098   5.752   2.130
 1684SOL    HW2 5952   1.152   5.692   2.272
 1685SOL     OW 5953   2.326   0.884   4.618
 1685SOL    HW1 5954   2.358   0.953   4.553
 1685SOL    HW2 5955   2.258   0.925   4.679
 1686SOL     OW 5956   2.806   6.134   4.428
 1686SOL    HW1 5957   2.770   6.203   4.490
 1686SOL    HW2 5958   2.730   6.088   4.382
 1687SOL     OW 5959   2.103   3.415   1.584
 1687SOL    HW1 5960   2.134   3.327   1.548
 1687SOL    HW2 5961   2.035   3.454   1.522
 1688SOL     OW 5962   2.338   2.604   4.244
 1688SOL    HW1 5963   2.364   2.644   4.331
 1688SOL    HW2 5964   2.419   2.570   4.196
 1689SOL     OW 5965   6.166   1.319   2.792
 1689SOL    HW1 5966   6.233   1.248   2.811
 1689SOL    HW2 5967   6.208   1.392   2.739
 1690SOL     OW 5968   1.818   2.461   4.034
 1690SOL    HW1 5969   1.734   2.505   4.003
 1690SOL    HW2 5970   1.842   2.387   3.971
 1691SOL     OW 5971   6.136   3.771   3.656
 1691SOL    HW1 5972   6.041   3.801   3.644
 1691SOL    HW2 5973   6.195   3.825   3.596
 1692SOL     OW 5974   5.320   6.409   1.774
 1692SOL    HW1 5975   5.301   6.388   1.870
 1692SOL    HW2 5976   5.275   6.495   1.749
 1693SOL     OW 5977   6.902   2.300   1.997
 1693SOL    HW1 5978   6.963   2.359   2.051
 1693SOL    HW2 5979   6.903   2.208   2.036
 1694SOL     OW 5980   5.959   1.007   2.146
 1694SOL    HW1 5981   5.950   1.064   2.228
 1694SOL    HW2 5982   5.875   1.015   2.091
 1695SOL     OW 5983   3.914   0.726   5.744
 1695SOL    HW1 5984   3.851   0.803   5.730
 1695SOL    HW2 5985   3.960   0.705   5.658
 1696SOL     OW 5986   4.308   5.183   0.690
 1696SOL    HW1 5987   4.336   5.116   0.759
 1696SOL    HW2 5988   4.234   5.239   0.727
 1697SOL     OW 5989   5.671   1.043   0.714
 1697SOL    HW1 5990   5.743   1.081   0.773
 1697SOL    HW2 5991   5.691   1.066   0.619
 1698SOL     OW 5992   3.784   0.280   6.885
 1698SOL    HW1 5993   3.765   0.329   6.800
 1698SOL    HW2 5994   3.746   0.331   6.962
 1699SOL     OW 5995   2.125   0.950   0.361
 1699SOL    HW1 5996   2.137   0.869   0.417
 1699SOL    HW2 5997   2.075   0.926   0.277
 1700SOL     OW 5998   6.143   3.335   4.130
 1700SOL    HW1 5999   6.147   3.418   4.185
 1700SOL    HW2 6000   6.188   3.352   4.042
 1701SOL     OW 6001   5.023   4.118   5.937
 1701SOL    HW1 6002   5.031   4.211   5.901
 1701SOL    HW2 6003   4.927   4.090   5.936
 1702SOL     OW 6004   6.298   1.862   0.557
 1702SOL    HW1 6005   6.330   1.863   0.652
 1702SOL    HW2 6006   6.199   1.849   0.555
 1703SOL     OW 6007   2.972   2.635   1.591
 1703SOL    HW1 6008   3.058   2.586   1.608
 1703SOL    HW2 6009   2.895   2.578   1.622
 1704SOL     OW 6010   0.963   2.267   1.191
 1704SOL    HW1 6011   1.046   2.214   1.207
 1704SOL    HW2 6012   0.974   2.322   1.108
 1705SOL     OW 6013   2.990   1.506   2.048
 1705SOL    HW1 6014   3.011   1.421   1.999
 1705SOL    HW2 6015   3.016   1.584   1.991
 1706SOL     OW 6016   4.970   1.421   2.172
 1706SOL    HW1 6017   5.059   1.457   2.146
 1706SOL    HW2 6018   4.971   1.395   2.268
 1707SOL     OW 6019   4.940   1.821   2.340
 1707SOL    HW1 6020   5.002   1.751   2.375
 1707SOL    HW2 6021   4.960   1.838   2.243
 1708SOL     OW 6022   4.944   5.379   2.203
 1708SOL    HW1 6023   4.952   5.450   2.133
 1708SOL    HW2 6024   4.921   5.292   2.159
 1709SOL     OW 6025   3.465   6.363   2.651
 1709SOL    HW1 6026   3.558   6.332   2.630
 1709SOL    HW2 6027   3.461   6.395   2.745
 1710SOL     OW 6028   5.184   4.843   3.797
 1710SOL    HW1 6029   5.087   4.833   3.774
 1710SOL    HW2 6030   5.203   4.796   3.883
 1711SOL     OW 6031   1.623   4.277   4.366
 1711SOL    HW1 6032   1.535   4.253   4.405
 1711SOL    HW2 6033   1.667   4.195   4.329
 1712SOL     OW 6034   6.623   2.155   5.194
 1712SOL    HW1 6035   6.575   2.163   5.107
 1712SOL    HW2 6036   6.580   2.084   5.250
 1713SOL     OW 6037   4.422   2.516   1.376
 1713SOL    HW1 6038   4.357   2.454   1.420
 1713SOL    HW2 6039   4.392   2.536   1.283
 1714SOL     OW 6040   3.752   1.319   5.745
 1714SOL    HW1 6041   3.741   1.241   5.683
 1714SOL    HW2 6042   3.744   1.287   5.840
 1715SOL     OW 6043   0.493   5.301   3.457
 1715SOL    HW1 6044   0.395   5.320   3.447
 1715SOL    HW2 6045   0.507   5.202   3.462
 1716SOL     OW 6046   5.243   7.008   3.188
 1716SOL    HW1 6047   5.243   0.085   3.170
 1716SOL    HW2 6048   5.163   6.984   3.242
 1717SOL     OW 6049   2.449   6.482   5.795
 1717SOL    HW1 6050   2.542   6.475   5.758
 1717SOL    HW2 6051   2.449   6.546   5.872
 1718SOL     OW 6052   2.422   1.563   1.194
 1718SOL    HW1 6053   2.404   1.513   1.279
 1718SOL    HW2 6054   2.514   1.539   1.161
 1719SOL     OW 6055   1.955   3.164   1.051
 1719SOL    HW1 6056   1.862   3.181   1.019
 1719SOL    HW2 6057   1.954   3.142   1.149
 1720SOL     OW 6058   6.840   3.438   0.594
 1720SOL    HW1 6059   6.914   3.497   0.561
 1720SOL    HW2 6060   6.754   3.465   0.551
 1721SOL     OW 6061   1.889   6.803   1.490
 1721SOL    HW1 6062   1.954   6.737   1.452
 1721SOL    HW2 6063   1.940   6.878   1.534
 1722SOL     OW 6064   3.161   1.476   3.582
 1722SOL    HW1 6065   3.242   1.506   3.631
 1722SOL    HW2 6066   3.087   1.541   3.597
 1723SOL     OW 6067   5.986   2.265   2.191
 1723SOL    HW1 6068   5.919   2.338   2.180
 1723SOL    HW2 6069   5.950   2.181   2.151
 1724SOL     OW 6070   6.623   2.712   1.646
 1724SOL    HW1 6071   6.554   2.678   1.710
 1724SOL    HW2 6072   6.599   2.805   1.618
 1725SOL     OW 6073   2.043   5.256   6.568
 1725SOL    HW1 6074   2.082   5.164   6.558
 1725SOL    HW2 6075   2.096   5.321   6.514
 1726SOL     OW 6076   6.262   4.814   5.000
 1726SOL    HW1 6077   6.215   4.751   5.062
 1726SOL    HW2 6078   6.230   4.907   5.015
 1727SOL     OW 6079   3.290   2.951   4.198
 1727SOL    HW1 6080   3.292   3.049   4.219
 1727SOL    HW2 6081   3.241   2.936   4.112
 1728SOL     OW 6082   4.976   4.878   4.735
 1728SOL    HW1 6083   4.952   4.822   4.815
 1728SOL    HW2 6084   4.896   4.932   4.708
 1729SOL     OW 6085   1.985   4.447   2.871
 1729SOL    HW1 6086   1.942   4.535   2.889
 1729SOL    HW2 6087   1.972   4.421   2.776
 1730SOL     OW 6088   1.130   6.663   5.749
 1730SOL    HW1 6089   1.084   6.585   5.793
 1730SOL    HW2 6090   1.106   6.747   5.798
 1731SOL     OW 6091   0.120   3.936   3.492
 1731SOL    HW1 6092   0.129   3.978   3.402
 1731SOL    HW2 6093   0.154   3.999   3.562
 1732SOL     OW 6094   2.744   5.047   5.181
 1732SOL    HW1 6095   2.684   4.994   5.241
 1732SOL    HW2 6096   2.759   4.996   5.096
 1733SOL     OW 6097   1.887   4.621   1.765
 1733SOL    HW1 6098   1.857   4.681   1.839
 1733SOL    HW2 6099   1.985   4.629   1.751
 1734SOL     OW 6100   4.435   3.318   1.189
 1734SOL    HW1 6101   4.432   3.234   1.243
 1734SOL    HW2 6102   4.341   3.351   1.176
 1735SOL     OW 6103   4.986   5.759   0.584
 1735SOL    HW1 6104   5.005   5.787   0.678
 1735SOL    HW2 6105   4.934   5.830   0.538
 1736SOL     OW 6106   3.467   3.689   0.559
 1736SOL    HW1 6107   3.507   3.639   0.483
 1736SOL    HW2 6108   3.418   3.769   0.524
 1737SOL     OW 6109   3.229   1.222   4.494
 1737SOL    HW1 6110   3.308   1.283   4.490
 1737SOL    HW2 6111   3.254   1.137   4.542
 1738SOL     OW 6112   1.707   2.913   3.990
 1738SOL    HW1 6113   1.688   2.971   4.069
 1738SOL    HW2 6114   1.781   2.850   4.012
 1739SOL     OW 6115   0.442   2.028   5.436
 1739SOL    HW1 6116   0.421   2.003   5.531
 1739SOL    HW2 6117   0.491   1.952   5.392
 1740SOL     OW 6118   6.989   2.077   5.587
 1740SOL    HW1 6119   0.023   1.999   5.617
 1740SOL    HW2 6120   7.000   2.091   5.489
 1741SOL     OW 6121   2.138   0.338   3.803
 1741SOL    HW1 6122   2.068   0.272   3.776
 1741SOL    HW2 6123   2.108   0.387   3.884
 1742SOL     OW 6124   5.864   0.658   6.615
 1742SOL    HW1 6125   5.940   0.604   6.579
 1742SOL    HW2 6126   5.801   0.598   6.665
 1743SOL     OW 6127   0.853   2.020   1.918
 1743SOL    HW1 6128   0.836   2.110   1.878
 1743SOL    HW2 6129   0.944   2.018   1.960
 1744SOL     OW 6130   6.734   2.340   2.742
 1744SOL    HW1 6131   6.708   2.393   2.822
 1744SOL    HW2 6132   6.815   2.381   2.699
 1745SOL     OW 6133   5.614   5.828   2.234
 1745SOL    HW1 6134   5.571   5.740   2.255
 1745SOL    HW2 6135   5.543   5.898   2.228
 1746SOL     OW 6136   1.499   4.069   4.534
 1746SOL    HW1 6137   1.473   4.115   4.619
 1746SOL    HW2 6138   1.598   4.055   4.532
 1747SOL     OW 6139   4.739   1.668   3.091
 1747SOL    HW1 6140   4.792   1.619   3.161
 1747SOL    HW2 6141   4.706   1.603   3.023
 1748SOL     OW 6142   1.318   1.013   4.836
 1748SOL    HW1 6143   1.333   1.110   4.816
 1748SOL    HW2 6144   1.220   0.993   4.828
 1749SOL     OW 6145   2.215   0.458   4.670
 1749SOL    HW1 6146   2.203   0.436   4.573
 1749SOL    HW2 6147   2.142   0.415   4.723
 1750SOL     OW 6148   5.174   6.237   4.134
 1750SOL    HW1 6149   5.161   6.143   4.165
 1750SOL    HW2 6150   5.187   6.297   4.213
 1751SOL     OW 6151   3.810   6.172   4.082
 1751SOL    HW1 6152   3.776   6.082   4.108
 1751SOL    HW2 6153   3.899   6.188   4.125
 1752SOL     OW 6154   6.603   1.993   2.057
 1752SOL    HW1 6155   6.540   1.972   1.983
 1752SOL    HW2 6156   6.562   2.063   2.117
 1753SOL     OW 6157   6.633   1.171   1.372
 1753SOL    HW1 6158   6.719   1.147   1.415
 1753SOL    HW2 6159   6.586   1.241   1.428
 1754SOL     OW 6160   1.549   4.692   6.699
 1754SOL    HW1 6161   1.477   4.751   6.735
 1754SOL    HW2 6162   1.511   4.602   6.676
 1755SOL     OW 6163   6.923   6.141   1.657
 1755SOL    HW1 6164   6.949   6.112   1.565
 1755SOL    HW2 6165   7.006   6.148   1.713
 1756SOL     OW 6166   4.385   6.047   5.794
 1756SOL    HW1 6167   4.393   6.073   5.698
 1756SOL    HW2 6168   4.389   6.129   5.851
 1757SOL     OW 6169   2.276   5.227   5.026
 1757SOL    HW1 6170   2.232   5.138   5.038
 1757SOL    HW2 6171   2.325   5.251   5.110
 1758SOL     OW 6172   2.515   0.204   4.172
 1758SOL    HW1 6173   2.537   0.185   4.268
 1758SOL    HW2 6174   2.417   0.193   4.158
 1759SOL     OW 6175   1.479   6.361   5.602
 1759SOL    HW1 6176   1.516   6.279   5.557
 1759SOL    HW2 6177   1.447   6.426   5.534
 1760SOL     OW 6178   5.621   1.601   2.923
 1760SOL    HW1 6179   5.571   1.514   2.916
 1760SOL    HW2 6180   5.648   1.631   2.831
 1761SOL     OW 6181   0.249   0.269   0.739
 1761SOL    HW1 6182   0.165   0.236   0.782
 1761SOL    HW2 6183   0.302   0.321   0.805
 1762SOL     OW 6184   0.514   0.856   4.778
 1762SOL    HW1 6185   0.560   0.771   4.800
 1762SOL    HW2 6186   0.499   0.861   4.679
 1763SOL     OW 6187   1.308   4.088   3.946
 1763SOL    HW1 6188   1.344   4.033   4.021
 1763SOL    HW2 6189   1.353   4.177   3.944
 1764SOL     OW 6190   2.062   3.198   2.363
 1764SOL    HW1 6191   2.017   3.210   2.275
 1764SOL    HW2 6192   2.001   3.147   2.425
 1765SOL     OW 6193   3.774   0.493   0.884
 1765SOL    HW1 6194   3.833   0.498   0.965
 1765SOL    HW2 6195   3.686   0.452   0.909
 1766SOL     OW 6196   5.402   4.303   2.604
 1766SOL    HW1 6197   5.395   4.358   2.521
 1766SOL    HW2 6198   5.380   4.208   2.583
 1767SOL     OW 6199   0.361   3.550   2.544
 1767SOL    HW1 6200   0.327   3.634   2.501
 1767SOL    HW2 6201   0.423   3.503   2.481
 1768SOL     OW 6202   4.160   1.612   6.758
 1768SOL    HW1 6203   4.154   1.615   6.658
 1768SOL    HW2 6204   4.148   1.518   6.790
 1769SOL     OW 6205   4.724   1.760   6.569
 1769SOL    HW1 6206   4.633   1.776   6.607
 1769SOL    HW2 6207   4.762   1.846   6.534
 1770SOL     OW 6208   7.009   4.257   4.518
 1770SOL    HW1 6209   6.997   4.327   4.589
 1770SOL    HW2 6210   0.060   4.194   4.547
 1771SOL     OW 6211   2.270   5.541   0.510
 1771SOL    HW1 6212   2.219   5.626   0.503
 1771SOL    HW2 6213   2.366   5.561   0.525
 1772SOL     OW 6214   3.385   7.005   3.441
 1772SOL    HW1 6215   3.455   6.951   3.487
 1772SOL    HW2 6216   3.419   0.015   3.352
 1773SOL     OW 6217   3.190   3.500   6.483
 1773SOL    HW1 6218   3.114   3.518   6.421
 1773SOL    HW2 6219   3.275   3.494   6.431
 1774SOL     OW 6220   4.483   0.206   1.931
 1774SOL    HW1 6221   4.524   0.243   1.848
 1774SOL    HW2 6222   4.517   0.113   1.946
 1775SOL     OW 6223   1.788   5.064   5.350
 1775SOL    HW1 6224   1.857   5.013   5.401
 1775SOL    HW2 6225   1.720   5.001   5.313
 1776SOL     OW 6226   5.235   1.119   6.407
 1776SOL    HW1 6227   5.319   1.120   6.352
 1776SOL    HW2 6228   5.160   1.085   6.351
 1777SOL     OW 6229   3.103   5.839   5.527
 1777SOL    HW1 6230   3.069   5.894   5.450
 1777SOL    HW2 6231   3.037   5.768   5.549
 1778SOL     OW 6232   4.337   2.026   4.233
 1778SOL    HW1 6233   4.322   1.967   4.154
 1778SOL    HW2 6234   4.433   2.025   4.259
 1779SOL     OW 6235   3.674   1.468   4.895
 1779SOL    HW1 6236   3.595   1.427   4.850
 1779SOL    HW2 6237   3.757   1.419   4.867
 1780SOL     OW 6238   2.535   4.018   5.941
 1780SOL    HW1 6239   2.624   4.060   5.922
 1780SOL    HW2 6240   2.469   4.047   5.872
 1781SOL     OW 6241   4.863   4.870   3.503
 1781SOL    HW1 6242   4.877   4.967   3.483
 1781SOL    HW2 6243   4.774   4.842   3.468
 1782SOL     OW 6244   2.725   1.614   3.273
 1782SOL    HW1 6245   2.797   1.555   3.309
 1782SOL    HW2 6246   2.754   1.650   3.184
 1783SOL     OW 6247   2.249   3.624   6.087
 1783SOL    HW1 6248   2.243   3.609   5.988
 1783SOL    HW2 6249   2.335   3.670   6.108
 1784SOL     OW 6250   2.469   1.419   2.401
 1784SOL    HW1 6251   2.530   1.398   2.325
 1784SOL    HW2 6252   2.461   1.339   2.461
 1785SOL     OW 6253   5.764   5.525   3.586
 1785SOL    HW1 6254   5.830   5.578   3.638
 1785SOL    HW2 6255   5.691   5.493   3.646
 1786SOL     OW 6256   1.296   4.040   0.414
 1786SOL    HW1 6257   1.328   4.079   0.500
 1786SOL    HW2 6258   1.361   3.970   0.383
 1787SOL     OW 6259   2.079   0.742   5.326
 1787SOL    HW1 6260   2.174   0.711   5.338
 1787SOL    HW2 6261   2.044   0.775   5.414
 1788SOL     OW 6262   3.523   4.120   6.970
 1788SOL    HW1 6263   3.470   4.104   0.032
 1788SOL    HW2 6264   3.507   4.213   6.938
 1789SOL     OW 6265   5.830   2.498   2.221
 1789SOL    HW1 6266   5.743   2.477   2.176
 1789SOL    HW2 6267   5.851   2.596   2.210
 1790SOL     OW 6268   3.789   6.697   4.468
 1790SOL    HW1 6269   3.780   6.744   4.556
 1790SOL    HW2 6270   3.885   6.675   4.451
 1791SOL     OW 6271   0.039   1.297   4.475
 1791SOL    HW1 6272   0.035   1.231   4.550
 1791SOL    HW2 6273   0.124   1.284   4.424
 1792SOL     OW 6274   0.689   1.151   4.485
 1792SOL    HW1 6275   0.658   1.227   4.542
 1792SOL    HW2 6276   0.726   1.078   4.543
 1793SOL     OW 6277   5.874   0.620   3.991
 1793SOL    HW1 6278   5.932   0.549   4.031
 1793SOL    HW2 6279   5.780   0.586   3.985
 1794SOL     OW 6280   5.006   6.225   5.962
 1794SOL    HW1 6281   4.928   6.242   6.022
 1794SOL    HW2 6282   4.983   6.256   5.869
 1795SOL     OW 6283   6.380   4.964   2.069
 1795SOL    HW1 6284   6.407   4.895   2.136
 1795SOL    HW2 6285   6.305   5.019   2.106
 1796SOL     OW 6286   2.312   0.814   4.171
 1796SOL    HW1 6287   2.214   0.834   4.173
 1796SOL    HW2 6288   2.355   0.850   4.254
 1797SOL     OW 6289   1.099   6.893   5.878
 1797SOL    HW1 6290   1.169   6.965   5.872
 1797SOL    HW2 6291   1.088   6.866   5.974
 1798SOL     OW 6292   4.830   2.788   5.191
 1798SOL    HW1 6293   4.775   2.805   5.273
 1798SOL    HW2 6294   4.810   2.858   5.123
 1799SOL     OW 6295   5.654   2.682   6.312
 1799SOL    HW1 6296   5.618   2.607   6.367
 1799SOL    HW2 6297   5.605   2.766   6.334
 1800SOL     OW 6298   5.093   4.285   3.661
 1800SOL    HW1 6299   5.050   4.298   3.750
 1800SOL    HW2 6300   5.181   4.334   3.659
 1801SOL     OW 6301   1.087   1.752   2.990
 1801SOL    HW1 6302   1.099   1.656   2.966
 1801SOL    HW2 6303   1.111   1.809   2.911
 1802SOL     OW 6304   6.391   5.975   2.824
 1802SOL    HW1 6305   6.463   5.975   2.755
 1802SOL    HW2 6306   6.422   6.025   2.905
 1803SOL     OW 6307   0.110   6.407   1.611
 1803SOL    HW1 6308   0.114   6.504   1.636
 1803SOL    HW2 6309   0.017   6.373   1.626
 1804SOL     OW 6310   3.563   3.137   5.413
 1804SOL    HW1 6311   3.607   3.091   5.489
 1804SOL    HW2 6312   3.540   3.231   5.440
 1805SOL     OW 6313   1.213   4.233   6.033
 1805SOL    HW1 6314   1.276   4.286   6.089
 1805SOL    HW2 6315   1.138   4.292   6.002
 1806SOL     OW 6316   1.503   2.302   1.543
 1806SOL    HW1 6317   1.578   2.288   1.609
 1806SOL    HW2 6318   1.534   2.367   1.473
 1807SOL     OW 6319   6.071   2.323   6.023
 1807SOL    HW1 6320   6.094   2.265   5.945
 1807SOL    HW2 6321   5.987   2.289   6.066
 1808SOL     OW 6322   5.866   4.665   4.503
 1808SOL    HW1 6323   5.898   4.750   4.461
 1808SOL    HW2 6324   5.879   4.668   4.602
 1809SOL     OW 6325   2.611   2.496   4.848
 1809SOL    HW1 6326   2.628   2.443   4.931
 1809SOL    HW2 6327   2.651   2.588   4.858
 1810SOL     OW 6328   1.368   6.765   5.237
 1810SOL    HW1 6329   1.376   6.695   5.166
 1810SOL    HW2 6330   1.276   6.764   5.275
 1811SOL     OW 6331   4.545   4.719   2.967
 1811SOL    HW1 6332   4.552   4.620   2.961
 1811SOL    HW2 6333   4.626   4.762   2.927
 1812SOL     OW 6334   5.167   0.112   5.901
 1812SOL    HW1 6335   5.200   0.021   5.873
 1812SOL    HW2 6336   5.223   0.183   5.858
 1813SOL     OW 6337   5.193   5.198   1.307
 1813SOL    HW1 6338   5.250   5.117   1.299
 1813SOL    HW2 6339   5.247   5.280   1.286
 1814SOL     OW 6340   6.152   0.531   0.705
 1814SOL    HW1 6341   6.173   0.616   0.657
 1814SOL    HW2 6342   6.203   0.527   0.791
 1815SOL     OW 6343   6.031   0.654   3.013
 1815SOL    HW1 6344   6.125   0.649   2.980
 1815SOL    HW2 6345   5.972   0.689   2.941
 1816SOL     OW 6346   2.912   4.912   0.327
 1816SOL    HW1 6347   2.918   4.942   0.422
 1816SOL    HW2 6348   2.817   4.897   0.302
 1817SOL     OW 6349   3.720   0.258   3.594
 1817SOL    HW1 6350   3.742   0.208   3.677
 1817SOL    HW2 6351   3.669   0.341   3.616
 1818SOL     OW 6352   2.290   6.365   1.230
 1818SOL    HW1 6353   2.297   6.265   1.228
 1818SOL    HW2 6354   2.255   6.398   1.142
 1819SOL     OW 6355   1.289   6.245   1.850
 1819SOL    HW1 6356   1.228   6.166   1.862
 1819SOL    HW2 6357   1.241   6.315   1.797
 1820SOL     OW 6358   3.255   0.379   2.334
 1820SOL    HW1 6359   3.221   0.461   2.287
 1820SOL    HW2 6360   3.323   0.334   2.276
 1821SOL     OW 6361   2.864   0.594   1.039
 1821SOL    HW1 6362   2.962   0.609   1.033
 1821SOL    HW2 6363   2.836   0.592   1.136
 1822SOL     OW 6364   1.007   2.487   1.379
 1822SOL    HW1 6365   1.096   2.512   1.341
 1822SOL    HW2 6366   0.970   2.408   1.330
 1823SOL     OW 6367   3.680   6.057   2.874
 1823SOL    HW1 6368   3.720   5.977   2.920
 1823SOL    HW2 6369   3.626   6.027   2.796
 1824SOL     OW 6370   3.931   4.066   0.664
 1824SOL    HW1 6371   3.844   4.050   0.711
 1824SOL    HW2 6372   3.977   3.978   0.649
 1825SOL     OW 6373   1.258   2.517   5.234
 1825SOL    HW1 6374   1.171   2.539   5.190
 1825SOL    HW2 6375   1.333   2.539   5.171
 1826SOL     OW 6376   2.725   2.030   1.708
 1826SOL    HW1 6377   2.749   2.097   1.778
 1826SOL    HW2 6378   2.808   1.981   1.680
 1827SOL     OW 6379   6.695   5.342   1.212
 1827SOL    HW1 6380   6.681   5.288   1.294
 1827SOL    HW2 6381   6.656   5.295   1.133
 1828SOL     OW 6382   1.739   2.844   0.309
 1828SOL    HW1 6383   1.651   2.799   0.325
 1828SOL    HW2 6384   1.777   2.813   0.222
 1829SOL     OW 6385   3.358   0.644   2.991
 1829SOL    HW1 6386   3.450   0.637   2.951
 1829SOL    HW2 6387   3.354   0.588   3.073
 1830SOL     OW 6388   5.647   6.054   4.579
 1830SOL    HW1 6389   5.572   6.020   4.523
 1830SOL    HW2 6390   5.663   5.992   4.655
 1831SOL     OW 6391   5.670   6.651   1.667
 1831SOL    HW1 6392   5.759   6.694   1.651
 1831SOL    HW2 6393   5.683   6.555   1.689
 1832SOL     OW 6394   4.000   1.943   0.571
 1832SOL    HW1 6395   4.079   1.883   0.562
 1832SOL    HW2 6396   4.013   2.025   0.516
 1833SOL     OW 6397   5.447   0.939   1.498
 1833SOL    HW1 6398   5.502   0.986   1.567
 1833SOL    HW2 6399   5.420   0.849   1.533
 1834SOL     OW 6400   2.303   3.724   0.569
 1834SOL    HW1 6401   2.235   3.689   0.505
 1834SOL    HW2 6402   2.358   3.795   0.524
 1835SOL     OW 6403   0.148   4.581   1.912
 1835SOL    HW1 6404   0.186   4.639   1.984
 1835SOL    HW2 6405   0.221   4.529   1.868
 1836SOL     OW 6406   5.278   2.473   1.226
 1836SOL    HW1 6407   5.206   2.442   1.288
 1836SOL    HW2 6408   5.238   2.503   1.140
 1837SOL     OW 6409   0.636   6.704   5.212
 1837SOL    HW1 6410   0.545   6.661   5.207
 1837SOL    HW2 6411   0.636   6.789   5.159
 1838SOL     OW 6412   6.731   1.286   5.409
 1838SOL    HW1 6413   6.654   1.312   5.467
 1838SOL    HW2 6414   6.776   1.368   5.375
 1839SOL     OW 6415   0.421   1.349   5.437
 1839SOL    HW1 6416   0.422   1.300   5.524
 1839SOL    HW2 6417   0.346   1.415   5.437
 1840SOL     OW 6418   3.849   0.050   1.970
 1840SOL    HW1 6419   3.942   0.043   1.935
 1840SOL    HW2 6420   3.787   0.078   1.897
 1841SOL     OW 6421   1.992   1.237   3.210
 1841SOL    HW1 6422   1.925   1.192   3.150
 1841SOL    HW2 6423   2.058   1.170   3.242
 1842SOL     OW 6424   1.572   5.597   0.873
 1842SOL    HW1 6425   1.476   5.609   0.845
 1842SOL    HW2 6426   1.596   5.667   0.941
 1843SOL     OW 6427   6.267   0.787   4.767
 1843SOL    HW1 6428   6.293   0.874   4.810
 1843SOL    HW2 6429   6.247   0.720   4.838
 1844SOL     OW 6430   3.169   6.729   5.125
 1844SOL    HW1 6431   3.238   6.674   5.078
 1844SOL    HW2 6432   3.203   6.821   5.140
 1845SOL     OW 6433   2.932   6.411   4.628
 1845SOL    HW1 6434   2.932   6.445   4.722
 1845SOL    HW2 6435   2.982   6.474   4.569
 1846SOL     OW 6436   3.774   1.029   2.416
 1846SOL    HW1 6437   3.868   1.063   2.412
 1846SOL    HW2 6438   3.716   1.098   2.460
 1847SOL     OW 6439   1.239   0.412   5.775
 1847SOL    HW1 6440   1.204   0.503   5.754
 1847SOL    HW2 6441   1.274   0.369   5.692
 1848SOL     OW 6442   2.101   6.195   3.275
 1848SOL    HW1 6443   2.183   6.245   3.305
 1848SOL    HW2 6444   2.071   6.230   3.187
 1849SOL     OW 6445   4.214   2.691   1.728
 1849SOL    HW1 6446   4.243   2.786   1.739
 1849SOL    HW2 6447   4.264   2.633   1.793
 1850SOL     OW 6448   0.193   2.427   2.432
 1850SOL    HW1 6449   0.218   2.493   2.503
 1850SOL    HW2 6450   0.276   2.394   2.387
 1851SOL     OW 6451   0.681   3.414   6.796
 1851SOL    HW1 6452   0.757   3.364   6.838
 1851SOL    HW2 6453   0.594   3.378   6.831
 1852SOL     OW 6454   6.802   4.464   2.849
 1852SOL    HW1 6455   6.726   4.526   2.868
 1852SOL    HW2 6456   6.836   4.425   2.935
 1853SOL     OW 6457   0.211   2.796   3.664
 1853SOL    HW1 6458   0.198   2.724   3.732
 1853SOL    HW2 6459   0.281   2.767   3.599
 1854SOL     OW 6460   2.176   5.300   2.947
 1854SOL    HW1 6461   2.141   5.363   3.016
 1854SOL    HW2 6462   2.273   5.318   2.932
 1855SOL     OW 6463   5.026   4.182   5.032
 1855SOL    HW1 6464   5.069   4.207   5.118
 1855SOL    HW2 6465   4.948   4.122   5.049
 1856SOL     OW 6466   5.113   3.833   5.862
 1856SOL    HW1 6467   5.107   3.925   5.899
 1856SOL    HW2 6468   5.097   3.767   5.935
 1857SOL     OW 6469   3.706   2.130   6.931
 1857SOL    HW1 6470   3.694   2.159   6.836
 1857SOL    HW2 6471   3.801   2.104   6.947
 1858SOL     OW 6472   5.723   3.351   3.130
 1858SOL    HW1 6473   5.676   3.400   3.203
 1858SOL    HW2 6474   5.818   3.382   3.125
 1859SOL     OW 6475   5.119   1.724   3.754
 1859SOL    HW1 6476   5.141   1.816   3.787
 1859SOL    HW2 6477   5.046   1.686   3.811
 1860SOL     OW 6478   0.867   0.806   5.004
 1860SOL    HW1 6479   0.913   0.752   4.933
 1860SOL    HW2 6480   0.838   0.745   5.078
 1861SOL     OW 6481   6.275   7.011   2.421
 1861SOL    HW1 6482   6.365   0.017   2.386
 1861SOL    HW2 6483   6.236   6.940   2.362
 1862SOL     OW 6484   2.972   0.415   6.327
 1862SOL    HW1 6485   2.996   0.505   6.366
 1862SOL    HW2 6486   2.929   0.428   6.238
 1863SOL     OW 6487   0.141   2.549   3.870
 1863SOL    HW1 6488   0.120   2.465   3.820
 1863SOL    HW2 6489   0.061   2.608   3.870
 1864SOL     OW 6490   2.410   5.874   4.531
 1864SOL    HW1 6491   2.334   5.835   4.582
 1864SOL    HW2 6492   2.490   5.880   4.591
 1865SOL     OW 6493   3.770   0.458   0.129
 1865SOL    HW1 6494   3.834   0.382   0.120
 1865SOL    HW2 6495   3.808   0.528   0.188
 1866SOL     OW 6496   6.183   5.083   3.822
 1866SOL    HW1 6497   6.124   5.161   3.803
 1866SOL    HW2 6498   6.147   5.002   3.777
 1867SOL     OW 6499   1.526   3.937   0.972
 1867SOL    HW1 6500   1.444   3.908   0.923
 1867SOL    HW2 6501   1.519   4.033   0.997
 1868SOL     OW 6502   4.648   3.659   6.841
 1868SOL    HW1 6503   4.591   3.635   6.762
 1868SOL    HW2 6504   4.675   3.755   6.834
 1869SOL     OW 6505   0.240   3.489   4.984
 1869SOL    HW1 6506   0.336   3.498   4.959
 1869SOL    HW2 6507   0.226   3.525   5.076
 1870SOL     OW 6508   1.282   3.282   5.066
 1870SOL    HW1 6509   1.332   3.207   5.109
 1870SOL    HW2 6510   1.223   3.327   5.134
 1871SOL     OW 6511   0.544   0.629   6.981
 1871SOL    HW1 6512   0.516   0.558   6.916
 1871SOL    HW2 6513   0.637   0.611   7.012
 1872SOL     OW 6514   4.193   1.980   0.260
 1872SOL    HW1 6515   4.097   1.974   0.233
 1872SOL    HW2 6516   4.249   1.923   0.200
 1873SOL     OW 6517   6.050   1.004   6.061
 1873SOL    HW1 6518   6.047   0.980   5.964
 1873SOL    HW2 6519   6.112   0.942   6.110
 1874SOL     OW 6520   2.066   1.033   6.760
 1874SOL    HW1 6521   1.980   1.077   6.732
 1874SOL    HW2 6522   2.094   1.069   6.849
 1875SOL     OW 6523   6.527   0.812   0.618
 1875SOL    HW1 6524   6.527   0.838   0.715
 1875SOL    HW2 6525   6.598   0.743   0.602
 1876SOL     OW 6526   3.765   5.984   5.725
 1876SOL    HW1 6527   3.726   6.075   5.707
 1876SOL    HW2 6528   3.812   5.985   5.813
 1877SOL     OW 6529   0.940   1.586   3.656
 1877SOL    HW1 6530   1.016   1.600   3.592
 1877SOL    HW2 6531   0.884   1.509   3.624
 1878SOL     OW 6532   0.092   2.453   4.501
 1878SOL    HW1 6533   0.184   2.441   4.536
 1878SOL    HW2 6534   0.064   2.373   4.449
 1879SOL     OW 6535   2.300   5.727   3.485
 1879SOL    HW1 6536   2.388   5.704   3.443
 1879SOL    HW2 6537   2.296   5.688   3.577
 1880SOL     OW 6538   0.440   1.526   2.982
 1880SOL    HW1 6539   0.475   1.542   3.074
 1880SOL    HW2 6540   0.382   1.445   2.982
 1881SOL     OW 6541   1.466   2.165   3.629
 1881SOL    HW1 6542   1.551   2.213   3.647
 1881SOL    HW2 6543   1.440   2.177   3.533
 1882SOL     OW 6544   1.099   4.028   6.398
 1882SOL    HW1 6545   1.053   4.086   6.332
 1882SOL    HW2 6546   1.088   4.066   6.490
 1883SOL     OW 6547   0.992   3.512   3.491
 1883SOL    HW1 6548   1.042   3.532   3.575
 1883SOL    HW2 6549   0.963   3.598   3.449
 1884SOL     OW 6550   6.004   2.351   0.624
 1884SOL    HW1 6551   6.091   2.389   0.654
 1884SOL    HW2 6552   6.016   2.255   0.599
 1885SOL     OW 6553   0.134   2.063   6.677
 1885SOL    HW1 6554   0.086   2.135   6.726
 1885SOL    HW2 6555   0.169   1.996   6.743
 1886SOL     OW 6556   2.615   1.248   1.162
 1886SOL    HW1 6557   2.560   1.301   1.096
 1886SOL    HW2 6558   2.564   1.167   1.189
 1887SOL     OW 6559   0.298   4.875   6.445
 1887SOL    HW1 6560   0.311   4.791   6.393
 1887SOL    HW2 6561   0.341   4.951   6.396
 1888SOL     OW 6562   2.963   2.252   6.257
 1888SOL    HW1 6563   2.929   2.161   6.281
 1888SOL    HW2 6564   3.039   2.277   6.316
 1889SOL     OW 6565   5.622   2.570   6.077
 1889SOL    HW1 6566   5.540   2.618   6.044
 1889SOL    HW2 6567   5.654   2.614   6.161
 1890SOL     OW 6568   1.317   5.770   5.056
 1890SOL    HW1 6569   1.260   5.807   5.129
 1890SOL    HW2 6570   1.291   5.675   5.039
 1891SOL     OW 6571   5.251   3.117   3.925
 1891SOL    HW1 6572   5.238   3.216   3.917
 1891SOL    HW2 6573   5.231   3.074   3.837
 1892SOL     OW 6574   4.110   0.495   0.729
 1892SOL    HW1 6575   4.020   0.482   0.687
 1892SOL    HW2 6576   4.182   0.474   0.663
 1893SOL     OW 6577   3.469   1.958   5.810
 1893SOL    HW1 6578   3.496   2.027   5.743
 1893SOL    HW2 6579   3.471   1.997   5.902
 1894SOL     OW 6580   3.823   3.846   2.674
 1894SOL    HW1 6581   3.860   3.885   2.758
 1894SOL    HW2 6582   3.772   3.917   2.624
 1895SOL     OW 6583   5.302   1.075   2.507
 1895SOL    HW1 6584   5.203   1.076   2.519
 1895SOL    HW2 6585   5.324   1.083   2.410
 1896SOL     OW 6586   0.879   0.468   2.862
 1896SOL    HW1 6587   0.791   0.515   2.855
 1896SOL    HW2 6588   0.947   0.518   2.809
 1897SOL     OW 6589   0.702   4.977   2.562
 1897SOL    HW1 6590   0.799   4.977   2.538
 1897SOL    HW2 6591   0.648   5.011   2.485
 1898SOL     OW 6592   3.285   4.874   2.325
 1898SOL    HW1 6593   3.355   4.860   2.395
 1898SOL    HW2 6594   3.194   4.863   2.366
 1899SOL     OW 6595   0.716   1.882   2.655
 1899SOL    HW1 6596   0.761   1.938   2.725
 1899SOL    HW2 6597   0.686   1.796   2.697
 1900SOL     OW 6598   1.144   0.549   5.085
 1900SOL    HW1 6599   1.115   0.631   5.133
 1900SOL    HW2 6600   1.083   0.473   5.110
 1901SOL     OW 6601   2.148   0.959   1.522
 1901SOL    HW1 6602   2.202   1.000   1.595
 1901SOL    HW2 6603   2.059   1.005   1.516
 1902SOL     OW 6604   2.150   2.503   4.646
 1902SOL    HW1 6605   2.111   2.527   4.558
 1902SOL    HW2 6606   2.217   2.429   4.633
 1903SOL     OW 6607   6.287   3.441   3.922
 1903SOL    HW1 6608   6.222   3.478   3.856
 1903SOL    HW2 6609   6.303   3.508   3.994
 1904SOL     OW 6610   5.901   6.839   4.343
 1904SOL    HW1 6611   5.867   6.841   4.437
 1904SOL    HW2 6612   5.825   6.819   4.281
 1905SOL     OW 6613   1.733   1.075   4.115
 1905SOL    HW1 6614   1.803   1.114   4.175
 1905SOL    HW2 6615   1.767   1.073   4.021
 1906SOL     OW 6616   2.607   0.311   5.445
 1906SOL    HW1 6617   2.519   0.315   5.494
 1906SOL    HW2 6618   2.679   0.284   5.509
 1907SOL     OW 6619   3.797   0.147   3.195
 1907SOL    HW1 6620   3.883   0.129   3.244
 1907SOL    HW2 6621   3.796   0.093   3.110
 1908SOL     OW 6622   3.916   1.126   4.734
 1908SOL    HW1 6623   3.960   1.060   4.672
 1908SOL    HW2 6624   3.900   1.212   4.685
 1909SOL     OW 6625   0.733   3.967   2.788
 1909SOL    HW1 6626   0.796   4.044   2.793
 1909SOL    HW2 6627   0.781   3.887   2.751
 1910SOL     OW 6628   0.552   2.681   0.103
 1910SOL    HW1 6629   0.485   2.707   0.034
 1910SOL    HW2 6630   0.624   2.626   0.062
 1911SOL     OW 6631   5.793   3.199   5.326
 1911SOL    HW1 6632   5.741   3.213   5.410
 1911SOL    HW2 6633   5.789   3.281   5.270
 1912SOL     OW 6634   3.270   0.041   1.274
 1912SOL    HW1 6635   3.304   7.016   1.192
 1912SOL    HW2 6636   3.180   0.004   1.298
 1913SOL     OW 6637   0.797   5.771   5.373
 1913SOL    HW1 6638   0.845   5.856   5.354
 1913SOL    HW2 6639   0.861   5.705   5.413
 1914SOL     OW 6640   3.400   2.633   6.613
 1914SOL    HW1 6641   3.306   2.604   6.595
 1914SOL    HW2 6642   3.463   2.581   6.556
 1915SOL     OW 6643   3.599   1.863   5.521
 1915SOL    HW1 6644   3.536   1.815   5.462
 1915SOL    HW2 6645   3.633   1.801   5.592
 1916SOL     OW 6646   3.250   6.088   1.169
 1916SOL    HW1 6647   3.186   6.144   1.220
 1916SOL    HW2 6648   3.301   6.145   1.105
 1917SOL     OW 6649   3.105   3.030   4.681
 1917SOL    HW1 6650   3.159   3.017   4.598
 1917SOL    HW2 6651   3.108   2.947   4.736
 1918SOL     OW 6652   0.487   1.208   0.030
 1918SOL    HW1 6653   0.505   1.139   6.981
 1918SOL    HW2 6654   0.408   1.263   0.003
 1919SOL     OW 6655   2.451   0.450   1.253
 1919SOL    HW1 6656   2.423   0.355   1.242
 1919SOL    HW2 6657   2.373   0.504   1.287
 1920SOL     OW 6658   1.254   4.849   2.541
 1920SOL    HW1 6659   1.230   4.931   2.488
 1920SOL    HW2 6660   1.183   4.780   2.531
 1921SOL     OW 6661   1.829   4.698   0.258
 1921SOL    HW1 6662   1.903   4.739   0.312
 1921SOL    HW2 6663   1.817   4.748   0.173
 1922SOL     OW 6664   3.315   4.289   0.803
 1922SOL    HW1 6665   3.231   4.241   0.827
 1922SOL    HW2 6666   3.296   4.354   0.730
 1923SOL     OW 6667   3.246   0.516   5.908
 1923SOL    HW1 6668   3.230   0.607   5.871
 1923SOL    HW2 6669   3.277   0.523   6.003
 1924SOL     OW 6670   5.113   5.095   1.986
 1924SOL    HW1 6671   5.153   5.168   2.042
 1924SOL    HW2 6672   5.111   5.124   1.891
 1925SOL     OW 6673   2.108   3.794   0.757
 1925SOL    HW1 6674   2.146   3.773   0.847
 1925SOL    HW2 6675   2.176   3.775   0.687
 1926SOL     OW 6676   1.485   7.003   2.873
 1926SOL    HW1 6677   1.525   0.073   2.885
 1926SOL    HW2 6678   1.528   6.940   2.938
 1927SOL     OW 6679   3.279   4.222   6.089
 1927SOL    HW1 6680   3.333   4.302   6.063
 1927SOL    HW2 6681   3.327   4.139   6.062
 1928SOL     OW 6682   6.547   4.299   5.499
 1928SOL    HW1 6683   6.600   4.247   5.565
 1928SOL    HW2 6684   6.460   4.252   5.483
 1929SOL     OW 6685   1.054   5.276   2.048
 1929SOL    HW1 6686   1.036   5.374   2.039
 1929SOL    HW2 6687   1.083   5.239   1.960
 1930SOL     OW 6688   3.680   3.876   6.584
 1930SOL    HW1 6689   3.769   3.829   6.584
 1930SOL    HW2 6690   3.646   3.883   6.678
 1931SOL     OW 6691   0.530   3.061   2.332
 1931SOL    HW1 6692   0.608   3.119   2.356
 1931SOL    HW2 6693   0.552   2.966   2.352
 1932SOL     OW 6694   5.190   3.581   3.346
 1932SOL    HW1 6695   5.229   3.650   3.406
 1932SOL    HW2 6696   5.102   3.613   3.310
 1933SOL     OW 6697   2.747   4.350   0.720
 1933SOL    HW1 6698   2.760   4.322   0.625
 1933SOL    HW2 6699   2.780   4.444   0.732
 1934SOL     OW 6700   0.826   0.431   4.836
 1934SOL    HW1 6701   0.797   0.422   4.931
 1934SOL    HW2 6702   0.847   0.341   4.798
 1935SOL     OW 6703   3.313   6.197   4.137
 1935SOL    HW1 6704   3.250   6.249   4.194
 1935SOL    HW2 6705   3.407   6.220   4.161
 1936SOL     OW 6706   6.502   3.804   4.040
 1936SOL    HW1 6707   6.558   3.829   3.962
 1936SOL    HW2 6708   6.541   3.844   4.123
 1937SOL     OW 6709   4.414   0.463   0.870
 1937SOL    HW1 6710   4.459   0.461   0.780
 1937SOL    HW2 6711   4.463   0.404   0.933
 1938SOL     OW 6712   2.660   0.872   1.768
 1938SOL    HW1 6713   2.642   0.779   1.736
 1938SOL    HW2 6714   2.576   0.910   1.808
 1939SOL     OW 6715   6.717   0.420   4.865
 1939SOL    HW1 6716   6.665   0.453   4.944
 1939SOL    HW2 6717   6.688   0.469   4.783
 1940SOL     OW 6718   4.465   5.337   0.260
 1940SOL    HW1 6719   4.445   5.313   0.165
 1940SOL    HW2 6720   4.524   5.418   0.262
 1941SOL     OW 6721   7.011   4.266   3.661
 1941SOL    HW1 6722   0.019   4.175   3.689
 1941SOL    HW2 6723   6.988   4.320   3.743
 1942SOL     OW 6724   5.452   0.112   1.591
 1942SOL    HW1 6725   5.487   0.038   1.534
 1942SOL    HW2 6726   5.484   0.101   1.685
 1943SOL     OW 6727   3.072   6.281   2.196
 1943SOL    HW1 6728   3.014   6.344   2.247
 1943SOL    HW2 6729   3.027   6.255   2.111
 1944SOL     OW 6730   5.674   2.652   0.399
 1944SOL    HW1 6731   5.691   2.719   0.326
 1944SOL    HW2 6732   5.750   2.586   0.402
 1945SOL     OW 6733   3.319   5.832   1.788
 1945SOL    HW1 6734   3.268   5.746   1.785
 1945SOL    HW2 6735   3.383   5.835   1.711
 1946SOL     OW 6736   6.092   6.999   1.392
 1946SOL    HW1 6737   6.085   0.078   1.394
 1946SOL    HW2 6738   6.000   6.960   1.389
 1947SOL     OW 6739   4.729   7.004   5.174
 1947SOL    HW1 6740   4.631   6.990   5.161
 1947SOL    HW2 6741   4.777   6.992   5.087
 1948SOL     OW 6742   5.569   5.448   4.054
 1948SOL    HW1 6743   5.584   5.390   4.134
 1948SOL    HW2 6744   5.634   5.524   4.055
 1949SOL     OW 6745   3.387   4.410   6.667
 1949SOL    HW1 6746   3.301   4.458   6.654
 1949SOL    HW2 6747   3.404   4.350   6.589
 1950SOL     OW 6748   4.152   4.495   0.193
 1950SOL    HW1 6749   4.140   4.566   0.263
 1950SOL    HW2 6750   4.246   4.462   0.194
 1951SOL     OW 6751   5.953   3.567   7.020
 1951SOL    HW1 6752   6.014   3.588   6.943
 1951SOL    HW2 6753   5.863   3.542   6.985
 1952SOL     OW 6754   4.713   2.625   0.507
 1952SOL    HW1 6755   4.644   2.673   0.562
 1952SOL    HW2 6756   4.801   2.671   0.517
 1953SOL     OW 6757   6.006   1.758   6.311
 1953SOL    HW1 6758   5.991   1.659   6.320
 1953SOL    HW2 6759   6.071   1.788   6.380
 1954SOL     OW 6760   5.552   1.434   3.140
 1954SOL    HW1 6761   5.609   1.503   3.096
 1954SOL    HW2 6762   5.577   1.426   3.237
 1955SOL     OW 6763   0.869   1.725   2.495
 1955SOL    HW1 6764   0.832   1.803   2.545
 1955SOL    HW2 6765   0.799   1.654   2.488
 1956SOL     OW 6766   5.174   6.620   2.835
 1956SOL    HW1 6767   5.094   6.574   2.796
 1956SOL    HW2 6768   5.148   6.666   2.920
 1957SOL     OW 6769   5.939   4.899   4.429
 1957SOL    HW1 6770   5.904   4.957   4.355
 1957SOL    HW2 6771   6.016   4.943   4.473
 1958SOL     OW 6772   4.967   2.700   2.769
 1958SOL    HW1 6773   4.923   2.642   2.700
 1958SOL    HW2 6774   5.059   2.666   2.787
 1959SOL     OW 6775   0.714   1.104   5.020
 1959SOL    HW1 6776   0.633   1.146   5.062
 1959SOL    HW2 6777   0.702   1.005   5.018
 1960SOL     OW 6778   6.952   4.546   2.094
 1960SOL    HW1 6779   6.900   4.461   2.092
 1960SOL    HW2 6780   0.009   4.538   2.033
 1961SOL     OW 6781   5.816   4.276   4.377
 1961SOL    HW1 6782   5.893   4.319   4.329
 1961SOL    HW2 6783   5.784   4.197   4.324
 1962SOL     OW 6784   1.702   6.525   3.806
 1962SOL    HW1 6785   1.704   6.544   3.904
 1962SOL    HW2 6786   1.658   6.436   3.791
 1963SOL     OW 6787   0.804   1.939   1.441
 1963SOL    HW1 6788   0.844   1.904   1.526
 1963SOL    HW2 6789   0.829   1.879   1.365
 1964SOL     OW 6790   4.276   4.207   0.272
 1964SOL    HW1 6791   4.364   4.223   0.228
 1964SOL    HW2 6792   4.267   4.267   0.352
 1965SOL     OW 6793   1.614   3.430   4.421
 1965SOL    HW1 6794   1.626   3.464   4.328
 1965SOL    HW2 6795   1.648   3.336   4.427
 1966SOL     OW 6796   6.985   6.198   0.199
 1966SOL    HW1 6797   6.930   6.142   0.261
 1966SOL    HW2 6798   0.061   6.188   0.221
 1967SOL     OW 6799   5.669   2.742   5.762
 1967SOL    HW1 6800   5.674   2.737   5.662
 1967SOL    HW2 6801   5.592   2.800   5.789
 1968SOL     OW 6802   2.436   6.899   6.450
 1968SOL    HW1 6803   2.514   6.916   6.391
 1968SOL    HW2 6804   2.357   6.951   6.417
 1969SOL     OW 6805   1.015   1.487   2.211
 1969SOL    HW1 6806   0.963   1.542   2.146
 1969SOL    HW2 6807   1.052   1.406   2.165
 1970SOL     OW 6808   2.511   6.374   6.131
 1970SOL    HW1 6809   2.569   6.415   6.202
 1970SOL    HW2 6810   2.428   6.428   6.121
 1971SOL     OW 6811   0.233   0.330   5.636
 1971SOL    HW1 6812   0.319   0.282   5.657
 1971SOL    HW2 6813   0.200   0.299   5.547
 1972SOL     OW 6814   5.153   2.497   2.097
 1972SOL    HW1 6815   5.200   2.577   2.135
 1972SOL    HW2 6816   5.070   2.527   2.049
 1973SOL     OW 6817   3.107   2.325   0.200
 1973SOL    HW1 6818   3.192   2.376   0.208
 1973SOL    HW2 6819   3.123   2.230   0.227
 1974SOL     OW 6820   5.806   6.784   4.937
 1974SOL    HW1 6821   5.891   6.805   4.890
 1974SOL    HW2 6822   5.775   6.863   4.990
 1975SOL     OW 6823   2.106   1.727   3.967
 1975SOL    HW1 6824   2.190   1.730   4.021
 1975SOL    HW2 6825   2.128   1.739   3.870
 1976SOL     OW 6826   0.558   6.443   0.197
 1976SOL    HW1 6827   0.557   6.486   0.107
 1976SOL    HW2 6828   0.652   6.418   0.221
 1977SOL     OW 6829   0.598   3.094   4.621
 1977SOL    HW1 6830   0.664   3.120   4.550
 1977SOL    HW2 6831   0.566   3.001   4.603
 1978SOL     OW 6832   1.771   0.061   2.873
 1978SOL    HW1 6833   1.780   0.034   2.969
 1978SOL    HW2 6834   1.743   0.157   2.869
 1979SOL     OW 6835   6.381   4.267   6.205
 1979SOL    HW1 6836   6.389   4.329   6.283
 1979SOL    HW2 6837   6.449   4.291   6.136
 1980SOL     OW 6838   2.872   0.369   4.448
 1980SOL    HW1 6839   2.895   0.272   4.451
 1980SOL    HW2 6840   2.822   0.389   4.364
 1981SOL     OW 6841   6.874   2.016   2.065
 1981SOL    HW1 6842   6.776   1.995   2.054
 1981SOL    HW2 6843   6.921   1.936   2.102
 1982SOL     OW 6844   0.244   4.211   4.951
 1982SOL    HW1 6845   0.151   4.248   4.962
 1982SOL    HW2 6846   0.239   4.117   4.920
 1983SOL     OW 6847   0.861   1.224   2.628
 1983SOL    HW1 6848   0.815   1.136   2.635
 1983SOL    HW2 6849   0.809   1.285   2.569
 1984SOL     OW 6850   5.579   1.170   5.402
 1984SOL    HW1 6851   5.490   1.125   5.411
 1984SOL    HW2 6852   5.582   1.223   5.318
 1985SOL     OW 6853   1.485   6.113   2.497
 1985SOL    HW1 6854   1.392   6.078   2.509
 1985SOL    HW2 6855   1.544   6.078   2.570
 1986SOL     OW 6856   1.708   1.747   6.983
 1986SOL    HW1 6857   1.745   1.678   0.024
 1986SOL    HW2 6858   1.782   1.788   6.930
 1987SOL     OW 6859   1.855   2.545   2.605
 1987SOL    HW1 6860   1.919   2.620   2.622
 1987SOL    HW2 6861   1.869   2.510   2.512
 1988SOL     OW 6862   6.076   4.345   0.966
 1988SOL    HW1 6863   5.995   4.403   0.966
 1988SOL    HW2 6864   6.112   4.336   1.059
 1989SOL     OW 6865   2.572   5.394   4.482
 1989SOL    HW1 6866   2.497   5.444   4.526
 1989SOL    HW2 6867   2.558   5.296   4.494
 1990SOL     OW 6868   3.496   6.265   0.384
 1990SOL    HW1 6869   3.427   6.335   0.365
 1990SOL    HW2 6870   3.565   6.266   0.312
 1991SOL     OW 6871   3.584   5.006   6.861
 1991SOL    HW1 6872   3.501   4.960   6.892
 1991SOL    HW2 6873   3.564   5.102   6.842
 1992SOL     OW 6874   1.199   0.826   0.605
 1992SOL    HW1 6875   1.290   0.855   0.575
 1992SOL    HW2 6876   1.160   0.762   0.538
 1993SOL     OW 6877   3.662   2.783   5.228
 1993SOL    HW1 6878   3.569   2.801   5.196
 1993SOL    HW2 6879   3.721   2.859   5.202
 1994SOL     OW 6880   0.577   1.177   0.638
 1994SOL    HW1 6881   0.573   1.079   0.616
 1994SOL    HW2 6882   0.496   1.204   0.689
 1995SOL     OW 6883   5.248   2.522   3.417
 1995SOL    HW1 6884   5.219   2.503   3.511
 1995SOL    HW2 6885   5.339   2.481   3.402
 1996SOL     OW 6886   2.016   3.392   0.906
 1996SOL    HW1 6887   1.919   3.417   0.899
 1996SOL    HW2 6888   2.025   3.313   0.967
 1997SOL     OW 6889   3.516   1.313   4.451
 1997SOL    HW1 6890   3.539   1.230   4.400
 1997SOL    HW2 6891   3.550   1.393   4.402
 1998SOL     OW 6892   2.021   4.685   6.505
 1998SOL    HW1 6893   2.106   4.684   6.451
 1998SOL    HW2 6894   1.970   4.601   6.488
 1999SOL     OW 6895   2.482   6.913   0.347
 1999SOL    HW1 6896   2.562   6.854   0.340
 1999SOL    HW2 6897   2.511   7.008   0.356
 2000SOL     OW 6898   4.134   2.210   5.413
 2000SOL    HW1 6899   4.110   2.117   5.442
 2000SOL    HW2 6900   4.052   2.267   5.410
 2001SOL     OW 6901   3.007   0.894   1.776
 2001SOL    HW1 6902   2.969   0.986   1.762
 2001SOL    HW2 6903   3.017   0.849   1.688
 2002SOL     OW 6904   0.784   4.855   6.598
 2002SOL    HW1 6905   0.830   4.805   6.524
 2002SOL    HW2 6906   0.691   4.819   6.610
 2003SOL     OW 6907   6.439   5.725   2.424
 2003SOL    HW1 6908   6.372   5.781   2.374
 2003SOL    HW2 6909   6.393   5.645   2.462
 2004SOL     OW 6910   5.477   0.918   5.574
 2004SOL    HW1 6911   5.381   0.933   5.599
 2004SOL    HW2 6912   5.535   0.981   5.625
 2005SOL     OW 6913   0.797   4.977   0.397
 2005SOL    HW1 6914   0.751   4.893   0.426
 2005SOL    HW2 6915   0.755   5.056   0.442
 2006SOL     OW 6916   5.139   6.759   4.225
 2006SOL    HW1 6917   5.203   6.800   4.160
 2006SOL    HW2 6918   5.110   6.828   4.292
 2007SOL     OW 6919   4.655   4.846   1.167
 2007SOL    HW1 6920   4.695   4.913   1.231
 2007SOL    HW2 6921   4.627   4.893   1.084
 2008SOL     OW 6922   3.078   4.890   3.799
 2008SOL    HW1 6923   3.050   4.983   3.824
 2008SOL    HW2 6924   3.015   4.824   3.840
 2009SOL     OW 6925   6.083   1.309   2.070
 2009SOL    HW1 6926   6.109   1.214   2.054
 2009SOL    HW2 6927   6.121   1.367   1.998
 2010SOL     OW 6928   2.189   1.766   0.890
 2010SOL    HW1 6929   2.180   1.747   0.792
 2010SOL    HW2 6930   2.254   1.839   0.904
 2011SOL     OW 6931   6.782   6.613   4.851
 2011SOL    HW1 6932   6.722   6.649   4.923
 2011SOL    HW2 6933   6.873   6.595   4.889
 2012SOL     OW 6934   1.649   3.706   2.112
 2012SOL    HW1 6935   1.618   3.787   2.161
 2012SOL    HW2 6936   1.617   3.711   2.017
 2013SOL     OW 6937   6.631   2.300   3.490
 2013SOL    HW1 6938   6.614   2.297   3.588
 2013SOL    HW2 6939   6.610   2.212   3.449
 2014SOL     OW 6940   2.428   5.305   3.637
 2014SOL    HW1 6941   2.347   5.287   3.581
 2014SOL    HW2 6942   2.417   5.393   3.684
 2015SOL     OW 6943   1.666   0.780   6.511
 2015SOL    HW1 6944   1.621   0.774   6.600
 2015SOL    HW2 6945   1.693   0.688   6.481
 2016SOL     OW 6946   1.114   6.167   5.495
 2016SOL    HW1 6947   1.113   6.259   5.456
 2016SOL    HW2 6948   1.130   6.173   5.594
 2017SOL     OW 6949   3.283   6.996   4.520
 2017SOL    HW1 6950   3.258   6.906   4.557
 2017SOL    HW2 6951   3.332   6.985   4.434
 2018SOL     OW 6952   5.454   0.257   5.534
 2018SOL    HW1 6953   5.523   0.292   5.597
 2018SOL    HW2 6954   5.490   0.260   5.441
 2019SOL     OW 6955   5.286   2.841   6.728
 2019SOL    HW1 6956   5.331   2.810   6.812
 2019SOL    HW2 6957   5.191   2.864   6.749
 2020SOL     OW 6958   1.108   6.593   5.149
 2020SOL    HW1 6959   1.110   6.675   5.207
 2020SOL    HW2 6960   1.084   6.619   5.055
 2021SOL     OW 6961   0.879   5.953   4.195
 2021SOL    HW1 6962   0.862   5.984   4.101
 2021SOL    HW2 6963   0.960   5.895   4.197
 2022SOL     OW 6964   1.575   3.685   3.441
 2022SOL    HW1 6965   1.635   3.654   3.367
 2022SOL    HW2 6966   1.589   3.627   3.522
 2023SOL     OW 6967   6.895   1.091   6.643
 2023SOL    HW1 6968   6.836   1.063   6.719
 2023SOL    HW2 6969   6.951   1.014   6.614
 2024SOL     OW 6970   0.298   6.928   3.673
 2024SOL    HW1 6971   0.393   6.955   3.686
 2024SOL    HW2 6972   0.239   7.009   3.673
 2025SOL     OW 6973   2.840   1.988   2.981
 2025SOL    HW1 6974   2.756   2.036   2.954
 2025SOL    HW2 6975   2.895   1.970   2.900
 2026SOL     OW 6976   0.487   2.753   6.061
 2026SOL    HW1 6977   0.389   2.745   6.074
 2026SOL    HW2 6978   0.532   2.667   6.086
 2027SOL     OW 6979   1.052   0.081   0.235
 2027SOL    HW1 6980   1.047   0.103   0.333
 2027SOL    HW2 6981   0.962   0.095   0.194
 2028SOL     OW 6982   3.052   6.446   5.295
 2028SOL    HW1 6983   3.104   6.468   5.213
 2028SOL    HW2 6984   3.015   6.531   5.334
 2029SOL     OW 6985   6.555   1.023   0.406
 2029SOL    HW1 6986   6.577   1.029   0.308
 2029SOL    HW2 6987   6.528   0.929   0.428
 2030SOL     OW 6988   2.493   0.955   2.843
 2030SOL    HW1 6989   2.423   0.887   2.867
 2030SOL    HW2 6990   2.452   1.046   2.843
 2031SOL     OW 6991   6.263   5.679   1.205
 2031SOL    HW1 6992   6.174   5.644   1.178
 2031SOL    HW2 6993   6.325   5.602   1.222
 2032SOL     OW 6994   4.801   0.195   2.348
 2032SOL    HW1 6995   4.883   0.155   2.390
 2032SOL    HW2 6996   4.828   0.252   2.271
 2033SOL     OW 6997   3.182   3.820   6.317
 2033SOL    HW1 6998   3.146   3.904   6.359
 2033SOL    HW2 6999   3.278   3.810   6.343
 2034SOL     OW 7000   2.769   5.539   5.324
 2034SOL    HW1 7001   2.730   5.449   5.302
 2034SOL    HW2 7002   2.866   5.540   5.299
 2035SOL     OW 7003   0.237   0.073   3.367
 2035SOL    HW1 7004   0.198   7.012   3.326
 2035SOL    HW2 7005   0.194   0.154   3.327
 2036SOL     OW 7006   1.285   4.016   2.260
 2036SOL    HW1 7007   1.352   3.982   2.195
 2036SOL    HW2 7008   1.198   3.967   2.247
 2037SOL     OW 7009   6.499   3.131   5.273
 2037SOL    HW1 7010   6.590   3.135   5.233
 2037SOL    HW2 7011   6.444   3.064   5.225
 2038SOL     OW 7012   1.898   2.537   0.300
 2038SOL    HW1 7013   1.852   2.588   0.226
 2038SOL    HW2 7014   1.889   2.439   0.283
 2039SOL     OW 7015   0.099   5.162   3.566
 2039SOL    HW1 7016   0.006   5.132   3.589
 2039SOL    HW2 7017   0.162   5.084   3.573
 2040SOL     OW 7018   3.374   3.334   5.636
 2040SOL    HW1 7019   3.396   3.361   5.542
 2040SOL    HW2 7020   3.341   3.413   5.687
 2041SOL     OW 7021   0.523   6.266   5.950
 2041SOL    HW1 7022   0.563   6.333   5.887
 2041SOL    HW2 7023   0.577   6.262   6.034
 2042SOL     OW 7024   4.833   5.910   0.082
 2042SOL    HW1 7025   4.891   5.980   0.040
 2042SOL    HW2 7026   4.891   5.840   0.124
 2043SOL     OW 7027   6.791   3.478   3.621
 2043SOL    HW1 7028   6.717   3.466   3.688
 2043SOL    HW2 7029   6.864   3.531   3.663
 2044SOL     OW 7030   6.191   6.941   1.949
 2044SOL    HW1 7031   6.276   6.939   1.896
 2044SOL    HW2 7032   6.114   6.929   1.886
 2045SOL     OW 7033   2.069   4.952   3.901
 2045SOL    HW1 7034   2.162   4.919   3.886
 2045SOL    HW2 7035   2.049   4.951   3.999
 2046SOL     OW 7036   6.754   2.021   3.942
 2046SOL    HW1 7037   6.688   2.075   3.891
 2046SOL    HW2 7038   6.707   1.972   4.015
 2047SOL     OW 7039   6.794   2.740   0.040
 2047SOL    HW1 7040   6.876   2.792   0.062
 2047SOL    HW2 7041   6.713   2.796   0.060
 2048SOL     OW 7042   1.349   6.369   5.892
 2048SOL    HW1 7043   1.291   6.313   5.833
 2048SOL    HW2 7044   1.445   6.349   5.872
 2049SOL     OW 7045   6.069   1.305   5.054
 2049SOL    HW1 7046   6.163   1.336   5.043
 2049SOL    HW2 7047   6.069   1.210   5.084
 2050SOL     OW 7048   6.475   2.164   3.968
 2050SOL    HW1 7049   6.531   2.202   4.041
 2050SOL    HW2 7050   6.512   2.192   3.879
 2051SOL     OW 7051   1.189   5.302   0.488
 2051SOL    HW1 7052   1.151   5.350   0.567
 2051SOL    HW2 7053   1.154   5.208   0.486
 2052SOL     OW 7054   1.552   3.727   1.135
 2052SOL    HW1 7055   1.641   3.682   1.135
 2052SOL    HW2 7056   1.557   3.811   1.081
 2053SOL     OW 7057   5.630   6.507   4.169
 2053SOL    HW1 7058   5.669   6.460   4.248
 2053SOL    HW2 7059   5.539   6.542   4.193
 2054SOL     OW 7060   3.557   4.062   3.021
 2054SOL    HW1 7061   3.549   4.095   3.115
 2054SOL    HW2 7062   3.484   4.101   2.965
 2055SOL     OW 7063   6.346   3.420   3.553
 2055SOL    HW1 7064   6.426   3.360   3.555
 2055SOL    HW2 7065   6.276   3.380   3.493
 2056SOL     OW 7066   4.290   5.929   2.427
 2056SOL    HW1 7067   4.309   6.027   2.422
 2056SOL    HW2 7068   4.360   5.879   2.376
 2057SOL     OW 7069   5.390   4.189   5.648
 2057SOL    HW1 7070   5.375   4.125   5.723
 2057SOL    HW2 7071   5.453   4.260   5.676
 2058SOL     OW 7072   0.479   1.621   3.229
 2058SOL    HW1 7073   0.564   1.656   3.269
 2058SOL    HW2 7074   0.403   1.678   3.259
 2059SOL     OW 7075   1.912   6.003   6.753
 2059SOL    HW1 7076   1.856   6.045   6.825
 2059SOL    HW2 7077   1.960   6.075   6.702
 2060SOL     OW 7078   0.403   4.451   1.769
 2060SOL    HW1 7079   0.481   4.396   1.741
 2060SOL    HW2 7080   0.347   4.472   1.689
 2061SOL     OW 7081   1.087   2.239   3.095
 2061SOL    HW1 7082   1.157   2.170   3.116
 2061SOL    HW2 7083   1.105   2.278   3.005
 2062SOL     OW 7084   6.201   6.217   4.142
 2062SOL    HW1 7085   6.293   6.254   4.128
 2062SOL    HW2 7086   6.158   6.201   4.053
 2063SOL     OW 7087   2.040   6.454   6.257
 2063SOL    HW1 7088   1.983   6.510   6.317
 2063SOL    HW2 7089   2.066   6.370   6.305
 2064SOL     OW 7090   1.307   2.671   5.821
 2064SOL    HW1 7091   1.286   2.616   5.740
 2064SOL    HW2 7092   1.350   2.757   5.793
 2065SOL     OW 7093   6.553   2.605   5.137
 2065SOL    HW1 7094   6.520   2.578   5.047
 2065SOL    HW2 7095   6.550   2.704   5.145
 2066SOL     OW 7096   0.529   4.471   4.416
 2066SOL    HW1 7097   0.446   4.490   4.467
 2066SOL    HW2 7098   0.609   4.495   4.471
 2067SOL     OW 7099   6.149   5.192   1.058
 2067SOL    HW1 7100   6.184   5.147   0.975
 2067SOL    HW2 7101   6.225   5.226   1.112
 2068SOL     OW 7102   2.418   6.968   4.548
 2068SOL    HW1 7103   2.370   0.020   4.596
 2068SOL    HW2 7104   2.383   6.879   4.579
 2069SOL     OW 7105   6.692   1.694   3.894
 2069SOL    HW1 7106   6.755   1.767   3.921
 2069SOL    HW2 7107   6.736   1.635   3.827
 2070SOL     OW 7108   0.648   1.026   1.560
 2070SOL    HW1 7109   0.695   0.973   1.490
 2070SOL    HW2 7110   0.693   1.115   1.570
 2071SOL     OW 7111   6.699   0.050   6.202
 2071SOL    HW1 7112   6.610   0.024   6.239
 2071SOL    HW2 7113   6.760   6.992   6.200
 2072SOL     OW 7114   4.331   5.890   4.110
 2072SOL    HW1 7115   4.284   5.957   4.052
 2072SOL    HW2 7116   4.335   5.926   4.204
 2073SOL     OW 7117   4.219   0.035   5.016
 2073SOL    HW1 7118   4.216   0.106   5.087
 2073SOL    HW2 7119   4.137   6.999   5.022
 2074SOL     OW 7120   1.965   2.809   6.720
 2074SOL    HW1 7121   2.033   2.863   6.671
 2074SOL    HW2 7122   1.938   2.857   6.803
 2075SOL     OW 7123   6.743   2.938   3.166
 2075SOL    HW1 7124   6.648   2.910   3.181
 2075SOL    HW2 7125   6.755   3.032   3.197
 2076SOL     OW 7126   5.860   0.223   6.362
 2076SOL    HW1 7127   5.899   0.155   6.300
 2076SOL    HW2 7128   5.778   0.187   6.404
 2077SOL     OW 7129   5.845   2.426   3.404
 2077SOL    HW1 7130   5.850   2.351   3.338
 2077SOL    HW2 7131   5.936   2.465   3.417
 2078SOL     OW 7132   1.022   5.681   6.055
 2078SOL    HW1 7133   1.079   5.611   6.012
 2078SOL    HW2 7134   0.958   5.718   5.987
 2079SOL     OW 7135   5.788   2.226   3.223
 2079SOL    HW1 7136   5.747   2.180   3.301
 2079SOL    HW2 7137   5.813   2.159   3.153
 2080SOL     OW 7138   1.645   0.102   5.078
 2080SOL    HW1 7139   1.634   0.035   5.004
 2080SOL    HW2 7140   1.557   0.116   5.124
 2081SOL     OW 7141   1.235   5.541   4.431
 2081SOL    HW1 7142   1.224   5.612   4.501
 2081SOL    HW2 7143   1.330   5.512   4.428
 2082SOL     OW 7144   0.753   6.915   3.240
 2082SOL    HW1 7145   0.767   6.960   3.152
 2082SOL    HW2 7146   0.675   6.956   3.287
 2083SOL     OW 7147   6.843   4.784   5.533
 2083SOL    HW1 7148   6.888   4.838   5.604
 2083SOL    HW2 7149   6.808   4.845   5.462
 2084SOL     OW 7150   0.508   4.437   3.470
 2084SOL    HW1 7151   0.594   4.483   3.447
 2084SOL    HW2 7152   0.463   4.484   3.545
 2085SOL     OW 7153   4.580   0.427   0.116
 2085SOL    HW1 7154   4.645   0.473   0.054
 2085SOL    HW2 7155   4.490   0.426   0.074
 2086SOL     OW 7156   3.961   6.455   6.088
 2086SOL    HW1 7157   4.028   6.415   6.151
 2086SOL    HW2 7158   3.926   6.385   6.027
 2087SOL     OW 7159   4.701   0.704   1.513
 2087SOL    HW1 7160   4.620   0.759   1.490
 2087SOL    HW2 7161   4.760   0.756   1.574
 2088SOL     OW 7162   1.581   5.846   0.299
 2088SOL    HW1 7163   1.487   5.829   0.332
 2088SOL    HW2 7164   1.598   5.944   0.297
 2089SOL     OW 7165   5.432   3.068   6.066
 2089SOL    HW1 7166   5.469   3.124   5.992
 2089SOL    HW2 7167   5.339   3.098   6.086
 2090SOL     OW 7168   4.490   3.825   5.728
 2090SOL    HW1 7169   4.466   3.805   5.823
 2090SOL    HW2 7170   4.409   3.856   5.679
 2091SOL     OW 7171   0.723   5.283   0.916
 2091SOL    HW1 7172   0.710   5.316   1.010
 2091SOL    HW2 7173   0.671   5.199   0.903
 2092SOL     OW 7174   4.952   4.111   0.071
 2092SOL    HW1 7175   4.923   4.145   0.160
 2092SOL    HW2 7176   4.903   4.026   0.050
 2093SOL     OW 7177   2.559   2.119   1.086
 2093SOL    HW1 7178   2.654   2.096   1.067
 2093SOL    HW2 7179   2.509   2.036   1.111
 2094SOL     OW 7180   6.351   1.870   2.923
 2094SOL    HW1 7181   6.398   1.843   2.840
 2094SOL    HW2 7182   6.281   1.938   2.901
 2095SOL     OW 7183   5.795   0.033   5.625
 2095SOL    HW1 7184   5.893   0.015   5.615
 2095SOL    HW2 7185   5.779   0.087   5.707
 2096SOL     OW 7186   4.766   4.086   2.981
 2096SOL    HW1 7187   4.716   4.088   2.895
 2096SOL    HW2 7188   4.839   4.019   2.976
 2097SOL     OW 7189   2.704   3.676   6.396
 2097SOL    HW1 7190   2.757   3.602   6.439
 2097SOL    HW2 7191   2.611   3.644   6.377
 2098SOL     OW 7192   4.024   6.178   1.990
 2098SOL    HW1 7193   4.122   6.160   1.996
 2098SOL    HW2 7194   4.004   6.226   1.904
 2099SOL     OW 7195   3.610   2.483   6.511
 2099SOL    HW1 7196   3.604   2.420   6.434
 2099SOL    HW2 7197   3.685   2.547   6.497
 2100SOL     OW 7198   5.374   2.505   6.819
 2100SOL    HW1 7199   5.317   2.454   6.754
 2100SOL    HW2 7200   5.466   2.515   6.782
 2101SOL     OW 7201   1.229   6.948   1.582
 2101SOL    HW1 7202   1.161   6.915   1.648
 2101SOL    HW2 7203   1.183   6.974   1.497
 2102SOL     OW 7204   5.695   4.781   2.410
 2102SOL    HW1 7205   5.729   4.688   2.426
 2102SOL    HW2 7206   5.663   4.820   2.497
 2103SOL     OW 7207   3.342   3.806   6.824
 2103SOL    HW1 7208   3.308   3.856   6.745
 2103SOL    HW2 7209   3.433   3.838   6.849
 2104SOL     OW 7210   1.527   4.359   1.729
 2104SOL    HW1 7211   1.554   4.411   1.648
 2104SOL    HW2 7212   1.470   4.416   1.788
 2105SOL     OW 7213   5.372   4.758   5.624
 2105SOL    HW1 7214   5.472   4.752   5.629
 2105SOL    HW2 7215   5.345   4.851   5.599
 2106SOL     OW 7216   5.130   3.817   0.824
 2106SOL    HW1 7217   5.041   3.799   0.865
 2106SOL    HW2 7218   5.131   3.786   0.729
 2107SOL     OW 7219   6.253   2.298   5.073
 2107SOL    HW1 7220   6.175   2.320   5.131
 2107SOL    HW2 7221   6.269   2.200   5.074
 2108SOL     OW 7222   6.267   5.478   4.689
 2108SOL    HW1 7223   6.318   5.564   4.694
 2108SOL    HW2 7224   6.330   5.401   4.705
 2109SOL     OW 7225   4.660   5.695   2.077
 2109SOL    HW1 7226   4.730   5.765   2.092
 2109SOL    HW2 7227   4.627   5.700   1.983
 2110SOL     OW 7228   2.263   1.251   0.184
 2110SOL    HW1 7229   2.249   1.293   0.274
 2110SOL    HW2 7230   2.334   1.180   0.192
 2111SOL     OW 7231   2.362   2.925   6.877
 2111SOL    HW1 7232   2.324   2.834   6.858
 2111SOL    HW2 7233   2.462   2.920   6.877
 2112SOL     OW 7234   5.156   2.853   0.750
 2112SOL    HW1 7235   5.251   2.837   0.779
 2112SOL    HW2 7236   5.102   2.880   0.830
 2113SOL     OW 7237   2.662   1.748   4.229
 2113SOL    HW1 7238   2.633   1.732   4.134
 2113SOL    HW2 7239   2.652   1.845   4.250
 2114SOL     OW 7240   2.356   2.064   6.742
 2114SOL    HW1 7241   2.272   2.089   6.694
 2114SOL    HW2 7242   2.426   2.133   6.723
 2115SOL     OW 7243   0.914   4.466   3.179
 2115SOL    HW1 7244   0.927   4.488   3.082
 2115SOL    HW2 7245   0.976   4.520   3.234
 2116SOL     OW 7246   0.513   4.384   3.007
 2116SOL    HW1 7247   0.518   4.321   3.084
 2116SOL    HW2 7248   0.471   4.337   2.929
 2117SOL     OW 7249   6.706   4.843   1.769
 2117SOL    HW1 7250   6.682   4.912   1.838
 2117SOL    HW2 7251   6.805   4.827   1.771
 2118SOL     OW 7252   6.438   2.808   3.030
 2118SOL    HW1 7253   6.528   2.787   2.992
 2118SOL    HW2 7254   6.387   2.722   3.044
 2119SOL     OW 7255   1.422   0.221   1.022
 2119SOL    HW1 7256   1.358   0.272   1.080
 2119SOL    HW2 7257   1.413   0.123   1.042
 2120SOL     OW 7258   0.540   4.344   4.010
 2120SOL    HW1 7259   0.465   4.282   3.986
 2120SOL    HW2 7260   0.578   4.317   4.099
 2121SOL     OW 7261   1.295   3.245   5.941
 2121SOL    HW1 7262   1.387   3.269   5.970
 2121SOL    HW2 7263   1.288   3.254   5.841
 2122SOL     OW 7264   5.776   4.806   5.942
 2122SOL    HW1 7265   5.761   4.895   5.899
 2122SOL    HW2 7266   5.698   4.783   6.000
 2123SOL     OW 7267   6.818   5.325   2.093
 2123SOL    HW1 7268   6.732   5.302   2.139
 2123SOL    HW2 7269   6.894   5.304   2.153
 2124SOL     OW 7270   3.067   2.107   1.049
 2124SOL    HW1 7271   3.053   2.204   1.029
 2124SOL    HW2 7272   3.108   2.097   1.140
 2125SOL     OW 7273   2.244   0.453   2.269
 2125SOL    HW1 7274   2.157   0.491   2.299
 2125SOL    HW2 7275   2.282   0.395   2.340
 2126SOL     OW 7276   3.956   2.358   6.720
 2126SOL    HW1 7277   4.004   2.427   6.666
 2126SOL    HW2 7278   3.996   2.353   6.812
 2127SOL     OW 7279   1.287   2.258   5.366
 2127SOL    HW1 7280   1.316   2.276   5.272
 2127SOL    HW2 7281   1.201   2.207   5.365
 2128SOL     OW 7282   6.648   2.989   3.861
 2128SOL    HW1 7283   6.586   2.978   3.784
 2128SOL    HW2 7284   6.596   2.989   3.947
 2129SOL     OW 7285   4.784   3.252   5.215
 2129SOL    HW1 7286   4.733   3.336   5.230
 2129SOL    HW2 7287   4.794   3.203   5.302
 2130SOL     OW 7288   3.384   0.307   2.955
 2130SOL    HW1 7289   3.394   0.242   3.030
 2130SOL    HW2 7290   3.289   0.340   2.952
 2131SOL     OW 7291   4.797   1.584   0.229
 2131SOL    HW1 7292   4.744   1.521   0.286
 2131SOL    HW2 7293   4.800   1.549   0.136
 2132SOL     OW 7294   3.874   1.226   0.714
 2132SOL    HW1 7295   3.811   1.279   0.658
 2132SOL    HW2 7296   3.931   1.168   0.656
 2133SOL     OW 7297   2.985   3.035   0.970
 2133SOL    HW1 7298   3.001   2.941   1.001
 2133SOL    HW2 7299   2.902   3.071   1.012
 2134SOL     OW 7300   1.127   0.753   5.297
 2134SOL    HW1 7301   1.044   0.759   5.352
 2134SOL    HW2 7302   1.207   0.765   5.356
 2135SOL     OW 7303   1.869   3.186   5.113
 2135SOL    HW1 7304   1.857   3.184   5.014
 2135SOL    HW2 7305   1.910   3.100   5.144
 2136SOL     OW 7306   0.675   4.086   4.556
 2136SOL    HW1 7307   0.653   4.074   4.653
 2136SOL    HW2 7308   0.767   4.125   4.547
 2137SOL     OW 7309   0.545   5.873   4.319
 2137SOL    HW1 7310   0.451   5.906   4.327
 2137SOL    HW2 7311   0.588   5.913   4.239
 2138SOL     OW 7312   0.302   0.959   2.069
 2138SOL    HW1 7313   0.306   1.051   2.108
 2138SOL    HW2 7314   0.370   0.951   1.996
 2139SOL     OW 7315   3.215   0.781   2.559
 2139SOL    HW1 7316   3.261   0.692   2.569
 2139SOL    HW2 7317   3.147   0.776   2.487
 2140SOL     OW 7318   3.786   5.880   4.115
 2140SOL    HW1 7319   3.875   5.863   4.072
 2140SOL    HW2 7320   3.759   5.800   4.169
 2141SOL     OW 7321   6.234   4.502   1.558
 2141SOL    HW1 7322   6.275   4.581   1.603
 2141SOL    HW2 7323   6.300   4.428   1.553
 2142SOL     OW 7324   1.365   2.033   2.946
 2142SOL    HW1 7325   1.320   2.015   3.034
 2142SOL    HW2 7326   1.463   2.011   2.955
 2143SOL     OW 7327   2.980   4.411   1.455
 2143SOL    HW1 7328   3.041   4.331   1.450
 2143SOL    HW2 7329   2.943   4.430   1.365
 2144SOL     OW 7330   1.329   5.487   3.817
 2144SOL    HW1 7331   1.245   5.435   3.823
 2144SOL    HW2 7332   1.309   5.580   3.785
 2145SOL     OW 7333   4.036   5.825   4.047
 2145SOL    HW1 7334   4.067   5.850   4.139
 2145SOL    HW2 7335   4.104   5.855   3.980
 2146SOL     OW 7336   2.900   3.834   1.160
 2146SOL    HW1 7337   2.834   3.759   1.154
 2146SOL    HW2 7338   2.961   3.819   1.238
 2147SOL     OW 7339   6.921   1.375   6.615
 2147SOL    HW1 7340   6.859   1.432   6.669
 2147SOL    HW2 7341   6.868   1.307   6.564
 2148SOL     OW 7342   5.180   2.582   4.402
 2148SOL    HW1 7343   5.276   2.598   4.383
 2148SOL    HW2 7344   5.125   2.657   4.365
 2149SOL     OW 7345   3.730   1.920   1.435
 2149SOL    HW1 7346   3.752   2.017   1.444
 2149SOL    HW2 7347   3.705   1.899   1.340
 2150SOL     OW 7348   2.751   1.909   2.222
 2150SOL    HW1 7349   2.793   1.941   2.307
 2150SOL    HW2 7350   2.723   1.813   2.232
 2151SOL     OW 7351   2.052   1.295   4.256
 2151SOL    HW1 7352   1.995   1.368   4.220
 2151SOL    HW2 7353   2.076   1.231   4.183
 2152SOL     OW 7354   3.909   6.279   1.775
 2152SOL    HW1 7355   3.812   6.263   1.755
 2152SOL    HW2 7356   3.931   6.375   1.758
 2153SOL     OW 7357   3.343   0.785   3.275
 2153SOL    HW1 7358   3.316   0.871   3.232
 2153SOL    HW2 7359   3.273   0.716   3.258
 2154SOL     OW 7360   4.660   0.477   5.145
 2154SOL    HW1 7361   4.627   0.555   5.197
 2154SOL    HW2 7362   4.760   0.478   5.144
 2155SOL     OW 7363   1.670   6.098   0.243
 2155SOL    HW1 7364   1.672   6.149   0.157
 2155SOL    HW2 7365   1.713   6.153   0.315
 2156SOL     OW 7366   2.257   0.571   3.504
 2156SOL    HW1 7367   2.165   0.601   3.531
 2156SOL    HW2 7368   2.325   0.621   3.557
 2157SOL     OW 7369   6.268   1.070   3.068
 2157SOL    HW1 7370   6.354   1.055   3.117
 2157SOL    HW2 7371   6.199   1.105   3.131
 2158SOL     OW 7372   3.398   6.098   0.898
 2158SOL    HW1 7373   3.461   6.117   0.823
 2158SOL    HW2 7374   3.423   6.012   0.942
 2159SOL     OW 7375   2.248   5.998   5.291
 2159SOL    HW1 7376   2.168   6.014   5.349
 2159SOL    HW2 7377   2.291   6.086   5.269
 2160SOL     OW 7378   4.719   3.993   0.498
 2160SOL    HW1 7379   4.662   4.040   0.565
 2160SOL    HW2 7380   4.774   3.923   0.544
 2161SOL     OW 7381   5.239   4.152   3.084
 2161SOL    HW1 7382   5.237   4.212   3.004
 2161SOL    HW2 7383   5.203   4.062   3.060
 2162SOL     OW 7384   2.597   0.553   0.553
 2162SOL    HW1 7385   2.620   0.469   0.600
 2162SOL    HW2 7386   2.669   0.621   0.568
 2163SOL     OW 7387   0.018   3.946   6.550
 2163SOL    HW1 7388   6.979   3.878   6.593
 2163SOL    HW2 7389   0.047   3.912   6.460
 2164SOL     OW 7390   2.221   2.888   0.375
 2164SOL    HW1 7391   2.128   2.871   0.408
 2164SOL    HW2 7392   2.220   2.964   0.310
 2165SOL     OW 7393   0.571   1.563   2.459
 2165SOL    HW1 7394   0.494   1.623   2.481
 2165SOL    HW2 7395   0.569   1.484   2.520
 2166SOL     OW 7396   1.610   2.559   5.460
 2166SOL    HW1 7397   1.634   2.493   5.531
 2166SOL    HW2 7398   1.598   2.650   5.502
 2167SOL     OW 7399   1.324   1.102   3.680
 2167SOL    HW1 7400   1.322   1.108   3.581
 2167SOL    HW2 7401   1.288   1.186   3.720
 2168SOL     OW 7402   0.725   2.049   3.565
 2168SOL    HW1 7403   0.644   2.058   3.623
 2168SOL    HW2 7404   0.778   1.969   3.593
 2169SOL     OW 7405   5.644   2.233   5.455
 2169SOL    HW1 7406   5.547   2.228   5.433
 2169SOL    HW2 7407   5.662   2.317   5.506
 2170SOL     OW 7408   6.376   5.703   5.272
 2170SOL    HW1 7409   6.354   5.626   5.332
 2170SOL    HW2 7410   6.352   5.679   5.177
 2171SOL     OW 7411   6.969   3.837   1.640
 2171SOL    HW1 7412   6.922   3.791   1.564
 2171SOL    HW2 7413   0.047   3.835   1.623
 2172SOL     OW 7414   2.462   2.262   0.296
 2172SOL    HW1 7415   2.428   2.197   0.228
 2172SOL    HW2 7416   2.453   2.355   0.260
 2173SOL     OW 7417   4.012   6.972   4.735
 2173SOL    HW1 7418   4.035   6.936   4.644
 2173SOL    HW2 7419   3.970   0.041   4.725
 2174SOL     OW 7420   5.334   4.919   5.355
 2174SOL    HW1 7421   5.344   4.995   5.291
 2174SOL    HW2 7422   5.402   4.848   5.334
 2175SOL     OW 7423   2.559   2.118   4.519
 2175SOL    HW1 7424   2.653   2.153   4.514
 2175SOL    HW2 7425   2.511   2.161   4.595
 2176SOL     OW 7426   0.779   2.947   0.049
 2176SOL    HW1 7427   0.743   2.947   6.977
 2176SOL    HW2 7428   0.779   3.040   0.086
 2177SOL     OW 7429   6.388   1.002   3.718
 2177SOL    HW1 7430   6.309   0.950   3.749
 2177SOL    HW2 7431   6.401   0.990   3.620
 2178SOL     OW 7432   1.088   3.891   0.163
 2178SOL    HW1 7433   1.055   3.971   0.212
 2178SOL    HW2 7434   1.157   3.919   0.096
 2179SOL     OW 7435   1.553   5.618   4.719
 2179SOL    HW1 7436   1.551   5.544   4.652
 2179SOL    HW2 7437   1.464   5.625   4.764
 2180SOL     OW 7438   2.311   2.886   1.858
 2180SOL    HW1 7439   2.288   2.972   1.812
 2180SOL    HW2 7440   2.401   2.855   1.828
 2181SOL     OW 7441   4.760   4.636   5.382
 2181SOL    HW1 7442   4.845   4.685   5.398
 2181SOL    HW2 7443   4.695   4.696   5.334
 2182SOL     OW 7444   0.444   3.315   5.335
 2182SOL    HW1 7445   0.345   3.313   5.328
 2182SOL    HW2 7446   0.474   3.408   5.357
 2183SOL     OW 7447   3.017   4.353   5.553
 2183SOL    HW1 7448   3.043   4.322   5.461
 2183SOL    HW2 7449   2.932   4.309   5.580
 2184SOL     OW 7450   4.761   1.514   6.427
 2184SOL    HW1 7451   4.753   1.609   6.458
 2184SOL    HW2 7452   4.750   1.511   6.327
 2185SOL     OW 7453   1.607   1.807   1.081
 2185SOL    HW1 7454   1.644   1.764   1.164
 2185SOL    HW2 7455   1.509   1.787   1.076
 2186SOL     OW 7456   7.000   5.290   2.267
 2186SOL    HW1 7457   0.073   5.322   2.277
 2186SOL    HW2 7458   6.989   5.205   2.319
 2187SOL     OW 7459   6.899   1.684   1.836
 2187SOL    HW1 7460   6.809   1.703   1.796
 2187SOL    HW2 7461   6.945   1.771   1.857
 2188SOL     OW 7462   5.735   6.115   4.233
 2188SOL    HW1 7463   5.700   6.030   4.194
 2188SOL    HW2 7464   5.819   6.141   4.185
 2189SOL     OW 7465   1.799   6.806   0.335
 2189SOL    HW1 7466   1.878   6.801   0.396
 2189SOL    HW2 7467   1.779   6.902   0.314
 2190SOL     OW 7468   0.657   2.559   1.835
 2190SOL    HW1 7469   0.652   2.649   1.879
 2190SOL    HW2 7470   0.615   2.565   1.744
 2191SOL     OW 7471   2.937   1.972   6.341
 2191SOL    HW1 7472   3.010   1.928   6.288
 2191SOL    HW2 7473   2.960   1.970   6.438
 2192SOL     OW 7474   3.441   0.429   3.215
 2192SOL    HW1 7475   3.480   0.418   3.124
 2192SOL    HW2 7476   3.507   0.475   3.274
 2193SOL     OW 7477   6.569   5.532   6.175
 2193SOL    HW1 7478   6.635   5.568   6.109
 2193SOL    HW2 7479   6.606   5.451   6.220
 2194SOL     OW 7480   2.126   5.002   6.449
 2194SOL    HW1 7481   2.071   4.976   6.529
 2194SOL    HW2 7482   2.155   4.920   6.400
 2195SOL     OW 7483   0.273   0.381   3.752
 2195SOL    HW1 7484   0.368   0.352   3.750
 2195SOL    HW2 7485   0.214   0.307   3.719
 2196SOL     OW 7486   3.212   0.271   5.166
 2196SOL    HW1 7487   3.151   0.297   5.091
 2196SOL    HW2 7488   3.271   0.349   5.188
 2197SOL     OW 7489   3.155   3.208   1.182
 2197SOL    HW1 7490   3.183   3.195   1.277
 2197SOL    HW2 7491   3.071   3.157   1.165
 2198SOL     OW 7492   6.674   1.029   0.149
 2198SOL    HW1 7493   6.687   0.985   0.060
 2198SOL    HW2 7494   6.730   1.111   0.154
 2199SOL     OW 7495   4.719   1.125   3.223
 2199SOL    HW1 7496   4.623   1.112   3.245
 2199SOL    HW2 7497   4.770   1.042   3.245
 2200SOL     OW 7498   3.313   0.175   4.717
 2200SOL    HW1 7499   3.386   0.152   4.652
 2200SOL    HW2 7500   3.224   0.168   4.671
 2201SOL     OW 7501   6.403   2.441   3.214
 2201SOL    HW1 7502   6.416   2.478   3.123
 2201SOL    HW2 7503   6.425   2.343   3.214
 2202SOL     OW 7504   2.754   4.945   2.751
 2202SOL    HW1 7505   2.703   4.967   2.667
 2202SOL    HW2 7506   2.801   5.027   2.784
 2203SOL     OW 7507   2.306   2.888   1.426
 2203SOL    HW1 7508   2.231   2.842   1.473
 2203SOL    HW2 7509   2.377   2.820   1.403
 2204SOL     OW 7510   3.860   1.531   6.761
 2204SOL    HW1 7511   3.906   1.520   6.849
 2204SOL    HW2 7512   3.902   1.607   6.711
 2205SOL     OW 7513   1.884   6.942   6.009
 2205SOL    HW1 7514   1.937   6.981   5.934
 2205SOL    HW2 7515   1.891   6.842   6.007
 2206SOL     OW 7516   2.329   4.152   5.761
 2206SOL    HW1 7517   2.240   4.197   5.753
 2206SOL    HW2 7518   2.364   4.133   5.669
 2207SOL     OW 7519   2.467   3.678   0.123
 2207SOL    HW1 7520   2.428   3.766   0.151
 2207SOL    HW2 7521   2.393   3.610   0.118
 2208SOL     OW 7522   1.656   5.993   2.684
 2208SOL    HW1 7523   1.730   6.058   2.667
 2208SOL    HW2 7524   1.646   5.980   2.783
 2209SOL     OW 7525   0.788   5.539   5.699
 2209SOL    HW1 7526   0.856   5.492   5.755
 2209SOL    HW2 7527   0.833   5.583   5.621
 2210SOL     OW 7528   0.292   4.842   4.254
 2210SOL    HW1 7529   0.234   4.910   4.210
 2210SOL    HW2 7530   0.279   4.753   4.209
 2211SOL     OW 7531   5.266   0.725   0.332
 2211SOL    HW1 7532   5.173   0.757   0.311
 2211SOL    HW2 7533   5.270   0.626   0.320
 2212SOL     OW 7534   2.588   6.539   6.993
 2212SOL    HW1 7535   2.540   6.454   7.013
 2212SOL    HW2 7536   2.521   6.612   6.978
 2213SOL     OW 7537   4.011   2.750   5.269
 2213SOL    HW1 7538   4.046   2.660   5.292
 2213SOL    HW2 7539   3.911   2.746   5.259
 2214SOL     OW 7540   4.291   2.786   5.856
 2214SOL    HW1 7541   4.247   2.818   5.772
 2214SOL    HW2 7542   4.366   2.848   5.880
 2215SOL     OW 7543   6.521   1.914   6.667
 2215SOL    HW1 7544   6.596   1.865   6.621
 2215SOL    HW2 7545   6.521   1.889   6.764
 2216SOL     OW 7546   1.538   7.012   6.402
 2216SOL    HW1 7547   1.445   6.998   6.369
 2216SOL    HW2 7548   1.566   0.086   6.385
 2217SOL     OW 7549   3.819   6.913   1.278
 2217SOL    HW1 7550   3.827   6.820   1.244
 2217SOL    HW2 7551   3.895   6.932   1.341
 2218SOL     OW 7552   0.536   6.629   0.662
 2218SOL    HW1 7553   0.483   6.634   0.578
 2218SOL    HW2 7554   0.566   6.721   0.689
 2219SOL     OW 7555   0.246   2.596   2.056
 2219SOL    HW1 7556   0.188   2.522   2.089
 2219SOL    HW2 7557   0.225   2.615   1.960
 2220SOL     OW 7558   0.832   0.648   4.268
 2220SOL    HW1 7559   0.752   0.589   4.281
 2220SOL    HW2 7560   0.854   0.694   4.354
 2221SOL     OW 7561   6.378   0.402   5.631
 2221SOL    HW1 7562   6.321   0.348   5.693
 2221SOL    HW2 7563   6.422   0.476   5.683
 2222SOL     OW 7564   4.206   0.460   0.454
 2222SOL    HW1 7565   4.192   0.558   0.468
 2222SOL    HW2 7566   4.160   0.432   0.370
 2223SOL     OW 7567   6.059   0.294   3.841
 2223SOL    HW1 7568   6.070   0.361   3.914
 2223SOL    HW2 7569   6.108   0.210   3.864
 2224SOL     OW 7570   1.563   4.518   1.517
 2224SOL    HW1 7571   1.521   4.517   1.426
 2224SOL    HW2 7572   1.637   4.585   1.518
 2225SOL     OW 7573   6.497   5.637   2.886
 2225SOL    HW1 7574   6.486   5.550   2.839
 2225SOL    HW2 7575   6.414   5.657   2.939
 2226SOL     OW 7576   4.118   5.302   0.830
 2226SOL    HW1 7577   4.020   5.320   0.816
 2226SOL    HW2 7578   4.141   5.319   0.925
 2227SOL     OW 7579   5.435   3.662   0.596
 2227SOL    HW1 7580   5.529   3.641   0.623
 2227SOL    HW2 7581   5.436   3.732   0.525
 2228SOL     OW 7582   2.674   5.194   1.661
 2228SOL    HW1 7583   2.606   5.254   1.702
 2228SOL    HW2 7584   2.662   5.101   1.695
 2229SOL     OW 7585   4.006   1.809   4.498
 2229SOL    HW1 7586   4.013   1.765   4.587
 2229SOL    HW2 7587   3.921   1.863   4.493
 2230SOL     OW 7588   6.230   5.521   5.505
 2230SOL    HW1 7589   6.187   5.439   5.466
 2230SOL    HW2 7590   6.159   5.583   5.539
 2231SOL     OW 7591   0.334   0.802   1.453
 2231SOL    HW1 7592   0.344   0.900   1.471
 2231SOL    HW2 7593   0.412   0.771   1.399
 2232SOL     OW 7594   1.106   2.632   4.543
 2232SOL    HW1 7595   1.017   2.678   4.551
 2232SOL    HW2 7596   1.092   2.533   4.550
 2233SOL     OW 7597   2.355   4.382   1.419
 2233SOL    HW1 7598   2.389   4.430   1.339
 2233SOL    HW2 7599   2.256   4.391   1.423
 2234SOL     OW 7600   4.517   2.097   1.871
 2234SOL    HW1 7601   4.518   2.136   1.963
 2234SOL    HW2 7602   4.435   2.127   1.822
 2235SOL     OW 7603   1.691   0.552   1.241
 2235SOL    HW1 7604   1.645   0.525   1.326
 2235SOL    HW2 7605   1.686   0.477   1.175
 2236SOL     OW 7606   0.709   4.509   6.657
 2236SOL    HW1 7607   0.763   4.559   6.589
 2236SOL    HW2 7608   0.699   4.414   6.629
 2237SOL     OW 7609   5.661   4.696   3.940
 2237SOL    HW1 7610   5.695   4.768   3.879
 2237SOL    HW2 7611   5.598   4.736   4.007
 2238SOL     OW 7612   5.684   5.165   1.783
 2238SOL    HW1 7613   5.682   5.179   1.882
 2238SOL    HW2 7614   5.717   5.073   1.763
 2239SOL     OW 7615   3.580   5.403   3.475
 2239SOL    HW1 7616   3.487   5.442   3.470
 2239SOL    HW2 7617   3.576   5.305   3.454
 2240SOL     OW 7618   5.571   5.949   3.886
 2240SOL    HW1 7619   5.472   5.938   3.886
 2240SOL    HW2 7620   5.595   6.042   3.856
 2241SOL     OW 7621   0.726   6.909   2.307
 2241SOL    HW1 7622   0.652   6.963   2.267
 2241SOL    HW2 7623   0.740   6.937   2.402
 2242SOL     OW 7624   4.832   2.663   3.003
 2242SOL    HW1 7625   4.875   2.599   3.067
 2242SOL    HW2 7626   4.892   2.676   2.924
 2243SOL     OW 7627   2.816   6.304   5.233
 2243SOL    HW1 7628   2.741   6.366   5.212
 2243SOL    HW2 7629   2.891   6.355   5.275
 2244SOL     OW 7630   2.735   0.366   2.182
 2244SOL    HW1 7631   2.834   0.365   2.174
 2244SOL    HW2 7632   2.703   0.277   2.215
 2245SOL     OW 7633   0.433   1.391   2.232
 2245SOL    HW1 7634   0.458   1.306   2.278
 2245SOL    HW2 7635   0.496   1.464   2.260
 2246SOL     OW 7636   1.215   1.348   5.883
 2246SOL    HW1 7637   1.286   1.317   5.947
 2246SOL    HW2 7638   1.197   1.445   5.898
 2247SOL     OW 7639   2.528   2.802   5.825
 2247SOL    HW1 7640   2.614   2.841   5.792
 2247SOL    HW2 7641   2.452   2.840   5.772
 2248SOL     OW 7642   3.882   3.682   6.612
 2248SOL    HW1 7643   3.922   3.606   6.662
 2248SOL    HW2 7644   3.933   3.697   6.527
 2249SOL     OW 7645   5.955   6.233   2.417
 2249SOL    HW1 7646   6.022   6.275   2.356
 2249SOL    HW2 7647   5.997   6.155   2.465
 2250SOL     OW 7648   4.570   3.823   0.353
 2250SOL    HW1 7649   4.562   3.839   0.255
 2250SOL    HW2 7650   4.621   3.899   0.395
 2251SOL     OW 7651   5.017   1.080   0.588
 2251SOL    HW1 7652   4.931   1.130   0.580
 2251SOL    HW2 7653   5.050   1.056   0.497
 2252SOL     OW 7654   6.094   2.174   3.088
 2252SOL    HW1 7655   6.110   2.141   2.995
 2252SOL    HW2 7656   6.075   2.272   3.086
 2253SOL     OW 7657   1.000   3.885   6.782
 2253SOL    HW1 7658   1.081   3.915   6.832
 2253SOL    HW2 7659   0.981   3.789   6.804
 2254SOL     OW 7660   2.398   3.236   5.592
 2254SOL    HW1 7661   2.386   3.333   5.573
 2254SOL    HW2 7662   2.445   3.225   5.680
 2255SOL     OW 7663   4.547   2.721   6.876
 2255SOL    HW1 7664   4.521   2.626   6.861
 2255SOL    HW2 7665   4.557   2.738   6.974
 2256SOL     OW 7666   4.495   6.323   1.632
 2256SOL    HW1 7667   4.461   6.274   1.713
 2256SOL    HW2 7668   4.502   6.421   1.653
 2257SOL     OW 7669   0.065   1.909   4.132
 2257SOL    HW1 7670   0.045   1.859   4.048
 2257SOL    HW2 7671   7.004   1.913   4.189
 2258SOL     OW 7672   1.155   5.494   5.654
 2258SOL    HW1 7673   1.254   5.504   5.647
 2258SOL    HW2 7674   1.127   5.503   5.749
 2259SOL     OW 7675   4.648   4.346   6.549
 2259SOL    HW1 7676   4.623   4.438   6.521
 2259SOL    HW2 7677   4.727   4.349   6.611
 2260SOL     OW 7678   5.822   4.521   3.021
 2260SOL    HW1 7679   5.788   4.438   3.067
 2260SOL    HW2 7680   5.805   4.600   3.079
 2261SOL     OW 7681   6.821   6.672   0.835
 2261SOL    HW1 7682   6.734   6.720   0.826
 2261SOL    HW2 7683   6.804   6.573   0.841
 2262SOL     OW 7684   4.897   2.110   2.417
 2262SOL    HW1 7685   4.939   2.050   2.349
 2262SOL    HW2 7686   4.869   2.056   2.497
 2263SOL     OW 7687   2.576   6.119   6.056
 2263SOL    HW1 7688   2.566   6.209   6.099
 2263SOL    HW2 7689   2.671   6.108   6.024
 2264SOL     OW 7690   2.788   2.605   1.039
 2264SOL    HW1 7691   2.779   2.600   0.939
 2264SOL    HW2 7692   2.789   2.512   1.077
 2265SOL     OW 7693   0.591   0.411   3.455
 2265SOL    HW1 7694   0.524   0.483   3.469
 2265SOL    HW2 7695   0.683   0.446   3.475
 2266SOL     OW 7696   6.317   1.879   1.294
 2266SOL    HW1 7697   6.281   1.958   1.344
 2266SOL    HW2 7698   6.256   1.859   1.217
 2267SOL     OW 7699   4.867   2.274   5.060
 2267SOL    HW1 7700   4.842   2.257   4.965
 2267SOL    HW2 7701   4.966   2.292   5.066
 2268SOL     OW 7702   6.587   4.033   6.037
 2268SOL    HW1 7703   6.594   4.125   6.000
 2268SOL    HW2 7704   6.495   4.018   6.073
 2269SOL     OW 7705   5.313   6.123   4.831
 2269SOL    HW1 7706   5.267   6.137   4.919
 2269SOL    HW2 7707   5.396   6.179   4.827
 2270SOL     OW 7708   3.249   2.377   6.268
 2270SOL    HW1 7709   3.324   2.380   6.201
 2270SOL    HW2 7710   3.208   2.468   6.275
 2271SOL     OW 7711   6.287   4.054   0.609
 2271SOL    HW1 7712   6.276   4.146   0.572
 2271SOL    HW2 7713   6.385   4.031   0.613
 2272SOL     OW 7714   5.774   1.322   4.998
 2272SOL    HW1 7715   5.755   1.343   4.902
 2272SOL    HW2 7716   5.870   1.340   5.019
 2273SOL     OW 7717   1.623   0.775   2.051
 2273SOL    HW1 7718   1.659   0.808   2.138
 2273SOL    HW2 7719   1.698   0.764   1.985
 2274SOL     OW 7720   1.913   2.581   6.109
 2274SOL    HW1 7721   2.008   2.605   6.088
 2274SOL    HW2 7722   1.904   2.562   6.207
 2275SOL     OW 7723   5.996   0.517   4.706
 2275SOL    HW1 7724   6.046   0.538   4.622
 2275SOL    HW2 7725   5.973   0.420   4.707
 2276SOL     OW 7726   2.692   4.909   1.444
 2276SOL    HW1 7727   2.649   4.999   1.437
 2276SOL    HW2 7728   2.791   4.920   1.446
 2277SOL     OW 7729   3.672   3.207   5.174
 2277SOL    HW1 7730   3.656   3.207   5.272
 2277SOL    HW2 7731   3.760   3.248   5.154
 2278SOL     OW 7732   6.560   5.330   3.796
 2278SOL    HW1 7733   6.608   5.413   3.822
 2278SOL    HW2 7734   6.474   5.354   3.751
 2279SOL     OW 7735   4.574   5.734   4.569
 2279SOL    HW1 7736   4.493   5.684   4.598
 2279SOL    HW2 7737   4.552   5.831   4.559
 2280SOL     OW 7738   0.017   6.077   5.025
 2280SOL    HW1 7739   0.072   6.079   5.108
 2280SOL    HW2 7740   6.965   6.145   5.031
 2281SOL     OW 7741   3.539   1.019   1.506
 2281SOL    HW1 7742   3.554   0.924   1.534
 2281SOL    HW2 7743   3.516   1.074   1.587
 2282SOL     OW 7744   4.744   6.966   4.896
 2282SOL    HW1 7745   4.809   6.943   4.824
 2282SOL    HW2 7746   4.695   0.029   4.871
 2283SOL     OW 7747   6.364   4.681   1.770
 2283SOL    HW1 7748   6.435   4.752   1.766
 2283SOL    HW2 7749   6.405   4.592   1.751
 2284SOL     OW 7750   2.541   1.606   0.004
 2284SOL    HW1 7751   2.472   1.632   0.071
 2284SOL    HW2 7752   2.496   1.569   6.943
 2285SOL     OW 7753   1.645   2.177   0.517
 2285SOL    HW1 7754   1.574   2.143   0.578
 2285SOL    HW2 7755   1.628   2.273   0.495
 2286SOL     OW 7756   0.525   0.025   4.724
 2286SOL    HW1 7757   0.555   0.091   4.654
 2286SOL    HW2 7758   0.563   6.956   4.702
 2287SOL     OW 7759   1.899   2.021   2.351
 2287SOL    HW1 7760   1.961   1.996   2.277
 2287SOL    HW2 7761   1.813   2.055   2.313
 2288SOL     OW 7762   6.711   4.798   4.340
 2288SOL    HW1 7763   6.781   4.766   4.405
 2288SOL    HW2 7764   6.644   4.726   4.326
 2289SOL     OW 7765   6.351   4.427   2.671
 2289SOL    HW1 7766   6.409   4.352   2.703
 2289SOL    HW2 7767   6.280   4.445   2.739
 2290SOL     OW 7768   1.477   3.430   1.759
 2290SOL    HW1 7769   1.553   3.436   1.824
 2290SOL    HW2 7770   1.511   3.395   1.672
 2291SOL     OW 7771   1.884   2.517   6.913
 2291SOL    HW1 7772   1.784   2.511   6.909
 2291SOL    HW2 7773   1.923   2.488   6.826
 2292SOL     OW 7774   5.836   2.758   3.848
 2292SOL    HW1 7775   5.797   2.785   3.760
 2292SOL    HW2 7776   5.923   2.711   3.832
 2293SOL     OW 7777   6.474   6.479   1.292
 2293SOL    HW1 7778   6.379   6.451   1.278
 2293SOL    HW2 7779   6.535   6.412   1.250
 2294SOL     OW 7780   3.477   1.248   6.039
 2294SOL    HW1 7781   3.456   1.165   6.090
 2294SOL    HW2 7782   3.460   1.328   6.097
 2295SOL     OW 7783   0.563   1.721   2.804
 2295SOL    HW1 7784   0.526   1.653   2.867
 2295SOL    HW2 7785   0.537   1.812   2.834
 2296SOL     OW 7786   3.883   5.729   2.763
 2296SOL    HW1 7787   3.914   5.653   2.707
 2296SOL    HW2 7788   3.879   5.812   2.708
 2297SOL     OW 7789   5.157   4.401   5.650
 2297SOL    HW1 7790   5.167   4.484   5.594
 2297SOL    HW2 7791   5.241   4.348   5.647
 2298SOL     OW 7792   4.080   3.680   2.225
 2298SOL    HW1 7793   4.125   3.760   2.264
 2298SOL    HW2 7794   4.083   3.605   2.291
 2299SOL     OW 7795   4.696   4.542   5.098
 2299SOL    HW1 7796   4.786   4.519   5.136
 2299SOL    HW2 7797   4.662   4.464   5.045
 2300SOL     OW 7798   2.074   5.925   3.203
 2300SOL    HW1 7799   2.082   6.016   3.244
 2300SOL    HW2 7800   2.011   5.928   3.126
 2301SOL     OW 7801   3.164   3.073   3.345
 2301SOL    HW1 7802   3.126   2.986   3.315
 2301SOL    HW2 7803   3.098   3.146   3.328
 2302SOL     OW 7804   3.946   0.544   1.097
 2302SOL    HW1 7805   4.030   0.592   1.123
 2302SOL    HW2 7806   3.886   0.537   1.177
 2303SOL     OW 7807   2.630   3.510   0.297
 2303SOL    HW1 7808   2.565   3.451   0.345
 2303SOL    HW2 7809   2.580   3.575   0.239
 2304SOL     OW 7810   5.534   6.714   4.516
 2304SOL    HW1 7811   5.514   6.617   4.508
 2304SOL    HW2 7812   5.449   6.766   4.504
 2305SOL     OW 7813   2.005   0.406   2.882
 2305SOL    HW1 7814   2.025   0.464   2.802
 2305SOL    HW2 7815   2.045   0.316   2.868
 2306SOL     OW 7816   2.194   5.271   2.562
 2306SOL    HW1 7817   2.242   5.288   2.648
 2306SOL    HW2 7818   2.230   5.332   2.491
 2307SOL     OW 7819   0.057   2.755   4.510
 2307SOL    HW1 7820   0.069   2.788   4.603
 2307SOL    HW2 7821   0.072   2.656   4.508
 2308SOL     OW 7822   2.347   4.718   1.511
 2308SOL    HW1 7823   2.431   4.670   1.536
 2308SOL    HW2 7824   2.316   4.774   1.588
 2309SOL     OW 7825   1.709   0.355   5.395
 2309SOL    HW1 7826   1.661   0.414   5.330
 2309SOL    HW2 7827   1.649   0.279   5.421
 2310SOL     OW 7828   5.540   5.720   1.406
 2310SOL    HW1 7829   5.526   5.622   1.395
 2310SOL    HW2 7830   5.494   5.751   1.489
 2311SOL     OW 7831   2.205   6.821   0.982
 2311SOL    HW1 7832   2.140   6.862   1.046
 2311SOL    HW2 7833   2.296   6.857   1.001
 2312SOL     OW 7834   5.023   5.799   3.096
 2312SOL    HW1 7835   4.962   5.842   3.163
 2312SOL    HW2 7836   5.026   5.855   3.013
 2313SOL     OW 7837   4.910   5.851   2.097
 2313SOL    HW1 7838   4.990   5.879   2.044
 2313SOL    HW2 7839   4.938   5.825   2.190
 2314SOL     OW 7840   5.316   5.792   3.460
 2314SOL    HW1 7841   5.285   5.701   3.488
 2314SOL    HW2 7842   5.316   5.799   3.361
 2315SOL     OW 7843   5.126   2.581   6.440
 2315SOL    HW1 7844   5.035   2.563   6.405
 2315SOL    HW2 7845   5.139   2.679   6.453
 2316SOL     OW 7846   4.161   1.828   3.707
 2316SOL    HW1 7847   4.159   1.914   3.656
 2316SOL    HW2 7848   4.160   1.751   3.643
 2317SOL     OW 7849   0.463   5.805   3.132
 2317SOL    HW1 7850   0.478   5.894   3.090
 2317SOL    HW2 7851   0.367   5.797   3.159
 2318SOL     OW 7852   0.869   2.623   3.512
 2318SOL    HW1 7853   0.829   2.560   3.445
 2318SOL    HW2 7854   0.847   2.717   3.487
 2319SOL     OW 7855   1.948   5.183   3.314
 2319SOL    HW1 7856   1.860   5.230   3.315
 2319SOL    HW2 7857   1.985   5.180   3.407
 2320SOL     OW 7858   0.757   2.274   4.024
 2320SOL    HW1 7859   0.812   2.265   4.107
 2320SOL    HW2 7860   0.736   2.371   4.008
 2321SOL     OW 7861   2.976   0.054   5.741
 2321SOL    HW1 7862   2.975   6.991   5.794
 2321SOL    HW2 7863   3.053   0.111   5.771
 2322SOL     OW 7864   2.548   1.600   4.836
 2322SOL    HW1 7865   2.607   1.648   4.901
 2322SOL    HW2 7866   2.606   1.546   4.773
 2323SOL     OW 7867   2.635   4.981   2.054
 2323SOL    HW1 7868   2.564   4.937   2.110
 2323SOL    HW2 7869   2.723   4.938   2.074
 2324SOL     OW 7870   6.502   6.368   2.353
 2324SOL    HW1 7871   6.592   6.337   2.322
 2324SOL    HW2 7872   6.505   6.387   2.451
 2325SOL     OW 7873   0.619   4.940   1.412
 2325SOL    HW1 7874   0.631   5.023   1.466
 2325SOL    HW2 7875   0.702   4.885   1.417
 2326SOL     OW 7876   3.346   4.920   5.307
 2326SOL    HW1 7877   3.364   5.002   5.361
 2326SOL    HW2 7878   3.252   4.890   5.322
 2327SOL     OW 7879   6.154   3.787   4.618
 2327SOL    HW1 7880   6.134   3.849   4.695
 2327SOL    HW2 7881   6.071   3.769   4.567
 2328SOL     OW 7882   3.702   2.092   3.331
 2328SOL    HW1 7883   3.737   2.100   3.237
 2328SOL    HW2 7884   3.767   2.134   3.394
 2329SOL     OW 7885   1.316   4.612   5.188
 2329SOL    HW1 7886   1.360   4.690   5.144
 2329SOL    HW2 7887   1.385   4.545   5.216
 2330SOL     OW 7888   0.695   4.274   2.309
 2330SOL    HW1 7889   0.730   4.190   2.268
 2330SOL    HW2 7890   0.725   4.279   2.404
 2331SOL     OW 7891   6.505   3.840   0.200
 2331SOL    HW1 7892   6.545   3.751   0.225
 2331SOL    HW2 7893   6.566   3.888   0.138
 2332SOL     OW 7894   4.443   2.097   5.831
 2332SOL    HW1 7895   4.421   2.000   5.825
 2332SOL    HW2 7896   4.503   2.113   5.910
 2333SOL     OW 7897   6.841   5.293   2.959
 2333SOL    HW1 7898   6.851   5.393   2.961
 2333SOL    HW2 7899   6.926   5.253   2.925
 2334SOL     OW 7900   2.387   0.026   6.691
 2334SOL    HW1 7901   2.399   6.990   6.772
 2334SOL    HW2 7902   2.389   6.990   6.609
 2335SOL     OW 7903   5.840   1.206   3.045
 2335SOL    HW1 7904   5.877   1.291   3.083
 2335SOL    HW2 7905   5.899   1.174   2.972
 2336SOL     OW 7906   4.040   1.950   5.440
 2336SOL    HW1 7907   4.088   1.880   5.387
 2336SOL    HW2 7908   4.074   1.950   5.534
 2337SOL     OW 7909   4.246   1.232   3.731
 2337SOL    HW1 7910   4.164   1.256   3.678
 2337SOL    HW2 7911   4.271   1.309   3.790
 2338SOL     OW 7912   1.008   0.851   6.960
 2338SOL    HW1 7913   1.056   0.907   6.892
 2338SOL    HW2 7914   0.976   0.909   0.014
 2339SOL     OW 7915   3.845   3.337   4.989
 2339SOL    HW1 7916   3.800   3.400   4.926
 2339SOL    HW2 7917   3.930   3.304   4.948
 2340SOL     OW 7918   5.411   6.180   5.904
 2340SOL    HW1 7919   5.337   6.164   5.969
 2340SOL    HW2 7920   5.494   6.208   5.954
 2341SOL     OW 7921   4.952   3.778   1.190
 2341SOL    HW1 7922   5.042   3.811   1.219
 2341SOL    HW2 7923   4.938   3.802   1.094
 2342SOL     OW 7924   0.532   5.467   5.740
 2342SOL    HW1 7925   0.617   5.505   5.704
 2342SOL    HW2 7926   0.502   5.521   5.818
 2343SOL     OW 7927   2.050   6.459   2.005
 2343SOL    HW1 7928   2.139   6.467   2.049
 2343SOL    HW2 7929   2.057   6.489   1.910
 2344SOL     OW 7930   1.545   1.088   1.185
 2344SOL    HW1 7931   1.494   1.144   1.121
 2344SOL    HW2 7932   1.643   1.105   1.175
 2345SOL     OW 7933   2.227   5.527   5.545
 2345SOL    HW1 7934   2.137   5.532   5.588
 2345SOL    HW2 7935   2.264   5.620   5.534
 2346SOL     OW 7936   5.076   3.316   4.822
 2346SOL    HW1 7937   5.028   3.347   4.903
 2346SOL    HW2 7938   5.101   3.220   4.832
 2347SOL     OW 7939   2.144   3.912   1.674
 2347SOL    HW1 7940   2.219   3.850   1.698
 2347SOL    HW2 7941   2.063   3.888   1.727
 2348SOL     OW 7942   3.499   5.846   3.566
 2348SOL    HW1 7943   3.505   5.811   3.659
 2348SOL    HW2 7944   3.486   5.770   3.502
 2349SOL     OW 7945   0.571   5.513   6.650
 2349SOL    HW1 7946   0.523   5.551   6.729
 2349SOL    HW2 7947   0.541   5.419   6.635
 2350SOL     OW 7948   5.151   6.987   6.310
 2350SOL    HW1 7949   5.209   6.914   6.273
 2350SOL    HW2 7950   5.060   6.951   6.330
 2351SOL     OW 7951   3.525   4.893   2.837
 2351SOL    HW1 7952   3.436   4.925   2.805
 2351SOL    HW2 7953   3.525   4.889   2.937
 2352SOL     OW 7954   0.749   3.888   2.494
 2352SOL    HW1 7955   0.820   3.917   2.559
 2352SOL    HW2 7956   0.791   3.869   2.406
 2353SOL     OW 7957   2.910   4.885   4.364
 2353SOL    HW1 7958   2.893   4.817   4.436
 2353SOL    HW2 7959   2.892   4.976   4.400
 2354SOL     OW 7960   3.274   2.343   6.727
 2354SOL    HW1 7961   3.312   2.423   6.772
 2354SOL    HW2 7962   3.181   2.364   6.695
 2355SOL     OW 7963   1.161   4.931   6.578
 2355SOL    HW1 7964   1.204   4.889   6.498
 2355SOL    HW2 7965   1.147   5.029   6.561
 2356SOL     OW 7966   2.778   4.236   0.447
 2356SOL    HW1 7967   2.685   4.242   0.409
 2356SOL    HW2 7968   2.812   4.143   0.437
 2357SOL     OW 7969   3.958   5.283   3.860
 2357SOL    HW1 7970   3.866   5.278   3.899
 2357SOL    HW2 7971   3.982   5.195   3.819
 2358SOL     OW 7972   2.834   5.133   4.477
 2358SOL    HW1 7973   2.848   5.197   4.402
 2358SOL    HW2 7974   2.737   5.108   4.483
 2359SOL     OW 7975   0.913   1.611   5.901
 2359SOL    HW1 7976   1.012   1.602   5.905
 2359SOL    HW2 7977   0.888   1.706   5.883
 2360SOL     OW 7978   4.840   6.071   5.293
 2360SOL    HW1 7979   4.817   6.071   5.195
 2360SOL    HW2 7980   4.895   5.991   5.315
 2361SOL     OW 7981   2.512   0.212   4.535
 2361SOL    HW1 7982   2.485   0.116   4.528
 2361SOL    HW2 7983   2.507   0.241   4.631
 2362SOL     OW 7984   4.194   6.860   5.283
 2362SOL    HW1 7985   4.178   6.854   5.185
 2362SOL    HW2 7986   4.208   6.768   5.320
 2363SOL     OW 7987   4.563   2.227   4.923
 2363SOL    HW1 7988   4.570   2.207   4.825
 2363SOL    HW2 7989   4.538   2.323   4.935
 2364SOL     OW 7990   6.984   2.128   3.058
 2364SOL    HW1 7991   0.001   2.179   3.135
 2364SOL    HW2 7992   6.999   2.030   3.073
 2365SOL     OW 7993   5.858   3.470   5.912
 2365SOL    HW1 7994   5.788   3.468   5.842
 2365SOL    HW2 7995   5.948   3.457   5.870
 2366SOL     OW 7996   1.339   3.521   5.639
 2366SOL    HW1 7997   1.408   3.578   5.683
 2366SOL    HW2 7998   1.383   3.440   5.600
 2367SOL     OW 7999   2.270   3.851   6.656
 2367SOL    HW1 8000   2.358   3.807   6.637
 2367SOL    HW2 8001   2.255   3.924   6.589
 2368SOL     OW 8002   5.198   1.121   4.309
 2368SOL    HW1 8003   5.225   1.208   4.351
 2368SOL    HW2 8004   5.119   1.083   4.358
 2369SOL     OW 8005   2.299   3.014   4.184
 2369SOL    HW1 8006   2.222   3.037   4.124
 2369SOL    HW2 8007   2.300   2.915   4.200
 2370SOL     OW 8008   4.399   4.291   6.639
 2370SOL    HW1 8009   4.368   4.335   6.724
 2370SOL    HW2 8010   4.490   4.326   6.615
 2371SOL     OW 8011   1.668   5.516   2.564
 2371SOL    HW1 8012   1.615   5.600   2.581
 2371SOL    HW2 8013   1.733   5.502   2.638
 2372SOL     OW 8014   0.936   1.816   0.380
 2372SOL    HW1 8015   0.958   1.910   0.406
 2372SOL    HW2 8016   0.915   1.763   0.462
 2373SOL     OW 8017   6.014   0.986   6.904
 2373SOL    HW1 8018   6.024   1.039   6.820
 2373SOL    HW2 8019   5.983   0.894   6.882
 2374SOL     OW 8020   6.321   6.063   3.511
 2374SOL    HW1 8021   6.317   6.104   3.420
 2374SOL    HW2 8022   6.409   6.087   3.554
 2375SOL     OW 8023   1.145   6.413   3.945
 2375SOL    HW1 8024   1.101   6.496   3.981
 2375SOL    HW2 8025   1.095   6.333   3.976
 2376SOL     OW 8026   6.516   3.002   4.111
 2376SOL    HW1 8027   6.578   3.065   4.158
 2376SOL    HW2 8028   6.463   2.951   4.179
 2377SOL     OW 8029   3.352   3.541   3.901
 2377SOL    HW1 8030   3.347   3.579   3.808
 2377SOL    HW2 8031   3.277   3.577   3.956
 2378SOL     OW 8032   4.984   2.181   6.609
 2378SOL    HW1 8033   4.989   2.123   6.690
 2378SOL    HW2 8034   4.969   2.276   6.637
 2379SOL     OW 8035   6.544   2.859   0.130
 2379SOL    HW1 8036   6.483   2.910   0.190
 2379SOL    HW2 8037   6.493   2.788   0.083
 2380SOL     OW 8038   6.613   0.318   5.871
 2380SOL    HW1 8039   6.646   0.346   5.781
 2380SOL    HW2 8040   6.633   0.222   5.887
 2381SOL     OW 8041   1.943   4.053   4.117
 2381SOL    HW1 8042   1.927   4.063   4.216
 2381SOL    HW2 8043   2.032   4.011   4.102
 2382SOL     OW 8044   2.362   5.394   2.757
 2382SOL    HW1 8045   2.357   5.488   2.723
 2382SOL    HW2 8046   2.435   5.388   2.826
 2383SOL     OW 8047   5.823   6.438   0.034
 2383SOL    HW1 8048   5.744   6.376   0.039
 2383SOL    HW2 8049   5.850   6.448   6.959
 2384SOL     OW 8050   1.872   0.978   1.562
 2384SOL    HW1 8051   1.779   0.991   1.528
 2384SOL    HW2 8052   1.869   0.947   1.657
 2385SOL     OW 8053   6.442   0.045   1.161
 2385SOL    HW1 8054   6.412   0.011   1.250
 2385SOL    HW2 8055   6.366   0.041   1.096
 2386SOL     OW 8056   3.906   4.901   4.028
 2386SOL    HW1 8057   3.980   4.891   4.094
 2386SOL    HW2 8058   3.818   4.894   4.074
 2387SOL     OW 8059   6.678   2.196   4.730
 2387SOL    HW1 8060   6.670   2.284   4.683
 2387SOL    HW2 8061   6.743   2.204   4.805
 2388SOL     OW 8062   1.447   1.966   5.106
 2388SOL    HW1 8063   1.405   1.897   5.047
 2388SOL    HW2 8064   1.394   2.051   5.101
 2389SOL     OW 8065   4.802   4.115   3.614
 2389SOL    HW1 8066   4.806   4.088   3.711
 2389SOL    HW2 8067   4.715   4.162   3.597
 2390SOL     OW 8068   3.664   4.157   4.933
 2390SOL    HW1 8069   3.622   4.247   4.920
 2390SOL    HW2 8070   3.723   4.159   5.013
 2391SOL     OW 8071   3.323   4.518   5.453
 2391SOL    HW1 8072   3.339   4.584   5.527
 2391SOL    HW2 8073   3.358   4.556   5.367
 2392SOL     OW 8074   3.092   5.426   5.659
 2392SOL    HW1 8075   3.064   5.341   5.615
 2392SOL    HW2 8076   3.034   5.501   5.629
 2393SOL     OW 8077   3.870   5.176   1.082
 2393SOL    HW1 8078   3.871   5.110   1.157
 2393SOL    HW2 8079   3.776   5.192   1.053
 2394SOL     OW 8080   1.074   3.777   4.949
 2394SOL    HW1 8081   1.048   3.714   4.875
 2394SOL    HW2 8082   1.161   3.747   4.989
 2395SOL     OW 8083   6.784   2.276   6.624
 2395SOL    HW1 8084   6.760   2.185   6.591
 2395SOL    HW2 8085   6.734   2.296   6.708
 2396SOL     OW 8086   5.837   6.180   0.973
 2396SOL    HW1 8087   5.809   6.243   0.901
 2396SOL    HW2 8088   5.834   6.227   1.061
 2397SOL     OW 8089   6.547   4.704   0.358
 2397SOL    HW1 8090   6.547   4.648   0.441
 2397SOL    HW2 8091   6.491   4.658   0.288
 2398SOL     OW 8092   2.055   4.793   5.764
 2398SOL    HW1 8093   2.086   4.887   5.778
 2398SOL    HW2 8094   2.116   4.730   5.812
 2399SOL     OW 8095   4.314   1.862   2.492
 2399SOL    HW1 8096   4.240   1.873   2.559
 2399SOL    HW2 8097   4.343   1.952   2.460
 2400SOL     OW 8098   3.434   4.106   0.645
 2400SOL    HW1 8099   3.377   4.037   0.598
 2400SOL    HW2 8100   3.377   4.156   0.710
 2401SOL     OW 8101   3.398   0.377   5.494
 2401SOL    HW1 8102   3.335   0.446   5.528
 2401SOL    HW2 8103   3.462   0.351   5.567
 2402SOL     OW 8104   6.806   1.899   4.682
 2402SOL    HW1 8105   6.861   1.882   4.763
 2402SOL    HW2 8106   6.826   1.990   4.646
 2403SOL     OW 8107   2.894   3.096   0.360
 2403SOL    HW1 8108   2.807   3.050   0.379
 2403SOL    HW2 8109   2.917   3.157   0.435
 2404SOL     OW 8110   5.661   1.846   2.096
 2404SOL    HW1 8111   5.575   1.830   2.048
 2404SOL    HW2 8112   5.679   1.769   2.158
 2405SOL     OW 8113   4.053   3.332   5.498
 2405SOL    HW1 8114   4.085   3.279   5.419
 2405SOL    HW2 8115   4.124   3.396   5.526
 2406SOL     OW 8116   2.136   0.588   3.081
 2406SOL    HW1 8117   2.153   0.518   3.150
 2406SOL    HW2 8118   2.136   0.547   2.990
 2407SOL     OW 8119   4.422   2.128   3.164
 2407SOL    HW1 8120   4.468   2.040   3.150
 2407SOL    HW2 8121   4.447   2.166   3.253
 2408SOL     OW 8122   3.603   5.476   2.510
 2408SOL    HW1 8123   3.512   5.438   2.526
 2408SOL    HW2 8124   3.669   5.402   2.498
 2409SOL     OW 8125   2.462   2.427   1.900
 2409SOL    HW1 8126   2.496   2.490   1.830
 2409SOL    HW2 8127   2.392   2.368   1.860
 2410SOL     OW 8128   6.540   2.791   5.961
 2410SOL    HW1 8129   6.523   2.888   5.944
 2410SOL    HW2 8130   6.528   2.739   5.876
 2411SOL     OW 8131   3.670   4.441   5.355
 2411SOL    HW1 8132   3.635   4.535   5.348
 2411SOL    HW2 8133   3.765   4.443   5.387
 2412SOL     OW 8134   2.664   3.884   0.281
 2412SOL    HW1 8135   2.593   3.882   0.352
 2412SOL    HW2 8136   2.643   3.816   0.211
 2413SOL     OW 8137   6.165   3.568   6.739
 2413SOL    HW1 8138   6.204   3.659   6.731
 2413SOL    HW2 8139   6.161   3.525   6.649
 2414SOL     OW 8140   5.967   3.817   2.834
 2414SOL    HW1 8141   5.983   3.719   2.847
 2414SOL    HW2 8142   5.934   3.834   2.741
 2415SOL     OW 8143   1.680   0.279   1.115
 2415SOL    HW1 8144   1.670   0.245   1.208
 2415SOL    HW2 8145   1.597   0.260   1.063
 2416SOL     OW 8146   2.589   1.232   4.815
 2416SOL    HW1 8147   2.648   1.152   4.809
 2416SOL    HW2 8148   2.643   1.314   4.795
 2417SOL     OW 8149   4.881   2.579   0.276
 2417SOL    HW1 8150   4.846   2.591   0.369
 2417SOL    HW2 8151   4.943   2.500   0.274
 2418SOL     OW 8152   3.695   3.525   4.855
 2418SOL    HW1 8153   3.599   3.548   4.870
 2418SOL    HW2 8154   3.716   3.535   4.757
 2419SOL     OW 8155   0.371   6.744   4.726
 2419SOL    HW1 8156   0.327   6.655   4.734
 2419SOL    HW2 8157   0.460   6.741   4.773
 2420SOL     OW 8158   4.202   0.090   2.802
 2420SOL    HW1 8159   4.178   7.015   2.815
 2420SOL    HW2 8160   4.284   0.112   2.855
 2421SOL     OW 8161   2.457   1.095   4.413
 2421SOL    HW1 8162   2.457   1.188   4.449
 2421SOL    HW2 8163   2.548   1.054   4.426
 2422SOL     OW 8164   5.279   0.393   1.140
 2422SOL    HW1 8165   5.308   0.315   1.195
 2422SOL    HW2 8166   5.180   0.405   1.150
 2423SOL     OW 8167   1.262   5.975   2.560
 2423SOL    HW1 8168   1.181   5.915   2.560
 2423SOL    HW2 8169   1.248   6.049   2.625
 2424SOL     OW 8170   5.556   5.687   5.793
 2424SOL    HW1 8171   5.549   5.779   5.756
 2424SOL    HW2 8172   5.579   5.692   5.891
 2425SOL     OW 8173   6.189   6.647   4.609
 2425SOL    HW1 8174   6.278   6.675   4.646
 2425SOL    HW2 8175   6.173   6.692   4.522
 2426SOL     OW 8176   1.309   4.830   4.303
 2426SOL    HW1 8177   1.351   4.784   4.225
 2426SOL    HW2 8178   1.221   4.788   4.323
 2427SOL     OW 8179   5.954   5.412   6.714
 2427SOL    HW1 8180   6.009   5.350   6.658
 2427SOL    HW2 8181   5.864   5.371   6.730
 2428SOL     OW 8182   1.431   0.236   3.813
 2428SOL    HW1 8183   1.465   0.296   3.741
 2428SOL    HW2 8184   1.350   0.278   3.854
 2429SOL     OW 8185   6.468   5.092   3.263
 2429SOL    HW1 8186   6.476   5.032   3.184
 2429SOL    HW2 8187   6.371   5.103   3.288
 2430SOL     OW 8188   5.651   2.961   0.878
 2430SOL    HW1 8189   5.699   2.873   0.877
 2430SOL    HW2 8190   5.698   3.023   0.941
 2431SOL     OW 8191   4.010   0.467   2.148
 2431SOL    HW1 8192   4.069   0.404   2.098
 2431SOL    HW2 8193   3.979   0.540   2.086
 2432SOL     OW 8194   4.583   6.269   3.085
 2432SOL    HW1 8195   4.581   6.224   3.174
 2432SOL    HW2 8196   4.526   6.351   3.088
 2433SOL     OW 8197   2.827   6.797   0.098
 2433SOL    HW1 8198   2.918   6.827   0.127
 2433SOL    HW2 8199   2.779   6.758   0.177
 2434SOL     OW 8200   4.815   1.342   3.366
 2434SOL    HW1 8201   4.895   1.400   3.355
 2434SOL    HW2 8202   4.807   1.281   3.286
 2435SOL     OW 8203   4.621   5.589   0.335
 2435SOL    HW1 8204   4.579   5.650   0.268
 2435SOL    HW2 8205   4.584   5.609   0.426
 2436SOL     OW 8206   2.161   6.853   0.709
 2436SOL    HW1 8207   2.117   6.941   0.729
 2436SOL    HW2 8208   2.172   6.802   0.794
 2437SOL     OW 8209   5.110   5.633   1.158
 2437SOL    HW1 8210   5.160   5.649   1.072
 2437SOL    HW2 8211   5.155   5.560   1.209
 2438SOL     OW 8212   3.772   0.849   5.138
 2438SOL    HW1 8213   3.796   0.755   5.165
 2438SOL    HW2 8214   3.843   0.886   5.079
 2439SOL     OW 8215   1.196   4.008   6.964
 2439SOL    HW1 8216   1.283   4.016   6.915
 2439SOL    HW2 8217   1.181   4.091   7.019
 2440SOL     OW 8218   3.702   6.592   5.260
 2440SOL    HW1 8219   3.644   6.522   5.302
 2440SOL    HW2 8220   3.788   6.551   5.231
 2441SOL     OW 8221   6.333   1.341   0.445
 2441SOL    HW1 8222   6.393   1.412   0.481
 2441SOL    HW2 8223   6.361   1.317   0.352
 2442SOL     OW 8224   5.639   5.711   3.389
 2442SOL    HW1 8225   5.611   5.806   3.405
 2442SOL    HW2 8226   5.707   5.684   3.457
 2443SOL     OW 8227   3.270   0.361   6.336
 2443SOL    HW1 8228   3.261   0.443   6.281
 2443SOL    HW2 8229   3.180   0.328   6.363
 2444SOL     OW 8230   4.079   4.348   6.295
 2444SOL    HW1 8231   4.048   4.275   6.356
 2444SOL    HW2 8232   4.176   4.333   6.273
 2445SOL     OW 8233   6.615   0.685   1.878
 2445SOL    HW1 8234   6.559   0.767   1.884
 2445SOL    HW2 8235   6.698   0.704   1.825
 2446SOL     OW 8236   0.172   2.871   4.117
 2446SOL    HW1 8237   0.146   2.952   4.168
 2446SOL    HW2 8238   0.198   2.896   4.023
 2447SOL     OW 8239   2.755   0.868   1.143
 2447SOL    HW1 8240   2.783   0.964   1.134
 2447SOL    HW2 8241   2.783   0.817   1.062
 2448SOL     OW 8242   6.521   1.194   4.455
 2448SOL    HW1 8243   6.511   1.100   4.488
 2448SOL    HW2 8244   6.501   1.197   4.357
 2449SOL     OW 8245   6.879   4.153   3.262
 2449SOL    HW1 8246   6.795   4.099   3.269
 2449SOL    HW2 8247   6.862   4.236   3.210
 2450SOL     OW 8248   3.387   5.403   5.564
 2450SOL    HW1 8249   3.383   5.303   5.567
 2450SOL    HW2 8250   3.299   5.440   5.534
 2451SOL     OW 8251   0.839   0.498   3.523
 2451SOL    HW1 8252   0.915   0.466   3.466
 2451SOL    HW2 8253   0.861   0.483   3.620
 2452SOL     OW 8254   2.785   1.644   3.615
 2452SOL    HW1 8255   2.773   1.664   3.518
 2452SOL    HW2 8256   2.798   1.546   3.628
 2453SOL     OW 8257   6.856   3.811   0.653
 2453SOL    HW1 8258   6.926   3.875   0.685
 2453SOL    HW2 8259   6.817   3.763   0.732
 2454SOL     OW 8260   3.863   0.763   0.010
 2454SOL    HW1 8261   3.803   0.692   6.994
 2454SOL    HW2 8262   3.894   0.823   6.958
 2455SOL     OW 8263   4.304   0.206   0.551
 2455SOL    HW1 8264   4.257   0.196   0.639
 2455SOL    HW2 8265   4.295   0.300   0.519
 2456SOL     OW 8266   6.076   2.093   0.671
 2456SOL    HW1 8267   6.071   2.007   0.620
 2456SOL    HW2 8268   6.041   2.079   0.763
 2457SOL     OW 8269   6.976   0.051   6.418
 2457SOL    HW1 8270   6.886   0.083   6.447
 2457SOL    HW2 8271   6.971   0.016   6.324
 2458SOL     OW 8272   1.987   5.738   3.887
 2458SOL    HW1 8273   2.059   5.768   3.949
 2458SOL    HW2 8274   1.928   5.816   3.864
 2459SOL     OW 8275   2.456   6.043   5.836
 2459SOL    HW1 8276   2.399   6.113   5.793
 2459SOL    HW2 8277   2.476   6.070   5.930
 2460SOL     OW 8278   2.264   1.374   1.329
 2460SOL    HW1 8279   2.198   1.358   1.402
 2460SOL    HW2 8280   2.229   1.336   1.243
 2461SOL     OW 8281   4.729   1.296   2.993
 2461SOL    HW1 8282   4.713   1.238   3.073
 2461SOL    HW2 8283   4.655   1.362   2.984
 2462SOL     OW 8284   1.810   5.491   0.388
 2462SOL    HW1 8285   1.865   5.544   0.452
 2462SOL    HW2 8286   1.780   5.550   0.313
 2463SOL     OW 8287   6.442   2.115   5.741
 2463SOL    HW1 8288   6.460   2.152   5.832
 2463SOL    HW2 8289   6.374   2.173   5.695
 2464SOL     OW 8290   2.001   4.006   2.291
 2464SOL    HW1 8291   2.046   3.923   2.261
 2464SOL    HW2 8292   1.958   4.051   2.212
 2465SOL     OW 8293   0.787   0.258   1.242
 2465SOL    HW1 8294   0.853   0.331   1.226
 2465SOL    HW2 8295   0.792   0.228   1.338
 2466SOL     OW 8296   2.041   1.631   2.880
 2466SOL    HW1 8297   1.973   1.645   2.952
 2466SOL    HW2 8298   2.062   1.718   2.837
 2467SOL     OW 8299   5.139   1.291   5.282
 2467SOL    HW1 8300   5.085   1.251   5.356
 2467SOL    HW2 8301   5.109   1.252   5.195
 2468SOL     OW 8302   4.603   6.512   1.984
 2468SOL    HW1 8303   4.529   6.446   2.001
 2468SOL    HW2 8304   4.644   6.538   2.071
 2469SOL     OW 8305   3.997   4.375   5.775
 2469SOL    HW1 8306   4.092   4.367   5.745
 2469SOL    HW2 8307   3.942   4.304   5.731
 2470SOL     OW 8308   3.863   4.806   6.307
 2470SOL    HW1 8309   3.963   4.808   6.305
 2470SOL    HW2 8310   3.830   4.729   6.252
 2471SOL     OW 8311   2.793   6.174   0.601
 2471SOL    HW1 8312   2.874   6.209   0.648
 2471SOL    HW2 8313   2.712   6.224   0.631
 2472SOL     OW 8314   5.006   2.301   4.731
 2472SOL    HW1 8315   5.082   2.355   4.697
 2472SOL    HW2 8316   4.924   2.319   4.677
 2473SOL     OW 8317   2.118   3.998   4.849
 2473SOL    HW1 8318   2.044   4.048   4.894
 2473SOL    HW2 8319   2.194   3.988   4.913
 2474SOL     OW 8320   0.964   6.339   0.642
 2474SOL    HW1 8321   1.042   6.303   0.694
 2474SOL    HW2 8322   0.959   6.295   0.553
 2475SOL     OW 8323   4.546   1.298   2.253
 2475SOL    HW1 8324   4.448   1.280   2.240
 2475SOL    HW2 8325   4.599   1.222   2.215
 2476SOL     OW 8326   0.018   1.571   3.213
 2476SOL    HW1 8327   6.972   1.594   3.143
 2476SOL    HW2 8328   7.001   1.588   3.304
 2477SOL     OW 8329   4.802   1.305   1.998
 2477SOL    HW1 8330   4.860   1.349   2.067
 2477SOL    HW2 8331   4.753   1.228   2.039
 2478SOL     OW 8332   6.362   1.466   2.542
 2478SOL    HW1 8333   6.424   1.489   2.467
 2478SOL    HW2 8334   6.284   1.414   2.507
 2479SOL     OW 8335   1.267   3.909   1.663
 2479SOL    HW1 8336   1.327   3.830   1.673
 2479SOL    HW2 8337   1.181   3.881   1.620
 2480SOL     OW 8338   5.695   4.538   0.536
 2480SOL    HW1 8339   5.691   4.473   0.460
 2480SOL    HW2 8340   5.689   4.488   0.622
 2481SOL     OW 8341   2.160   0.774   6.851
 2481SOL    HW1 8342   2.142   0.704   6.782
 2481SOL    HW2 8343   2.117   0.860   6.822
 2482SOL     OW 8344   4.931   3.475   5.651
 2482SOL    HW1 8345   5.005   3.441   5.592
 2482SOL    HW2 8346   4.924   3.574   5.640
 2483SOL     OW 8347   1.864   2.127   6.689
 2483SOL    HW1 8348   1.770   2.160   6.698
 2483SOL    HW2 8349   1.924   2.180   6.748
 2484SOL     OW 8350   3.296   0.650   0.392
 2484SOL    HW1 8351   3.240   0.576   0.357
 2484SOL    HW2 8352   3.241   0.733   0.400
 2485SOL     OW 8353   5.787   3.967   1.306
 2485SOL    HW1 8354   5.727   3.918   1.242
 2485SOL    HW2 8355   5.777   3.928   1.397
 2486SOL     OW 8356   1.900   5.046   4.573
 2486SOL    HW1 8357   1.965   4.977   4.540
 2486SOL    HW2 8358   1.816   5.001   4.604
 2487SOL     OW 8359   3.454   5.904   6.788
 2487SOL    HW1 8360   3.526   5.882   6.722
 2487SOL    HW2 8361   3.386   5.963   6.745
 2488SOL     OW 8362   2.044   4.414   2.251
 2488SOL    HW1 8363   1.975   4.392   2.183
 2488SOL    HW2 8364   2.028   4.506   2.287
 2489SOL     OW 8365   1.111   5.530   3.033
 2489SOL    HW1 8366   1.100   5.586   2.950
 2489SOL    HW2 8367   1.152   5.442   3.009
 2490SOL     OW 8368   6.622   4.847   1.491
 2490SOL    HW1 8369   6.663   4.869   1.580
 2490SOL    HW2 8370   6.588   4.754   1.492
 2491SOL     OW 8371   2.878   5.351   1.084
 2491SOL    HW1 8372   2.932   5.393   1.012
 2491SOL    HW2 8373   2.799   5.305   1.044
 2492SOL     OW 8374   4.326   2.363   0.392
 2492SOL    HW1 8375   4.335   2.432   0.464
 2492SOL    HW2 8376   4.395   2.379   0.322
 2493SOL     OW 8377   6.191   1.032   2.403
 2493SOL    HW1 8378   6.091   1.025   2.402
 2493SOL    HW2 8379   6.229   0.970   2.333
 2494SOL     OW 8380   5.931   3.977   1.881
 2494SOL    HW1 8381   5.873   3.979   1.963
 2494SOL    HW2 8382   6.005   3.912   1.895
 2495SOL     OW 8383   5.169   0.748   4.344
 2495SOL    HW1 8384   5.097   0.774   4.409
 2495SOL    HW2 8385   5.131   0.743   4.252
 2496SOL     OW 8386   0.686   4.354   5.608
 2496SOL    HW1 8387   0.698   4.369   5.510
 2496SOL    HW2 8388   0.593   4.319   5.625
 2497SOL     OW 8389   0.144   0.324   1.042
 2497SOL    HW1 8390   0.176   0.240   0.998
 2497SOL    HW2 8391   0.148   0.313   1.141
 2498SOL     OW 8392   3.220   1.706   4.278
 2498SOL    HW1 8393   3.242   1.611   4.298
 2498SOL    HW2 8394   3.230   1.761   4.361
 2499SOL     OW 8395   5.484   1.960   4.202
 2499SOL    HW1 8396   5.513   1.866   4.221
 2499SOL    HW2 8397   5.562   2.022   4.209
 2500SOL     OW 8398   4.285   2.850   6.911
 2500SOL    HW1 8399   4.227   2.777   6.947
 2500SOL    HW2 8400   4.365   2.810   6.866
 2501SOL     OW 8401   6.030   5.749   0.016
 2501SOL    HW1 8402   5.950   5.806   0.036
 2501SOL    HW2 8403   6.006   5.653   0.026
 2502SOL     OW 8404   2.317   5.653   2.776
 2502SOL    HW1 8405   2.262   5.733   2.750
 2502SOL    HW2 8406   2.310   5.638   2.875
 2503SOL     OW 8407   3.120   5.627   4.772
 2503SOL    HW1 8408   3.209   5.595   4.739
 2503SOL    HW2 8409   3.048   5.574   4.729
 2504SOL     OW 8410   2.835   5.066   4.730
 2504SOL    HW1 8411   2.902   5.112   4.788
 2504SOL    HW2 8412   2.846   5.096   4.635
 2505SOL     OW 8413   1.746   5.977   3.939
 2505SOL    HW1 8414   1.661   5.926   3.953
 2505SOL    HW2 8415   1.779   5.963   3.846
 2506SOL     OW 8416   6.060   3.008   6.392
 2506SOL    HW1 8417   6.018   3.087   6.349
 2506SOL    HW2 8418   6.101   3.035   6.479
 2507SOL     OW 8419   0.858   4.545   0.514
 2507SOL    HW1 8420   0.899   4.541   0.605
 2507SOL    HW2 8421   0.801   4.465   0.499
 2508SOL     OW 8422   2.759   1.295   1.948
 2508SOL    HW1 8423   2.778   1.197   1.956
 2508SOL    HW2 8424   2.798   1.330   1.863
 2509SOL     OW 8425   6.096   2.960   2.375
 2509SOL    HW1 8426   6.155   2.946   2.454
 2509SOL    HW2 8427   6.104   2.883   2.313
 2510SOL     OW 8428   3.320   4.390   1.409
 2510SOL    HW1 8429   3.299   4.292   1.410
 2510SOL    HW2 8430   3.374   4.412   1.328
 2511SOL     OW 8431   2.872   1.371   3.640
 2511SOL    HW1 8432   2.855   1.327   3.552
 2511SOL    HW2 8433   2.967   1.356   3.667
 2512SOL     OW 8434   4.799   4.717   4.569
 2512SOL    HW1 8435   4.886   4.747   4.529
 2512SOL    HW2 8436   4.736   4.690   4.496
 2513SOL     OW 8437   1.100   3.446   4.859
 2513SOL    HW1 8438   1.130   3.485   4.772
 2513SOL    HW2 8439   1.179   3.430   4.918
 2514SOL     OW 8440   6.595   3.426   4.216
 2514SOL    HW1 8441   6.666   3.497   4.219
 2514SOL    HW2 8442   6.628   3.348   4.163
 2515SOL     OW 8443   1.383   6.554   0.865
 2515SOL    HW1 8444   1.421   6.633   0.816
 2515SOL    HW2 8445   1.441   6.534   0.944
 2516SOL     OW 8446   5.829   0.669   3.395
 2516SOL    HW1 8447   5.914   0.617   3.393
 2516SOL    HW2 8448   5.764   0.627   3.459
 2517SOL     OW 8449   0.588   4.929   5.928
 2517SOL    HW1 8450   0.492   4.914   5.952
 2517SOL    HW2 8451   0.611   5.025   5.943
 2518SOL     OW 8452   2.029   3.456   0.157
 2518SOL    HW1 8453   2.088   3.464   0.237
 2518SOL    HW2 8454   1.964   3.533   0.155
 2519SOL     OW 8455   5.220   6.452   3.547
 2519SOL    HW1 8456   5.138   6.442   3.603
 2519SOL    HW2 8457   5.288   6.384   3.576
 2520SOL     OW 8458   1.214   2.718   0.196
 2520SOL    HW1 8459   1.206   2.654   0.273
 2520SOL    HW2 8460   1.137   2.781   0.197
 2521SOL     OW 8461   1.246   5.781   5.577
 2521SOL    HW1 8462   1.197   5.698   5.604
 2521SOL    HW2 8463   1.195   5.861   5.608
 2522SOL     OW 8464   0.111   3.351   5.898
 2522SOL    HW1 8465   0.187   3.387   5.844
 2522SOL    HW2 8466   0.024   3.380   5.858
 2523SOL     OW 8467   0.317   3.048   2.093
 2523SOL    HW1 8468   0.354   3.027   2.184
 2523SOL    HW2 8469   0.217   3.056   2.100
 2524SOL     OW 8470   0.703   5.214   5.687
 2524SOL    HW1 8471   0.662   5.301   5.658
 2524SOL    HW2 8472   0.668   5.140   5.630
 2525SOL     OW 8473   0.430   2.812   4.195
 2525SOL    HW1 8474   0.331   2.805   4.199
 2525SOL    HW2 8475   0.470   2.722   4.213
 2526SOL     OW 8476   1.961   4.427   5.462
 2526SOL    HW1 8477   1.959   4.386   5.370
 2526SOL    HW2 8478   1.942   4.525   5.455
 2527SOL     OW 8479   5.178   6.184   5.052
 2527SOL    HW1 8480   5.139   6.275   5.067
 2527SOL    HW2 8481   5.113   6.114   5.084
 2528SOL     OW 8482   5.808   4.433   1.048
 2528SOL    HW1 8483   5.796   4.352   1.106
 2528SOL    HW2 8484   5.858   4.503   1.099
 2529SOL     OW 8485   6.991   6.154   6.716
 2529SOL    HW1 8486   0.015   6.066   6.700
 2529SOL    HW2 8487   6.993   6.174   6.814
 2530SOL     OW 8488   1.615   6.952   4.824
 2530SOL    HW1 8489   1.708   6.917   4.811
 2530SOL    HW2 8490   1.549   6.883   4.794
 2531SOL     OW 8491   4.910   6.062   4.254
 2531SOL    HW1 8492   4.988   6.028   4.201
 2531SOL    HW2 8493   4.898   6.006   4.335
 2532SOL     OW 8494   1.037   5.654   0.822
 2532SOL    HW1 8495   1.011   5.730   0.762
 2532SOL    HW2 8496   0.968   5.643   0.894
 2533SOL     OW 8497   3.511   0.046   3.204
 2533SOL    HW1 8498   3.586   0.107   3.232
 2533SOL    HW2 8499   3.530   0.011   3.112
 2534SOL     OW 8500   2.854   0.868   2.895
 2534SOL    HW1 8501   2.928   0.881   2.960
 2534SOL    HW2 8502   2.857   0.941   2.826
 2535SOL     OW 8503   2.837   2.770   6.642
 2535SOL    HW1 8504   2.764   2.799   6.580
 2535SOL    HW2 8505   2.797   2.722   6.720
 2536SOL     OW 8506   6.269   1.997   3.910
 2536SOL    HW1 8507   6.334   2.067   3.942
 2536SOL    HW2 8508   6.319   1.911   3.893
 2537SOL     OW 8509   5.113   6.732   6.552
 2537SOL    HW1 8510   5.069   6.683   6.476
 2537SOL    HW2 8511   5.043   6.777   6.607
 2538SOL     OW 8512   1.305   4.367   4.508
 2538SOL    HW1 8513   1.340   4.456   4.537
 2538SOL    HW2 8514   1.242   4.331   4.577
 2539SOL     OW 8515   5.469   0.593   5.940
 2539SOL    HW1 8516   5.445   0.598   5.843
 2539SOL    HW2 8517   5.537   0.521   5.954
 2540SOL     OW 8518   4.359   0.798   2.805
 2540SOL    HW1 8519   4.266   0.808   2.841
 2540SOL    HW2 8520   4.355   0.783   2.706
 2541SOL     OW 8521   1.714   6.536   5.427
 2541SOL    HW1 8522   1.813   6.542   5.431
 2541SOL    HW2 8523   1.673   6.606   5.485
 2542SOL     OW 8524   5.023   1.306   6.224
 2542SOL    HW1 8525   5.096   1.342   6.282
 2542SOL    HW2 8526   4.970   1.383   6.187
 2543SOL     OW 8527   2.287   2.024   2.806
 2543SOL    HW1 8528   2.301   2.055   2.900
 2543SOL    HW2 8529   2.207   1.964   2.802
 2544SOL     OW 8530   0.081   5.194   1.224
 2544SOL    HW1 8531   0.021   5.129   1.270
 2544SOL    HW2 8532   0.173   5.189   1.265
 2545SOL     OW 8533   1.959   0.684   1.161
 2545SOL    HW1 8534   1.917   0.656   1.075
 2545SOL    HW2 8535   1.896   0.664   1.237
 2546SOL     OW 8536   6.881   2.612   1.711
 2546SOL    HW1 8537   6.793   2.653   1.686
 2546SOL    HW2 8538   6.868   2.516   1.736
 2547SOL     OW 8539   5.911   4.575   0.001
 2547SOL    HW1 8540   5.957   4.622   6.946
 2547SOL    HW2 8541   5.862   4.496   6.988
 2548SOL     OW 8542   2.752   6.744   5.525
 2548SOL    HW1 8543   2.725   6.660   5.478
 2548SOL    HW2 8544   2.671   6.791   5.559
 2549SOL     OW 8545   1.981   0.970   1.113
 2549SOL    HW1 8546   1.942   0.958   1.022
 2549SOL    HW2 8547   1.984   0.882   1.160
 2550SOL     OW 8548   0.110   0.449   6.380
 2550SOL    HW1 8549   0.180   0.518   6.402
 2550SOL    HW2 8550   0.032   0.493   6.336
 2551SOL     OW 8551   3.128   5.393   0.294
 2551SOL    HW1 8552   3.174   5.372   0.380
 2551SOL    HW2 8553   3.107   5.308   0.246
 2552SOL     OW 8554   0.928   5.533   6.271
 2552SOL    HW1 8555   0.952   5.582   6.188
 2552SOL    HW2 8556   0.975   5.575   6.349
 2553SOL     OW 8557   3.481   3.468   6.965
 2553SOL    HW1 8558   3.390   3.497   6.934
 2553SOL    HW2 8559   3.551   3.517   6.913
 2554SOL     OW 8560   1.503   6.268   6.378
 2554SOL    HW1 8561   1.533   6.223   6.462
 2554SOL    HW2 8562   1.534   6.215   6.299
 2555SOL     OW 8563   6.287   6.400   6.153
 2555SOL    HW1 8564   6.241   6.313   6.133
 2555SOL    HW2 8565   6.219   6.467   6.184
 2556SOL     OW 8566   4.108   5.719   0.476
 2556SOL    HW1 8567   4.134   5.623   0.468
 2556SOL    HW2 8568   4.015   5.732   0.441
 2557SOL     OW 8569   2.554   2.592   6.278
 2557SOL    HW1 8570   2.627   2.559   6.218
 2557SOL    HW2 8571   2.472   2.536   6.264
 2558SOL     OW 8572   4.212   3.523   5.790
 2558SOL    HW1 8573   4.286   3.481   5.842
 2558SOL    HW2 8574   4.228   3.509   5.692
 2559SOL     OW 8575   6.408   3.343   4.801
 2559SOL    HW1 8576   6.332   3.302   4.851
 2559SOL    HW2 8577   6.381   3.434   4.768
 2560SOL     OW 8578   5.810   3.534   4.483
 2560SOL    HW1 8579   5.852   3.624   4.497
 2560SOL    HW2 8580   5.754   3.535   4.400
 2561SOL     OW 8581   3.026   0.311   3.882
 2561SOL    HW1 8582   2.940   0.283   3.838
 2561SOL    HW2 8583   3.082   0.231   3.901
 2562SOL     OW 8584   2.056   5.536   2.302
 2562SOL    HW1 8585   2.092   5.623   2.337
 2562SOL    HW2 8586   1.972   5.513   2.351
 2563SOL     OW 8587   4.365   1.857   0.074
 2563SOL    HW1 8588   4.433   1.795   0.035
 2563SOL    HW2 8589   4.278   1.845   0.026
 2564SOL     OW 8590   1.130   6.614   6.648
 2564SOL    HW1 8591   1.086   6.697   6.613
 2564SOL    HW2 8592   1.193   6.579   6.578
 2565SOL     OW 8593   0.242   0.909   0.333
 2565SOL    HW1 8594   0.145   0.926   0.350
 2565SOL    HW2 8595   0.294   0.928   0.417
 2566SOL     OW 8596   1.737   6.849   1.253
 2566SOL    HW1 8597   1.808   6.905   1.210
 2566SOL    HW2 8598   1.766   6.822   1.345
 2567SOL     OW 8599   1.332   1.272   1.444
 2567SOL    HW1 8600   1.315   1.324   1.528
 2567SOL    HW2 8601   1.419   1.223   1.452
 2568SOL     OW 8602   3.299   7.000   6.496
 2568SOL    HW1 8603   3.298   6.900   6.504
 2568SOL    HW2 8604   3.271   0.005   6.404
 2569SOL     OW 8605   2.748   0.378   1.630
 2569SOL    HW1 8606   2.780   0.371   1.535
 2569SOL    HW2 8607   2.805   0.321   1.689
 2570SOL     OW 8608   6.236   0.443   0.177
 2570SOL    HW1 8609   6.200   0.513   0.238
 2570SOL    HW2 8610   6.317   0.401   0.217
 2571SOL     OW 8611   2.092   3.521   5.469
 2571SOL    HW1 8612   2.149   3.472   5.404
 2571SOL    HW2 8613   2.013   3.465   5.493
 2572SOL     OW 8614   2.307   6.088   0.802
 2572SOL    HW1 8615   2.294   6.109   0.705
 2572SOL    HW2 8616   2.218   6.087   0.848
 2573SOL     OW 8617   6.608   1.760   2.196
 2573SOL    HW1 8618   6.687   1.715   2.237
 2573SOL    HW2 8619   6.639   1.838   2.142
 2574SOL     OW 8620   5.962   3.041   0.335
 2574SOL    HW1 8621   5.973   3.129   0.288
 2574SOL    HW2 8622   6.032   2.977   0.303
 2575SOL     OW 8623   4.808   5.450   0.184
 2575SOL    HW1 8624   4.878   5.442   0.254
 2575SOL    HW2 8625   4.744   5.523   0.208
 2576SOL     OW 8626   4.114   6.722   4.255
 2576SOL    HW1 8627   4.024   6.703   4.217
 2576SOL    HW2 8628   4.172   6.765   4.186
 2577SOL     OW 8629   4.119   6.594   2.318
 2577SOL    HW1 8630   4.066   6.678   2.320
 2577SOL    HW2 8631   4.182   6.596   2.240
 2578SOL     OW 8632   4.647   2.047   4.293
 2578SOL    HW1 8633   4.653   2.133   4.242
 2578SOL    HW2 8634   4.738   2.019   4.321
 2579SOL     OW 8635   1.058   0.422   3.094
 2579SOL    HW1 8636   1.152   0.388   3.085
 2579SOL    HW2 8637   1.015   0.424   3.004
 2580SOL     OW 8638   2.248   2.685   6.814
 2580SOL    HW1 8639   2.251   2.585   6.813
 2580SOL    HW2 8640   2.163   2.717   6.773
 2581SOL     OW 8641   6.765   4.250   0.986
 2581SOL    HW1 8642   6.708   4.259   0.904
 2581SOL    HW2 8643   6.713   4.281   1.065
 2582SOL     OW 8644   0.830   4.071   2.112
 2582SOL    HW1 8645   0.767   4.058   2.035
 2582SOL    HW2 8646   0.924   4.065   2.079
 2583SOL     OW 8647   0.558   1.580   1.244
 2583SOL    HW1 8648   0.562   1.614   1.338
 2583SOL    HW2 8649   0.470   1.535   1.229
 2584SOL     OW 8650   3.924   5.758   0.291
 2584SOL    HW1 8651   3.954   5.820   0.219
 2584SOL    HW2 8652   3.844   5.706   0.259
 2585SOL     OW 8653   4.092   2.510   0.883
 2585SOL    HW1 8654   3.996   2.505   0.911
 2585SOL    HW2 8655   4.106   2.593   0.829
 2586SOL     OW 8656   3.460   1.394   3.696
 2586SOL    HW1 8657   3.500   1.417   3.785
 2586SOL    HW2 8658   3.462   1.295   3.683
 2587SOL     OW 8659   0.199   0.637   3.738
 2587SOL    HW1 8660   0.223   0.540   3.728
 2587SOL    HW2 8661   0.114   0.655   3.689
 2588SOL     OW 8662   4.751   0.195   6.918
 2588SOL    HW1 8663   4.676   0.261   6.916
 2588SOL    HW2 8664   4.771   0.169   7.012
 2589SOL     OW 8665   0.068   5.942   6.470
 2589SOL    HW1 8666   0.028   5.851   6.469
 2589SOL    HW2 8667   0.102   5.963   6.561
 2590SOL     OW 8668   3.329   6.295   1.934
 2590SOL    HW1 8669   3.357   6.273   2.028
 2590SOL    HW2 8670   3.287   6.215   1.892
 2591SOL     OW 8671   6.907   5.961   2.199
 2591SOL    HW1 8672   6.818   5.943   2.242
 2591SOL    HW2 8673   6.955   5.875   2.183
 2592SOL     OW 8674   3.353   6.468   1.255
 2592SOL    HW1 8675   3.402   6.407   1.192
 2592SOL    HW2 8676   3.346   6.425   1.345
 2593SOL     OW 8677   2.799   6.038   0.900
 2593SOL    HW1 8678   2.727   5.990   0.851
 2593SOL    HW2 8679   2.772   6.049   0.996
 2594SOL     OW 8680   0.454   5.634   5.966
 2594SOL    HW1 8681   0.443   5.718   6.019
 2594SOL    HW2 8682   0.478   5.559   6.028
 2595SOL     OW 8683   6.413   1.613   4.841
 2595SOL    HW1 8684   6.431   1.527   4.794
 2595SOL    HW2 8685   6.388   1.683   4.775
 2596SOL     OW 8686   3.879   1.923   1.807
 2596SOL    HW1 8687   3.803   1.982   1.782
 2596SOL    HW2 8688   3.950   1.927   1.737
 2597SOL     OW 8689   1.555   4.060   6.375
 2597SOL    HW1 8690   1.598   3.973   6.400
 2597SOL    HW2 8691   1.510   4.050   6.286
 2598SOL     OW 8692   6.181   1.303   4.312
 2598SOL    HW1 8693   6.268   1.346   4.287
 2598SOL    HW2 8694   6.187   1.267   4.405
 2599SOL     OW 8695   2.569   0.021   0.745
 2599SOL    HW1 8696   2.665   0.002   0.766
 2599SOL    HW2 8697   2.548   7.007   0.654
 2600SOL     OW 8698   5.061   3.326   4.348
 2600SOL    HW1 8699   4.984   3.298   4.404
 2600SOL    HW2 8700   5.113   3.246   4.319
 2601SOL     OW 8701   1.890   2.284   0.184
 2601SOL    HW1 8702   1.927   2.208   0.236
 2601SOL    HW2 8703   1.964   2.328   0.132
 2602SOL     OW 8704   6.390   4.851   3.972
 2602SOL    HW1 8705   6.341   4.800   3.902
 2602SOL    HW2 8706   6.447   4.921   3.929
 2603SOL     OW 8707   2.212   1.854   1.601
 2603SOL    HW1 8708   2.223   1.811   1.511
 2603SOL    HW2 8709   2.221   1.784   1.672
 2604SOL     OW 8710   4.979   1.458   3.080
 2604SOL    HW1 8711   5.035   1.377   3.098
 2604SOL    HW2 8712   4.899   1.432   3.027
 2605SOL     OW 8713   2.292   4.348   2.857
 2605SOL    HW1 8714   2.336   4.375   2.942
 2605SOL    HW2 8715   2.210   4.405   2.842
 2606SOL     OW 8716   6.760   4.575   1.535
 2606SOL    HW1 8717   6.710   4.537   1.457
 2606SOL    HW2 8718   6.827   4.642   1.502
 2607SOL     OW 8719   6.875   1.235   0.106
 2607SOL    HW1 8720   6.848   1.326   0.074
 2607SOL    HW2 8721   6.946   1.244   0.176
 2608SOL     OW 8722   4.895   4.787   1.296
 2608SOL    HW1 8723   4.899   4.802   1.197
 2608SOL    HW2 8724   4.920   4.693   1.316
 2609SOL     OW 8725   6.814   1.760   1.293
 2609SOL    HW1 8726   6.815   1.761   1.193
 2609SOL    HW2 8727   6.767   1.677   1.324
 2610SOL     OW 8728   0.163   4.727   4.482
 2610SOL    HW1 8729   0.209   4.795   4.425
 2610SOL    HW2 8730   0.198   4.636   4.459
 2611SOL     OW 8731   4.526   6.338   0.680
 2611SOL    HW1 8732   4.471   6.397   0.621
 2611SOL    HW2 8733   4.471   6.306   0.757
 2612SOL     OW 8734   6.844   6.998   5.605
 2612SOL    HW1 8735   6.891   6.989   5.517
 2612SOL    HW2 8736   6.897   0.035   5.666
 2613SOL     OW 8737   2.774   6.925   6.856
 2613SOL    HW1 8738   2.748   6.855   6.788
 2613SOL    HW2 8739   2.752   6.891   6.948
 2614SOL     OW 8740   0.108   0.558   6.064
 2614SOL    HW1 8741   0.200   0.533   6.095
 2614SOL    HW2 8742   0.060   0.606   6.138
 2615SOL     OW 8743   6.943   2.753   3.062
 2615SOL    HW1 8744   6.872   2.810   3.102
 2615SOL    HW2 8745   6.908   2.660   3.049
 2616SOL     OW 8746   3.837   2.995   5.121
 2616SOL    HW1 8747   3.761   3.059   5.133
 2616SOL    HW2 8748   3.848   2.974   5.024
 2617SOL     OW 8749   3.290   6.347   0.609
 2617SOL    HW1 8750   3.353   6.372   0.683
 2617SOL    HW2 8751   3.327   6.377   0.522
 2618SOL     OW 8752   0.000   0.289   4.195
 2618SOL    HW1 8753   0.025   0.333   4.108
 2618SOL    HW2 8754   6.922   0.281   4.200
 2619SOL     OW 8755   4.204   1.731   3.408
 2619SOL    HW1 8756   4.220   1.830   3.417
 2619SOL    HW2 8757   4.114   1.715   3.369
 2620SOL     OW 8758   0.258   6.887   2.985
 2620SOL    HW1 8759   0.260   6.984   3.009
 2620SOL    HW2 8760   0.165   6.851   2.997
 2621SOL     OW 8761   1.328   6.114   3.074
 2621SOL    HW1 8762   1.340   6.193   3.015
 2621SOL    HW2 8763   1.282   6.143   3.158
 2622SOL     OW 8764   1.896   2.869   5.698
 2622SOL    HW1 8765   1.877   2.869   5.600
 2622SOL    HW2 8766   1.977   2.814   5.717
 2623SOL     OW 8767   2.186   1.567   5.442
 2623SOL    HW1 8768   2.207   1.591   5.347
 2623SOL    HW2 8769   2.096   1.524   5.447
 2624SOL     OW 8770   6.774   2.312   5.530
 2624SOL    HW1 8771   6.731   2.223   5.543
 2624SOL    HW2 8772   6.803   2.320   5.434
 2625SOL     OW 8773   2.369   2.614   5.324
 2625SOL    HW1 8774   2.323   2.701   5.302
 2625SOL    HW2 8775   2.330   2.541   5.267
 2626SOL     OW 8776   0.672   0.036   5.996
 2626SOL    HW1 8777   0.720   0.117   5.963
 2626SOL    HW2 8778   0.616   7.020   5.922
 2627SOL     OW 8779   1.584   1.349   5.614
 2627SOL    HW1 8780   1.523   1.390   5.547
 2627SOL    HW2 8781   1.657   1.412   5.636
 2628SOL     OW 8782   2.204   4.790   6.280
 2628SOL    HW1 8783   2.190   4.853   6.204
 2628SOL    HW2 8784   2.277   4.725   6.257
 2629SOL     OW 8785   2.575   3.364   1.299
 2629SOL    HW1 8786   2.614   3.363   1.207
 2629SOL    HW2 8787   2.630   3.423   1.358
 2630SOL     OW 8788   2.860   2.013   2.444
 2630SOL    HW1 8789   2.943   2.066   2.428
 2630SOL    HW2 8790   2.784   2.075   2.466
 2631SOL     OW 8791   5.602   0.808   5.349
 2631SOL    HW1 8792   5.691   0.796   5.392
 2631SOL    HW2 8793   5.551   0.880   5.397
 2632SOL     OW 8794   3.846   2.591   6.405
 2632SOL    HW1 8795   3.923   2.606   6.466
 2632SOL    HW2 8796   3.858   2.646   6.322
 2633SOL     OW 8797   6.939   1.127   4.643
 2633SOL    HW1 8798   6.856   1.174   4.674
 2633SOL    HW2 8799   6.914   1.038   4.605
 2634SOL     OW 8800   0.739   4.582   3.396
 2634SOL    HW1 8801   0.788   4.540   3.320
 2634SOL    HW2 8802   0.801   4.595   3.473
 2635SOL     OW 8803   6.050   6.489   5.491
 2635SOL    HW1 8804   5.988   6.542   5.434
 2635SOL    HW2 8805   6.134   6.541   5.506
 2636SOL     OW 8806   4.586   0.676   5.359
 2636SOL    HW1 8807   4.639   0.643   5.437
 2636SOL    HW2 8808   4.493   0.697   5.388
 2637SOL     OW 8809   4.831   1.524   3.622
 2637SOL    HW1 8810   4.839   1.619   3.654
 2637SOL    HW2 8811   4.912   1.501   3.567
 2638SOL     OW 8812   6.900   0.382   3.557
 2638SOL    HW1 8813   6.829   0.317   3.530
 2638SOL    HW2 8814   6.867   0.475   3.542
 2639SOL     OW 8815   0.761   6.084   1.001
 2639SOL    HW1 8816   0.671   6.039   0.995
 2639SOL    HW2 8817   0.805   6.059   1.088
 2640SOL     OW 8818   0.571   5.846   5.189
 2640SOL    HW1 8819   0.633   5.800   5.253
 2640SOL    HW2 8820   0.611   5.933   5.160
 2641SOL     OW 8821   5.216   3.453   2.629
 2641SOL    HW1 8822   5.168   3.516   2.691
 2641SOL    HW2 8823   5.150   3.395   2.582
 2642SOL     OW 8824   4.224   6.923   3.780
 2642SOL    HW1 8825   4.143   6.872   3.807
 2642SOL    HW2 8826   4.267   6.962   3.862
 2643SOL     OW 8827   0.159   4.105   3.287
 2643SOL    HW1 8828   0.062   4.129   3.273
 2643SOL    HW2 8829   0.213   4.189   3.290
 2644SOL     OW 8830   5.790   6.155   5.615
 2644SOL    HW1 8831   5.858   6.108   5.559
 2644SOL    HW2 8832   5.766   6.098   5.693
 2645SOL     OW 8833   4.353   5.578   4.617
 2645SOL    HW1 8834   4.375   5.483   4.635
 2645SOL    HW2 8835   4.315   5.587   4.525
 2646SOL     OW 8836   6.301   0.657   6.783
 2646SOL    HW1 8837   6.311   0.696   6.874
 2646SOL    HW2 8838   6.216   0.604   6.778
 2647SOL     OW 8839   6.921   0.131   2.353
 2647SOL    HW1 8840   7.010   0.145   2.396
 2647SOL    HW2 8841   6.882   0.220   2.328
 2648SOL     OW 8842   0.737   0.102   4.272
 2648SOL    HW1 8843   0.764   0.006   4.269
 2648SOL    HW2 8844   0.726   0.137   4.179
 2649SOL     OW 8845   5.360   3.012   0.104
 2649SOL    HW1 8846   5.414   2.955   0.042
 2649SOL    HW2 8847   5.285   2.957   0.142
 2650SOL     OW 8848   0.915   4.192   4.489
 2650SOL    HW1 8849   0.988   4.210   4.555
 2650SOL    HW2 8850   0.894   4.276   4.438
 2651SOL     OW 8851   1.094   1.099   0.622
 2651SOL    HW1 8852   1.179   1.153   0.616
 2651SOL    HW2 8853   1.117   1.003   0.636
 2652SOL     OW 8854   4.153   3.437   4.282
 2652SOL    HW1 8855   4.148   3.452   4.380
 2652SOL    HW2 8856   4.166   3.525   4.235
 2653SOL     OW 8857   4.979   0.132   5.067
 2653SOL    HW1 8858   4.885   0.149   5.041
 2653SOL    HW2 8859   4.993   0.157   5.163
 2654SOL     OW 8860   4.461   6.145   2.292
 2654SOL    HW1 8861   4.481   6.185   2.381
 2654SOL    HW2 8862   4.546   6.110   2.251
 2655SOL     OW 8863   4.653   6.366   4.190
 2655SOL    HW1 8864   4.562   6.405   4.202
 2655SOL    HW2 8865   4.706   6.425   4.129
 2656SOL     OW 8866   3.475   5.092   4.336
 2656SOL    HW1 8867   3.410   5.020   4.313
 2656SOL    HW2 8868   3.505   5.080   4.431
 2657SOL     OW 8869   0.955   3.799   6.213
 2657SOL    HW1 8870   0.884   3.773   6.278
 2657SOL    HW2 8871   0.958   3.899   6.206
 2658SOL     OW 8872   5.118   4.552   0.752
 2658SOL    HW1 8873   5.208   4.594   0.742
 2658SOL    HW2 8874   5.077   4.584   0.838
 2659SOL     OW 8875   5.478   3.058   4.339
 2659SOL    HW1 8876   5.529   2.982   4.380
 2659SOL    HW2 8877   5.414   3.021   4.271
 2660SOL     OW 8878   1.652   0.174   1.684
 2660SOL    HW1 8879   1.683   0.177   1.589
 2660SOL    HW2 8880   1.552   0.171   1.687
 2661SOL     OW 8881   2.499   6.894   0.953
 2661SOL    HW1 8882   2.501   6.802   0.912
 2661SOL    HW2 8883   2.496   6.962   0.880
 2662SOL     OW 8884   4.880   6.847   4.665
 2662SOL    HW1 8885   4.944   6.788   4.715
 2662SOL    HW2 8886   4.925   6.885   4.584
 2663SOL     OW 8887   3.011   3.954   6.836
 2663SOL    HW1 8888   3.021   3.873   6.895
 2663SOL    HW2 8889   2.915   3.980   6.833
 2664SOL     OW 8890   4.383   4.117   5.334
 2664SOL    HW1 8891   4.385   4.107   5.433
 2664SOL    HW2 8892   4.458   4.175   5.304
 2665SOL     OW 8893   2.580   2.782   5.335
 2665SOL    HW1 8894   2.512   2.709   5.325
 2665SOL    HW2 8895   2.551   2.862   5.282
 2666SOL     OW 8896   5.624   4.455   1.372
 2666SOL    HW1 8897   5.665   4.544   1.351
 2666SOL    HW2 8898   5.670   4.415   1.451
 2667SOL     OW 8899   0.196   6.505   3.856
 2667SOL    HW1 8900   0.186   6.412   3.891
 2667SOL    HW2 8901   0.289   6.537   3.872
 2668SOL     OW 8902   0.335   3.151   4.483
 2668SOL    HW1 8903   0.415   3.102   4.448
 2668SOL    HW2 8904   0.336   3.245   4.450
 2669SOL     OW 8905   2.650   4.512   5.302
 2669SOL    HW1 8906   2.737   4.530   5.256
 2669SOL    HW2 8907   2.662   4.524   5.401
 2670SOL     OW 8908   6.264   3.392   6.428
 2670SOL    HW1 8909   6.235   3.413   6.334
 2670SOL    HW2 8910   6.299   3.299   6.431
 2671SOL     OW 8911   4.391   5.585   5.696
 2671SOL    HW1 8912   4.380   5.650   5.771
 2671SOL    HW2 8913   4.368   5.493   5.729
 2672SOL     OW 8914   1.552   5.066   1.029
 2672SOL    HW1 8915   1.515   5.065   1.122
 2672SOL    HW2 8916   1.641   5.112   1.029
 2673SOL     OW 8917   6.046   0.544   3.599
 2673SOL    HW1 8918   6.006   0.491   3.673
 2673SOL    HW2 8919   6.103   0.484   3.542
 2674SOL     OW 8920   1.341   4.420   3.687
 2674SOL    HW1 8921   1.381   4.498   3.639
 2674SOL    HW2 8922   1.330   4.344   3.623
 2675SOL     OW 8923   6.790   5.492   3.322
 2675SOL    HW1 8924   6.787   5.553   3.402
 2675SOL    HW2 8925   6.711   5.431   3.324
 2676SOL     OW 8926   3.846   2.653   0.617
 2676SOL    HW1 8927   3.770   2.658   0.551
 2676SOL    HW2 8928   3.915   2.721   0.593
 2677SOL     OW 8929   2.936   3.595   0.442
 2677SOL    HW1 8930   3.032   3.608   0.468
 2677SOL    HW2 8931   2.930   3.522   0.373
 2678SOL     OW 8932   0.348   2.665   1.644
 2678SOL    HW1 8933   0.316   2.667   1.549
 2678SOL    HW2 8934   0.434   2.716   1.652
 2679SOL     OW 8935   3.476   4.713   0.760
 2679SOL    HW1 8936   3.379   4.709   0.782
 2679SOL    HW2 8937   3.505   4.808   0.755
 2680SOL     OW 8938   0.883   1.706   0.867
 2680SOL    HW1 8939   0.787   1.731   0.865
 2680SOL    HW2 8940   0.910   1.681   0.960
 2681SOL     OW 8941   1.344   2.654   4.073
 2681SOL    HW1 8942   1.332   2.683   4.168
 2681SOL    HW2 8943   1.312   2.726   4.012
 2682SOL     OW 8944   4.776   4.050   2.706
 2682SOL    HW1 8945   4.708   4.092   2.646
 2682SOL    HW2 8946   4.863   4.098   2.695
 2683SOL     OW 8947   2.491   5.201   1.407
 2683SOL    HW1 8948   2.558   5.271   1.432
 2683SOL    HW2 8949   2.430   5.184   1.484
 2684SOL     OW 8950   4.456   5.829   1.555
 2684SOL    HW1 8951   4.489   5.734   1.552
 2684SOL    HW2 8952   4.421   5.849   1.646
 2685SOL     OW 8953   6.142   6.597   6.210
 2685SOL    HW1 8954   6.046   6.594   6.180
 2685SOL    HW2 8955   6.148   6.646   6.297
 2686SOL     OW 8956   1.747   2.228   5.931
 2686SOL    HW1 8957   1.839   2.212   5.966
 2686SOL    HW2 8958   1.681   2.217   6.006
 2687SOL     OW 8959   4.939   4.541   2.061
 2687SOL    HW1 8960   4.850   4.497   2.048
 2687SOL    HW2 8961   4.989   4.539   1.974
 2688SOL     OW 8962   4.045   4.238   6.877
 2688SOL    HW1 8963   3.994   4.304   6.821
 2688SOL    HW2 8964   4.025   4.254   6.974
 2689SOL     OW 8965   1.605   3.989   3.427
 2689SOL    HW1 8966   1.601   3.901   3.473
 2689SOL    HW2 8967   1.643   3.978   3.336
 2690SOL     OW 8968   3.317   3.330   4.058
 2690SOL    HW1 8969   3.237   3.281   4.023
 2690SOL    HW2 8970   3.336   3.409   4.000
 2691SOL     OW 8971   1.848   5.397   2.410
 2691SOL    HW1 8972   1.858   5.298   2.424
 2691SOL    HW2 8973   1.759   5.427   2.445
 2692SOL     OW 8974   3.518   5.327   2.795
 2692SOL    HW1 8975   3.520   5.227   2.801
 2692SOL    HW2 8976   3.447   5.362   2.855
 2693SOL     OW 8977   2.538   5.535   2.971
 2693SOL    HW1 8978   2.537   5.441   3.004
 2693SOL    HW2 8979   2.450   5.578   2.989
 2694SOL     OW 8980   4.023   6.031   3.016
 2694SOL    HW1 8981   4.084   6.103   3.050
 2694SOL    HW2 8982   3.969   6.067   2.940
 2695SOL     OW 8983   5.815   0.356   2.531
 2695SOL    HW1 8984   5.848   0.307   2.450
 2695SOL    HW2 8985   5.814   0.454   2.512
 2696SOL     OW 8986   3.899   3.435   5.251
 2696SOL    HW1 8987   3.983   3.383   5.270
 2696SOL    HW2 8988   3.875   3.425   5.155
 2697SOL     OW 8989   3.156   1.768   2.660
 2697SOL    HW1 8990   3.218   1.841   2.630
 2697SOL    HW2 8991   3.088   1.751   2.589
 2698SOL     OW 8992   2.203   6.491   0.235
 2698SOL    HW1 8993   2.163   6.579   0.209
 2698SOL    HW2 8994   2.174   6.420   0.171
 2699SOL     OW 8995   2.724   6.675   0.305
 2699SOL    HW1 8996   2.755   6.676   0.400
 2699SOL    HW2 8997   2.641   6.620   0.297
 2700SOL     OW 8998   2.102   3.782   0.289
 2700SOL    HW1 8999   2.183   3.837   0.267
 2700SOL    HW2 9000   2.129   3.687   0.307
 2701SOL     OW 9001   5.566   1.636   5.790
 2701SOL    HW1 9002   5.515   1.558   5.755
 2701SOL    HW2 9003   5.504   1.695   5.842
 2702SOL     OW 9004   0.592   3.149   3.595
 2702SOL    HW1 9005   0.523   3.173   3.662
 2702SOL    HW2 9006   0.648   3.230   3.574
 2703SOL     OW 9007   1.311   0.124   1.333
 2703SOL    HW1 9008   1.308   0.026   1.310
 2703SOL    HW2 9009   1.321   0.134   1.432
 2704SOL     OW 9010   6.783   5.677   1.305
 2704SOL    HW1 9011   6.738   5.642   1.387
 2704SOL    HW2 9012   6.876   5.639   1.300
 2705SOL     OW 9013   0.015   5.892   4.589
 2705SOL    HW1 9014   6.974   5.835   4.643
 2705SOL    HW2 9015   0.106   5.889   4.629
 2706SOL     OW 9016   0.358   6.346   1.547
 2706SOL    HW1 9017   0.261   6.366   1.564
 2706SOL    HW2 9018   0.386   6.389   1.461
 2707SOL     OW 9019   3.720   6.845   4.247
 2707SOL    HW1 9020   3.753   6.802   4.331
 2707SOL    HW2 9021   3.743   6.942   4.249
 2708SOL     OW 9022   0.250   2.417   0.016
 2708SOL    HW1 9023   0.278   2.321   0.021
 2708SOL    HW2 9024   0.308   2.466   6.973
 2709SOL     OW 9025   5.973   0.124   6.945
 2709SOL    HW1 9026   5.954   0.203   7.004
 2709SOL    HW2 9027   6.040   0.064   6.990
 2710SOL     OW 9028   0.799   3.766   3.629
 2710SOL    HW1 9029   0.851   3.704   3.688
 2710SOL    HW2 9030   0.850   3.781   3.544
 2711SOL     OW 9031   2.588   0.828   3.469
 2711SOL    HW1 9032   2.652   0.821   3.392
 2711SOL    HW2 9033   2.567   0.737   3.503
 2712SOL     OW 9034   2.893   4.528   1.129
 2712SOL    HW1 9035   2.991   4.521   1.107
 2712SOL    HW2 9036   2.850   4.439   1.116
 2713SOL     OW 9037   2.502   2.452   4.568
 2713SOL    HW1 9038   2.447   2.371   4.585
 2713SOL    HW2 9039   2.546   2.481   4.653
 2714SOL     OW 9040   3.319   2.051   0.559
 2714SOL    HW1 9041   3.229   2.014   0.537
 2714SOL    HW2 9042   3.343   2.122   0.493
 2715SOL     OW 9043   4.926   1.670   0.811
 2715SOL    HW1 9044   5.024   1.689   0.815
 2715SOL    HW2 9045   4.908   1.606   0.737
 2716SOL     OW 9046   5.031   4.167   2.085
 2716SOL    HW1 9047   4.933   4.182   2.071
 2716SOL    HW2 9048   5.052   4.170   2.182
 2717SOL     OW 9049   0.951   6.246   2.501
 2717SOL    HW1 9050   0.948   6.179   2.576
 2717SOL    HW2 9051   0.866   6.298   2.499
 2718SOL     OW 9052   1.779   1.927   4.709
 2718SOL    HW1 9053   1.804   1.957   4.617
 2718SOL    HW2 9054   1.777   1.827   4.712
 2719SOL     OW 9055   6.958   5.411   1.158
 2719SOL    HW1 9056   6.868   5.373   1.178
 2719SOL    HW2 9057   0.007   5.344   1.181
 2720SOL     OW 9058   2.049   6.206   1.862
 2720SOL    HW1 9059   2.022   6.124   1.913
 2720SOL    HW2 9060   2.045   6.286   1.922
 2721SOL     OW 9061   2.688   7.002   3.165
 2721SOL    HW1 9062   2.689   0.015   3.071
 2721SOL    HW2 9063   2.781   6.977   3.192
 2722SOL     OW 9064   6.998   5.496   0.647
 2722SOL    HW1 9065   6.983   5.575   0.708
 2722SOL    HW2 9066   0.017   5.528   0.561
 2723SOL     OW 9067   0.546   0.053   6.426
 2723SOL    HW1 9068   0.596   0.068   6.511
 2723SOL    HW2 9069   0.563   0.129   6.363
 2724SOL     OW 9070   1.620   6.596   0.131
 2724SOL    HW1 9071   1.652   6.660   0.061
 2724SOL    HW2 9072   1.697   6.562   0.184
 2725SOL     OW 9073   5.028   5.276   4.427
 2725SOL    HW1 9074   5.090   5.243   4.498
 2725SOL    HW2 9075   5.069   5.355   4.381
 2726SOL     OW 9076   0.139   2.565   0.979
 2726SOL    HW1 9077   0.175   2.496   1.043
 2726SOL    HW2 9078   0.177   2.654   1.003
 2727SOL     OW 9079   0.406   5.327   3.025
 2727SOL    HW1 9080   0.422   5.236   2.987
 2727SOL    HW2 9081   0.320   5.328   3.076
 2728SOL     OW 9082   4.859   6.585   5.738
 2728SOL    HW1 9083   4.873   6.490   5.710
 2728SOL    HW2 9084   4.769   6.616   5.707
 2729SOL     OW 9085   0.027   5.773   0.699
 2729SOL    HW1 9086   0.033   5.871   0.719
 2729SOL    HW2 9087   0.108   5.745   0.648
 2730SOL     OW 9088   1.483   5.651   1.590
 2730SOL    HW1 9089   1.474   5.718   1.517
 2730SOL    HW2 9090   1.474   5.559   1.552
 2731SOL     OW 9091   4.083   3.741   3.218
 2731SOL    HW1 9092   4.119   3.709   3.131
 2731SOL    HW2 9093   4.124   3.689   3.293
 2732SOL     OW 9094   5.532   2.092   1.641
 2732SOL    HW1 9095   5.586   2.160   1.591
 2732SOL    HW2 9096   5.473   2.043   1.577
 2733SOL     OW 9097   6.624   0.871   4.836
 2733SOL    HW1 9098   6.718   0.903   4.847
 2733SOL    HW2 9099   6.584   0.852   4.926
 2734SOL     OW 9100   2.682   5.998   1.196
 2734SOL    HW1 9101   2.589   6.025   1.171
 2734SOL    HW2 9102   2.706   6.040   1.284
 2735SOL     OW 9103   1.300   3.540   2.389
 2735SOL    HW1 9104   1.234   3.495   2.449
 2735SOL    HW2 9105   1.381   3.566   2.442
 2736SOL     OW 9106   4.711   6.867   5.443
 2736SOL    HW1 9107   4.635   6.803   5.433
 2736SOL    HW2 9108   4.710   6.932   5.366
 2737SOL     OW 9109   3.481   3.523   6.030
 2737SOL    HW1 9110   3.561   3.473   5.997
 2737SOL    HW2 9111   3.472   3.511   6.128
 2738SOL     OW 9112   4.912   6.259   2.385
 2738SOL    HW1 9113   4.825   6.281   2.427
 2738SOL    HW2 9114   4.986   6.302   2.437
 2739SOL     OW 9115   6.996   5.014   1.402
 2739SOL    HW1 9116   6.965   5.028   1.496
 2739SOL    HW2 9117   0.005   4.919   1.390
 2740SOL     OW 9118   0.000   3.896   2.313
 2740SOL    HW1 9119   0.021   3.976   2.370
 2740SOL    HW2 9120   0.049   3.904   2.226
 2741SOL     OW 9121   6.383   0.300   4.843
 2741SOL    HW1 9122   6.303   0.315   4.902
 2741SOL    HW2 9123   6.391   0.375   4.778
 2742SOL     OW 9124   2.348   5.496   6.768
 2742SOL    HW1 9125   2.410   5.507   6.690
 2742SOL    HW2 9126   2.304   5.584   6.787
 2743SOL     OW 9127   6.820   4.928   2.037
 2743SOL    HW1 9128   6.863   4.926   2.127
 2743SOL    HW2 9129   6.766   4.845   2.024
 2744SOL     OW 9130   5.368   1.917   6.386
 2744SOL    HW1 9131   5.360   1.903   6.287
 2744SOL    HW2 9132   5.420   2.001   6.403
 2745SOL     OW 9133   6.946   6.895   6.217
 2745SOL    HW1 9134   0.004   6.885   6.157
 2745SOL    HW2 9135   6.926   6.807   6.260
 2746SOL     OW 9136   2.469   1.917   3.686
 2746SOL    HW1 9137   2.418   2.003   3.678
 2746SOL    HW2 9138   2.516   1.898   3.600
 2747SOL     OW 9139   6.377   3.779   6.400
 2747SOL    HW1 9140   6.443   3.703   6.403
 2747SOL    HW2 9141   6.408   3.848   6.334
 2748SOL     OW 9142   5.340   1.338   1.147
 2748SOL    HW1 9143   5.412   1.370   1.209
 2748SOL    HW2 9144   5.254   1.331   1.198
 2749SOL     OW 9145   6.853   4.902   2.325
 2749SOL    HW1 9146   6.911   4.973   2.365
 2749SOL    HW2 9147   6.781   4.877   2.390
 2750SOL     OW 9148   0.733   5.380   1.172
 2750SOL    HW1 9149   0.823   5.346   1.146
 2750SOL    HW2 9150   0.726   5.384   1.271
 2751SOL     OW 9151   1.035   5.471   1.669
 2751SOL    HW1 9152   1.074   5.381   1.687
 2751SOL    HW2 9153   1.075   5.507   1.585
 2752SOL     OW 9154   4.183   5.192   5.776
 2752SOL    HW1 9155   4.218   5.265   5.835
 2752SOL    HW2 9156   4.171   5.109   5.829
 2753SOL     OW 9157   0.363   6.162   5.518
 2753SOL    HW1 9158   0.435   6.179   5.452
 2753SOL    HW2 9159   0.363   6.065   5.544
 2754SOL     OW 9160   0.515   0.488   2.599
 2754SOL    HW1 9161   0.449   0.520   2.530
 2754SOL    HW2 9162   0.532   0.390   2.585
 2755SOL     OW 9163   2.301   6.725   2.929
 2755SOL    HW1 9164   2.397   6.750   2.913
 2755SOL    HW2 9165   2.241   6.786   2.877
 2756SOL     OW 9166   5.936   4.655   6.672
 2756SOL    HW1 9167   5.853   4.702   6.703
 2756SOL    HW2 9168   5.928   4.634   6.575
 2757SOL     OW 9169   2.592   0.230   6.701
 2757SOL    HW1 9170   2.671   0.184   6.741
 2757SOL    HW2 9171   2.521   0.164   6.681
 2758SOL     OW 9172   4.247   6.186   4.059
 2758SOL    HW1 9173   4.286   6.165   3.969
 2758SOL    HW2 9174   4.304   6.254   4.104
 2759SOL     OW 9175   5.069   5.909   5.068
 2759SOL    HW1 9176   5.053   5.836   5.002
 2759SOL    HW2 9177   5.043   5.878   5.159
 2760SOL     OW 9178   0.599   5.607   2.381
 2760SOL    HW1 9179   0.694   5.581   2.364
 2760SOL    HW2 9180   0.592   5.707   2.381
 2761SOL     OW 9181   1.771   4.723   4.848
 2761SOL    HW1 9182   1.679   4.682   4.848
 2761SOL    HW2 9183   1.772   4.803   4.788
 2762SOL     OW 9184   1.803   0.346   5.798
 2762SOL    HW1 9185   1.865   0.405   5.745
 2762SOL    HW2 9186   1.822   0.357   5.895
 2763SOL     OW 9187   4.794   2.420   3.900
 2763SOL    HW1 9188   4.758   2.331   3.929
 2763SOL    HW2 9189   4.725   2.490   3.916
 2764SOL     OW 9190   6.509   0.979   1.241
 2764SOL    HW1 9191   6.558   1.049   1.293
 2764SOL    HW2 9192   6.474   1.019   1.156
 2765SOL     OW 9193   6.662   0.354   0.269
 2765SOL    HW1 9194   6.755   0.345   0.304
 2765SOL    HW2 9195   6.652   0.297   0.187
 2766SOL     OW 9196   4.962   2.747   0.525
 2766SOL    HW1 9197   4.956   2.845   0.507
 2766SOL    HW2 9198   4.992   2.731   0.619
 2767SOL     OW 9199   6.362   4.909   0.412
 2767SOL    HW1 9200   6.437   4.971   0.434
 2767SOL    HW2 9201   6.396   4.815   0.407
 2768SOL     OW 9202   4.330   0.846   1.052
 2768SOL    HW1 9203   4.337   0.925   1.112
 2768SOL    HW2 9204   4.240   0.843   1.010
 2769SOL     OW 9205   1.819   4.997   5.685
 2769SOL    HW1 9206   1.874   4.919   5.714
 2769SOL    HW2 9207   1.878   5.077   5.675
 2770SOL     OW 9208   4.095   5.707   5.958
 2770SOL    HW1 9209   4.189   5.737   5.940
 2770SOL    HW2 9210   4.095   5.610   5.983
 2771SOL     OW 9211   6.149   0.768   3.707
 2771SOL    HW1 9212   6.073   0.821   3.745
 2771SOL    HW2 9213   6.113   0.699   3.643
 2772SOL     OW 9214   3.901   2.047   0.812
 2772SOL    HW1 9215   3.919   2.145   0.813
 2772SOL    HW2 9216   3.922   2.010   0.721
 2773SOL     OW 9217   5.957   1.876   4.529
 2773SOL    HW1 9218   5.919   1.863   4.620
 2773SOL    HW2 9219   5.984   1.971   4.517
 2774SOL     OW 9220   5.113   2.935   3.212
 2774SOL    HW1 9221   5.084   2.840   3.225
 2774SOL    HW2 9222   5.093   2.965   3.119
 2775SOL     OW 9223   6.594   4.101   5.258
 2775SOL    HW1 9224   6.630   4.183   5.301
 2775SOL    HW2 9225   6.552   4.042   5.327
 2776SOL     OW 9226   4.654   4.789   6.070
 2776SOL    HW1 9227   4.622   4.822   5.981
 2776SOL    HW2 9228   4.745   4.750   6.060
 2777SOL     OW 9229   2.872   1.678   1.204
 2777SOL    HW1 9230   2.891   1.630   1.290
 2777SOL    HW2 9231   2.844   1.772   1.224
 2778SOL     OW 9232   1.602   6.867   5.357
 2778SOL    HW1 9233   1.515   6.910   5.332
 2778SOL    HW2 9234   1.590   6.812   5.439
 2779SOL     OW 9235   5.223   6.595   2.045
 2779SOL    HW1 9236   5.127   6.596   2.074
 2779SOL    HW2 9237   5.263   6.685   2.058
 2780SOL     OW 9238   0.721   6.843   0.052
 2780SOL    HW1 9239   0.626   6.868   0.033
 2780SOL    HW2 9240   0.724   6.750   0.089
 2781SOL     OW 9241   5.931   0.530   2.139
 2781SOL    HW1 9242   6.004   0.480   2.093
 2781SOL    HW2 9243   5.968   0.610   2.185
 2782SOL     OW 9244   4.798   1.603   5.182
 2782SOL    HW1 9245   4.741   1.584   5.262
 2782SOL    HW2 9246   4.767   1.687   5.139
 2783SOL     OW 9247   5.100   4.055   2.676
 2783SOL    HW1 9248   5.170   3.983   2.680
 2783SOL    HW2 9249   5.107   4.113   2.758
 2784SOL     OW 9250   3.362   1.449   2.205
 2784SOL    HW1 9251   3.394   1.514   2.274
 2784SOL    HW2 9252   3.430   1.377   2.193
 2785SOL     OW 9253   5.516   2.492   0.885
 2785SOL    HW1 9254   5.529   2.566   0.952
 2785SOL    HW2 9255   5.518   2.531   0.793
 2786SOL     OW 9256   5.036   0.042   2.830
 2786SOL    HW1 9257   5.134   0.024   2.835
 2786SOL    HW2 9258   5.020   0.134   2.793
 2787SOL     OW 9259   5.519   0.284   6.189
 2787SOL    HW1 9260   5.430   0.241   6.175
 2787SOL    HW2 9261   5.548   0.270   6.284
 2788SOL     OW 9262   1.513   5.758   5.685
 2788SOL    HW1 9263   1.425   5.779   5.641
 2788SOL    HW2 9264   1.539   5.833   5.745
 2789SOL     OW 9265   0.981   2.284   4.204
 2789SOL    HW1 9266   1.065   2.258   4.157
 2789SOL    HW2 9267   0.979   2.383   4.216
 2790SOL     OW 9268   3.827   5.793   2.190
 2790SOL    HW1 9269   3.763   5.865   2.161
 2790SOL    HW2 9270   3.812   5.711   2.137
 2791SOL     OW 9271   0.813   2.579   2.961
 2791SOL    HW1 9272   0.875   2.636   2.906
 2791SOL    HW2 9273   0.742   2.636   3.000
 2792SOL     OW 9274   1.776   0.554   3.884
 2792SOL    HW1 9275   1.784   0.631   3.821
 2792SOL    HW2 9276   1.867   0.522   3.910
 2793SOL     OW 9277   5.094   4.101   1.485
 2793SOL    HW1 9278   5.102   4.060   1.394
 2793SOL    HW2 9279   5.169   4.166   1.499
 2794SOL     OW 9280   0.097   1.768   6.231
 2794SOL    HW1 9281   0.082   1.669   6.239
 2794SOL    HW2 9282   0.044   1.816   6.300
 2795SOL     OW 9283   0.933   3.305   0.735
 2795SOL    HW1 9284   0.967   3.347   0.820
 2795SOL    HW2 9285   0.924   3.206   0.748
 2796SOL     OW 9286   0.540   6.463   3.097
 2796SOL    HW1 9287   0.629   6.454   3.140
 2796SOL    HW2 9288   0.472   6.410   3.148
 2797SOL     OW 9289   4.842   5.477   4.686
 2797SOL    HW1 9290   4.802   5.391   4.653
 2797SOL    HW2 9291   4.816   5.550   4.623
 2798SOL     OW 9292   0.094   5.305   1.974
 2798SOL    HW1 9293   0.082   5.398   1.937
 2798SOL    HW2 9294   0.005   5.262   1.987
 2799SOL     OW 9295   5.994   5.777   5.870
 2799SOL    HW1 9296   5.932   5.708   5.907
 2799SOL    HW2 9297   6.058   5.806   5.941
 2800SOL     OW 9298   4.765   6.165   6.604
 2800SOL    HW1 9299   4.859   6.173   6.638
 2800SOL    HW2 9300   4.753   6.078   6.557
 2801SOL     OW 9301   6.642   5.710   5.678
 2801SOL    HW1 9302   6.661   5.672   5.587
 2801SOL    HW2 9303   6.722   5.759   5.711
 2802SOL     OW 9304   5.516   6.078   5.482
 2802SOL    HW1 9305   5.595   6.138   5.465
 2802SOL    HW2 9306   5.464   6.067   5.398
 2803SOL     OW 9307   4.210   5.501   6.148
 2803SOL    HW1 9308   4.253   5.450   6.222
 2803SOL    HW2 9309   4.253   5.476   6.061
 2804SOL     OW 9310   0.344   4.470   5.482
 2804SOL    HW1 9311   0.246   4.465   5.498
 2804SOL    HW2 9312   0.391   4.403   5.539
 2805SOL     OW 9313   6.083   3.666   2.311
 2805SOL    HW1 9314   6.009   3.658   2.378
 2805SOL    HW2 9315   6.171   3.666   2.359
 2806SOL     OW 9316   0.496   4.086   5.825
 2806SOL    HW1 9317   0.494   4.039   5.914
 2806SOL    HW2 9318   0.476   4.020   5.752
 2807SOL     OW 9319   3.630   0.154   4.349
 2807SOL    HW1 9320   3.557   0.174   4.284
 2807SOL    HW2 9321   3.718   0.149   4.302
 2808SOL     OW 9322   6.593   5.046   1.932
 2808SOL    HW1 9323   6.685   5.053   1.970
 2808SOL    HW2 9324   6.529   5.020   2.004
 2809SOL     OW 9325   5.392   2.838   0.875
 2809SOL    HW1 9326   5.458   2.912   0.859
 2809SOL    HW2 9327   5.423   2.781   0.951
 2810SOL     OW 9328   3.215   5.725   3.234
 2810SOL    HW1 9329   3.220   5.761   3.141
 2810SOL    HW2 9330   3.214   5.801   3.299
 2811SOL     OW 9331   0.905   2.078   4.383
 2811SOL    HW1 9332   0.950   2.153   4.335
 2811SOL    HW2 9333   0.893   2.102   4.479
 2812SOL     OW 9334   5.056   2.895   6.886
 2812SOL    HW1 9335   5.018   2.854   6.969
 2812SOL    HW2 9336   5.004   2.977   6.862
 2813SOL     OW 9337   0.865   0.582   6.481
 2813SOL    HW1 9338   0.819   0.528   6.410
 2813SOL    HW2 9339   0.874   0.527   6.564
 2814SOL     OW 9340   3.629   3.939   5.747
 2814SOL    HW1 9341   3.628   3.886   5.662
 2814SOL    HW2 9342   3.568   4.017   5.737
 2815SOL     OW 9343   6.687   5.881   6.501
 2815SOL    HW1 9344   6.687   5.980   6.492
 2815SOL    HW2 9345   6.613   5.854   6.562
 2816SOL     OW 9346   6.471   5.824   3.518
 2816SOL    HW1 9347   6.385   5.873   3.536
 2816SOL    HW2 9348   6.469   5.787   3.425
 2817SOL     OW 9349   3.416   0.213   1.808
 2817SOL    HW1 9350   3.370   0.275   1.745
 2817SOL    HW2 9351   3.383   0.229   1.901
 2818SOL     OW 9352   0.646   0.554   2.110
 2818SOL    HW1 9353   0.589   0.473   2.095
 2818SOL    HW2 9354   0.592   0.636   2.092
 2819SOL     OW 9355   2.227   0.717   1.669
 2819SOL    HW1 9356   2.162   0.693   1.742
 2819SOL    HW2 9357   2.183   0.780   1.605
 2820SOL     OW 9358   0.933   2.207   3.494
 2820SOL    HW1 9359   0.902   2.302   3.493
 2820SOL    HW2 9360   0.861   2.148   3.531
 2821SOL     OW 9361   3.484   4.434   6.067
 2821SOL    HW1 9362   3.520   4.419   5.975
 2821SOL    HW2 9363   3.539   4.382   6.133
 2822SOL     OW 9364   3.628   1.897   0.708
 2822SOL    HW1 9365   3.714   1.942   0.733
 2822SOL    HW2 9366   3.555   1.965   0.703
 2823SOL     OW 9367   5.334   0.732   0.965
 2823SOL    HW1 9368   5.369   0.785   1.043
 2823SOL    HW2 9369   5.237   0.754   0.951
 2824SOL     OW 9370   2.480   1.231   4.146
 2824SOL    HW1 9371   2.556   1.218   4.081
 2824SOL    HW2 9372   2.477   1.154   4.209
 2825SOL     OW 9373   5.031   6.189   6.670
 2825SOL    HW1 9374   5.072   6.139   6.746
 2825SOL    HW2 9375   5.056   6.286   6.677
 2826SOL     OW 9376   4.698   1.554   6.766
 2826SOL    HW1 9377   4.790   1.562   6.726
 2826SOL    HW2 9378   4.636   1.512   6.699
 2827SOL     OW 9379   0.822   1.401   6.697
 2827SOL    HW1 9380   0.728   1.433   6.683
 2827SOL    HW2 9381   0.883   1.448   6.633
 2828SOL     OW 9382   2.393   2.033   0.146
 2828SOL    HW1 9383   2.414   1.961   0.080
 2828SOL    HW2 9384   2.297   2.058   0.140
 2829SOL     OW 9385   2.914   3.320   4.553
 2829SOL    HW1 9386   2.917   3.234   4.603
 2829SOL    HW2 9387   2.964   3.311   4.467
 2830SOL     OW 9388   3.140   3.981   5.352
 2830SOL    HW1 9389   3.062   3.926   5.382
 2830SOL    HW2 9390   3.156   3.965   5.254
 2831SOL     OW 9391   0.797   4.246   3.288
 2831SOL    HW1 9392   0.802   4.250   3.388
 2831SOL    HW2 9393   0.852   4.320   3.249
 2832SOL     OW 9394   0.983   2.972   1.547
 2832SOL    HW1 9395   1.042   2.893   1.527
 2832SOL    HW2 9396   0.889   2.942   1.557
 2833SOL     OW 9397   2.615   1.659   2.262
 2833SOL    HW1 9398   2.602   1.623   2.354
 2833SOL    HW2 9399   2.530   1.702   2.230
 2834SOL     OW 9400   4.253   6.641   6.142
 2834SOL    HW1 9401   4.229   6.737   6.130
 2834SOL    HW2 9402   4.333   6.634   6.203
 2835SOL     OW 9403   0.519   6.074   1.300
 2835SOL    HW1 9404   0.511   6.056   1.398
 2835SOL    HW2 9405   0.544   6.170   1.285
 2836SOL     OW 9406   0.734   6.606   1.769
 2836SOL    HW1 9407   0.703   6.524   1.817
 2836SOL    HW2 9408   0.834   6.612   1.774
 2837SOL     OW 9409   4.716   4.453   2.312
 2837SOL    HW1 9410   4.659   4.526   2.350
 2837SOL    HW2 9411   4.812   4.471   2.334
 2838SOL     OW 9412   3.899   4.194   1.116
 2838SOL    HW1 9413   3.809   4.239   1.115
 2838SOL    HW2 9414   3.943   4.206   1.027
 2839SOL     OW 9415   6.934   2.123   2.793
 2839SOL    HW1 9416   6.891   2.206   2.758
 2839SOL    HW2 9417   6.954   2.133   2.890
 2840SOL     OW 9418   1.716   0.246   1.967
 2840SOL    HW1 9419   1.644   0.233   2.035
 2840SOL    HW2 9420   1.694   0.194   1.884
 2841SOL     OW 9421   6.859   1.168   6.131
 2841SOL    HW1 9422   6.826   1.082   6.092
 2841SOL    HW2 9423   6.941   1.197   6.083
 2842SOL     OW 9424   6.797   4.683   3.963
 2842SOL    HW1 9425   6.807   4.782   3.951
 2842SOL    HW2 9426   6.888   4.641   3.962
 2843SOL     OW 9427   2.126   2.266   3.231
 2843SOL    HW1 9428   2.141   2.341   3.166
 2843SOL    HW2 9429   2.213   2.239   3.272
 2844SOL     OW 9430   6.266   5.537   0.047
 2844SOL    HW1 9431   6.169   5.515   0.045
 2844SOL    HW2 9432   6.319   5.463   0.006
 2845SOL     OW 9433   5.840   3.305   2.280
 2845SOL    HW1 9434   5.903   3.286   2.204
 2845SOL    HW2 9435   5.749   3.323   2.244
 2846SOL     OW 9436   4.097   0.625   7.019
 2846SOL    HW1 9437   4.026   0.690   0.027
 2846SOL    HW2 9438   4.085   0.538   0.046
 2847SOL     OW 9439   5.472   4.298   3.109
 2847SOL    HW1 9440   5.389   4.242   3.108
 2847SOL    HW2 9441   5.528   4.277   3.029
 2848SOL     OW 9442   1.884   2.354   5.215
 2848SOL    HW1 9443   1.912   2.301   5.135
 2848SOL    HW2 9444   1.889   2.295   5.296
 2849SOL     OW 9445   4.290   0.747   0.732
 2849SOL    HW1 9446   4.253   0.670   0.784
 2849SOL    HW2 9447   4.360   0.793   0.786
 2850SOL     OW 9448   2.130   6.940   2.616
 2850SOL    HW1 9449   2.142   6.946   2.517
 2850SOL    HW2 9450   2.131   6.843   2.643
 2851SOL     OW 9451   5.428   2.208   5.751
 2851SOL    HW1 9452   5.376   2.202   5.837
 2851SOL    HW2 9453   5.447   2.304   5.731
 2852SOL     OW 9454   6.889   4.316   6.750
 2852SOL    HW1 9455   6.964   4.275   6.697
 2852SOL    HW2 9456   6.804   4.268   6.729
 2853SOL     OW 9457   1.811   2.030   6.325
 2853SOL    HW1 9458   1.876   1.988   6.387
 2853SOL    HW2 9459   1.787   2.122   6.358
 2854SOL     OW 9460   4.627   0.917   5.732
 2854SOL    HW1 9461   4.721   0.892   5.709
 2854SOL    HW2 9462   4.622   0.940   5.829
 2855SOL     OW 9463   2.042   1.848   5.803
 2855SOL    HW1 9464   1.997   1.929   5.763
 2855SOL    HW2 9465   2.141   1.857   5.794
 2856SOL     OW 9466   0.355   3.580   5.715
 2856SOL    HW1 9467   0.425   3.513   5.691
 2856SOL    HW2 9468   0.360   3.600   5.812
 2857SOL     OW 9469   1.858   2.899   1.485
 2857SOL    HW1 9470   1.795   2.833   1.526
 2857SOL    HW2 9471   1.806   2.962   1.427
 2858SOL     OW 9472   4.410   5.152   1.925
 2858SOL    HW1 9473   4.448   5.229   1.976
 2858SOL    HW2 9474   4.459   5.068   1.950
 2859SOL     OW 9475   6.143   6.940   0.063
 2859SOL    HW1 9476   6.115   6.960   0.157
 2859SOL    HW2 9477   6.092   6.860   0.029
 2860SOL     OW 9478   2.251   1.619   1.713
 2860SOL    HW1 9479   2.349   1.613   1.694
 2860SOL    HW2 9480   2.211   1.528   1.710
 2861SOL     OW 9481   3.278   5.161   6.053
 2861SOL    HW1 9482   3.240   5.077   6.015
 2861SOL    HW2 9483   3.263   5.237   5.989
 2862SOL     OW 9484   4.085   1.733   2.205
 2862SOL    HW1 9485   4.014   1.701   2.141
 2862SOL    HW2 9486   4.115   1.656   2.261
 2863SOL     OW 9487   4.540   1.657   6.994
 2863SOL    HW1 9488   4.586   1.608   6.920
 2863SOL    HW2 9489   4.514   1.592   0.045
 2864SOL     OW 9490   5.141   2.196   1.653
 2864SOL    HW1 9491   5.070   2.182   1.723
 2864SOL    HW2 9492   5.209   2.124   1.659
 2865SOL     OW 9493   4.340   6.311   4.534
 2865SOL    HW1 9494   4.320   6.389   4.474
 2865SOL    HW2 9495   4.346   6.342   4.628
 2866SOL     OW 9496   5.501   5.281   6.557
 2866SOL    HW1 9497   5.506   5.371   6.600
 2866SOL    HW2 9498   5.504   5.210   6.628
 2867SOL     OW 9499   6.094   6.281   2.816
 2867SOL    HW1 9500   6.162   6.355   2.826
 2867SOL    HW2 9501   6.006   6.320   2.789
 2868SOL     OW 9502   1.966   1.421   5.441
 2868SOL    HW1 9503   1.867   1.432   5.435
 2868SOL    HW2 9504   1.989   1.323   5.444
 2869SOL     OW 9505   0.045   0.900   2.984
 2869SOL    HW1 9506   0.078   0.941   3.069
 2869SOL    HW2 9507   6.968   0.915   2.976
 2870SOL     OW 9508   0.142   1.863   5.683
 2870SOL    HW1 9509   0.131   1.810   5.599
 2870SOL    HW2 9510   0.094   1.817   5.758
 2871SOL     OW 9511   6.327   1.303   6.863
 2871SOL    HW1 9512   6.356   1.392   6.896
 2871SOL    HW2 9513   6.326   1.303   6.763
 2872SOL     OW 9514   2.543   2.244   1.605
 2872SOL    HW1 9515   2.578   2.290   1.523
 2872SOL    HW2 9516   2.620   2.206   1.656
 2873SOL     OW 9517   0.091   5.674   2.456
 2873SOL    HW1 9518   0.109   5.771   2.471
 2873SOL    HW2 9519   0.162   5.619   2.499
 2874SOL     OW 9520   4.947   0.190   3.174
 2874SOL    HW1 9521   4.881   0.265   3.167
 2874SOL    HW2 9522   5.038   0.224   3.153
 2875SOL     OW 9523   5.310   0.564   1.848
 2875SOL    HW1 9524   5.383   0.600   1.906
 2875SOL    HW2 9525   5.343   0.481   1.802
 2876SOL     OW 9526   2.037   0.565   2.399
 2876SOL    HW1 9527   2.113   0.566   2.465
 2876SOL    HW2 9528   1.955   0.529   2.444
 2877SOL     OW 9529   2.488   1.299   5.338
 2877SOL    HW1 9530   2.444   1.325   5.251
 2877SOL    HW2 9531   2.418   1.290   5.409
 2878SOL     OW 9532   3.952   4.404   5.421
 2878SOL    HW1 9533   4.038   4.363   5.388
 2878SOL    HW2 9534   3.903   4.336   5.476
 2879SOL     OW 9535   5.073   4.732   6.448
 2879SOL    HW1 9536   5.150   4.678   6.482
 2879SOL    HW2 9537   5.090   4.829   6.464
 2880SOL     OW 9538   0.373   1.727   2.604
 2880SOL    HW1 9539   0.439   1.707   2.677
 2880SOL    HW2 9540   0.281   1.729   2.642
 2881SOL     OW 9541   4.447   6.049   6.381
 2881SOL    HW1 9542   4.396   6.000   6.311
 2881SOL    HW2 9543   4.440   6.001   6.468
 2882SOL     OW 9544   0.122   5.645   1.716
 2882SOL    HW1 9545   0.203   5.588   1.719
 2882SOL    HW2 9546   0.058   5.610   1.647
 2883SOL     OW 9547   5.956   0.279   3.322
 2883SOL    HW1 9548   6.010   0.363   3.321
 2883SOL    HW2 9549   5.917   0.264   3.413
 2884SOL     OW 9550   0.684   6.669   3.307
 2884SOL    HW1 9551   0.725   6.754   3.276
 2884SOL    HW2 9552   0.707   6.596   3.243
 2885SOL     OW 9553   1.950   3.859   3.751
 2885SOL    HW1 9554   1.886   3.928   3.717
 2885SOL    HW2 9555   2.010   3.830   3.676
 2886SOL     OW 9556   1.201   2.969   6.384
 2886SOL    HW1 9557   1.184   3.024   6.302
 2886SOL    HW2 9558   1.197   2.872   6.360
 2887SOL     OW 9559   0.485   0.205   5.643
 2887SOL    HW1 9560   0.471   0.180   5.548
 2887SOL    HW2 9561   0.550   0.142   5.685
 2888SOL     OW 9562   0.005   4.222   6.549
 2888SOL    HW1 9563   0.006   4.122   6.540
 2888SOL    HW2 9564   6.942   4.258   6.509
 2889SOL     OW 9565   3.084   6.408   2.470
 2889SOL    HW1 9566   3.137   6.330   2.504
 2889SOL    HW2 9567   3.066   6.471   2.545
 2890SOL     OW 9568   1.230   6.096   0.653
 2890SOL    HW1 9569   1.161   6.061   0.716
 2890SOL    HW2 9570   1.267   6.021   0.598
 2891SOL     OW 9571   0.577   4.776   3.274
 2891SOL    HW1 9572   0.641   4.712   3.316
 2891SOL    HW2 9573   0.555   4.746   3.181
 2892SOL     OW 9574   6.288   3.475   0.914
 2892SOL    HW1 9575   6.193   3.453   0.891
 2892SOL    HW2 9576   6.289   3.543   0.988
 2893SOL     OW 9577   0.205   5.617   4.453
 2893SOL    HW1 9578   0.281   5.585   4.397
 2893SOL    HW2 9579   0.146   5.676   4.398
 2894SOL     OW 9580   0.236   3.151   1.835
 2894SOL    HW1 9581   0.210   3.078   1.771
 2894SOL    HW2 9582   0.275   3.110   1.917
 2895SOL     OW 9583   5.001   1.489   5.479
 2895SOL    HW1 9584   4.943   1.416   5.444
 2895SOL    HW2 9585   5.061   1.522   5.405
 2896SOL     OW 9586   4.608   6.680   5.717
 2896SOL    HW1 9587   4.570   6.764   5.677
 2896SOL    HW2 9588   4.534   6.621   5.748
 2897SOL     OW 9589   3.840   4.846   2.985
 2897SOL    HW1 9590   3.767   4.912   3.001
 2897SOL    HW2 9591   3.825   4.800   2.898
 2898SOL     OW 9592   4.489   4.423   4.135
 2898SOL    HW1 9593   4.488   4.444   4.233
 2898SOL    HW2 9594   4.401   4.447   4.094
 2899SOL     OW 9595   0.820   2.113   0.350
 2899SOL    HW1 9596   0.899   2.173   0.340
 2899SOL    HW2 9597   0.797   2.072   0.262
 2900SOL     OW 9598   2.700   4.162   6.239
 2900SOL    HW1 9599   2.780   4.102   6.236
 2900SOL    HW2 9600   2.617   4.108   6.228
 2901SOL     OW 9601   1.908   4.588   3.239
 2901SOL    HW1 9602   1.905   4.669   3.180
 2901SOL    HW2 9603   1.838   4.523   3.209
 2902SOL     OW 9604   5.834   5.322   3.402
 2902SOL    HW1 9605   5.794   5.393   3.459
 2902SOL    HW2 9606   5.865   5.246   3.459
 2903SOL     OW 9607   3.727   0.325   0.477
 2903SOL    HW1 9608   3.655   0.331   0.407
 2903SOL    HW2 9609   3.744   0.416   0.514
 2904SOL     OW 9610   2.238   4.708   4.017
 2904SOL    HW1 9611   2.285   4.762   4.086
 2904SOL    HW2 9612   2.264   4.740   3.926
 2905SOL     OW 9613   1.488   3.229   4.754
 2905SOL    HW1 9614   1.424   3.283   4.809
 2905SOL    HW2 9615   1.437   3.178   4.684
 2906SOL     OW 9616   4.891   5.022   2.493
 2906SOL    HW1 9617   4.832   4.953   2.451
 2906SOL    HW2 9618   4.862   5.113   2.462
 2907SOL     OW 9619   0.223   1.374   3.691
 2907SOL    HW1 9620   0.314   1.333   3.699
 2907SOL    HW2 9621   0.186   1.355   3.600
 2908SOL     OW 9622   5.139   6.704   3.634
 2908SOL    HW1 9623   5.041   6.684   3.625
 2908SOL    HW2 9624   5.192   6.634   3.586
 2909SOL     OW 9625   1.203   5.213   4.037
 2909SOL    HW1 9626   1.176   5.266   3.956
 2909SOL    HW2 9627   1.165   5.256   4.119
 2910SOL     OW 9628   5.439   0.977   4.282
 2910SOL    HW1 9629   5.416   0.889   4.240
 2910SOL    HW2 9630   5.358   1.037   4.280
 2911SOL     OW 9631   1.445   5.820   3.720
 2911SOL    HW1 9632   1.497   5.830   3.635
 2911SOL    HW2 9633   1.348   5.810   3.699
 2912SOL     OW 9634   5.390   6.784   0.089
 2912SOL    HW1 9635   5.438   6.839   0.021
 2912SOL    HW2 9636   5.377   6.691   0.054
 2913SOL     OW 9637   3.248   5.126   2.206
 2913SOL    HW1 9638   3.180   5.095   2.139
 2913SOL    HW2 9639   3.287   5.047   2.253
 2914SOL     OW 9640   6.514   6.273   6.059
 2914SOL    HW1 9641   6.514   6.230   5.969
 2914SOL    HW2 9642   6.443   6.343   6.063
 2915SOL     OW 9643   3.457   1.895   3.937
 2915SOL    HW1 9644   3.478   1.987   3.902
 2915SOL    HW2 9645   3.376   1.900   3.995
 2916SOL     OW 9646   1.385   5.534   0.497
 2916SOL    HW1 9647   1.400   5.551   0.400
 2916SOL    HW2 9648   1.469   5.498   0.538
 2917SOL     OW 9649   2.329   0.445   2.921
 2917SOL    HW1 9650   2.343   0.348   2.944
 2917SOL    HW2 9651   2.315   0.497   3.004
 2918SOL     OW 9652   6.118   4.603   5.112
 2918SOL    HW1 9653   6.155   4.545   5.185
 2918SOL    HW2 9654   6.020   4.589   5.104
 2919SOL     OW 9655   5.605   0.854   2.353
 2919SOL    HW1 9656   5.615   0.876   2.450
 2919SOL    HW2 9657   5.687   0.807   2.321
 2920SOL     OW 9658   3.237   1.096   1.559
 2920SOL    HW1 9659   3.207   1.171   1.618
 2920SOL    HW2 9660   3.279   1.133   1.476
 2921SOL     OW 9661   0.657   6.816   4.623
 2921SOL    HW1 9662   0.625   6.789   4.532
 2921SOL    HW2 9663   0.751   6.851   4.617
 2922SOL     OW 9664   4.498   0.119   1.176
 2922SOL    HW1 9665   4.408   0.117   1.133
 2922SOL    HW2 9666   4.551   0.196   1.140
 2923SOL     OW 9667   6.271   4.839   2.751
 2923SOL    HW1 9668   6.241   4.793   2.835
 2923SOL    HW2 9669   6.297   4.933   2.772
 2924SOL     OW 9670   6.256   1.973   5.382
 2924SOL    HW1 9671   6.299   2.061   5.399
 2924SOL    HW2 9672   6.250   1.922   5.468
 2925SOL     OW 9673   4.748   1.824   2.054
 2925SOL    HW1 9674   4.755   1.735   2.098
 2925SOL    HW2 9675   4.662   1.868   2.079
 2926SOL     OW 9676   6.059   1.398   5.486
 2926SOL    HW1 9677   6.027   1.304   5.501
 2926SOL    HW2 9678   5.981   1.461   5.491
 2927SOL     OW 9679   1.634   4.050   1.419
 2927SOL    HW1 9680   1.557   4.058   1.482
 2927SOL    HW2 9681   1.700   4.123   1.437
 2928SOL     OW 9682   0.757   0.330   6.974
 2928SOL    HW1 9683   0.706   0.375   6.901
 2928SOL    HW2 9684   0.771   0.394   0.028
 2929SOL     OW 9685   1.252   1.929   6.552
 2929SOL    HW1 9686   1.272   1.881   6.638
 2929SOL    HW2 9687   1.190   1.873   6.497
 2930SOL     OW 9688   5.321   6.780   5.234
 2930SOL    HW1 9689   5.319   6.806   5.137
 2930SOL    HW2 9690   5.265   6.844   5.286
 2931SOL     OW 9691   5.584   4.590   6.885
 2931SOL    HW1 9692   5.487   4.572   6.902
 2931SOL    HW2 9693   5.639   4.512   6.914
 2932SOL     OW 9694   1.029   5.528   2.004
 2932SOL    HW1 9695   1.095   5.589   2.048
 2932SOL    HW2 9696   1.002   5.567   1.916
 2933SOL     OW 9697   0.804   5.533   2.898
 2933SOL    HW1 9698   0.709   5.564   2.899
 2933SOL    HW2 9699   0.820   5.471   2.975
 2934SOL     OW 9700   5.168   1.067   0.328
 2934SOL    HW1 9701   5.266   1.064   0.345
 2934SOL    HW2 9702   5.149   1.135   0.256
 2935SOL     OW 9703   0.390   2.702   6.912
 2935SOL    HW1 9704   0.348   2.753   6.837
 2935SOL    HW2 9705   0.332   2.709   6.993
 2936SOL     OW 9706   3.978   6.826   0.952
 2936SOL    HW1 9707   4.075   6.845   0.942
 2936SOL    HW2 9708   3.927   6.870   0.877
 2937SOL     OW 9709   5.321   4.506   1.506
 2937SOL    HW1 9710   5.337   4.604   1.509
 2937SOL    HW2 9711   5.268   4.483   1.424
 2938SOL     OW 9712   4.612   5.541   6.644
 2938SOL    HW1 9713   4.600   5.566   6.740
 2938SOL    HW2 9714   4.574   5.612   6.585
 2939SOL     OW 9715   2.251   0.726   2.707
 2939SOL    HW1 9716   2.244   0.626   2.707
 2939SOL    HW2 9717   2.315   0.755   2.637
 2940SOL     OW 9718   5.810   4.414   5.249
 2940SOL    HW1 9719   5.899   4.378   5.277
 2940SOL    HW2 9720   5.738   4.351   5.276
 2941SOL     OW 9721   1.095   2.329   4.547
 2941SOL    HW1 9722   1.162   2.339   4.473
 2941SOL    HW2 9723   1.136   2.278   4.622
 2942SOL     OW 9724   3.220   2.478   0.537
 2942SOL    HW1 9725   3.263   2.396   0.500
 2942SOL    HW2 9726   3.261   2.559   0.496
 2943SOL     OW 9727   5.724   4.349   3.659
 2943SOL    HW1 9728   5.776   4.278   3.612
 2943SOL    HW2 9729   5.626   4.328   3.655
 2944SOL     OW 9730   2.579   6.093   4.284
 2944SOL    HW1 9731   2.505   6.027   4.272
 2944SOL    HW2 9732   2.581   6.156   4.207
 2945SOL     OW 9733   3.017   3.488   3.059
 2945SOL    HW1 9734   3.100   3.456   3.014
 2945SOL    HW2 9735   2.956   3.528   2.990
 2946SOL     OW 9736   1.443   4.765   5.745
 2946SOL    HW1 9737   1.466   4.841   5.683
 2946SOL    HW2 9738   1.397   4.801   5.826
 2947SOL     OW 9739   0.544   4.420   1.242
 2947SOL    HW1 9740   0.572   4.428   1.146
 2947SOL    HW2 9741   0.450   4.452   1.251
 2948SOL     OW 9742   0.861   3.763   4.600
 2948SOL    HW1 9743   0.805   3.740   4.520
 2948SOL    HW2 9744   0.958   3.753   4.576
 2949SOL     OW 9745   2.481   5.219   0.777
 2949SOL    HW1 9746   2.399   5.165   0.794
 2949SOL    HW2 9747   2.496   5.227   0.678
 2950SOL     OW 9748   5.325   5.195   4.214
 2950SOL    HW1 9749   5.249   5.130   4.223
 2950SOL    HW2 9750   5.290   5.283   4.181
 2951SOL     OW 9751   5.248   1.433   2.248
 2951SOL    HW1 9752   5.234   1.521   2.202
 2951SOL    HW2 9753   5.282   1.366   2.181
 2952SOL     OW 9754   6.911   4.729   4.550
 2952SOL    HW1 9755   6.893   4.718   4.648
 2952SOL    HW2 9756   7.010   4.730   4.534
 2953SOL     OW 9757   5.614   3.719   2.283
 2953SOL    HW1 9758   5.520   3.740   2.256
 2953SOL    HW2 9759   5.614   3.675   2.373
 2954SOL     OW 9760   0.806   4.722   2.133
 2954SOL    HW1 9761   0.864   4.647   2.166
 2954SOL    HW2 9762   0.789   4.710   2.036
 2955SOL     OW 9763   0.757   3.635   1.799
 2955SOL    HW1 9764   0.775   3.733   1.806
 2955SOL    HW2 9765   0.753   3.596   1.891
 2956SOL     OW 9766   5.731   5.711   3.079
 2956SOL    HW1 9767   5.653   5.728   3.019
 2956SOL    HW2 9768   5.700   5.709   3.174
 2957SOL     OW 9769   5.714   4.134   1.561
 2957SOL    HW1 9770   5.780   4.077   1.609
 2957SOL    HW2 9771   5.736   4.230   1.576
 2958SOL     OW 9772   2.424   4.437   3.128
 2958SOL    HW1 9773   2.406   4.498   3.206
 2958SOL    HW2 9774   2.484   4.483   3.063
 2959SOL     OW 9775   5.038   3.795   0.547
 2959SOL    HW1 9776   5.061   3.727   0.477
 2959SOL    HW2 9777   5.059   3.886   0.513
 2960SOL     OW 9778   3.032   0.473   0.532
 2960SOL    HW1 9779   3.008   0.570   0.540
 2960SOL    HW2 9780   3.070   0.441   0.618
 2961SOL     OW 9781   5.574   3.882   2.916
 2961SOL    HW1 9782   5.624   3.809   2.962
 2961SOL    HW2 9783   5.537   3.848   2.830
 2962SOL     OW 9784   4.159   6.501   3.357
 2962SOL    HW1 9785   4.196   6.478   3.447
 2962SOL    HW2 9786   4.097   6.428   3.327
 2963SOL     OW 9787   1.951   1.171   5.789
 2963SOL    HW1 9788   1.937   1.266   5.816
 2963SOL    HW2 9789   1.927   1.111   5.865
 2964SOL     OW 9790   0.518   0.987   4.048
 2964SOL    HW1 9791   0.600   0.951   4.004
 2964SOL    HW2 9792   0.451   1.013   3.979
 2965SOL     OW 9793   0.173   0.868   4.493
 2965SOL    HW1 9794   0.267   0.904   4.488
 2965SOL    HW2 9795   0.149   0.828   4.405
 2966SOL     OW 9796   4.679   5.771   3.093
 2966SOL    HW1 9797   4.666   5.803   2.999
 2966SOL    HW2 9798   4.719   5.843   3.148
 2967SOL     OW 9799   6.243   0.600   4.995
 2967SOL    HW1 9800   6.196   0.512   5.002
 2967SOL    HW2 9801   6.183   0.672   5.030
 2968SOL     OW 9802   0.844   3.003   0.489
 2968SOL    HW1 9803   0.752   2.984   0.455
 2968SOL    HW2 9804   0.887   3.074   0.433
 2969SOL     OW 9805   4.873   2.415   4.300
 2969SOL    HW1 9806   4.913   2.325   4.282
 2969SOL    HW2 9807   4.923   2.485   4.249
 2970SOL     OW 9808   2.211   3.639   5.812
 2970SOL    HW1 9809   2.226   3.571   5.740
 2970SOL    HW2 9810   2.215   3.731   5.773
 2971SOL     OW 9811   5.341   4.565   7.004
 2971SOL    HW1 9812   5.279   4.495   0.018
 2971SOL    HW2 9813   5.366   4.627   0.057
 2972SOL     OW 9814   6.644   4.636   6.573
 2972SOL    HW1 9815   6.709   4.603   6.642
 2972SOL    HW2 9816   6.691   4.645   6.485
 2973SOL     OW 9817   5.297   6.337   2.029
 2973SOL    HW1 9818   5.382   6.349   2.082
 2973SOL    HW2 9819   5.249   6.425   2.025
 2974SOL     OW 9820   0.847   4.334   3.823
 2974SOL    HW1 9821   0.933   4.371   3.858
 2974SOL    HW2 9822   0.819   4.256   3.880
 2975SOL     OW 9823   5.300   3.610   3.761
 2975SOL    HW1 9824   5.394   3.621   3.792
 2975SOL    HW2 9825   5.291   3.650   3.669
 2976SOL     OW 9826   3.754   2.085   2.652
 2976SOL    HW1 9827   3.720   2.070   2.559
 2976SOL    HW2 9828   3.679   2.073   2.717
 2977SOL     OW 9829   2.533   6.919   2.395
 2977SOL    HW1 9830   2.507   6.879   2.483
 2977SOL    HW2 9831   2.609   6.867   2.356
 2978SOL     OW 9832   4.500   4.886   0.287
 2978SOL    HW1 9833   4.439   4.894   0.208
 2978SOL    HW2 9834   4.476   4.955   0.355
 2979SOL     OW 9835   3.333   0.770   3.947
 2979SOL    HW1 9836   3.317   0.674   3.923
 2979SOL    HW2 9837   3.418   0.801   3.904
 2980SOL     OW 9838   1.388   5.626   4.182
 2980SOL    HW1 9839   1.383   5.552   4.115
 2980SOL    HW2 9840   1.441   5.595   4.262
 2981SOL     OW 9841   2.632   1.073   6.233
 2981SOL    HW1 9842   2.602   1.168   6.227
 2981SOL    HW2 9843   2.566   1.014   6.187
 2982SOL     OW 9844   3.128   5.611   1.811
 2982SOL    HW1 9845   3.032   5.614   1.840
 2982SOL    HW2 9846   3.183   5.563   1.880
 2983SOL     OW 9847   0.148   1.632   2.425
 2983SOL    HW1 9848   0.167   1.687   2.506
 2983SOL    HW2 9849   0.049   1.614   2.420
 2984SOL     OW 9850   5.579   4.757   0.621
 2984SOL    HW1 9851   5.579   4.826   0.548
 2984SOL    HW2 9852   5.607   4.669   0.584
 2985SOL     OW 9853   1.731   2.765   5.156
 2985SOL    HW1 9854   1.802   2.706   5.116
 2985SOL    HW2 9855   1.651   2.710   5.178
 2986SOL     OW 9856   3.597   4.086   3.297
 2986SOL    HW1 9857   3.526   4.016   3.299
 2986SOL    HW2 9858   3.627   4.106   3.390
 2987SOL     OW 9859   0.375   1.682   4.025
 2987SOL    HW1 9860   0.474   1.670   4.029
 2987SOL    HW2 9861   0.342   1.656   3.934
 2988SOL     OW 9862   1.756   5.725   3.154
 2988SOL    HW1 9863   1.671   5.708   3.204
 2988SOL    HW2 9864   1.805   5.639   3.142
 2989SOL     OW 9865   5.546   5.960   5.734
 2989SOL    HW1 9866   5.475   6.008   5.786
 2989SOL    HW2 9867   5.542   5.987   5.638
 2990SOL     OW 9868   3.498   1.977   4.492
 2990SOL    HW1 9869   3.427   2.040   4.460
 2990SOL    HW2 9870   3.516   1.994   4.589
 2991SOL     OW 9871   6.661   3.524   5.360
 2991SOL    HW1 9872   6.745   3.471   5.352
 2991SOL    HW2 9873   6.659   3.571   5.448
 2992SOL     OW 9874   1.943   6.191   4.730
 2992SOL    HW1 9875   1.886   6.263   4.688
 2992SOL    HW2 9876   1.924   6.186   4.828
 2993SOL     OW 9877   0.753   4.974   1.143
 2993SOL    HW1 9878   0.674   5.008   1.193
 2993SOL    HW2 9879   0.833   4.974   1.202
 2994SOL     OW 9880   4.157   6.802   6.749
 2994SOL    HW1 9881   4.135   6.818   6.653
 2994SOL    HW2 9882   4.076   6.765   6.795
 2995SOL     OW 9883   2.797   1.373   6.296
 2995SOL    HW1 9884   2.706   1.351   6.260
 2995SOL    HW2 9885   2.861   1.387   6.221
 2996SOL     OW 9886   1.590   1.456   4.541
 2996SOL    HW1 9887   1.596   1.399   4.623
 2996SOL    HW2 9888   1.499   1.449   4.502
 2997SOL     OW 9889   5.729   0.003   3.169
 2997SOL    HW1 9890   5.668   6.971   3.111
 2997SOL    HW2 9891   5.797   6.963   3.211
 2998SOL     OW 9892   4.642   0.056   4.038
 2998SOL    HW1 9893   4.695   0.013   3.965
 2998SOL    HW2 9894   4.704   0.097   4.105
 2999SOL     OW 9895   2.387   5.253   4.779
 2999SOL    HW1 9896   2.476   5.215   4.756
 2999SOL    HW2 9897   2.378   5.258   4.879
 3000SOL     OW 9898   3.393   3.538   6.324
 3000SOL    HW1 9899   3.433   3.622   6.361
 3000SOL    HW2 9900   3.305   3.559   6.282
 3001SOL     OW 9901   0.008   0.294   6.048
 3001SOL    HW1 9902   0.057   0.380   6.035
 3001SOL    HW2 9903   0.061   0.235   6.109
 3002SOL     OW 9904   3.160   1.746   6.811
 3002SOL    HW1 9905   3.254   1.730   6.778
 3002SOL    HW2 9906   3.163   1.791   6.900
 3003SOL     OW 9907   1.386   6.830   0.701
 3003SOL    HW1 9908   1.330   6.883   0.636
 3003SOL    HW2 9909   1.468   6.797   0.654
 3004SOL     OW 9910   0.479   4.171   3.581
 3004SOL    HW1 9911   0.504   4.268   3.586
 3004SOL    HW2 9912   0.523   4.121   3.655
 3005SOL     OW 9913   2.134   1.739   0.619
 3005SOL    HW1 9914   2.083   1.825   0.615
 3005SOL    HW2 9915   2.076   1.667   0.656
 3006SOL     OW 9916   5.533   1.324   4.620
 3006SOL    HW1 9917   5.628   1.306   4.645
 3006SOL    HW2 9918   5.518   1.423   4.615
 3007SOL     OW 9919   5.246   4.395   0.191
 3007SOL    HW1 9920   5.310   4.392   0.267
 3007SOL    HW2 9921   5.223   4.301   0.163
 3008SOL     OW 9922   3.746   2.445   5.771
 3008SOL    HW1 9923   3.807   2.478   5.700
 3008SOL    HW2 9924   3.777   2.479   5.860
 3009SOL     OW 9925   0.085   1.779   2.662
 3009SOL    HW1 9926   0.074   1.702   2.724
 3009SOL    HW2 9927   0.110   1.861   2.714
 3010SOL     OW 9928   3.909   5.263   3.516
 3010SOL    HW1 9929   3.977   5.202   3.475
 3010SOL    HW2 9930   3.818   5.237   3.486
 3011SOL     OW 9931   6.469   1.910   2.421
 3011SOL    HW1 9932   6.499   1.860   2.340
 3011SOL    HW2 9933   6.433   1.846   2.489
 3012SOL     OW 9934   1.894   3.289   5.935
 3012SOL    HW1 9935   1.933   3.254   6.020
 3012SOL    HW2 9936   1.797   3.268   5.932
 3013SOL     OW 9937   5.195   5.391   3.769
 3013SOL    HW1 9938   5.233   5.390   3.862
 3013SOL    HW2 9939   5.145   5.306   3.753
 3014SOL     OW 9940   4.244   2.089   4.661
 3014SOL    HW1 9941   4.319   2.072   4.597
 3014SOL    HW2 9942   4.182   2.157   4.622
 3015SOL     OW 9943   3.091   1.690   0.233
 3015SOL    HW1 9944   3.107   1.748   0.152
 3015SOL    HW2 9945   3.137   1.730   0.312
 3016SOL     OW 9946   2.495   6.448   3.875
 3016SOL    HW1 9947   2.581   6.410   3.843
 3016SOL    HW2 9948   2.447   6.493   3.800
 3017SOL     OW 9949   6.462   5.053   2.369
 3017SOL    HW1 9950   6.535   4.985   2.363
 3017SOL    HW2 9951   6.433   5.061   2.464
 3018SOL     OW 9952   2.960   6.852   5.890
 3018SOL    HW1 9953   2.881   6.804   5.852
 3018SOL    HW2 9954   2.954   6.852   5.990
 3019SOL     OW 9955   0.695   6.778   0.445
 3019SOL    HW1 9956   0.605   6.760   0.405
 3019SOL    HW2 9957   0.748   6.694   0.449
 3020SOL     OW 9958   3.833   2.572   1.539
 3020SOL    HW1 9959   3.893   2.573   1.459
 3020SOL    HW2 9960   3.812   2.477   1.564
 3021SOL     OW 9961   3.074   0.200   6.098
 3021SOL    HW1 9962   3.011   0.255   6.043
 3021SOL    HW2 9963   3.031   0.178   6.186
 3022SOL     OW 9964   3.928   5.342   4.980
 3022SOL    HW1 9965   3.993   5.267   4.975
 3022SOL    HW2 9966   3.835   5.307   4.969
 3023SOL     OW 9967   4.179   6.728   2.706
 3023SOL    HW1 9968   4.171   6.770   2.797
 3023SOL    HW2 9969   4.097   6.751   2.652
 3024SOL     OW 9970   4.977   0.400   4.822
 3024SOL    HW1 9971   4.986   0.438   4.914
 3024SOL    HW2 9972   4.992   0.472   4.754
 3025SOL     OW 9973   3.899   6.769   0.603
 3025SOL    HW1 9974   3.845   6.826   0.665
 3025SOL    HW2 9975   3.861   6.677   0.601
 3026SOL     OW 9976   1.648   0.244   6.372
 3026SOL    HW1 9977   1.623   0.267   6.466
 3026SOL    HW2 9978   1.625   0.320   6.312
 3027SOL     OW 9979   4.112   1.196   3.160
 3027SOL    HW1 9980   4.173   1.150   3.095
 3027SOL    HW2 9981   4.101   1.292   3.133
 3028SOL     OW 9982   1.430   3.755   6.218
 3028SOL    HW1 9983   1.423   3.683   6.150
 3028SOL    HW2 9984   1.393   3.840   6.181
 3029SOL     OW 9985   0.262   2.166   5.324
 3029SOL    HW1 9986   0.171   2.126   5.336
 3029SOL    HW2 9987   0.329   2.116   5.378
 3030SOL     OW 9988   0.562   3.403   0.243
 3030SOL    HW1 9989   0.651   3.449   0.243
 3030SOL    HW2 9990   0.500   3.452   0.182
 3031SOL     OW 9991   0.005   4.375   1.408
 3031SOL    HW1 9992   6.977   4.305   1.460
 3031SOL    HW2 9993   7.018   4.355   1.310
 3032SOL     OW 9994   2.748   6.386   1.404
 3032SOL    HW1 9995   2.782   6.294   1.423
 3032SOL    HW2 9996   2.748   6.402   1.306
 3033SOL     OW 9997   5.387   1.951   1.465
 3033SOL    HW1 9998   5.356   1.958   1.370
 3033SOL    HW2 9999   5.331   1.883   1.513
 3034SOL     OW10000   1.648   6.386   2.842
 3034SOL    HW110001   1.725   6.331   2.877
 3034SOL    HW210002   1.678   6.481   2.832
 3035SOL     OW10003   0.191   2.972   6.803
 3035SOL    HW110004   0.260   3.009   6.865
 3035SOL    HW210005   0.236   2.931   6.724
 3036SOL     OW10006   2.285   1.942   6.425
 3036SOL    HW110007   2.280   2.013   6.354
 3036SOL    HW210008   2.222   1.964   6.499
 3037SOL     OW10009   5.917   5.844   6.259
 3037SOL    HW110010   5.854   5.781   6.304
 3037SOL    HW210011   5.907   5.935   6.300
 3038SOL     OW10012   4.673   5.862   5.698
 3038SOL    HW110013   4.686   5.763   5.702
 3038SOL    HW210014   4.697   5.903   5.786
 3039SOL     OW10015   0.002   3.359   0.931
 3039SOL    HW110016   0.044   3.323   1.014
 3039SOL    HW210017   0.039   3.312   0.851
 3040SOL     OW10018   3.700   3.708   6.069
 3040SOL    HW110019   3.607   3.701   6.032
 3040SOL    HW210020   3.751   3.776   6.017
 3041SOL     OW10021   2.082   3.092   4.657
 3041SOL    HW110022   2.045   3.167   4.712
 3041SOL    HW210023   2.022   3.074   4.579
 3042SOL     OW10024   5.293   5.554   2.612
 3042SOL    HW110025   5.257   5.462   2.629
 3042SOL    HW210026   5.385   5.562   2.651
 3043SOL     OW10027   2.604   4.102   1.701
 3043SOL    HW110028   2.664   4.022   1.709
 3043SOL    HW210029   2.656   4.181   1.670
 3044SOL     OW10030   3.607   4.723   5.699
 3044SOL    HW110031   3.705   4.714   5.686
 3044SOL    HW210032   3.589   4.779   5.780
 3045SOL     OW10033   5.046   6.906   3.390
 3045SOL    HW110034   4.947   6.890   3.388
 3045SOL    HW210035   5.088   6.842   3.455
 3046SOL     OW10036   2.208   1.129   5.839
 3046SOL    HW110037   2.234   1.226   5.844
 3046SOL    HW210038   2.123   1.120   5.787
 3047SOL     OW10039   5.463   0.394   1.711
 3047SOL    HW110040   5.561   0.416   1.713
 3047SOL    HW210041   5.445   0.330   1.636
 3048SOL     OW10042   3.849   2.311   1.652
 3048SOL    HW110043   3.775   2.305   1.719
 3048SOL    HW210044   3.933   2.339   1.697
 3049SOL     OW10045   1.591   0.204   2.570
 3049SOL    HW110046   1.644   0.122   2.590
 3049SOL    HW210047   1.568   0.207   2.473
 3050SOL     OW10048   3.608   1.300   2.175
 3050SOL    HW110049   3.702   1.290   2.144
 3050SOL    HW210050   3.578   1.216   2.219
 3051SOL     OW10051   1.670   5.542   6.221
 3051SOL    HW110052   1.733   5.567   6.148
 3051SOL    HW210053   1.692   5.451   6.255
 3052SOL     OW10054   5.160   5.229   2.331
 3052SOL    HW110055   5.182   5.141   2.372
 3052SOL    HW210056   5.067   5.255   2.355
 3053SOL     OW10057   6.686   2.215   0.570
 3053SOL    HW110058   6.780   2.183   0.559
 3053SOL    HW210059   6.653   2.192   0.662
 3054SOL     OW10060   6.682   2.411   1.206
 3054SOL    HW110061   6.628   2.473   1.263
 3054SOL    HW210062   6.657   2.317   1.226
 3055SOL     OW10063   4.618   0.778   4.893
 3055SOL    HW110064   4.543   0.766   4.958
 3055SOL    HW210065   4.580   0.794   4.801
 3056SOL     OW10066   6.721   0.210   5.506
 3056SOL    HW110067   6.623   0.209   5.482
 3056SOL    HW210068   6.740   0.139   5.573
 3057SOL     OW10069   4.597   5.954   2.661
 3057SOL    HW110070   4.618   5.960   2.759
 3057SOL    HW210071   4.563   6.043   2.629
 3058SOL     OW10072   6.863   4.696   1.208
 3058SOL    HW110073   6.922   4.666   1.282
 3058SOL    HW210074   6.828   4.788   1.228
 3059SOL     OW10075   2.708   2.354   3.909
 3059SOL    HW110076   2.774   2.324   3.978
 3059SOL    HW210077   2.733   2.318   3.820
 3060SOL     OW10078   1.550   4.970   0.392
 3060SOL    HW110079   1.452   4.988   0.390
 3060SOL    HW210080   1.581   4.966   0.487
 3061SOL     OW10081   0.267   6.537   5.897
 3061SOL    HW110082   0.335   6.572   5.961
 3061SOL    HW210083   0.292   6.564   5.804
 3062SOL     OW10084   2.114   0.082   0.410
 3062SOL    HW110085   2.066   0.158   0.365
 3062SOL    HW210086   2.190   0.118   0.464
 3063SOL     OW10087   2.205   4.821   2.232
 3063SOL    HW110088   2.226   4.918   2.245
 3063SOL    HW210089   2.204   4.775   2.320
 3064SOL     OW10090   4.869   3.755   1.851
 3064SOL    HW110091   4.812   3.820   1.799
 3064SOL    HW210092   4.916   3.803   1.924
 3065SOL     OW10093   1.826   1.548   0.174
 3065SOL    HW110094   1.753   1.501   0.224
 3065SOL    HW210095   1.904   1.486   0.162
 3066SOL     OW10096   4.625   4.821   0.625
 3066SOL    HW110097   4.641   4.746   0.689
 3066SOL    HW210098   4.702   4.885   0.630
 3067SOL     OW10099   4.028   1.190   5.706
 3067SOL    HW110100   3.994   1.247   5.631
 3067SOL    HW210101   4.104   1.134   5.674
 3068SOL     OW10102   6.400   6.900   0.586
 3068SOL    HW110103   6.381   6.957   0.666
 3068SOL    HW210104   6.449   6.954   0.518
 3069SOL     OW10105   6.539   5.840   1.410
 3069SOL    HW110106   6.636   5.818   1.397
 3069SOL    HW210107   6.515   5.830   1.507
 3070SOL     OW10108   2.949   1.409   6.911
 3070SOL    HW110109   2.897   1.404   6.996
 3070SOL    HW210110   2.928   1.495   6.864
 3071SOL     OW10111   6.746   6.411   3.041
 3071SOL    HW110112   6.668   6.469   3.019
 3071SOL    HW210113   6.824   6.468   3.066
 3072SOL     OW10114   2.586   5.869   6.198
 3072SOL    HW110115   2.526   5.873   6.278
 3072SOL    HW210116   2.572   5.951   6.142
 3073SOL     OW10117   6.342   3.574   4.666
 3073SOL    HW110118   6.391   3.541   4.586
 3073SOL    HW210119   6.271   3.639   4.639
 3074SOL     OW10120   6.124   4.004   1.176
 3074SOL    HW110121   6.086   3.996   1.084
 3074SOL    HW210122   6.121   3.915   1.221
 3075SOL     OW10123   2.648   5.425   1.455
 3075SOL    HW110124   2.748   5.432   1.461
 3075SOL    HW210125   2.607   5.502   1.505
 3076SOL     OW10126   6.580   0.426   3.713
 3076SOL    HW110127   6.590   0.335   3.673
 3076SOL    HW210128   6.539   0.487   3.645
 3077SOL     OW10129   5.934   4.531   1.355
 3077SOL    HW110130   5.950   4.569   1.447
 3077SOL    HW210131   5.921   4.606   1.290
 3078SOL     OW10132   0.644   2.784   3.046
 3078SOL    HW110133   0.720   2.821   3.098
 3078SOL    HW210134   0.558   2.821   3.080
 3079SOL     OW10135   2.451   2.578   2.523
 3079SOL    HW110136   2.416   2.635   2.597
 3079SOL    HW210137   2.379   2.567   2.453
 3080SOL     OW10138   5.416   5.006   2.293
 3080SOL    HW110139   5.374   5.020   2.383
 3080SOL    HW210140   5.354   4.953   2.235
 3081SOL     OW10141   0.911   2.581   5.673
 3081SOL    HW110142   0.850   2.581   5.593
 3081SOL    HW210143   0.893   2.661   5.729
 3082SOL     OW10144   2.219   5.629   3.757
 3082SOL    HW110145   2.161   5.693   3.807
 3082SOL    HW210146   2.292   5.596   3.817
 3083SOL     OW10147   3.115   6.435   3.891
 3083SOL    HW110148   3.174   6.355   3.875
 3083SOL    HW210149   3.076   6.429   3.983
 3084SOL     OW10150   6.364   3.602   4.137
 3084SOL    HW110151   6.407   3.679   4.089
 3084SOL    HW210152   6.435   3.536   4.164
 3085SOL     OW10153   5.746   4.657   0.199
 3085SOL    HW110154   5.799   4.676   0.282
 3085SOL    HW210155   5.806   4.620   0.128
 3086SOL     OW10156   5.084   1.313   1.284
 3086SOL    HW110157   5.083   1.258   1.367
 3086SOL    HW210158   5.002   1.294   1.230
 3087SOL     OW10159   1.536   6.025   4.199
 3087SOL    HW110160   1.520   5.961   4.123
 3087SOL    HW210161   1.632   6.021   4.226
 3088SOL     OW10162   2.145   4.969   5.026
 3088SOL    HW110163   2.113   4.879   4.996
 3088SOL    HW210164   2.239   4.961   5.059
 3089SOL     OW10165   2.121   2.743   5.758
 3089SOL    HW110166   2.136   2.645   5.744
 3089SOL    HW210167   2.103   2.760   5.855
 3090SOL     OW10168   2.348   2.086   1.478
 3090SOL    HW110169   2.308   2.019   1.540
 3090SOL    HW210170   2.411   2.145   1.529
 3091SOL     OW10171   2.046   0.342   1.484
 3091SOL    HW110172   2.146   0.346   1.493
 3091SOL    HW210173   2.004   0.413   1.540
 3092SOL     OW10174   5.274   1.483   0.221
 3092SOL    HW110175   5.219   1.421   0.277
 3092SOL    HW210176   5.368   1.484   0.255
 3093SOL     OW10177   5.341   6.332   6.593
 3093SOL    HW110178   5.259   6.341   6.649
 3093SOL    HW210179   5.316   6.300   6.502
 3094SOL     OW10180   1.998   0.069   4.110
 3094SOL    HW110181   1.983   0.042   4.016
 3094SOL    HW210182   1.955   0.003   4.172
 3095SOL     OW10183   2.379   5.010   5.343
 3095SOL    HW110184   2.368   4.918   5.381
 3095SOL    HW210185   2.394   5.003   5.244
 3096SOL     OW10186   0.616   5.016   5.546
 3096SOL    HW110187   0.545   4.996   5.479
 3096SOL    HW210188   0.638   4.932   5.596
 3097SOL     OW10189   5.432   2.282   0.043
 3097SOL    HW110190   5.429   2.338   6.981
 3097SOL    HW210191   5.422   2.186   0.018
 3098SOL     OW10192   2.141   2.635   1.820
 3098SOL    HW110193   2.178   2.721   1.856
 3098SOL    HW210194   2.159   2.561   1.884
 3099SOL     OW10195   0.687   0.047   3.554
 3099SOL    HW110196   0.645   0.017   3.469
 3099SOL    HW210197   0.661   7.006   3.628
 3100SOL     OW10198   6.888   6.323   3.437
 3100SOL    HW110199   6.821   6.298   3.367
 3100SOL    HW210200   6.975   6.279   3.416
 3101SOL     OW10201   6.093   6.102   0.177
 3101SOL    HW110202   6.192   6.106   0.169
 3101SOL    HW210203   6.067   6.018   0.225
 3102SOL     OW10204   6.607   5.523   2.292
 3102SOL    HW110205   6.574   5.601   2.345
 3102SOL    HW210206   6.704   5.508   2.311
 3103SOL     OW10207   4.441   0.953   2.062
 3103SOL    HW110208   4.454   0.861   2.099
 3103SOL    HW210209   4.503   0.967   1.985
 3104SOL     OW10210   5.338   1.072   5.225
 3104SOL    HW110211   5.268   1.000   5.227
 3104SOL    HW210212   5.301   1.156   5.263
 3105SOL     OW10213   5.353   4.352   1.240
 3105SOL    HW110214   5.429   4.376   1.300
 3105SOL    HW210215   5.388   4.319   1.153
 3106SOL     OW10216   4.510   0.730   3.723
 3106SOL    HW110217   4.537   0.764   3.633
 3106SOL    HW210218   4.440   0.789   3.762
 3107SOL     OW10219   4.677   1.726   4.899
 3107SOL    HW110220   4.586   1.718   4.857
 3107SOL    HW210221   4.744   1.748   4.829
 3108SOL     OW10222   1.782   6.269   4.365
 3108SOL    HW110223   1.716   6.261   4.440
 3108SOL    HW210224   1.795   6.180   4.322
 3109SOL     OW10225   5.606   6.277   3.996
 3109SOL    HW110226   5.608   6.364   4.047
 3109SOL    HW210227   5.690   6.227   4.013
 3110SOL     OW10228   1.037   3.123   2.528
 3110SOL    HW110229   0.955   3.153   2.577
 3110SOL    HW210230   1.011   3.079   2.442
 3111SOL     OW10231   0.219   4.726   3.483
 3111SOL    HW110232   0.278   4.656   3.523
 3111SOL    HW210233   0.131   4.686   3.459
 3112SOL     OW10234   3.971   2.980   6.981
 3112SOL    HW110235   3.941   2.966   6.886
 3112SOL    HW210236   3.966   3.077   7.004
 3113SOL     OW10237   2.609   4.738   3.430
 3113SOL    HW110238   2.560   4.821   3.457
 3113SOL    HW210239   2.543   4.666   3.408
 3114SOL     OW10240   3.890   2.316   0.743
 3114SOL    HW110241   3.839   2.398   0.768
 3114SOL    HW210242   3.894   2.308   0.644
 3115SOL     OW10243   4.084   4.581   6.141
 3115SOL    HW110244   4.073   4.488   6.176
 3115SOL    HW210245   3.998   4.611   6.100
 3116SOL     OW10246   6.837   3.031   0.691
 3116SOL    HW110247   6.855   3.037   0.789
 3116SOL    HW210248   6.847   2.936   0.661
 3117SOL     OW10249   4.824   3.880   5.137
 3117SOL    HW110250   4.784   3.795   5.104
 3117SOL    HW210251   4.901   3.860   5.198
 3118SOL     OW10252   0.692   5.635   1.993
 3118SOL    HW110253   0.671   5.537   1.992
 3118SOL    HW210254   0.780   5.651   2.037
 3119SOL     OW10255   2.601   3.088   6.538
 3119SOL    HW110256   2.667   3.156   6.568
 3119SOL    HW210257   2.629   2.997   6.570
 3120SOL     OW10258   2.961   0.198   5.432
 3120SOL    HW110259   3.059   0.179   5.435
 3120SOL    HW210260   2.916   0.154   5.509
 3121SOL     OW10261   0.313   0.996   3.489
 3121SOL    HW110262   0.362   0.940   3.556
 3121SOL    HW210263   0.346   1.090   3.493
 3122SOL     OW10264   3.917   5.404   6.148
 3122SOL    HW110265   3.838   5.463   6.131
 3122SOL    HW210266   4.001   5.457   6.141
 3123SOL     OW10267   1.680   1.972   3.258
 3123SOL    HW110268   1.646   1.981   3.164
 3123SOL    HW210269   1.767   2.021   3.268
 3124SOL     OW10270   4.915   0.114   4.477
 3124SOL    HW110271   4.819   0.097   4.499
 3124SOL    HW210272   4.957   0.164   4.552
 3125SOL     OW10273   0.910   2.729   4.865
 3125SOL    HW110274   0.933   2.743   4.769
 3125SOL    HW210275   0.824   2.775   4.886
 3126SOL     OW10276   5.501   3.878   5.693
 3126SOL    HW110277   5.485   3.971   5.661
 3126SOL    HW210278   5.595   3.851   5.674
 3127SOL     OW10279   1.111   2.893   5.727
 3127SOL    HW110280   1.087   2.952   5.649
 3127SOL    HW210281   1.210   2.900   5.743
 3128SOL     OW10282   3.474   0.655   6.758
 3128SOL    HW110283   3.487   0.571   6.707
 3128SOL    HW210284   3.401   0.709   6.716
 3129SOL     OW10285   6.205   3.481   0.011
 3129SOL    HW110286   6.206   3.464   6.933
 3129SOL    HW210287   6.111   3.483   0.044
 3130SOL     OW10288   1.785   4.247   1.505
 3130SOL    HW110289   1.872   4.238   1.554
 3130SOL    HW210290   1.749   4.339   1.518
 3131SOL     OW10291   0.545   3.424   2.395
 3131SOL    HW110292   0.514   3.359   2.326
 3131SOL    HW210293   0.627   3.472   2.363
 3132SOL     OW10294   3.870   5.772   6.211
 3132SOL    HW110295   3.899   5.785   6.116
 3132SOL    HW210296   3.939   5.717   6.260
 3133SOL     OW10297   2.965   1.476   3.333
 3133SOL    HW110298   3.011   1.564   3.347
 3133SOL    HW210299   3.004   1.408   3.396
 3134SOL     OW10300   4.688   4.320   1.573
 3134SOL    HW110301   4.619   4.270   1.625
 3134SOL    HW210302   4.715   4.267   1.493
 3135SOL     OW10303   4.309   1.059   4.935
 3135SOL    HW110304   4.240   1.131   4.940
 3135SOL    HW210305   4.292   0.993   5.008
 3136SOL     OW10306   5.450   0.691   2.024
 3136SOL    HW110307   5.383   0.758   2.057
 3136SOL    HW210308   5.483   0.637   2.101
 3137SOL     OW10309   6.654   0.861   2.150
 3137SOL    HW110310   6.654   0.844   2.052
 3137SOL    HW210311   6.634   0.776   2.199
 3138SOL     OW10312   6.255   4.685   3.571
 3138SOL    HW110313   6.184   4.656   3.508
 3138SOL    HW210314   6.306   4.761   3.531
 3139SOL     OW10315   4.650   6.078   0.606
 3139SOL    HW110316   4.621   6.166   0.644
 3139SOL    HW210317   4.671   6.015   0.680
 3140SOL     OW10318   6.603   7.018   0.407
 3140SOL    HW110319   6.560   6.995   0.319
 3140SOL    HW210320   6.666   6.945   0.434
 3141SOL     OW10321   0.719   6.722   6.651
 3141SOL    HW110322   0.652   6.795   6.639
 3141SOL    HW210323   0.792   6.753   6.712
 3142SOL     OW10324   3.648   0.104   2.374
 3142SOL    HW110325   3.694   0.130   2.289
 3142SOL    HW210326   3.644   0.004   2.380
 3143SOL     OW10327   6.472   2.263   0.187
 3143SOL    HW110328   6.458   2.224   0.097
 3143SOL    HW210329   6.561   2.309   0.190
 3144SOL     OW10330   3.639   3.855   1.809
 3144SOL    HW110331   3.614   3.948   1.780
 3144SOL    HW210332   3.734   3.836   1.784
 3145SOL     OW10333   2.274   5.838   1.329
 3145SOL    HW110334   2.259   5.833   1.230
 3145SOL    HW210335   2.263   5.932   1.359
 3146SOL     OW10336   1.314   1.025   4.140
 3146SOL    HW110337   1.222   1.023   4.181
 3146SOL    HW210338   1.367   1.099   4.182
 3147SOL     OW10339   3.220   5.541   1.162
 3147SOL    HW110340   3.220   5.442   1.175
 3147SOL    HW210341   3.196   5.562   1.067
 3148SOL     OW10342   6.223   6.558   3.879
 3148SOL    HW110343   6.226   6.473   3.931
 3148SOL    HW210344   6.130   6.573   3.846
 3149SOL     OW10345   2.623   0.777   5.590
 3149SOL    HW110346   2.561   0.852   5.565
 3149SOL    HW210347   2.621   0.708   5.518
 3150SOL     OW10348   6.077   5.356   4.430
 3150SOL    HW110349   5.978   5.358   4.448
 3150SOL    HW210350   6.118   5.443   4.459
 3151SOL     OW10351   6.889   1.068   5.440
 3151SOL    HW110352   6.818   1.134   5.415
 3151SOL    HW210353   6.897   0.998   5.368
 3152SOL     OW10354   1.280   5.325   0.961
 3152SOL    HW110355   1.338   5.290   0.888
 3152SOL    HW210356   1.290   5.267   1.042
 3153SOL     OW10357   6.014   5.054   0.607
 3153SOL    HW110358   5.931   5.067   0.553
 3153SOL    HW210359   6.005   4.972   0.664
 3154SOL     OW10360   6.417   1.576   6.811
 3154SOL    HW110361   6.503   1.538   6.844
 3154SOL    HW210362   6.397   1.661   6.859
 3155SOL     OW10363   6.532   4.542   0.574
 3155SOL    HW110364   6.568   4.450   0.558
 3155SOL    HW210365   6.522   4.557   0.672
 3156SOL     OW10366   3.395   3.190   3.257
 3156SOL    HW110367   3.474   3.129   3.257
 3156SOL    HW210368   3.324   3.152   3.317
 3157SOL     OW10369   2.702   2.053   5.169
 3157SOL    HW110370   2.694   2.120   5.243
 3157SOL    HW210371   2.795   2.054   5.133
 3158SOL     OW10372   3.508   1.520   3.279
 3158SOL    HW110373   3.587   1.477   3.234
 3158SOL    HW210374   3.453   1.567   3.210
 3159SOL     OW10375   6.049   1.352   0.341
 3159SOL    HW110376   6.138   1.355   0.387
 3159SOL    HW210377   6.011   1.260   0.350
 3160SOL     OW10378   0.285   5.931   5.655
 3160SOL    HW110379   0.244   5.880   5.579
 3160SOL    HW210380   0.246   5.900   5.741
 3161SOL     OW10381   2.344   2.641   3.010
 3161SOL    HW110382   2.292   2.556   3.016
 3161SOL    HW210383   2.300   2.711   3.067
 3162SOL     OW10384   1.476   6.170   2.057
 3162SOL    HW110385   1.407   6.102   2.083
 3162SOL    HW210386   1.453   6.208   1.967
 3163SOL     OW10387   4.820   2.980   6.038
 3163SOL    HW110388   4.910   2.954   6.003
 3163SOL    HW210389   4.827   3.070   6.082
 3164SOL     OW10390   4.615   5.406   1.174
 3164SOL    HW110391   4.700   5.398   1.226
 3164SOL    HW210392   4.561   5.483   1.209
 3165SOL     OW10393   0.705   6.260   0.740
 3165SOL    HW110394   0.687   6.337   0.802
 3165SOL    HW210395   0.772   6.287   0.672
 3166SOL     OW10396   4.000   1.682   4.119
 3166SOL    HW110397   4.045   1.721   4.200
 3166SOL    HW210398   3.986   1.754   4.051
 3167SOL     OW10399   6.411   4.875   1.065
 3167SOL    HW110400   6.466   4.955   1.089
 3167SOL    HW210401   6.461   4.818   1.000
 3168SOL     OW10402   4.775   2.685   6.701
 3168SOL    HW110403   4.691   2.709   6.748
 3168SOL    HW210404   4.841   2.649   6.767
 3169SOL     OW10405   2.071   3.619   4.418
 3169SOL    HW110406   2.088   3.616   4.320
 3169SOL    HW210407   2.113   3.539   4.461
 3170SOL     OW10408   4.323   6.666   1.350
 3170SOL    HW110409   4.335   6.573   1.315
 3170SOL    HW210410   4.313   6.730   1.274
 3171SOL     OW10411   0.416   0.433   2.040
 3171SOL    HW110412   0.382   0.522   2.070
 3171SOL    HW210413   0.341   0.380   2.000
 3172SOL     OW10414   6.548   5.111   0.459
 3172SOL    HW110415   6.468   5.160   0.494
 3172SOL    HW210416   6.627   5.173   0.456
 3173SOL     OW10417   2.480   1.662   0.376
 3173SOL    HW110418   2.451   1.721   0.451
 3173SOL    HW210419   2.440   1.695   0.290
 3174SOL     OW10420   2.634   2.137   0.504
 3174SOL    HW110421   2.584   2.173   0.425
 3174SOL    HW210422   2.575   2.141   0.585
 3175SOL     OW10423   6.482   1.096   1.702
 3175SOL    HW110424   6.541   1.153   1.760
 3175SOL    HW210425   6.440   1.154   1.632
 3176SOL     OW10426   1.660   3.936   5.445
 3176SOL    HW110427   1.578   3.915   5.499
 3176SOL    HW210428   1.734   3.962   5.506
 3177SOL     OW10429   4.903   3.721   3.928
 3177SOL    HW110430   4.880   3.663   4.006
 3177SOL    HW210431   4.914   3.816   3.959
 3178SOL     OW10432   6.282   2.115   0.946
 3178SOL    HW110433   6.250   2.184   1.010
 3178SOL    HW210434   6.204   2.071   0.902
 3179SOL     OW10435   0.778   2.977   2.176
 3179SOL    HW110436   0.726   2.915   2.235
 3179SOL    HW210437   0.762   3.072   2.204
 3180SOL     OW10438   4.449   1.269   7.016
 3180SOL    HW110439   4.445   1.231   6.923
 3180SOL    HW210440   4.533   1.322   0.005
 3181SOL     OW10441   6.975   1.719   3.489
 3181SOL    HW110442   6.985   1.761   3.579
 3181SOL    HW210443   6.932   1.785   3.427
 3182SOL     OW10444   3.177   0.210   5.800
 3182SOL    HW110445   3.173   0.221   5.899
 3182SOL    HW210446   3.190   0.300   5.758
 3183SOL     OW10447   4.074   4.071   1.710
 3183SOL    HW110448   4.032   4.014   1.780
 3183SOL    HW210449   4.174   4.071   1.722
 3184SOL     OW10450   0.941   3.546   2.741
 3184SOL    HW110451   0.951   3.519   2.837
 3184SOL    HW210452   0.844   3.565   2.722
 3185SOL     OW10453   5.735   5.999   0.046
 3185SOL    HW110454   5.664   5.947   7.021
 3185SOL    HW210455   5.801   6.033   7.001
 3186SOL     OW10456   3.563   1.743   1.528
 3186SOL    HW110457   3.635   1.805   1.497
 3186SOL    HW210458   3.525   1.775   1.615
 3187SOL     OW10459   4.685   4.607   0.141
 3187SOL    HW110460   4.603   4.568   0.183
 3187SOL    HW210461   4.724   4.676   0.201
 3188SOL     OW10462   2.225   0.527   4.192
 3188SOL    HW110463   2.252   0.482   4.277
 3188SOL    HW210464   2.281   0.609   4.179
 3189SOL     OW10465   1.351   0.910   1.281
 3189SOL    HW110466   1.448   0.929   1.267
 3189SOL    HW210467   1.296   0.981   1.235
 3190SOL     OW10468   0.025   5.880   0.360
 3190SOL    HW110469   0.099   5.937   0.397
 3190SOL    HW210470   0.043   5.784   0.381
 3191SOL     OW10471   4.936   6.202   0.871
 3191SOL    HW110472   4.879   6.257   0.811
 3191SOL    HW210473   4.990   6.138   0.816
 3192SOL     OW10474   6.945   2.276   1.433
 3192SOL    HW110475   6.932   2.371   1.403
 3192SOL    HW210476   6.918   2.268   1.529
 3193SOL     OW10477   3.315   1.639   6.482
 3193SOL    HW110478   3.249   1.589   6.538
 3193SOL    HW210479   3.354   1.714   6.536
 3194SOL     OW10480   1.792   2.454   6.420
 3194SOL    HW110481   1.741   2.368   6.424
 3194SOL    HW210482   1.736   2.524   6.377
 3195SOL     OW10483   3.000   2.247   3.357
 3195SOL    HW110484   3.000   2.247   3.257
 3195SOL    HW210485   3.089   2.215   3.390
 3196SOL     OW10486   0.292   1.130   6.345
 3196SOL    HW110487   0.306   1.197   6.272
 3196SOL    HW210488   0.321   1.169   6.433
 3197SOL     OW10489   2.507   6.416   3.530
 3197SOL    HW110490   2.597   6.412   3.572
 3197SOL    HW210491   2.492   6.333   3.475
 3198SOL     OW10492   5.694   2.732   4.809
 3198SOL    HW110493   5.776   2.770   4.852
 3198SOL    HW210494   5.710   2.635   4.787
 3199SOL     OW10495   5.358   3.529   2.409
 3199SOL    HW110496   5.305   3.494   2.486
 3199SOL    HW210497   5.314   3.502   2.323
 3200SOL     OW10498   6.198   3.106   1.705
 3200SOL    HW110499   6.140   3.124   1.626
 3200SOL    HW210500   6.290   3.142   1.688
 3201SOL     OW10501   5.578   4.789   4.379
 3201SOL    HW110502   5.658   4.736   4.409
 3201SOL    HW210503   5.570   4.872   4.434
 3202SOL     OW10504   6.985   4.714   1.728
 3202SOL    HW110505   6.988   4.683   1.633
 3202SOL    HW210506   0.031   4.663   1.782
 3203SOL     OW10507   6.303   2.480   0.569
 3203SOL    HW110508   6.392   2.477   0.615
 3203SOL    HW210509   6.317   2.464   0.471
 3204SOL     OW10510   4.753   6.484   2.237
 3204SOL    HW110511   4.723   6.411   2.298
 3204SOL    HW210512   4.725   6.573   2.275
 3205SOL     OW10513   6.944   3.031   6.234
 3205SOL    HW110514   6.981   2.983   6.313
 3205SOL    HW210515   6.911   2.965   6.167
 3206SOL     OW10516   1.072   5.876   6.242
 3206SOL    HW110517   0.973   5.881   6.248
 3206SOL    HW210518   1.098   5.804   6.177
 3207SOL     OW10519   0.884   0.468   5.728
 3207SOL    HW110520   0.963   0.521   5.697
 3207SOL    HW210521   0.823   0.527   5.781
 3208SOL     OW10522   5.138   6.100   5.693
 3208SOL    HW110523   5.197   6.181   5.697
 3208SOL    HW210524   5.093   6.096   5.603
 3209SOL     OW10525   4.374   5.971   3.035
 3209SOL    HW110526   4.381   5.918   3.119
 3209SOL    HW210527   4.327   6.057   3.053
 3210SOL     OW10528   0.824   4.610   1.513
 3210SOL    HW110529   0.726   4.605   1.530
 3210SOL    HW210530   0.862   4.517   1.508
 3211SOL     OW10531   1.472   4.197   1.036
 3211SOL    HW110532   1.378   4.185   1.067
 3211SOL    HW210533   1.473   4.251   0.952
 3212SOL     OW10534   3.334   0.580   0.899
 3212SOL    HW110535   3.421   0.550   0.860
 3212SOL    HW210536   3.260   0.523   0.863
 3213SOL     OW10537   0.600   5.762   1.771
 3213SOL    HW110538   0.639   5.755   1.679
 3213SOL    HW210539   0.645   5.697   1.831
 3214SOL     OW10540   5.024   5.379   0.330
 3214SOL    HW110541   5.079   5.440   0.387
 3214SOL    HW210542   5.054   5.284   0.344
 3215SOL     OW10543   6.758   3.294   0.996
 3215SOL    HW110544   6.849   3.325   0.970
 3215SOL    HW210545   6.734   3.333   1.085
 3216SOL     OW10546   5.926   5.231   0.787
 3216SOL    HW110547   5.990   5.174   0.736
 3216SOL    HW210548   5.847   5.253   0.730
 3217SOL     OW10549   0.239   5.294   2.391
 3217SOL    HW110550   0.312   5.231   2.417
 3217SOL    HW210551   0.276   5.367   2.334
 3218SOL     OW10552   4.215   1.223   3.405
 3218SOL    HW110553   4.190   1.202   3.311
 3218SOL    HW210554   4.299   1.173   3.429
 3219SOL     OW10555   6.886   1.434   3.497
 3219SOL    HW110556   6.847   1.425   3.589
 3219SOL    HW210557   6.925   1.526   3.487
 3220SOL     OW10558   6.347   5.938   6.610
 3220SOL    HW110559   6.294   5.943   6.695
 3220SOL    HW210560   6.413   5.863   6.616
 3221SOL     OW10561   3.971   0.584   1.546
 3221SOL    HW110562   3.984   0.527   1.465
 3221SOL    HW210563   4.058   0.623   1.574
 3222SOL     OW10564   3.934   1.490   2.484
 3222SOL    HW110565   3.945   1.410   2.544
 3222SOL    HW210566   3.845   1.484   2.438
 3223SOL     OW10567   1.751   5.777   6.368
 3223SOL    HW110568   1.800   5.711   6.425
 3223SOL    HW210569   1.697   5.728   6.299
 3224SOL     OW10570   4.418   3.688   6.672
 3224SOL    HW110571   4.334   3.646   6.638
 3224SOL    HW210572   4.395   3.756   6.742
 3225SOL     OW10573   4.600   3.658   6.425
 3225SOL    HW110574   4.544   3.669   6.507
 3225SOL    HW210575   4.554   3.598   6.360
 3226SOL     OW10576   2.019   1.467   3.930
 3226SOL    HW110577   2.041   1.561   3.955
 3226SOL    HW210578   2.099   1.423   3.890
 3227SOL     OW10579   3.750   2.396   0.131
 3227SOL    HW110580   3.793   2.308   0.107
 3227SOL    HW210581   3.781   2.425   0.221
 3228SOL     OW10582   6.558   4.330   2.975
 3228SOL    HW110583   6.645   4.344   3.024
 3228SOL    HW210584   6.576   4.289   2.886
 3229SOL     OW10585   4.087   0.542   5.537
 3229SOL    HW110586   4.021   0.485   5.488
 3229SOL    HW210587   4.091   0.514   5.633
 3230SOL     OW10588   1.939   3.286   4.770
 3230SOL    HW110589   1.905   3.364   4.717
 3230SOL    HW210590   1.861   3.237   4.810
 3231SOL     OW10591   2.225   0.617   1.201
 3231SOL    HW110592   2.285   0.691   1.233
 3231SOL    HW210593   2.134   0.654   1.183
 3232SOL     OW10594   4.757   5.307   5.187
 3232SOL    HW110595   4.749   5.278   5.282
 3232SOL    HW210596   4.684   5.371   5.165
 3233SOL     OW10597   1.146   2.774   1.433
 3233SOL    HW110598   1.185   2.724   1.355
 3233SOL    HW210599   1.192   2.747   1.517
 3234SOL     OW10600   6.897   1.787   6.831
 3234SOL    HW110601   6.832   1.815   6.901
 3234SOL    HW210602   6.972   1.852   6.827
 3235SOL     OW10603   5.609   1.039   1.689
 3235SOL    HW110604   5.698   1.031   1.643
 3235SOL    HW210605   5.623   1.056   1.786
 3236SOL     OW10606   1.352   3.599   1.016
 3236SOL    HW110607   1.376   3.507   0.986
 3236SOL    HW210608   1.426   3.636   1.072
 3237SOL     OW10609   4.886   1.649   3.921
 3237SOL    HW110610   4.880   1.552   3.944
 3237SOL    HW210611   4.910   1.701   4.004
 3238SOL     OW10612   0.298   4.786   0.917
 3238SOL    HW110613   0.324   4.859   0.981
 3238SOL    HW210614   0.268   4.826   0.831
 3239SOL     OW10615   6.444   1.628   1.990
 3239SOL    HW110616   6.513   1.642   2.061
 3239SOL    HW210617   6.425   1.715   1.945
 3240SOL     OW10618   0.991   0.166   6.369
 3240SOL    HW110619   1.025   0.199   6.457
 3240SOL    HW210620   1.067   0.163   6.303
 3241SOL     OW10621   4.355   1.898   5.517
 3241SOL    HW110622   4.281   1.943   5.567
 3241SOL    HW210623   4.350   1.922   5.420
 3242SOL     OW10624   3.506   4.385   6.903
 3242SOL    HW110625   3.458   4.410   6.819
 3242SOL    HW210626   3.511   4.464   6.964
 3243SOL     OW10627   4.375   4.719   0.500
 3243SOL    HW110628   4.381   4.670   0.413
 3243SOL    HW210629   4.456   4.778   0.510
 3244SOL     OW10630   5.205   5.597   0.488
 3244SOL    HW110631   5.111   5.623   0.513
 3244SOL    HW210632   5.268   5.667   0.520
 3245SOL     OW10633   4.816   3.030   5.068
 3245SOL    HW110634   4.825   3.043   4.969
 3245SOL    HW210635   4.823   3.118   5.114
 3246SOL     OW10636   5.802   0.633   2.479
 3246SOL    HW110637   5.863   0.676   2.412
 3246SOL    HW210638   5.811   0.681   2.567
 3247SOL     OW10639   5.972   4.377   2.448
 3247SOL    HW110640   5.988   4.287   2.406
 3247SOL    HW210641   6.060   4.416   2.475
 3248SOL     OW10642   6.733   3.627   0.831
 3248SOL    HW110643   6.783   3.568   0.767
 3248SOL    HW210644   6.637   3.601   0.832
 3249SOL     OW10645   3.911   2.974   4.040
 3249SOL    HW110646   3.867   2.994   3.953
 3249SOL    HW210647   3.983   3.041   4.056
 3250SOL     OW10648   6.125   6.552   2.088
 3250SOL    HW110649   6.221   6.581   2.083
 3250SOL    HW210650   6.110   6.476   2.025
 3251SOL     OW10651   2.873   1.053   2.692
 3251SOL    HW110652   2.944   1.053   2.621
 3251SOL    HW210653   2.871   1.142   2.737
 3252SOL     OW10654   2.612   2.134   2.913
 3252SOL    HW110655   2.556   2.053   2.896
 3252SOL    HW210656   2.656   2.163   2.828
 3253SOL     OW10657   5.222   3.410   1.885
 3253SOL    HW110658   5.200   3.507   1.900
 3253SOL    HW210659   5.152   3.369   1.827
 3254SOL     OW10660   5.106   5.439   5.233
 3254SOL    HW110661   5.177   5.508   5.217
 3254SOL    HW210662   5.059   5.419   5.147
 3255SOL     OW10663   5.374   5.832   0.500
 3255SOL    HW110664   5.292   5.887   0.499
 3255SOL    HW210665   5.448   5.881   0.453
 3256SOL     OW10666   3.312   0.966   6.858
 3256SOL    HW110667   3.224   1.014   6.856
 3256SOL    HW210668   3.316   0.908   6.940
 3257SOL     OW10669   2.077   1.354   1.541
 3257SOL    HW110670   2.052   1.290   1.614
 3257SOL    HW210671   2.028   1.440   1.553
 3258SOL     OW10672   4.170   4.762   1.974
 3258SOL    HW110673   4.259   4.716   1.975
 3258SOL    HW210674   4.111   4.720   1.904
 3259SOL     OW10675   4.651   5.281   3.495
 3259SOL    HW110676   4.578   5.338   3.458
 3259SOL    HW210677   4.688   5.223   3.423
 3260SOL     OW10678   1.895   1.923   0.799
 3260SOL    HW110679   1.945   1.977   0.731
 3260SOL    HW210680   1.824   1.981   0.841
 3261SOL     OW10681   4.946   0.014   1.064
 3261SOL    HW110682   4.862   6.984   1.081
 3261SOL    HW210683   4.981   0.050   1.150
 3262SOL     OW10684   3.269   1.886   2.130
 3262SOL    HW110685   3.287   1.848   2.040
 3262SOL    HW210686   3.209   1.824   2.181
 3263SOL     OW10687   2.399   0.952   3.339
 3263SOL    HW110688   2.486   0.917   3.373
 3263SOL    HW210689   2.369   0.896   3.261
 3264SOL     OW10690   1.594   4.438   0.793
 3264SOL    HW110691   1.606   4.495   0.712
 3264SOL    HW210692   1.656   4.360   0.788
 3265SOL     OW10693   4.870   0.985   6.596
 3265SOL    HW110694   4.941   0.916   6.582
 3265SOL    HW210695   4.894   1.068   6.546
 3266SOL     OW10696   1.263   3.475   0.652
 3266SOL    HW110697   1.279   3.449   0.556
 3266SOL    HW210698   1.178   3.432   0.684
 3267SOL     OW10699   3.867   0.843   0.598
 3267SOL    HW110700   3.789   0.879   0.547
 3267SOL    HW210701   3.946   0.901   0.582
 3268SOL     OW10702   1.606   3.748   0.553
 3268SOL    HW110703   1.558   3.662   0.539
 3268SOL    HW210704   1.554   3.807   0.614
 3269SOL     OW10705   4.194   5.123   2.345
 3269SOL    HW110706   4.252   5.198   2.377
 3269SOL    HW210707   4.238   5.036   2.368
 3270SOL     OW10708   0.673   4.324   5.325
 3270SOL    HW110709   0.597   4.382   5.295
 3270SOL    HW210710   0.735   4.309   5.248
 3271SOL     OW10711   6.165   3.334   2.363
 3271SOL    HW110712   6.164   3.353   2.265
 3271SOL    HW210713   6.072   3.312   2.394
 3272SOL     OW10714   3.544   4.007   6.145
 3272SOL    HW110715   3.613   3.943   6.111
 3272SOL    HW210716   3.456   3.987   6.100
 3273SOL     OW10717   0.613   6.355   1.283
 3273SOL    HW110718   0.566   6.435   1.321
 3273SOL    HW210719   0.696   6.384   1.236
 3274SOL     OW10720   4.627   1.369   1.441
 3274SOL    HW110721   4.700   1.435   1.422
 3274SOL    HW210722   4.539   1.407   1.412
 3275SOL     OW10723   6.638   1.684   6.284
 3275SOL    HW110724   6.568   1.616   6.303
 3275SOL    HW210725   6.706   1.645   6.222
 3276SOL     OW10726   1.976   6.003   0.392
 3276SOL    HW110727   1.938   5.922   0.348
 3276SOL    HW210728   2.039   6.049   0.329
 3277SOL     OW10729   4.334   6.849   0.365
 3277SOL    HW110730   4.254   6.898   0.400
 3277SOL    HW210731   4.409   6.914   0.351
 3278SOL     OW10732   1.003   1.129   6.476
 3278SOL    HW110733   1.043   1.174   6.556
 3278SOL    HW210734   0.905   1.148   6.472
 3279SOL     OW10735   5.668   0.785   6.844
 3279SOL    HW110736   5.680   0.850   6.769
 3279SOL    HW210737   5.616   0.827   6.918
 3280SOL     OW10738   3.662   5.670   4.446
 3280SOL    HW110739   3.748   5.636   4.485
 3280SOL    HW210740   3.599   5.593   4.432
 3281SOL     OW10741   2.380   5.920   1.849
 3281SOL    HW110742   2.361   6.018   1.843
 3281SOL    HW210743   2.478   5.904   1.837
 3282SOL     OW10744   0.656   4.799   5.691
 3282SOL    HW110745   0.640   4.846   5.778
 3282SOL    HW210746   0.569   4.770   5.652
 3283SOL     OW10747   4.613   1.107   1.312
 3283SOL    HW110748   4.597   1.148   1.402
 3283SOL    HW210749   4.702   1.135   1.278
 3284SOL     OW10750   6.719   5.377   0.096
 3284SOL    HW110751   6.646   5.315   0.125
 3284SOL    HW210752   6.745   5.435   0.173
 3285SOL     OW10753   5.230   2.711   3.824
 3285SOL    HW110754   5.168   2.650   3.874
 3285SOL    HW210755   5.179   2.792   3.793
 3286SOL     OW10756   4.094   3.701   2.670
 3286SOL    HW110757   4.129   3.651   2.591
 3286SOL    HW210758   4.007   3.745   2.645
 3287SOL     OW10759   1.239   6.369   0.131
 3287SOL    HW110760   1.143   6.395   0.123
 3287SOL    HW210761   1.290   6.403   0.051
 3288SOL     OW10762   0.207   5.280   6.464
 3288SOL    HW110763   0.140   5.346   6.497
 3288SOL    HW210764   0.223   5.211   6.533
 3289SOL     OW10765   2.375   6.601   5.543
 3289SOL    HW110766   2.422   6.687   5.520
 3289SOL    HW210767   2.401   6.573   5.635
 3290SOL     OW10768   0.552   0.314   1.817
 3290SOL    HW110769   0.494   0.247   1.771
 3290SOL    HW210770   0.509   0.341   1.903
 3291SOL     OW10771   1.994   6.611   1.173
 3291SOL    HW110772   2.065   6.599   1.103
 3291SOL    HW210773   1.907   6.630   1.128
 3292SOL     OW10774   0.746   1.000   1.102
 3292SOL    HW110775   0.801   0.973   1.023
 3292SOL    HW210776   0.654   1.025   1.071
 3293SOL     OW10777   0.679   3.892   3.364
 3293SOL    HW110778   0.618   3.949   3.309
 3293SOL    HW210779   0.625   3.837   3.427
 3294SOL     OW10780   6.461   1.641   5.878
 3294SOL    HW110781   6.524   1.615   5.951
 3294SOL    HW210782   6.444   1.739   5.881
 3295SOL     OW10783   1.338   3.058   1.879
 3295SOL    HW110784   1.368   3.105   1.962
 3295SOL    HW210785   1.239   3.045   1.882
 3296SOL     OW10786   1.644   6.568   2.456
 3296SOL    HW110787   1.617   6.568   2.359
 3296SOL    HW210788   1.680   6.478   2.480
 3297SOL     OW10789   3.057   0.773   4.580
 3297SOL    HW110790   3.079   0.702   4.514
 3297SOL    HW210791   2.980   0.744   4.637
 3298SOL     OW10792   5.874   1.624   4.694
 3298SOL    HW110793   5.786   1.663   4.668
 3298SOL    HW210794   5.947   1.666   4.640
 3299SOL     OW10795   2.638   5.316   3.846
 3299SOL    HW110796   2.729   5.356   3.842
 3299SOL    HW210797   2.638   5.238   3.909
 3300SOL     OW10798   0.234   0.799   5.479
 3300SOL    HW110799   0.276   0.853   5.552
 3300SOL    HW210800   0.168   0.855   5.429
 3301SOL     OW10801   2.133   3.204   3.759
 3301SOL    HW110802   2.103   3.160   3.674
 3301SOL    HW210803   2.126   3.304   3.748
 3302SOL     OW10804   0.341   5.117   5.009
 3302SOL    HW110805   0.268   5.184   5.023
 3302SOL    HW210806   0.314   5.030   5.051
 3303SOL     OW10807   3.388   3.229   1.622
 3303SOL    HW110808   3.486   3.222   1.604
 3303SOL    HW210809   3.371   3.222   1.720
 3304SOL     OW10810   1.104   5.753   4.206
 3304SOL    HW110811   1.160   5.671   4.195
 3304SOL    HW210812   1.116   5.789   4.299
 3305SOL     OW10813   1.952   1.610   3.253
 3305SOL    HW110814   2.026   1.550   3.225
 3305SOL    HW210815   1.984   1.705   3.252
 3306SOL     OW10816   1.824   5.504   4.795
 3306SOL    HW110817   1.900   5.469   4.851
 3306SOL    HW210818   1.738   5.494   4.845
 3307SOL     OW10819   6.790   5.696   0.383
 3307SOL    HW110820   6.718   5.730   0.321
 3307SOL    HW210821   6.825   5.772   0.438
 3308SOL     OW10822   3.884   6.384   6.950
 3308SOL    HW110823   3.855   6.317   6.882
 3308SOL    HW210824   3.912   6.336   0.012
 3309SOL     OW10825   6.806   5.359   2.626
 3309SOL    HW110826   6.830   5.436   2.566
 3309SOL    HW210827   6.871   5.354   2.702
 3310SOL     OW10828   0.159   3.869   5.932
 3310SOL    HW110829   0.082   3.932   5.929
 3310SOL    HW210830   0.203   3.867   5.842
 3311SOL     OW10831   2.712   3.561   1.450
 3311SOL    HW110832   2.679   3.654   1.432
 3311SOL    HW210833   2.762   3.559   1.536
 3312SOL     OW10834   4.234   4.704   5.881
 3312SOL    HW110835   4.186   4.667   5.961
 3312SOL    HW210836   4.310   4.644   5.856
 3313SOL     OW10837   0.311   4.963   3.549
 3313SOL    HW110838   0.398   4.963   3.499
 3313SOL    HW210839   0.264   4.876   3.535
 3314SOL     OW10840   2.496   1.582   3.454
 3314SOL    HW110841   2.429   1.649   3.423
 3314SOL    HW210842   2.580   1.590   3.400
 3315SOL     OW10843   6.570   3.107   4.863
 3315SOL    HW110844   6.665   3.099   4.895
 3315SOL    HW210845   6.553   3.202   4.837
 3316SOL     OW10846   4.576   2.134   6.087
 3316SOL    HW110847   4.537   2.083   6.164
 3316SOL    HW210848   4.532   2.223   6.080
 3317SOL     OW10849   4.454   3.197   1.652
 3317SOL    HW110850   4.391   3.260   1.697
 3317SOL    HW210851   4.520   3.162   1.718
 3318SOL     OW10852   2.946   0.933   0.252
 3318SOL    HW110853   2.885   0.972   0.321
 3318SOL    HW210854   2.898   0.928   0.165
 3319SOL     OW10855   6.288   0.675   4.242
 3319SOL    HW110856   6.383   0.652   4.222
 3319SOL    HW210857   6.275   0.774   4.236
 3320SOL     OW10858   5.847   0.287   4.983
 3320SOL    HW110859   5.883   0.226   5.054
 3320SOL    HW210860   5.806   0.367   5.027
 3321SOL     OW10861   3.932   2.382   0.474
 3321SOL    HW110862   3.980   2.469   0.484
 3321SOL    HW210863   3.836   2.400   0.452
 3322SOL     OW10864   5.686   3.609   0.819
 3322SOL    HW110865   5.712   3.575   0.729
 3322SOL    HW210866   5.755   3.674   0.851
 3323SOL     OW10867   3.046   2.615   0.339
 3323SOL    HW110868   3.054   2.519   0.366
 3323SOL    HW210869   3.135   2.659   0.347
 3324SOL     OW10870   2.337   4.359   6.213
 3324SOL    HW110871   2.245   4.353   6.251
 3324SOL    HW210872   2.378   4.447   6.238
 3325SOL     OW10873   1.864   3.162   6.582
 3325SOL    HW110874   1.791   3.188   6.520
 3325SOL    HW210875   1.831   3.093   6.646
 3326SOL     OW10876   5.147   2.333   2.296
 3326SOL    HW110877   5.151   2.237   2.267
 3326SOL    HW210878   5.158   2.393   2.217
 3327SOL     OW10879   2.654   5.908   1.810
 3327SOL    HW110880   2.648   5.903   1.710
 3327SOL    HW210881   2.737   5.862   1.841
 3328SOL     OW10882   4.250   1.882   1.095
 3328SOL    HW110883   4.261   1.805   1.032
 3328SOL    HW210884   4.196   1.854   1.174
 3329SOL     OW10885   5.130   0.220   4.655
 3329SOL    HW110886   5.091   0.282   4.724
 3329SOL    HW210887   5.193   0.271   4.597
 3330SOL     OW10888   6.341   5.274   1.238
 3330SOL    HW110889   6.380   5.194   1.283
 3330SOL    HW210890   6.359   5.356   1.293
 3331SOL     OW10891   1.347   3.797   1.297
 3331SOL    HW110892   1.356   3.779   1.395
 3331SOL    HW210893   1.423   3.754   1.248
 3332SOL     OW10894   6.870   4.883   0.205
 3332SOL    HW110895   6.899   4.790   0.229
 3332SOL    HW210896   6.870   4.940   0.287
 3333SOL     OW10897   3.188   3.905   6.636
 3333SOL    HW110898   3.129   3.909   6.717
 3333SOL    HW210899   3.157   3.973   6.569
 3334SOL     OW10900   2.426   4.033   1.463
 3334SOL    HW110901   2.457   4.121   1.498
 3334SOL    HW210902   2.380   4.047   1.375
 3335SOL     OW10903   4.892   0.370   5.865
 3335SOL    HW110904   4.983   0.407   5.850
 3335SOL    HW210905   4.850   0.414   5.943
 3336SOL     OW10906   1.754   6.585   4.583
 3336SOL    HW110907   1.713   6.588   4.675
 3336SOL    HW210908   1.826   6.517   4.581
 3337SOL     OW10909   2.955   3.965   1.497
 3337SOL    HW110910   2.884   3.933   1.560
 3337SOL    HW210911   3.020   3.891   1.479
 3338SOL     OW10912   6.060   3.218   2.083
 3338SOL    HW110913   6.120   3.264   2.017
 3338SOL    HW210914   6.055   3.121   2.061
 3339SOL     OW10915   1.053   6.869   6.422
 3339SOL    HW110916   1.010   6.957   6.441
 3339SOL    HW210917   0.983   6.804   6.390
 3340SOL     OW10918   3.230   2.076   3.150
 3340SOL    HW110919   3.147   2.035   3.188
 3340SOL    HW210920   3.292   2.103   3.224
 3341SOL     OW10921   0.639   4.512   3.821
 3341SOL    HW110922   0.590   4.458   3.889
 3341SOL    HW210923   0.730   4.473   3.807
 3342SOL     OW10924   1.440   6.115   3.657
 3342SOL    HW110925   1.445   6.026   3.703
 3342SOL    HW210926   1.483   6.108   3.567
 3343SOL     OW10927   4.831   3.893   0.002
 3343SOL    HW110928   4.780   3.920   6.942
 3343SOL    HW210929   4.912   3.841   6.996
 3344SOL     OW10930   6.177   3.244   3.372
 3344SOL    HW110931   6.217   3.159   3.407
 3344SOL    HW210932   6.194   3.251   3.274
 3345SOL     OW10933   1.403   2.922   6.172
 3345SOL    HW110934   1.411   2.824   6.191
 3345SOL    HW210935   1.315   2.940   6.128
 3346SOL     OW10936   0.916   1.126   0.044
 3346SOL    HW110937   0.971   1.210   0.041
 3346SOL    HW210938   0.844   1.132   6.996
 3347SOL     OW10939   1.075   3.077   5.089
 3347SOL    HW110940   1.161   3.108   5.049
 3347SOL    HW210941   0.999   3.122   5.044
 3348SOL     OW10942   3.984   3.753   4.605
 3348SOL    HW110943   4.022   3.684   4.544
 3348SOL    HW210944   4.014   3.736   4.699
 3349SOL     OW10945   1.457   5.051   3.108
 3349SOL    HW110946   1.521   5.024   3.181
 3349SOL    HW210947   1.477   4.998   3.025
 3350SOL     OW10948   6.953   2.255   5.808
 3350SOL    HW110949   6.935   2.209   5.720
 3350SOL    HW210950   0.001   2.326   5.795
 3351SOL     OW10951   5.275   0.603   2.621
 3351SOL    HW110952   5.363   0.608   2.668
 3351SOL    HW210953   5.252   0.507   2.605
 3352SOL     OW10954   6.571   3.337   0.763
 3352SOL    HW110955   6.509   3.302   0.833
 3352SOL    HW210956   6.666   3.320   0.790
 3353SOL     OW10957   3.147   5.895   2.019
 3353SOL    HW110958   3.234   5.875   1.973
 3353SOL    HW210959   3.160   5.969   2.085
 3354SOL     OW10960   4.724   2.469   5.760
 3354SOL    HW110961   4.654   2.490   5.691
 3354SOL    HW210962   4.815   2.491   5.724
 3355SOL     OW10963   2.297   2.068   6.185
 3355SOL    HW110964   2.363   2.141   6.206
 3355SOL    HW210965   2.300   2.047   6.088
 3356SOL     OW10966   0.246   5.217   5.799
 3356SOL    HW110967   0.295   5.301   5.777
 3356SOL    HW210968   0.282   5.142   5.744
 3357SOL     OW10969   2.101   3.765   2.189
 3357SOL    HW110970   2.163   3.692   2.160
 3357SOL    HW210971   2.007   3.733   2.182
 3358SOL     OW10972   4.654   2.354   1.301
 3358SOL    HW110973   4.698   2.309   1.378
 3358SOL    HW210974   4.562   2.384   1.328
 3359SOL     OW10975   0.713   6.322   2.617
 3359SOL    HW110976   0.680   6.330   2.711
 3359SOL    HW210977   0.651   6.263   2.564
 3360SOL     OW10978   1.611   1.181   0.063
 3360SOL    HW110979   1.647   1.164   6.993
 3360SOL    HW210980   1.678   1.152   0.132
 3361SOL     OW10981   0.125   5.388   4.633
 3361SOL    HW110982   0.162   5.466   4.582
 3361SOL    HW210983   0.026   5.385   4.621
 3362SOL     OW10984   3.451   1.601   2.427
 3362SOL    HW110985   3.418   1.694   2.412
 3362SOL    HW210986   3.459   1.583   2.525
 3363SOL     OW10987   6.944   0.716   2.186
 3363SOL    HW110988   6.851   0.680   2.187
 3363SOL    HW210989   6.985   0.698   2.097
 3364SOL     OW10990   1.543   4.678   3.682
 3364SOL    HW110991   1.510   4.653   3.591
 3364SOL    HW210992   1.552   4.777   3.687
 3365SOL     OW10993   0.181   1.919   4.980
 3365SOL    HW110994   0.095   1.893   4.936
 3365SOL    HW210995   0.227   1.989   4.925
 3366SOL     OW10996   5.799   5.355   4.634
 3366SOL    HW110997   5.775   5.370   4.538
 3366SOL    HW210998   5.718   5.324   4.684
 3367SOL     OW10999   3.985   3.039   2.413
 3367SOL    HW111000   3.980   2.945   2.378
 3367SOL    HW211001   3.903   3.060   2.467
 3368SOL     OW11002   0.166   5.962   6.742
 3368SOL    HW111003   0.224   5.888   6.709
 3368SOL    HW211004   0.089   5.924   6.794
 3369SOL     OW11005   3.550   1.809   0.950
 3369SOL    HW111006   3.458   1.776   0.930
 3369SOL    HW211007   3.600   1.823   0.865
 3370SOL     OW11008   6.783   6.125   0.588
 3370SOL    HW111009   6.797   6.040   0.638
 3370SOL    HW211010   6.804   6.111   0.491
 3371SOL     OW11011   2.049   2.283   1.565
 3371SOL    HW111012   2.024   2.283   1.468
 3371SOL    HW211013   1.989   2.346   1.615
 3372SOL     OW11014   6.646   2.038   0.351
 3372SOL    HW111015   6.669   1.953   0.398
 3372SOL    HW211016   6.648   2.114   0.417
 3373SOL     OW11017   0.645   1.685   3.788
 3373SOL    HW111018   0.631   1.640   3.876
 3373SOL    HW211019   0.738   1.720   3.783
 3374SOL     OW11020   1.078   6.566   4.621
 3374SOL    HW111021   1.076   6.516   4.534
 3374SOL    HW211022   1.130   6.651   4.609
 3375SOL     OW11023   0.246   4.804   0.101
 3375SOL    HW111024   0.202   4.812   0.190
 3375SOL    HW211025   0.176   4.786   0.031
 3376SOL     OW11026   4.065   3.204   4.192
 3376SOL    HW111027   4.137   3.135   4.206
 3376SOL    HW211028   4.102   3.295   4.214
 3377SOL     OW11029   6.198   5.824   6.091
 3377SOL    HW111030   6.269   5.755   6.106
 3377SOL    HW211031   6.152   5.845   6.177
 3378SOL     OW11032   0.911   0.892   0.926
 3378SOL    HW111033   0.919   0.800   0.963
 3378SOL    HW211034   0.886   0.887   0.829
 3379SOL     OW11035   0.936   1.327   5.796
 3379SOL    HW111036   0.893   1.392   5.858
 3379SOL    HW211037   1.025   1.300   5.833
 3380SOL     OW11038   5.742   6.502   4.734
 3380SOL    HW111039   5.781   6.576   4.788
 3380SOL    HW211040   5.653   6.530   4.698
 3381SOL     OW11041   0.727   2.499   1.164
 3381SOL    HW111042   0.731   2.595   1.191
 3381SOL    HW211043   0.683   2.446   1.237
 3382SOL     OW11044   0.526   2.953   0.458
 3382SOL    HW111045   0.534   3.044   0.499
 3382SOL    HW211046   0.454   2.954   0.389
 3383SOL     OW11047   4.207   5.861   1.434
 3383SOL    HW111048   4.221   5.888   1.339
 3383SOL    HW211049   4.295   5.841   1.476
 3384SOL     OW11050   3.133   2.923   0.222
 3384SOL    HW111051   3.111   2.862   0.145
 3384SOL    HW211052   3.059   2.921   0.288
 3385SOL     OW11053   0.008   3.310   4.943
 3385SOL    HW111054   0.084   3.369   4.971
 3385SOL    HW211055   6.962   3.364   4.892
 3386SOL     OW11056   5.564   4.882   0.378
 3386SOL    HW111057   5.537   4.792   0.344
 3386SOL    HW211058   5.510   4.953   0.333
 3387SOL     OW11059   2.614   0.602   2.824
 3387SOL    HW111060   2.627   0.699   2.806
 3387SOL    HW211061   2.548   0.590   2.899
 3388SOL     OW11062   5.299   3.049   2.477
 3388SOL    HW111063   5.365   3.124   2.473
 3388SOL    HW211064   5.251   3.052   2.565
 3389SOL     OW11065   6.165   5.596   6.624
 3389SOL    HW111066   6.096   5.590   6.552
 3389SOL    HW211067   6.131   5.552   6.707
 3390SOL     OW11068   5.702   6.788   6.306
 3390SOL    HW111069   5.631   6.822   6.368
 3390SOL    HW211070   5.676   6.699   6.270
 3391SOL     OW11071   4.814   2.387   4.575
 3391SOL    HW111072   4.850   2.411   4.485
 3391SOL    HW211073   4.797   2.470   4.627
 3392SOL     OW11074   2.433   0.144   3.413
 3392SOL    HW111075   2.428   0.237   3.376
 3392SOL    HW211076   2.360   0.132   3.480
 3393SOL     OW11077   6.871   6.044   0.992
 3393SOL    HW111078   6.803   6.109   0.956
 3393SOL    HW211079   6.912   5.993   0.916
 3394SOL     OW11080   5.492   3.347   1.573
 3394SOL    HW111081   5.418   3.346   1.507
 3394SOL    HW211082   5.570   3.297   1.537
 3395SOL     OW11083   5.572   3.403   3.369
 3395SOL    HW111084   5.641   3.342   3.408
 3395SOL    HW211085   5.484   3.387   3.415
 3396SOL     OW11086   5.209   1.617   3.155
 3396SOL    HW111087   5.131   1.596   3.096
 3396SOL    HW211088   5.178   1.671   3.233
 3397SOL     OW11089   2.938   5.939   5.787
 3397SOL    HW111090   3.032   5.969   5.803
 3397SOL    HW211091   2.937   5.841   5.768
 3398SOL     OW11092   0.663   6.914   5.028
 3398SOL    HW111093   0.654   6.838   4.964
 3398SOL    HW211094   0.587   6.977   5.017
 3399SOL     OW11095   5.772   4.561   3.371
 3399SOL    HW111096   5.813   4.547   3.461
 3399SOL    HW211097   5.685   4.511   3.365
 3400SOL     OW11098   4.755   3.319   6.519
 3400SOL    HW111099   4.778   3.395   6.458
 3400SOL    HW211100   4.814   3.241   6.497
 3401SOL     OW11101   0.210   3.157   0.440
 3401SOL    HW111102   0.181   3.061   0.446
 3401SOL    HW211103   0.214   3.196   0.532
 3402SOL     OW11104   4.464   5.735   6.466
 3402SOL    HW111105   4.419   5.784   6.391
 3402SOL    HW211106   4.396   5.687   6.521
 3403SOL     OW11107   3.221   5.409   5.900
 3403SOL    HW111108   3.190   5.447   5.812
 3403SOL    HW211109   3.320   5.418   5.906
 3404SOL     OW11110   5.029   1.919   0.718
 3404SOL    HW111111   4.954   1.853   0.724
 3404SOL    HW211112   5.064   1.921   0.624
 3405SOL     OW11113   6.552   4.280   5.949
 3405SOL    HW111114   6.634   4.336   5.960
 3405SOL    HW211115   6.542   4.255   5.852
 3406SOL     OW11116   0.715   3.172   1.985
 3406SOL    HW111117   0.647   3.142   1.918
 3406SOL    HW211118   0.763   3.093   2.021
 3407SOL     OW11119   1.389   4.484   6.356
 3407SOL    HW111120   1.411   4.394   6.392
 3407SOL    HW211121   1.453   4.551   6.394
 3408SOL     OW11122   5.193   3.738   4.673
 3408SOL    HW111123   5.105   3.784   4.670
 3408SOL    HW211124   5.178   3.639   4.680
 3409SOL     OW11125   3.457   6.371   6.225
 3409SOL    HW111126   3.545   6.411   6.198
 3409SOL    HW211127   3.434   6.400   6.318
 3410SOL     OW11128   6.665   6.846   1.246
 3410SOL    HW111129   6.692   6.798   1.329
 3410SOL    HW211130   6.567   6.833   1.231
 3411SOL     OW11131   0.622   3.137   1.202
 3411SOL    HW111132   0.678   3.218   1.217
 3411SOL    HW211133   0.674   3.070   1.149
 3412SOL     OW11134   4.617   2.975   1.058
 3412SOL    HW111135   4.536   2.951   1.112
 3412SOL    HW211136   4.693   2.915   1.082
 3413SOL     OW11137   5.971   1.654   0.754
 3413SOL    HW111138   5.946   1.634   0.848
 3413SOL    HW211139   5.890   1.643   0.695
 3414SOL     OW11140   3.837   1.881   6.249
 3414SOL    HW111141   3.818   1.861   6.153
 3414SOL    HW211142   3.755   1.867   6.304
 3415SOL     OW11143   1.715   3.277   3.993
 3415SOL    HW111144   1.760   3.321   3.916
 3415SOL    HW211145   1.619   3.259   3.970
 3416SOL     OW11146   6.146   6.363   0.941
 3416SOL    HW111147   6.084   6.425   0.892
 3416SOL    HW211148   6.217   6.331   0.879
 3417SOL     OW11149   0.085   6.165   3.359
 3417SOL    HW111150   0.070   6.151   3.261
 3417SOL    HW211151   0.137   6.249   3.374
 3418SOL     OW11152   3.255   5.940   3.412
 3418SOL    HW111153   3.340   5.917   3.460
 3418SOL    HW211154   3.177   5.918   3.471
 3419SOL     OW11155   2.842   5.669   5.822
 3419SOL    HW111156   2.838   5.595   5.889
 3419SOL    HW211157   2.751   5.707   5.809
 3420SOL     OW11158   6.103   2.764   4.034
 3420SOL    HW111159   6.088   2.731   3.941
 3420SOL    HW211160   6.165   2.843   4.032
 3421SOL     OW11161   4.868   1.561   4.421
 3421SOL    HW111162   4.795   1.629   4.431
 3421SOL    HW211163   4.858   1.490   4.491
 3422SOL     OW11164   2.059   0.361   7.020
 3422SOL    HW111165   2.117   0.371   6.939
 3422SOL    HW211166   1.999   0.441   0.007
 3423SOL     OW11167   0.223   4.486   6.743
 3423SOL    HW111168   0.261   4.484   6.651
 3423SOL    HW211169   0.134   4.532   6.741
 3424SOL     OW11170   2.134   6.481   0.755
 3424SOL    HW111171   2.228   6.483   0.722
 3424SOL    HW211172   2.085   6.404   0.712
 3425SOL     OW11173   5.169   4.978   2.460
 3425SOL    HW111174   5.071   5.000   2.461
 3425SOL    HW211175   5.180   4.881   2.436
 3426SOL     OW11176   4.394   2.627   0.547
 3426SOL    HW111177   4.375   2.612   0.643
 3426SOL    HW211178   4.465   2.696   0.537
 3427SOL     OW11179   0.091   1.269   0.859
 3427SOL    HW111180   0.110   1.198   0.927
 3427SOL    HW211181   7.020   1.255   0.822
 3428SOL     OW11182   2.455   5.407   0.003
 3428SOL    HW111183   2.417   5.418   6.933
 3428SOL    HW211184   2.381   5.417   0.071
 3429SOL     OW11185   0.561   1.611   0.605
 3429SOL    HW111186   0.485   1.666   0.640
 3429SOL    HW211187   0.540   1.579   0.513
 3430SOL     OW11188   1.609   6.711   5.624
 3430SOL    HW111189   1.665   6.754   5.695
 3430SOL    HW211190   1.515   6.701   5.657
 3431SOL     OW11191   1.653   0.128   1.383
 3431SOL    HW111192   1.753   0.128   1.391
 3431SOL    HW211193   1.617   0.040   1.413
 3432SOL     OW11194   1.356   3.522   6.066
 3432SOL    HW111195   1.267   3.558   6.092
 3432SOL    HW211196   1.370   3.433   6.110
 3433SOL     OW11197   1.395   6.303   5.201
 3433SOL    HW111198   1.486   6.325   5.234
 3433SOL    HW211199   1.373   6.208   5.224
 3434SOL     OW11200   4.378   0.987   2.340
 3434SOL    HW111201   4.314   1.046   2.389
 3434SOL    HW211202   4.360   0.993   2.242
 3435SOL     OW11203   1.882   0.686   0.900
 3435SOL    HW111204   1.864   0.784   0.890
 3435SOL    HW211205   1.972   0.665   0.862
 3436SOL     OW11206   3.762   6.651   6.979
 3436SOL    HW111207   3.770   6.554   6.958
 3436SOL    HW211208   3.761   6.664   0.057
 3437SOL     OW11209   2.296   0.126   5.464
 3437SOL    HW111210   2.380   0.111   5.517
 3437SOL    HW211211   2.320   0.158   5.372
 3438SOL     OW11212   1.201   3.159   0.123
 3438SOL    HW111213   1.197   3.196   0.031
 3438SOL    HW211214   1.280   3.098   0.131
 3439SOL     OW11215   2.240   6.207   4.692
 3439SOL    HW111216   2.151   6.243   4.718
 3439SOL    HW211217   2.229   6.121   4.643
 3440SOL     OW11218   2.880   3.034   1.347
 3440SOL    HW111219   2.938   3.111   1.372
 3440SOL    HW211220   2.784   3.057   1.366
 3441SOL     OW11221   6.118   5.164   5.725
 3441SOL    HW111222   6.160   5.244   5.768
 3441SOL    HW211223   6.152   5.155   5.631
 3442SOL     OW11224   2.153   4.673   1.745
 3442SOL    HW111225   2.199   4.698   1.830
 3442SOL    HW211226   2.185   4.584   1.714
 3443SOL     OW11227   3.709   6.453   1.947
 3443SOL    HW111228   3.620   6.494   1.929
 3443SOL    HW211229   3.781   6.518   1.922
 3444SOL     OW11230   5.058   5.829   6.303
 3444SOL    HW111231   5.123   5.766   6.259
 3444SOL    HW211232   5.045   5.801   6.398
 3445SOL     OW11233   6.014   5.307   2.910
 3445SOL    HW111234   5.997   5.208   2.902
 3445SOL    HW211235   5.939   5.357   2.869
 3446SOL     OW11236   6.595   1.603   1.628
 3446SOL    HW111237   6.546   1.537   1.684
 3446SOL    HW211238   6.554   1.693   1.639
 3447SOL     OW11239   5.248   5.679   0.908
 3447SOL    HW111240   5.169   5.708   0.853
 3447SOL    HW211241   5.324   5.742   0.893
 3448SOL     OW11242   4.107   1.062   6.603
 3448SOL    HW111243   4.133   1.150   6.644
 3448SOL    HW211244   4.182   1.030   6.545
 3449SOL     OW11245   5.556   5.721   4.349
 3449SOL    HW111246   5.574   5.775   4.266
 3449SOL    HW211247   5.550   5.783   4.427
 3450SOL     OW11248   6.966   2.578   6.922
 3450SOL    HW111249   6.897   2.647   6.945
 3450SOL    HW211250   0.016   2.620   6.865
 3451SOL     OW11251   2.105   6.261   0.098
 3451SOL    HW111252   2.152   6.187   0.146
 3451SOL    HW211253   2.156   6.285   0.016
 3452SOL     OW11254   5.765   0.931   6.604
 3452SOL    HW111255   5.752   0.979   6.518
 3452SOL    HW211256   5.831   0.857   6.592
 3453SOL     OW11257   6.438   5.563   6.536
 3453SOL    HW111258   6.452   5.615   6.452
 3453SOL    HW211259   6.344   5.577   6.568
 3454SOL     OW11260   0.870   3.055   4.692
 3454SOL    HW111261   0.771   3.049   4.684
 3454SOL    HW211262   0.894   3.104   4.776
 3455SOL     OW11263   2.421   2.126   4.073
 3455SOL    HW111264   2.440   2.176   3.989
 3455SOL    HW211265   2.366   2.183   4.134
 3456SOL     OW11266   5.392   5.050   1.650
 3456SOL    HW111267   5.376   4.952   1.662
 3456SOL    HW211268   5.318   5.101   1.694
 3457SOL     OW11269   2.699   5.265   3.537
 3457SOL    HW111270   2.713   5.313   3.450
 3457SOL    HW211271   2.604   5.276   3.566
 3458SOL     OW11272   5.042   0.865   2.275
 3458SOL    HW111273   5.046   0.964   2.275
 3458SOL    HW211274   5.124   0.828   2.319
 3459SOL     OW11275   5.403   3.076   2.843
 3459SOL    HW111276   5.375   2.991   2.889
 3459SOL    HW211277   5.322   3.132   2.827
 3460SOL     OW11278   2.267   2.424   6.861
 3460SOL    HW111279   2.206   2.427   6.940
 3460SOL    HW211280   2.362   2.428   6.893
 3461SOL     OW11281   5.403   4.084   6.013
 3461SOL    HW111282   5.492   4.043   5.994
 3461SOL    HW211283   5.358   4.032   6.087
 3462SOL     OW11284   0.428   3.890   4.516
 3462SOL    HW111285   0.507   3.947   4.541
 3462SOL    HW211286   0.459   3.800   4.487
 3463SOL     OW11287   1.080   4.021   1.995
 3463SOL    HW111288   1.170   3.977   1.989
 3463SOL    HW211289   1.081   4.105   1.940
 3464SOL     OW11290   6.787   4.448   5.029
 3464SOL    HW111291   6.705   4.451   4.972
 3464SOL    HW211292   6.786   4.525   5.093
 3465SOL     OW11293   1.240   1.808   2.069
 3465SOL    HW111294   1.259   1.754   2.151
 3465SOL    HW211295   1.271   1.758   1.988
 3466SOL     OW11296   6.645   4.965   6.715
 3466SOL    HW111297   6.588   5.005   6.644
 3466SOL    HW211298   6.688   4.881   6.681
 3467SOL     OW11299   2.234   2.943   0.088
 3467SOL    HW111300   2.169   3.018   0.080
 3467SOL    HW211301   2.278   2.928   7.020
 3468SOL     OW11302   4.537   6.403   3.515
 3468SOL    HW111303   4.610   6.362   3.460
 3468SOL    HW211304   4.556   6.499   3.530
 3469SOL     OW11305   5.195   0.348   3.446
 3469SOL    HW111306   5.152   0.433   3.414
 3469SOL    HW211307   5.125   0.278   3.457
 3470SOL     OW11308   6.265   3.655   1.116
 3470SOL    HW111309   6.202   3.688   1.186
 3470SOL    HW211310   6.270   3.721   1.041
 3471SOL     OW11311   4.113   5.509   3.763
 3471SOL    HW111312   4.168   5.520   3.846
 3471SOL    HW211313   4.046   5.437   3.776
 3472SOL     OW11314   2.221   0.928   2.209
 3472SOL    HW111315   2.171   0.898   2.128
 3472SOL    HW211316   2.264   1.017   2.191
 3473SOL     OW11317   0.121   2.236   0.859
 3473SOL    HW111318   0.129   2.261   0.956
 3473SOL    HW211319   0.212   2.237   0.817
 3474SOL     OW11320   1.877   4.872   2.334
 3474SOL    HW111321   1.908   4.788   2.378
 3474SOL    HW211322   1.822   4.850   2.254
 3475SOL     OW11323   0.952   5.357   4.753
 3475SOL    HW111324   0.939   5.412   4.670
 3475SOL    HW211325   0.863   5.332   4.791
 3476SOL     OW11326   3.258   2.099   2.887
 3476SOL    HW111327   3.173   2.140   2.855
 3476SOL    HW211328   3.259   2.098   2.987
 3477SOL     OW11329   2.958   5.005   1.504
 3477SOL    HW111330   2.957   5.070   1.428
 3477SOL    HW211331   3.049   5.003   1.546
 3478SOL     OW11332   2.288   6.019   4.346
 3478SOL    HW111333   2.209   5.980   4.299
 3478SOL    HW211334   2.317   5.959   4.421
 3479SOL     OW11335   1.343   0.785   2.687
 3479SOL    HW111336   1.315   0.689   2.676
 3479SOL    HW211337   1.367   0.802   2.782
 3480SOL     OW11338   0.309   6.897   5.404
 3480SOL    HW111339   0.311   6.911   5.305
 3480SOL    HW211340   0.229   6.841   5.428
 3481SOL     OW11341   4.894   0.306   0.322
 3481SOL    HW111342   4.963   0.288   0.252
 3481SOL    HW211343   4.939   0.320   0.410
 3482SOL     OW11344   5.716   1.866   1.469
 3482SOL    HW111345   5.628   1.904   1.442
 3482SOL    HW211346   5.745   1.905   1.556
 3483SOL     OW11347   4.640   1.542   1.719
 3483SOL    HW111348   4.589   1.614   1.673
 3483SOL    HW211349   4.577   1.484   1.771
 3484SOL     OW11350   2.693   3.634   1.105
 3484SOL    HW111351   2.757   3.560   1.090
 3484SOL    HW211352   2.602   3.607   1.075
 3485SOL     OW11353   1.530   0.461   3.640
 3485SOL    HW111354   1.445   0.441   3.591
 3485SOL    HW211355   1.525   0.553   3.679
 3486SOL     OW11356   2.895   1.504   2.561
 3486SOL    HW111357   2.938   1.442   2.496
 3486SOL    HW211358   2.908   1.598   2.530
 3487SOL     OW11359   5.717   3.000   5.896
 3487SOL    HW111360   5.722   3.085   5.947
 3487SOL    HW211361   5.783   2.935   5.934
 3488SOL     OW11362   6.227   1.774   4.992
 3488SOL    HW111363   6.161   1.728   5.051
 3488SOL    HW211364   6.292   1.706   4.957
 3489SOL     OW11365   3.369   6.772   0.401
 3489SOL    HW111366   3.323   6.858   0.422
 3489SOL    HW211367   3.415   6.737   0.483
 3490SOL     OW11368   4.367   4.857   0.054
 3490SOL    HW111369   4.373   4.947   0.009
 3490SOL    HW211370   4.272   4.827   0.055
 3491SOL     OW11371   5.724   2.467   5.560
 3491SOL    HW111372   5.737   2.552   5.509
 3491SOL    HW211373   5.789   2.463   5.636
 3492SOL     OW11374   1.315   5.726   1.127
 3492SOL    HW111375   1.357   5.787   1.060
 3492SOL    HW211376   1.372   5.645   1.139
 3493SOL     OW11377   5.964   4.647   6.407
 3493SOL    HW111378   6.026   4.720   6.436
 3493SOL    HW211379   5.934   4.665   6.314
 3494SOL     OW11380   3.927   0.704   1.979
 3494SOL    HW111381   3.887   0.667   1.895
 3494SOL    HW211382   3.899   0.799   1.991
 3495SOL     OW11383   4.604   5.324   2.014
 3495SOL    HW111384   4.666   5.247   2.031
 3495SOL    HW211385   4.600   5.382   2.095
 3496SOL     OW11386   6.937   4.129   0.530
 3496SOL    HW111387   6.988   4.133   0.616
 3496SOL    HW211388   6.974   4.056   0.473
 3497SOL     OW11389   3.135   0.606   3.602
 3497SOL    HW111390   3.150   0.553   3.519
 3497SOL    HW211391   3.183   0.694   3.595
 3498SOL     OW11392   2.037   2.239   0.918
 3498SOL    HW111393   1.958   2.243   0.858
 3498SOL    HW211394   2.031   2.311   0.987
 3499SOL     OW11395   4.767   2.775   4.606
 3499SOL    HW111396   4.866   2.777   4.619
 3499SOL    HW211397   4.726   2.711   4.672
 3500SOL     OW11398   1.246   3.657   5.133
 3500SOL    HW111399   1.315   3.599   5.091
 3500SOL    HW211400   1.289   3.733   5.180
 3501SOL     OW11401   2.160   5.357   3.982
 3501SOL    HW111402   2.093   5.314   3.921
 3501SOL    HW211403   2.177   5.298   4.061
 3502SOL     OW11404   6.130   2.758   2.220
 3502SOL    HW111405   6.036   2.755   2.187
 3502SOL    HW211406   6.186   2.693   2.169
 3503SOL     OW11407   6.554   6.118   5.065
 3503SOL    HW111408   6.530   6.074   5.151
 3503SOL    HW211409   6.472   6.124   5.007
 3504SOL     OW11410   2.273   1.535   0.977
 3504SOL    HW111411   2.324   1.555   1.061
 3504SOL    HW211412   2.222   1.616   0.948
 3505SOL     OW11413   5.187   5.243   4.643
 3505SOL    HW111414   5.148   5.217   4.731
 3505SOL    HW211415   5.271   5.190   4.627
 3506SOL     OW11416   4.754   6.013   5.907
 3506SOL    HW111417   4.685   6.080   5.935
 3506SOL    HW211418   4.845   6.054   5.913
 3507SOL     OW11419   2.531   0.431   6.882
 3507SOL    HW111420   2.451   0.483   6.855
 3507SOL    HW211421   2.563   0.375   6.805
 3508SOL     OW11422   3.059   1.999   5.953
 3508SOL    HW111423   3.103   2.076   6.000
 3508SOL    HW211424   3.081   2.003   5.856
 3509SOL     OW11425   5.687   0.082   6.094
 3509SOL    HW111426   5.629   0.052   6.018
 3509SOL    HW211427   5.637   0.148   6.150
 3510SOL     OW11428   1.679   2.302   1.177
 3510SOL    HW111429   1.584   2.293   1.208
 3510SOL    HW211430   1.682   2.296   1.077
 3511SOL     OW11431   2.344   5.051   0.486
 3511SOL    HW111432   2.309   5.018   0.398
 3511SOL    HW211433   2.314   4.990   0.559
 3512SOL     OW11434   6.765   4.527   0.178
 3512SOL    HW111435   6.710   4.577   0.245
 3512SOL    HW211436   6.718   4.442   0.154
 3513SOL     OW11437   6.087   3.962   0.393
 3513SOL    HW111438   6.019   3.891   0.408
 3513SOL    HW211439   6.161   3.952   0.460
 3514SOL     OW11440   6.933   1.318   1.551
 3514SOL    HW111441   6.945   1.232   1.600
 3514SOL    HW211442   7.020   1.344   1.507
 3515SOL     OW11443   4.768   6.338   3.390
 3515SOL    HW111444   4.845   6.294   3.437
 3515SOL    HW211445   4.797   6.369   3.300
 3516SOL     OW11446   4.236   0.026   0.980
 3516SOL    HW111447   4.175   0.096   0.940
 3516SOL    HW211448   4.291   7.007   0.907
 3517SOL     OW11449   0.961   2.193   0.672
 3517SOL    HW111450   1.004   2.162   0.757
 3517SOL    HW211451   0.990   2.287   0.653
 3518SOL     OW11452   5.680   4.120   4.732
 3518SOL    HW111453   5.708   4.080   4.819
 3518SOL    HW211454   5.701   4.056   4.658
 3519SOL     OW11455   1.692   0.883   6.281
 3519SOL    HW111456   1.702   0.982   6.277
 3519SOL    HW211457   1.680   0.854   6.377
 3520SOL     OW11458   3.060   4.700   6.452
 3520SOL    HW111459   3.010   4.783   6.429
 3520SOL    HW211460   3.128   4.721   6.523
 3521SOL     OW11461   5.486   3.394   0.845
 3521SOL    HW111462   5.538   3.321   0.891
 3521SOL    HW211463   5.538   3.479   0.849
 3522SOL     OW11464   5.791   4.883   2.169
 3522SOL    HW111465   5.867   4.837   2.122
 3522SOL    HW211466   5.764   4.828   2.249
 3523SOL     OW11467   2.988   4.892   5.671
 3523SOL    HW111468   2.932   4.958   5.720
 3523SOL    HW211469   2.935   4.809   5.655
 3524SOL     OW11470   2.963   1.097   0.862
 3524SOL    HW111471   2.879   1.044   0.852
 3524SOL    HW211472   2.945   1.175   0.922
 3525SOL     OW11473   0.492   3.998   1.657
 3525SOL    HW111474   0.518   3.973   1.564
 3525SOL    HW211475   0.442   3.922   1.699
 3526SOL     OW11476   2.791   6.378   3.544
 3526SOL    HW111477   2.872   6.420   3.584
 3526SOL    HW211478   2.806   6.280   3.532
 3527SOL     OW11479   6.292   3.587   6.071
 3527SOL    HW111480   6.220   3.656   6.083
 3527SOL    HW211481   6.381   3.631   6.081
 3528SOL     OW11482   0.905   5.351   4.060
 3528SOL    HW111483   0.960   5.398   4.129
 3528SOL    HW211484   0.832   5.301   4.105
 3529SOL     OW11485   4.954   6.643   5.998
 3529SOL    HW111486   4.897   6.724   5.998
 3529SOL    HW211487   4.960   6.606   5.905
 3530SOL     OW11488   1.678   4.373   3.214
 3530SOL    HW111489   1.622   4.293   3.233
 3530SOL    HW211490   1.674   4.394   3.117
 3531SOL     OW11491   4.902   4.187   0.813
 3531SOL    HW111492   4.963   4.216   0.740
 3531SOL    HW211493   4.807   4.207   0.788
 3532SOL     OW11494   2.536   0.182   7.007
 3532SOL    HW111495   2.503   0.202   0.077
 3532SOL    HW211496   2.521   0.261   6.947
 3533SOL     OW11497   1.112   2.055   2.537
 3533SOL    HW111498   1.124   1.965   2.493
 3533SOL    HW211499   1.089   2.041   2.633
 3534SOL     OW11500   6.112   1.079   5.201
 3534SOL    HW111501   6.176   1.082   5.278
 3534SOL    HW211502   6.045   1.007   5.217
 3535SOL     OW11503   0.294   5.717   0.665
 3535SOL    HW111504   0.292   5.817   0.668
 3535SOL    HW211505   0.380   5.687   0.625
 3536SOL     OW11506   1.949   2.387   3.756
 3536SOL    HW111507   1.999   2.317   3.807
 3536SOL    HW211508   2.013   2.457   3.723
 3537SOL     OW11509   2.403   5.050   0.023
 3537SOL    HW111510   2.486   5.067   0.075
 3537SOL    HW211511   2.405   5.103   6.959
 3538SOL     OW11512   2.358   0.417   4.412
 3538SOL    HW111513   2.396   0.504   4.444
 3538SOL    HW211514   2.411   0.341   4.451
 3539SOL     OW11515   5.735   3.574   6.678
 3539SOL    HW111516   5.690   3.513   6.613
 3539SOL    HW211517   5.709   3.549   6.771
 3540SOL     OW11518   2.150   1.669   4.868
 3540SOL    HW111519   2.178   1.604   4.798
 3540SOL    HW211520   2.191   1.644   4.955
 3541SOL     OW11521   2.536   2.750   6.750
 3541SOL    HW111522   2.482   2.823   6.709
 3541SOL    HW211523   2.502   2.662   6.718
 3542SOL     OW11524   0.628   3.313   1.725
 3542SOL    HW111525   0.675   3.374   1.790
 3542SOL    HW211526   0.649   3.342   1.632
 3543SOL     OW11527   0.836   3.226   5.334
 3543SOL    HW111528   0.931   3.253   5.322
 3543SOL    HW211529   0.816   3.145   5.279
 3544SOL     OW11530   2.414   4.612   6.222
 3544SOL    HW111531   2.512   4.608   6.200
 3544SOL    HW211532   2.402   4.612   6.321
 3545SOL     OW11533   3.705   5.253   6.715
 3545SOL    HW111534   3.708   5.327   6.647
 3545SOL    HW211535   3.690   5.293   6.806
 3546SOL     OW11536   6.774   4.376   3.146
 3546SOL    HW111537   6.697   4.352   3.205
 3546SOL    HW211538   6.826   4.451   3.188
 3547SOL     OW11539   5.908   3.928   3.983
 3547SOL    HW111540   5.840   3.923   3.911
 3547SOL    HW211541   5.999   3.937   3.942
 3548SOL     OW11542   5.178   0.185   5.557
 3548SOL    HW111543   5.150   0.097   5.595
 3548SOL    HW211544   5.275   0.201   5.576
 3549SOL     OW11545   0.918   5.035   6.162
 3549SOL    HW111546   0.966   5.111   6.206
 3549SOL    HW211547   0.826   5.028   6.199
 3550SOL     OW11548   5.662   2.530   5.042
 3550SOL    HW111549   5.613   2.481   4.970
 3550SOL    HW211550   5.749   2.485   5.060
 3551SOL     OW11551   3.688   1.730   3.879
 3551SOL    HW111552   3.749   1.789   3.826
 3551SOL    HW211553   3.605   1.780   3.903
 3552SOL     OW11554   5.844   6.713   2.147
 3552SOL    HW111555   5.768   6.656   2.117
 3552SOL    HW211556   5.914   6.717   2.076
 3553SOL     OW11557   3.567   5.689   0.014
 3553SOL    HW111558   3.576   5.752   6.957
 3553SOL    HW211559   3.499   5.619   7.013
 3554SOL     OW11560   4.021   2.858   0.590
 3554SOL    HW111561   4.011   2.939   0.532
 3554SOL    HW211562   4.007   2.883   0.686
 3555SOL     OW11563   0.769   3.395   4.321
 3555SOL    HW111564   0.764   3.398   4.221
 3555SOL    HW211565   0.865   3.391   4.349
 3556SOL     OW11566   3.546   0.491   4.250
 3556SOL    HW111567   3.486   0.519   4.325
 3556SOL    HW211568   3.642   0.506   4.276
 3557SOL     OW11569   1.239   0.397   3.937
 3557SOL    HW111570   1.285   0.483   3.960
 3557SOL    HW211571   1.146   0.399   3.973
 3558SOL     OW11572   1.663   4.883   2.166
 3558SOL    HW111573   1.646   4.941   2.246
 3558SOL    HW211574   1.581   4.877   2.110
 3559SOL     OW11575   0.677   6.042   5.060
 3559SOL    HW111576   0.719   6.131   5.048
 3559SOL    HW211577   0.710   5.979   4.990
 3560SOL     OW11578   2.229   5.039   3.062
 3560SOL    HW111579   2.151   5.000   3.112
 3560SOL    HW211580   2.199   5.122   3.014
 3561SOL     OW11581   5.202   4.327   5.256
 3561SOL    HW111582   5.239   4.419   5.245
 3561SOL    HW211583   5.274   4.265   5.285
 3562SOL     OW11584   2.949   1.480   3.036
 3562SOL    HW111585   2.903   1.399   3.000
 3562SOL    HW211586   2.950   1.477   3.136
 3563SOL     OW11587   6.675   2.167   6.928
 3563SOL    HW111588   6.704   2.262   6.913
 3563SOL    HW211589   6.577   2.159   6.911
 3564SOL     OW11590   0.814   4.513   2.502
 3564SOL    HW111591   0.815   4.422   2.542
 3564SOL    HW211592   0.761   4.575   2.560
 3565SOL     OW11593   2.971   6.120   4.177
 3565SOL    HW111594   2.894   6.123   4.240
 3565SOL    HW211595   3.013   6.211   4.170
 3566SOL     OW11596   6.090   2.719   6.737
 3566SOL    HW111597   6.155   2.692   6.666
 3566SOL    HW211598   6.108   2.813   6.765
 3567SOL     OW11599   0.637   2.390   0.052
 3567SOL    HW111600   0.694   2.400   0.134
 3567SOL    HW211601   0.558   2.332   0.074
 3568SOL     OW11602   5.573   4.436   4.461
 3568SOL    HW111603   5.654   4.393   4.421
 3568SOL    HW211604   5.513   4.469   4.388
 3569SOL     OW11605   2.731   2.392   6.177
 3569SOL    HW111606   2.726   2.438   6.088
 3569SOL    HW211607   2.817   2.341   6.183
 3570SOL     OW11608   5.120   0.529   5.876
 3570SOL    HW111609   5.114   0.523   5.975
 3570SOL    HW211610   5.202   0.580   5.850
 3571SOL     OW11611   0.409   5.132   6.297
 3571SOL    HW111612   0.360   5.194   6.358
 3571SOL    HW211613   0.430   5.179   6.211
 3572SOL     OW11614   5.799   4.269   3.149
 3572SOL    HW111615   5.763   4.211   3.076
 3572SOL    HW211616   5.728   4.286   3.217
 3573SOL     OW11617   0.499   5.034   3.791
 3573SOL    HW111618   0.525   4.939   3.810
 3573SOL    HW211619   0.450   5.037   3.703
 3574SOL     OW11620   0.277   3.958   0.996
 3574SOL    HW111621   0.323   3.902   1.065
 3574SOL    HW211622   0.306   4.053   1.005
 3575SOL     OW11623   5.394   4.819   2.843
 3575SOL    HW111624   5.378   4.872   2.926
 3575SOL    HW211625   5.307   4.794   2.801
 3576SOL     OW11626   0.435   1.597   6.226
 3576SOL    HW111627   0.440   1.670   6.159
 3576SOL    HW211628   0.446   1.508   6.180
 3577SOL     OW11629   1.657   2.686   6.323
 3577SOL    HW111630   1.671   2.726   6.233
 3577SOL    HW211631   1.696   2.747   6.393
 3578SOL     OW11632   2.536   2.332   0.931
 3578SOL    HW111633   2.628   2.368   0.949
 3578SOL    HW211634   2.521   2.249   0.985
 3579SOL     OW11635   5.868   3.488   4.961
 3579SOL    HW111636   5.936   3.427   5.003
 3579SOL    HW211637   5.874   3.482   4.862
 3580SOL     OW11638   5.690   3.198   1.476
 3580SOL    HW111639   5.753   3.167   1.405
 3580SOL    HW211640   5.660   3.120   1.531
 3581SOL     OW11641   0.739   5.992   3.796
 3581SOL    HW111642   0.715   6.088   3.788
 3581SOL    HW211643   0.833   5.983   3.828
 3582SOL     OW11644   0.787   2.329   5.640
 3582SOL    HW111645   0.841   2.247   5.624
 3582SOL    HW211646   0.848   2.404   5.668
 3583SOL     OW11647   1.453   3.748   6.847
 3583SOL    HW111648   1.425   3.818   6.782
 3583SOL    HW211649   1.552   3.743   6.851
 3584SOL     OW11650   5.892   5.114   6.519
 3584SOL    HW111651   5.882   5.109   6.420
 3584SOL    HW211652   5.885   5.023   6.559
 3585SOL     OW11653   4.073   6.901   4.461
 3585SOL    HW111654   4.099   6.834   4.391
 3585SOL    HW211655   4.012   6.969   4.420
 3586SOL     OW11656   0.208   1.620   4.997
 3586SOL    HW111657   0.294   1.589   4.955
 3586SOL    HW211658   0.206   1.720   4.997
 3587SOL     OW11659   3.177   5.401   6.335
 3587SOL    HW111660   3.217   5.455   6.261
 3587SOL    HW211661   3.210   5.307   6.329
 3588SOL     OW11662   1.397   2.933   5.780
 3588SOL    HW111663   1.481   2.931   5.834
 3588SOL    HW211664   1.376   3.027   5.754
 3589SOL     OW11665   3.698   1.733   4.909
 3589SOL    HW111666   3.705   1.633   4.903
 3589SOL    HW211667   3.661   1.757   4.999
 3590SOL     OW11668   1.309   2.526   0.016
 3590SOL    HW111669   1.322   2.591   0.091
 3590SOL    HW211670   1.398   2.496   7.003
 3591SOL     OW11671   4.993   3.581   6.535
 3591SOL    HW111672   4.940   3.535   6.606
 3591SOL    HW211673   5.031   3.513   6.473
 3592SOL     OW11674   6.842   4.371   1.773
 3592SOL    HW111675   6.820   4.442   1.707
 3592SOL    HW211676   6.898   4.301   1.730
 3593SOL     OW11677   1.171   5.847   5.276
 3593SOL    HW111678   1.093   5.885   5.326
 3593SOL    HW211679   1.182   5.750   5.298
 3594SOL     OW11680   4.627   0.582   3.439
 3594SOL    HW111681   4.649   0.493   3.479
 3594SOL    HW211682   4.681   0.653   3.484
 3595SOL     OW11683   2.585   6.022   0.041
 3595SOL    HW111684   2.676   6.026   7.020
 3595SOL    HW211685   2.541   5.935   0.017
 3596SOL     OW11686   0.017   2.553   3.580
 3596SOL    HW111687   0.025   2.622   3.508
 3596SOL    HW211688   6.950   2.563   3.625
 3597SOL     OW11689   1.827   1.773   4.218
 3597SOL    HW111690   1.760   1.729   4.278
 3597SOL    HW211691   1.809   1.747   4.123
 3598SOL     OW11692   0.640   5.186   5.966
 3598SOL    HW111693   0.674   5.203   5.874
 3598SOL    HW211694   0.680   5.252   6.029
 3599SOL     OW11695   0.412   1.294   6.131
 3599SOL    HW111696   0.427   1.329   6.038
 3599SOL    HW211697   0.497   1.305   6.184
 3600SOL     OW11698   1.118   3.715   0.741
 3600SOL    HW111699   1.099   3.775   0.663
 3600SOL    HW211700   1.169   3.635   0.710
 3601SOL     OW11701   5.287   4.663   6.013
 3601SOL    HW111702   5.205   4.608   6.028
 3601SOL    HW211703   5.262   4.749   5.968
 3602SOL     OW11704   1.614   2.020   0.910
 3602SOL    HW111705   1.535   2.020   0.848
 3602SOL    HW211706   1.612   1.939   0.968
 3603SOL     OW11707   3.245   0.204   3.324
 3603SOL    HW111708   3.273   0.118   3.366
 3603SOL    HW211709   3.326   0.258   3.301
 3604SOL     OW11710   6.967   4.619   3.291
 3604SOL    HW111711   6.988   4.535   3.342
 3604SOL    HW211712   0.014   4.633   3.219
 3605SOL     OW11713   6.464   3.944   5.461
 3605SOL    HW111714   6.407   3.863   5.477
 3605SOL    HW211715   6.557   3.926   5.490
 3606SOL     OW11716   6.557   6.851   5.354
 3606SOL    HW111717   6.551   6.918   5.280
 3606SOL    HW211718   6.559   6.899   5.441
 3607SOL     OW11719   5.334   5.929   2.178
 3607SOL    HW111720   5.280   6.011   2.197
 3607SOL    HW211721   5.274   5.854   2.151
 3608SOL     OW11722   5.689   2.043   3.600
 3608SOL    HW111723   5.722   1.980   3.530
 3608SOL    HW211724   5.761   2.058   3.667
 3609SOL     OW11725   1.065   6.905   4.054
 3609SOL    HW111726   1.059   6.892   3.955
 3609SOL    HW211727   1.120   6.986   4.073
 3610SOL     OW11728   1.379   6.972   5.828
 3610SOL    HW111729   1.410   6.914   5.903
 3610SOL    HW211730   1.449   0.019   5.807
 3611SOL     OW11731   4.675   6.163   5.615
 3611SOL    HW111732   4.585   6.154   5.572
 3611SOL    HW211733   4.714   6.072   5.629
 3612SOL     OW11734   6.485   0.062   6.950
 3612SOL    HW111735   6.496   0.026   0.021
 3612SOL    HW211736   6.519   0.156   6.947
 3613SOL     OW11737   4.784   4.929   1.954
 3613SOL    HW111738   4.769   4.860   1.884
 3613SOL    HW211739   4.842   4.891   2.026
 3614SOL     OW11740   3.821   3.168   1.454
 3614SOL    HW111741   3.914   3.156   1.490
 3614SOL    HW211742   3.787   3.258   1.480
 3615SOL     OW11743   4.963   5.450   6.990
 3615SOL    HW111744   4.906   5.490   6.918
 3615SOL    HW211745   4.914   5.456   0.056
 3616SOL     OW11746   0.584   2.540   6.812
 3616SOL    HW111747   0.539   2.625   6.841
 3616SOL    HW211748   0.626   2.496   6.891
 3617SOL     OW11749   4.155   1.810   6.947
 3617SOL    HW111750   4.163   1.729   6.889
 3617SOL    HW211751   4.067   1.810   6.994
 3618SOL     OW11752   2.456   1.908   5.657
 3618SOL    HW111753   2.550   1.928   5.683
 3618SOL    HW211754   2.455   1.863   5.568
 3619SOL     OW11755   5.831   2.654   4.518
 3619SOL    HW111756   5.761   2.628   4.584
 3619SOL    HW211757   5.890   2.724   4.558
 3620SOL     OW11758   6.083   6.183   6.165
 3620SOL    HW111759   6.049   6.160   6.074
 3620SOL    HW211760   6.019   6.150   6.234
 3621SOL     OW11761   3.241   2.864   5.331
 3621SOL    HW111762   3.253   2.908   5.419
 3621SOL    HW211763   3.231   2.765   5.344
 3622SOL     OW11764   2.213   1.643   5.131
 3622SOL    HW111765   2.261   1.728   5.151
 3622SOL    HW211766   2.119   1.649   5.163
 3623SOL     OW11767   6.091   6.071   3.932
 3623SOL    HW111768   6.075   6.051   3.836
 3623SOL    HW211769   6.127   5.990   3.978
 3624SOL     OW11770   1.728   6.301   1.991
 3624SOL    HW111771   1.750   6.232   2.061
 3624SOL    HW211772   1.775   6.279   1.906
 3625SOL     OW11773   6.091   2.809   0.125
 3625SOL    HW111774   6.079   2.711   0.140
 3625SOL    HW211775   6.006   2.848   0.091
 3626SOL     OW11776   1.375   2.652   6.176
 3626SOL    HW111777   1.293   2.688   6.132
 3626SOL    HW211778   1.417   2.582   6.117
 3627SOL     OW11779   3.475   2.861   3.038
 3627SOL    HW111780   3.390   2.911   3.053
 3627SOL    HW211781   3.499   2.810   3.121
 3628SOL     OW11782   1.592   1.156   1.453
 3628SOL    HW111783   1.559   1.082   1.512
 3628SOL    HW211784   1.590   1.127   1.358
 3629SOL     OW11785   0.059   1.266   5.331
 3629SOL    HW111786   7.009   1.213   5.375
 3629SOL    HW211787   0.125   1.205   5.288
 3630SOL     OW11788   5.581   2.847   3.941
 3630SOL    HW111789   5.514   2.772   3.943
 3630SOL    HW211790   5.658   2.820   3.884
 3631SOL     OW11791   1.924   0.174   3.713
 3631SOL    HW111792   1.863   0.228   3.771
 3631SOL    HW211793   1.947   0.089   3.760
 3632SOL     OW11794   5.064   5.800   1.644
 3632SOL    HW111795   4.975   5.757   1.659
 3632SOL    HW211796   5.063   5.850   1.557
 3633SOL     OW11797   4.011   1.640   6.060
 3633SOL    HW111798   4.036   1.730   6.024
 3633SOL    HW211799   3.972   1.585   5.986
 3634SOL     OW11800   0.963   4.827   4.684
 3634SOL    HW111801   0.996   4.799   4.774
 3634SOL    HW211802   0.864   4.839   4.687
 3635SOL     OW11803   3.503   0.214   6.262
 3635SOL    HW111804   3.415   0.254   6.289
 3635SOL    HW211805   3.490   0.117   6.244
 3636SOL     OW11806   0.505   5.436   0.495
 3636SOL    HW111807   0.458   5.504   0.440
 3636SOL    HW211808   0.445   5.404   0.568
 3637SOL     OW11809   6.893   1.403   1.947
 3637SOL    HW111810   6.926   1.384   2.040
 3637SOL    HW211811   6.902   1.500   1.927
 3638SOL     OW11812   0.267   3.833   3.818
 3638SOL    HW111813   0.362   3.823   3.849
 3638SOL    HW211814   0.207   3.840   3.897
 3639SOL     OW11815   3.158   4.560   1.087
 3639SOL    HW111816   3.242   4.511   1.111
 3639SOL    HW211817   3.167   4.598   0.995
 3640SOL     OW11818   3.811   1.303   0.967
 3640SOL    HW111819   3.842   1.284   0.874
 3640SOL    HW211820   3.854   1.387   1.001
 3641SOL     OW11821   5.404   3.563   3.029
 3641SOL    HW111822   5.342   3.493   3.065
 3641SOL    HW211823   5.476   3.520   2.974
 3642SOL     OW11824   5.540   0.947   7.015
 3642SOL    HW111825   5.515   0.877   0.061
 3642SOL    HW211826   5.559   1.033   0.041
 3643SOL     OW11827   2.886   5.531   4.702
 3643SOL    HW111828   2.858   5.627   4.705
 3643SOL    HW211829   2.813   5.474   4.740
 3644SOL     OW11830   6.746   1.517   1.414
 3644SOL    HW111831   6.816   1.460   1.457
 3644SOL    HW211832   6.688   1.556   1.485
 3645SOL     OW11833   0.694   2.915   3.494
 3645SOL    HW111834   0.723   2.852   3.567
 3645SOL    HW211835   0.683   3.007   3.532
 3646SOL     OW11836   0.695   3.729   6.306
 3646SOL    HW111837   0.677   3.680   6.221
 3646SOL    HW211838   0.621   3.794   6.324
 3647SOL     OW11839   2.421   5.365   6.049
 3647SOL    HW111840   2.509   5.333   6.084
 3647SOL    HW211841   2.432   5.398   5.955
 3648SOL     OW11842   3.854   4.888   2.052
 3648SOL    HW111843   3.773   4.841   2.018
 3648SOL    HW211844   3.837   4.922   2.145
 3649SOL     OW11845   5.142   2.813   1.782
 3649SOL    HW111846   5.043   2.832   1.776
 3649SOL    HW211847   5.159   2.719   1.756
 3650SOL     OW11848   0.056   5.633   1.321
 3650SOL    HW111849   0.127   5.564   1.305
 3650SOL    HW211850   0.013   5.618   1.410
 3651SOL     OW11851   0.625   6.428   4.896
 3651SOL    HW111852   0.579   6.406   4.810
 3651SOL    HW211853   0.698   6.362   4.912
 3652SOL     OW11854   5.490   6.471   3.360
 3652SOL    HW111855   5.450   6.390   3.404
 3652SOL    HW211856   5.452   6.480   3.268
 3653SOL     OW11857   0.324   1.228   3.913
 3653SOL    HW111858   0.249   1.249   3.976
 3653SOL    HW211859   0.321   1.131   3.889
 3654SOL     OW11860   3.112   4.124   0.848
 3654SOL    HW111861   3.115   4.121   0.748
 3654SOL    HW211862   3.024   4.159   0.877
 3655SOL     OW11863   1.830   5.609   4.325
 3655SOL    HW111864   1.858   5.595   4.230
 3655SOL    HW211865   1.879   5.546   4.384
 3656SOL     OW11866   0.544   4.169   1.273
 3656SOL    HW111867   0.454   4.124   1.270
 3656SOL    HW211868   0.532   4.268   1.271
 3657SOL     OW11869   4.990   5.348   5.695
 3657SOL    HW111870   4.942   5.383   5.614
 3657SOL    HW211871   5.059   5.414   5.724
 3658SOL     OW11872   1.703   4.985   5.958
 3658SOL    HW111873   1.781   5.039   5.989
 3658SOL    HW211874   1.711   4.969   5.859
 3659SOL     OW11875   1.894   3.378   5.589
 3659SOL    HW111876   1.934   3.290   5.613
 3659SOL    HW211877   1.874   3.430   5.672
 3660SOL     OW11878   5.925   6.887   3.999
 3660SOL    HW111879   5.871   6.807   4.026
 3660SOL    HW211880   5.866   6.953   3.953
 3661SOL     OW11881   5.601   0.735   5.091
 3661SOL    HW111882   5.595   0.784   5.178
 3661SOL    HW211883   5.585   0.800   5.016
 3662SOL     OW11884   3.429   0.480   3.706
 3662SOL    HW111885   3.404   0.510   3.615
 3662SOL    HW211886   3.347   0.457   3.758
 3663SOL     OW11887   1.994   1.264   0.243
 3663SOL    HW111888   1.994   1.267   0.343
 3663SOL    HW211889   2.085   1.240   0.211
 3664SOL     OW11890   4.442   2.736   1.513
 3664SOL    HW111891   4.368   2.740   1.579
 3664SOL    HW211892   4.437   2.650   1.462
 3665SOL     OW11893   1.653   6.721   5.111
 3665SOL    HW111894   1.585   6.651   5.092
 3665SOL    HW211895   1.619   6.782   5.183
 3666SOL     OW11896   1.179   3.798   2.880
 3666SOL    HW111897   1.228   3.719   2.844
 3666SOL    HW211898   1.123   3.770   2.958
 3667SOL     OW11899   1.197   1.139   2.890
 3667SOL    HW111900   1.104   1.171   2.905
 3667SOL    HW211901   1.240   1.192   2.817
 3668SOL     OW11902   1.663   0.838   1.144
 3668SOL    HW111903   1.661   0.739   1.156
 3668SOL    HW211904   1.597   0.864   1.074
 3669SOL     OW11905   4.597   0.920   3.495
 3669SOL    HW111906   4.560   0.979   3.567
 3669SOL    HW211907   4.555   0.944   3.407
 3670SOL     OW11908   2.144   5.065   0.155
 3670SOL    HW111909   2.240   5.084   0.131
 3670SOL    HW211910   2.084   5.120   0.098
 3671SOL     OW11911   6.321   1.638   4.061
 3671SOL    HW111912   6.361   1.719   4.017
 3671SOL    HW211913   6.229   1.660   4.093
 3672SOL     OW11914   5.145   1.741   1.074
 3672SOL    HW111915   5.240   1.767   1.055
 3672SOL    HW211916   5.099   1.816   1.122
 3673SOL     OW11917   4.053   6.247   6.682
 3673SOL    HW111918   3.970   6.222   6.731
 3673SOL    HW211919   4.111   6.166   6.669
 3674SOL     OW11920   1.109   5.414   5.980
 3674SOL    HW111921   1.119   5.366   6.067
 3674SOL    HW211922   1.057   5.357   5.917
 3675SOL     OW11923   2.082   3.042   3.968
 3675SOL    HW111924   2.121   3.114   3.910
 3675SOL    HW211925   2.077   2.957   3.917
 3676SOL     OW11926   5.168   4.559   2.925
 3676SOL    HW111927   5.154   4.636   2.863
 3676SOL    HW211928   5.129   4.582   3.015
 3677SOL     OW11929   2.325   6.010   3.550
 3677SOL    HW111930   2.249   6.073   3.564
 3677SOL    HW211931   2.290   5.920   3.523
 3678SOL     OW11932   0.381   2.134   4.925
 3678SOL    HW111933   0.419   2.082   5.002
 3678SOL    HW211934   0.435   2.115   4.842
 3679SOL     OW11935   1.017   0.772   3.630
 3679SOL    HW111936   1.002   0.868   3.608
 3679SOL    HW211937   0.945   0.717   3.587
 3680SOL     OW11938   5.230   3.396   3.910
 3680SOL    HW111939   5.293   3.417   3.986
 3680SOL    HW211940   5.240   3.465   3.839
 3681SOL     OW11941   0.649   0.438   6.584
 3681SOL    HW111942   0.713   0.436   6.661
 3681SOL    HW211943   0.633   0.345   6.552
 3682SOL     OW11944   5.268   2.005   0.365
 3682SOL    HW111945   5.279   2.104   0.352
 3682SOL    HW211946   5.178   1.977   0.332
 3683SOL     OW11947   6.646   0.850   3.060
 3683SOL    HW111948   6.603   0.839   2.971
 3683SOL    HW211949   6.613   0.934   3.103
 3684SOL     OW11950   1.819   4.821   0.776
 3684SOL    HW111951   1.878   4.873   0.839
 3684SOL    HW211952   1.870   4.742   0.741
 3685SOL     OW11953   0.902   6.006   6.750
 3685SOL    HW111954   0.848   5.927   6.780
 3685SOL    HW211955   0.881   6.027   6.655
 3686SOL     OW11956   5.039   5.942   3.632
 3686SOL    HW111957   4.996   6.002   3.699
 3686SOL    HW211958   4.995   5.853   3.634
 3687SOL     OW11959   3.297   6.250   5.038
 3687SOL    HW111960   3.340   6.187   4.973
 3687SOL    HW211961   3.219   6.205   5.081
 3688SOL     OW11962   0.199   4.419   6.467
 3688SOL    HW111963   0.249   4.364   6.400
 3688SOL    HW211964   0.147   4.358   6.527
 3689SOL     OW11965   1.987   6.886   5.400
 3689SOL    HW111966   1.950   6.945   5.471
 3689SOL    HW211967   1.922   6.883   5.323
 3690SOL     OW11968   4.072   6.200   0.684
 3690SOL    HW111969   4.135   6.269   0.649
 3690SOL    HW211970   4.090   6.113   0.639
 3691SOL     OW11971   2.425   1.865   6.934
 3691SOL    HW111972   2.463   1.786   6.887
 3691SOL    HW211973   2.398   1.934   6.866
 3692SOL     OW11974   6.721   5.844   5.202
 3692SOL    HW111975   6.665   5.911   5.249
 3692SOL    HW211976   6.671   5.809   5.122
 3693SOL     OW11977   2.106   3.581   2.983
 3693SOL    HW111978   2.107   3.673   2.944
 3693SOL    HW211979   2.081   3.515   2.911
 3694SOL     OW11980   1.959   6.671   3.073
 3694SOL    HW111981   1.957   6.771   3.077
 3694SOL    HW211982   1.866   6.635   3.064
 3695SOL     OW11983   6.473   3.153   1.671
 3695SOL    HW111984   6.510   3.223   1.610
 3695SOL    HW211985   6.509   3.167   1.763
 3696SOL     OW11986   3.680   6.415   4.983
 3696SOL    HW111987   3.651   6.384   5.073
 3696SOL    HW211988   3.699   6.335   4.925
 3697SOL     OW11989   0.479   6.194   2.532
 3697SOL    HW111990   0.435   6.111   2.566
 3697SOL    HW211991   0.555   6.170   2.472
 3698SOL     OW11992   2.459   0.592   3.837
 3698SOL    HW111993   2.492   0.510   3.884
 3698SOL    HW211994   2.484   0.673   3.890
 3699SOL     OW11995   1.032   2.123   3.785
 3699SOL    HW111996   0.971   2.179   3.840
 3699SOL    HW211997   1.016   2.141   3.688
 3700SOL     OW11998   0.232   5.776   4.714
 3700SOL    HW111999   0.214   5.725   4.630
 3700SOL    HW212000   0.210   5.718   4.793
 3701SOL     OW12001   1.350   0.915   3.863
 3701SOL    HW112002   1.330   0.943   3.957
 3701SOL    HW212003   1.340   0.994   3.802
 3702SOL     OW12004   5.922   6.475   3.140
 3702SOL    HW112005   5.867   6.554   3.111
 3702SOL    HW212006   5.879   6.391   3.108
 3703SOL     OW12007   5.692   1.235   5.636
 3703SOL    HW112008   5.790   1.250   5.639
 3703SOL    HW212009   5.665   1.209   5.543
 3704SOL     OW12010   3.382   1.716   1.298
 3704SOL    HW112011   3.349   1.793   1.245
 3704SOL    HW212012   3.465   1.742   1.347
 3705SOL     OW12013   4.218   4.723   3.960
 3705SOL    HW112014   4.194   4.788   4.033
 3705SOL    HW212015   4.317   4.720   3.950
 3706SOL     OW12016   1.792   3.362   0.252
 3706SOL    HW112017   1.825   3.411   0.333
 3706SOL    HW212018   1.860   3.369   0.179
 3707SOL     OW12019   5.445   4.574   3.829
 3707SOL    HW112020   5.528   4.616   3.865
 3707SOL    HW212021   5.365   4.609   3.879
 3708SOL     OW12022   0.047   0.385   6.843
 3708SOL    HW112023   0.127   0.330   6.820
 3708SOL    HW212024   0.033   0.454   6.772
 3709SOL     OW12025   3.796   0.577   0.624
 3709SOL    HW112026   3.773   0.549   0.717
 3709SOL    HW212027   3.845   0.664   0.626
 3710SOL     OW12028   5.977   5.399   5.194
 3710SOL    HW112029   5.980   5.499   5.184
 3710SOL    HW212030   5.896   5.373   5.245
 3711SOL     OW12031   0.712   6.644   4.005
 3711SOL    HW112032   0.737   6.736   3.972
 3711SOL    HW212033   0.787   6.607   4.059
 3712SOL     OW12034   0.042   4.898   6.534
 3712SOL    HW112035   0.135   4.876   6.504
 3712SOL    HW212036   0.004   4.970   6.476
 3713SOL     OW12037   1.027   6.411   5.850
 3713SOL    HW112038   1.091   6.335   5.838
 3713SOL    HW212039   0.944   6.378   5.896
 3714SOL     OW12040   5.229   6.121   6.102
 3714SOL    HW112041   5.251   6.025   6.083
 3714SOL    HW212042   5.145   6.145   6.054
 3715SOL     OW12043   0.559   4.094   2.531
 3715SOL    HW112044   0.579   4.147   2.614
 3715SOL    HW212045   0.606   4.006   2.536
 3716SOL     OW12046   6.408   6.743   4.735
 3716SOL    HW112047   6.397   6.808   4.810
 3716SOL    HW212048   6.465   6.785   4.664
 3717SOL     OW12049   6.854   6.857   0.130
 3717SOL    HW112050   6.806   6.919   0.067
 3717SOL    HW212051   6.806   6.854   0.217
 3718SOL     OW12052   1.365   0.495   0.045
 3718SOL    HW112053   1.331   0.566   0.106
 3718SOL    HW212054   1.325   0.407   0.070
 3719SOL     OW12055   5.115   3.962   1.747
 3719SOL    HW112056   5.126   4.056   1.781
 3719SOL    HW212057   5.118   3.962   1.647
 3720SOL     OW12058   6.341   2.703   6.598
 3720SOL    HW112059   6.374   2.788   6.639
 3720SOL    HW212060   6.312   2.721   6.504
 3721SOL     OW12061   6.512   4.455   1.619
 3721SOL    HW112062   6.605   4.476   1.588
 3721SOL    HW212063   6.516   4.387   1.693
 3722SOL     OW12064   6.344   6.106   0.748
 3722SOL    HW112065   6.398   6.123   0.831
 3722SOL    HW212066   6.383   6.157   0.672
 3723SOL     OW12067   5.951   5.288   1.636
 3723SOL    HW112068   5.963   5.362   1.702
 3723SOL    HW212069   5.932   5.203   1.684
 3724SOL     OW12070   1.766   4.157   4.664
 3724SOL    HW112071   1.696   4.228   4.666
 3724SOL    HW212072   1.828   4.173   4.588
 3725SOL     OW12073   6.547   5.536   0.586
 3725SOL    HW112074   6.546   5.604   0.513
 3725SOL    HW212075   6.568   5.580   0.673
 3726SOL     OW12076   5.964   3.463   0.568
 3726SOL    HW112077   6.047   3.497   0.523
 3726SOL    HW212078   5.949   3.368   0.541
 3727SOL     OW12079   6.620   1.271   4.923
 3727SOL    HW112080   6.673   1.299   5.002
 3727SOL    HW212081   6.545   1.212   4.952
 3728SOL     OW12082   1.698   3.871   7.008
 3728SOL    HW112083   1.638   3.939   0.029
 3728SOL    HW212084   1.747   3.912   6.931
 3729SOL     OW12085   1.294   2.170   3.850
 3729SOL    HW112086   1.336   2.160   3.761
 3729SOL    HW212087   1.196   2.152   3.843
 3730SOL     OW12088   2.389   5.606   5.896
 3730SOL    HW112089   2.372   5.555   5.980
 3730SOL    HW212090   2.401   5.541   5.820
 3731SOL     OW12091   0.070   1.647   0.631
 3731SOL    HW112092   0.147   1.706   0.657
 3731SOL    HW212093   0.025   1.685   0.551
 3732SOL     OW12094   3.174   1.410   0.332
 3732SOL    HW112095   3.167   1.392   0.430
 3732SOL    HW212096   3.142   1.503   0.313
 3733SOL     OW12097   1.341   3.516   2.831
 3733SOL    HW112098   1.414   3.455   2.800
 3733SOL    HW212099   1.269   3.461   2.873
 3734SOL     OW12100   4.883   0.275   1.559
 3734SOL    HW112101   4.851   0.336   1.486
 3734SOL    HW212102   4.880   0.180   1.528
 3735SOL     OW12103   2.158   1.369   3.464
 3735SOL    HW112104   2.081   1.413   3.509
 3735SOL    HW212105   2.156   1.389   3.365
 3736SOL     OW12106   6.743   1.913   0.789
 3736SOL    HW112107   6.733   2.007   0.821
 3736SOL    HW212108   6.840   1.887   0.789
 3737SOL     OW12109   5.466   1.490   3.531
 3737SOL    HW112110   5.536   1.557   3.554
 3737SOL    HW212111   5.382   1.512   3.579
 3738SOL     OW12112   0.535   0.211   2.583
 3738SOL    HW112113   0.572   0.120   2.603
 3738SOL    HW212114   0.446   0.221   2.626
 3739SOL     OW12115   2.429   4.859   1.072
 3739SOL    HW112116   2.368   4.867   0.994
 3739SOL    HW212117   2.376   4.828   1.152
 3740SOL     OW12118   5.760   1.472   1.648
 3740SOL    HW112119   5.732   1.406   1.578
 3740SOL    HW212120   5.856   1.459   1.670
 3741SOL     OW12121   5.284   3.120   6.819
 3741SOL    HW112122   5.231   3.176   6.881
 3741SOL    HW212123   5.273   3.023   6.843
 3742SOL     OW12124   2.111   2.046   0.127
 3742SOL    HW112125   2.084   2.007   0.215
 3742SOL    HW212126   2.112   1.975   0.057
 3743SOL     OW12127   5.657   4.047   0.561
 3743SOL    HW112128   5.756   4.057   0.550
 3743SOL    HW212129   5.630   4.073   0.654
 3744SOL     OW12130   1.711   5.961   2.382
 3744SOL    HW112131   1.757   6.020   2.316
 3744SOL    HW212132   1.623   6.002   2.408
 3745SOL     OW12133   4.215   5.048   1.749
 3745SOL    HW112134   4.185   5.123   1.689
 3745SOL    HW212135   4.299   5.075   1.795
 3746SOL     OW12136   5.753   0.735   3.122
 3746SOL    HW112137   5.790   0.759   3.212
 3746SOL    HW212138   5.750   0.635   3.113
 3747SOL     OW12139   2.390   6.465   5.084
 3747SOL    HW112140   2.436   6.552   5.072
 3747SOL    HW212141   2.363   6.429   4.994
 3748SOL     OW12142   5.683   1.345   1.877
 3748SOL    HW112143   5.712   1.413   1.944
 3748SOL    HW212144   5.707   1.377   1.785
 3749SOL     OW12145   1.966   5.555   4.087
 3749SOL    HW112146   2.049   5.498   4.084
 3749SOL    HW212147   1.949   5.594   3.997
 3750SOL     OW12148   0.430   4.820   1.261
 3750SOL    HW112149   0.493   4.824   1.339
 3750SOL    HW212150   0.412   4.913   1.228
 3751SOL     OW12151   6.640   3.387   1.540
 3751SOL    HW112152   6.670   3.392   1.445
 3751SOL    HW212153   6.620   3.478   1.574
 3752SOL     OW12154   5.589   0.241   1.010
 3752SOL    HW112155   5.512   0.179   0.996
 3752SOL    HW212156   5.640   0.250   0.925
 3753SOL     OW12157   6.423   7.020   4.331
 3753SOL    HW112158   6.467   0.087   4.315
 3753SOL    HW212159   6.324   0.011   4.333
 3754SOL     OW12160   3.261   0.759   1.085
 3754SOL    HW112161   3.346   0.802   1.114
 3754SOL    HW212162   3.281   0.676   1.034
 3755SOL     OW12163   4.640   5.131   4.028
 3755SOL    HW112164   4.544   5.150   4.049
 3755SOL    HW212165   4.680   5.212   3.985
 3756SOL     OW12166   3.216   5.097   6.614
 3756SOL    HW112167   3.154   5.139   6.679
 3756SOL    HW212168   3.249   5.166   6.550
 3757SOL     OW12169   5.166   6.046   6.870
 3757SOL    HW112170   5.142   6.054   6.967
 3757SOL    HW212171   5.253   6.092   6.853
 3758SOL     OW12172   2.166   1.049   4.851
 3758SOL    HW112173   2.133   1.125   4.794
 3758SOL    HW212174   2.243   1.080   4.907
 3759SOL     OW12175   4.813   6.842   6.618
 3759SOL    HW112176   4.828   6.867   6.522
 3759SOL    HW212177   4.816   6.925   6.674
 3760SOL     OW12178   2.009   1.442   4.530
 3760SOL    HW112179   1.939   1.395   4.477
 3760SOL    HW212180   1.990   1.540   4.531
 3761SOL     OW12181   1.065   1.301   4.795
 3761SOL    HW112182   0.975   1.325   4.831
 3761SOL    HW212183   1.057   1.224   4.732
 3762SOL     OW12184   1.623   4.788   1.072
 3762SOL    HW112185   1.620   4.872   1.017
 3762SOL    HW212186   1.689   4.724   1.031
 3763SOL     OW12187   6.890   4.037   0.863
 3763SOL    HW112188   6.864   4.122   0.909
 3763SOL    HW212189   6.972   4.053   0.808
 3764SOL     OW12190   1.847   0.405   2.501
 3764SOL    HW112191   1.800   0.409   2.589
 3764SOL    HW212192   1.893   0.317   2.491
 3765SOL     OW12193   4.748   1.612   1.356
 3765SOL    HW112194   4.725   1.700   1.314
 3765SOL    HW212195   4.838   1.582   1.324
 3766SOL     OW12196   2.122   1.838   4.324
 3766SOL    HW112197   2.065   1.815   4.246
 3766SOL    HW212198   2.199   1.774   4.330
 3767SOL     OW12199   2.061   4.732   6.980
 3767SOL    HW112200   2.149   4.779   6.987
 3767SOL    HW212201   1.988   4.792   7.016
 3768SOL     OW12202   0.990   6.623   3.709
 3768SOL    HW112203   0.896   6.643   3.683
 3768SOL    HW212204   0.992   6.588   3.803
 3769SOL     OW12205   6.024   6.285   4.346
 3769SOL    HW112206   6.061   6.235   4.268
 3769SOL    HW212207   5.985   6.220   4.412
 3770SOL     OW12208   1.376   1.020   6.225
 3770SOL    HW112209   1.376   1.079   6.145
 3770SOL    HW212210   1.399   0.927   6.198
 3771SOL     OW12211   5.197   2.885   0.282
 3771SOL    HW112212   5.187   2.936   0.367
 3771SOL    HW212213   5.269   2.816   0.292
 3772SOL     OW12214   6.925   1.502   0.007
 3772SOL    HW112215   7.019   1.480   7.001
 3772SOL    HW212216   6.923   1.526   0.104
 3773SOL     OW12217   5.776   3.242   6.043
 3773SOL    HW112218   5.810   3.325   5.997
 3773SOL    HW212219   5.830   3.225   6.125
 3774SOL     OW12220   6.461   6.075   1.005
 3774SOL    HW112221   6.501   6.161   1.035
 3774SOL    HW212222   6.418   6.029   1.083
 3775SOL     OW12223   4.365   4.903   2.402
 3775SOL    HW112224   4.379   4.811   2.437
 3775SOL    HW212225   4.413   4.968   2.462
 3776SOL     OW12226   4.488   2.082   6.820
 3776SOL    HW112227   4.467   2.119   6.911
 3776SOL    HW212228   4.406   2.088   6.762
 3777SOL     OW12229   3.574   5.955   3.969
 3777SOL    HW112230   3.662   5.948   4.016
 3777SOL    HW212231   3.579   6.026   3.899
 3778SOL     OW12232   3.302   4.992   2.700
 3778SOL    HW112233   3.228   4.950   2.752
 3778SOL    HW212234   3.275   5.084   2.671
 3779SOL     OW12235   1.337   4.547   0.308
 3779SOL    HW112236   1.247   4.584   0.288
 3779SOL    HW212237   1.399   4.622   0.333
 3780SOL     OW12238   5.875   4.910   4.917
 3780SOL    HW112239   5.890   4.965   4.835
 3780SOL    HW212240   5.953   4.922   4.980
 3781SOL     OW12241   0.483   6.417   4.643
 3781SOL    HW112242   0.443   6.326   4.653
 3781SOL    HW212243   0.413   6.486   4.660
 3782SOL     OW12244   2.411   0.025   3.153
 3782SOL    HW112245   2.496   7.016   3.109
 3782SOL    HW212246   2.430   0.049   3.249
 3783SOL     OW12247   5.448   5.216   3.623
 3783SOL    HW112248   5.487   5.305   3.647
 3783SOL    HW212249   5.460   5.153   3.700
 3784SOL     OW12250   4.636   2.607   3.303
 3784SOL    HW112251   4.606   2.571   3.214
 3784SOL    HW212252   4.671   2.700   3.291
 3785SOL     OW12253   1.572   3.355   6.054
 3785SOL    HW112254   1.600   3.448   6.080
 3785SOL    HW212255   1.543   3.305   6.136
 3786SOL     OW12256   2.216   5.325   3.280
 3786SOL    HW112257   2.204   5.364   3.371
 3786SOL    HW212258   2.143   5.259   3.262
 3787SOL     OW12259   5.946   1.527   2.951
 3787SOL    HW112260   5.990   1.616   2.943
 3787SOL    HW212261   6.011   1.456   2.923
 3788SOL     OW12262   0.248   5.125   4.588
 3788SOL    HW112263   0.228   5.223   4.589
 3788SOL    HW212264   0.168   5.075   4.622
 3789SOL     OW12265   6.982   2.843   4.799
 3789SOL    HW112266   0.037   2.812   4.855
 3789SOL    HW212267   6.900   2.789   4.820
 3790SOL     OW12268   1.408   4.303   5.821
 3790SOL    HW112269   1.452   4.232   5.766
 3790SOL    HW212270   1.374   4.262   5.905
 3791SOL     OW12271   5.490   1.368   6.557
 3791SOL    HW112272   5.513   1.457   6.597
 3791SOL    HW212273   5.391   1.353   6.564
 3792SOL     OW12274   1.187   2.760   4.276
 3792SOL    HW112275   1.189   2.721   4.368
 3792SOL    HW212276   1.161   2.857   4.281
 3793SOL     OW12277   4.964   6.171   1.871
 3793SOL    HW112278   4.984   6.216   1.958
 3793SOL    HW212279   4.971   6.237   1.797
 3794SOL     OW12280   2.141   2.940   0.980
 3794SOL    HW112281   2.224   2.927   1.034
 3794SOL    HW212282   2.134   3.035   0.951
 3795SOL     OW12283   4.155   6.479   0.627
 3795SOL    HW112284   4.107   6.530   0.698
 3795SOL    HW212285   4.097   6.472   0.546
 3796SOL     OW12286   3.181   2.117   1.949
 3796SOL    HW112287   3.207   2.039   2.005
 3796SOL    HW212288   3.107   2.167   1.993
 3797SOL     OW12289   0.070   2.916   1.811
 3797SOL    HW112290   0.123   2.831   1.809
 3797SOL    HW212291   0.059   2.946   1.906
 3798SOL     OW12292   2.699   5.243   3.196
 3798SOL    HW112293   2.669   5.147   3.191
 3798SOL    HW212294   2.619   5.303   3.196
 3799SOL     OW12295   0.024   2.377   4.135
 3799SOL    HW112296   0.072   2.348   4.052
 3799SOL    HW212297   0.011   2.476   4.133
 3800SOL     OW12298   5.987   3.154   4.242
 3800SOL    HW112299   6.051   3.223   4.209
 3800SOL    HW212300   5.913   3.199   4.293
 3801SOL     OW12301   5.963   0.082   2.069
 3801SOL    HW112302   5.996   0.037   1.986
 3801SOL    HW212303   5.898   0.023   2.116
 3802SOL     OW12304   1.258   2.382   1.725
 3802SOL    HW112305   1.316   2.353   1.649
 3802SOL    HW212306   1.182   2.436   1.690
 3803SOL     OW12307   3.776   2.886   2.260
 3803SOL    HW112308   3.681   2.890   2.229
 3803SOL    HW212309   3.815   2.797   2.237
 3804SOL     OW12310   4.767   1.772   3.701
 3804SOL    HW112311   4.792   1.775   3.797
 3804SOL    HW212312   4.732   1.861   3.672
 3805SOL     OW12313   2.755   2.463   1.644
 3805SOL    HW112314   2.659   2.494   1.643
 3805SOL    HW212315   2.770   2.407   1.726
 3806SOL     OW12316   3.349   3.217   6.414
 3806SOL    HW112317   3.355   3.314   6.390
 3806SOL    HW212318   3.430   3.190   6.464
 3807SOL     OW12319   1.262   6.197   2.712
 3807SOL    HW112320   1.247   6.283   2.664
 3807SOL    HW212321   1.310   6.214   2.798
 3808SOL     OW12322   4.861   1.191   1.146
 3808SOL    HW112323   4.901   1.142   1.069
 3808SOL    HW212324   4.814   1.272   1.113
 3809SOL     OW12325   5.603   2.979   1.646
 3809SOL    HW112326   5.674   2.923   1.603
 3809SOL    HW212327   5.514   2.933   1.637
 3810SOL     OW12328   4.549   2.575   3.874
 3810SOL    HW112329   4.594   2.652   3.918
 3810SOL    HW212330   4.563   2.581   3.775
 3811SOL     OW12331   1.238   5.319   4.691
 3811SOL    HW112332   1.248   5.279   4.600
 3811SOL    HW212333   1.141   5.336   4.708
 3812SOL     OW12334   4.951   5.392   5.012
 3812SOL    HW112335   4.919   5.475   4.968
 3812SOL    HW212336   4.874   5.344   5.054
 3813SOL     OW12337   4.351   3.572   0.726
 3813SOL    HW112338   4.396   3.621   0.652
 3813SOL    HW212339   4.377   3.476   0.723
 3814SOL     OW12340   0.504   6.916   6.673
 3814SOL    HW112341   0.432   6.888   6.736
 3814SOL    HW212342   0.464   6.954   6.590
 3815SOL     OW12343   4.137   2.646   0.461
 3815SOL    HW112344   4.230   2.613   0.478
 3815SOL    HW212345   4.124   2.733   0.509
 3816SOL     OW12346   1.461   5.588   0.094
 3816SOL    HW112347   1.509   5.506   0.062
 3816SOL    HW212348   1.437   5.646   0.016
 3817SOL     OW12349   4.909   3.572   2.729
 3817SOL    HW112350   4.907   3.574   2.629
 3817SOL    HW212351   5.001   3.593   2.761
 3818SOL     OW12352   6.352   0.808   6.542
 3818SOL    HW112353   6.322   0.771   6.630
 3818SOL    HW212354   6.290   0.882   6.514
 3819SOL     OW12355   5.231   5.335   2.097
 3819SOL    HW112356   5.203   5.289   2.182
 3819SOL    HW212357   5.251   5.431   2.117
 3820SOL     OW12358   4.969   0.020   4.062
 3820SOL    HW112359   4.996   6.986   3.983
 3820SOL    HW212360   5.037   0.010   4.135
 3821SOL     OW12361   2.473   1.337   0.957
 3821SOL    HW112362   2.447   1.428   0.923
 3821SOL    HW212363   2.403   1.271   0.933
 3822SOL     OW12364   2.240   0.166   1.023
 3822SOL    HW112365   2.334   0.185   0.995
 3822SOL    HW212366   2.204   0.245   1.073
 3823SOL     OW12367   3.643   3.048   5.884
 3823SOL    HW112368   3.667   3.036   5.788
 3823SOL    HW212369   3.547   3.075   5.892
 3824SOL     OW12370   6.747   2.385   0.356
 3824SOL    HW112371   6.710   2.321   0.424
 3824SOL    HW212372   6.837   2.354   0.326
 3825SOL     OW12373   0.726   5.480   0.746
 3825SOL    HW112374   0.795   5.455   0.678
 3825SOL    HW212375   0.724   5.412   0.819
 3826SOL     OW12376   0.957   2.947   6.778
 3826SOL    HW112377   1.023   2.907   6.842
 3826SOL    HW212378   0.970   2.906   6.688
 3827SOL     OW12379   1.385   1.601   1.880
 3827SOL    HW112380   1.422   1.590   1.788
 3827SOL    HW212381   1.441   1.548   1.944
 3828SOL     OW12382   3.690   3.268   2.478
 3828SOL    HW112383   3.694   3.191   2.541
 3828SOL    HW212384   3.700   3.235   2.384
 3829SOL     OW12385   1.634   4.952   3.292
 3829SOL    HW112386   1.689   4.998   3.360
 3829SOL    HW212387   1.634   4.853   3.310
 3830SOL     OW12388   0.380   1.496   4.790
 3830SOL    HW112389   0.458   1.446   4.752
 3830SOL    HW212390   0.295   1.453   4.760
 3831SOL     OW12391   4.752   2.601   2.318
 3831SOL    HW112392   4.749   2.693   2.279
 3831SOL    HW212393   4.663   2.557   2.307
 3832SOL     OW12394   5.804   1.086   2.625
 3832SOL    HW112395   5.707   1.064   2.633
 3832SOL    HW212396   5.822   1.172   2.673
 3833SOL     OW12397   0.457   6.366   6.259
 3833SOL    HW112398   0.478   6.437   6.192
 3833SOL    HW212399   0.362   6.336   6.247
 3834SOL     OW12400   4.741   4.712   1.756
 3834SOL    HW112401   4.653   4.699   1.711
 3834SOL    HW212402   4.756   4.638   1.822
 3835SOL     OW12403   3.444   5.458   4.388
 3835SOL    HW112404   3.440   5.364   4.422
 3835SOL    HW212405   3.355   5.484   4.351
 3836SOL     OW12406   1.761   3.766   6.157
 3836SOL    HW112407   1.849   3.812   6.141
 3836SOL    HW212408   1.724   3.794   6.245
 3837SOL     OW12409   4.626   5.338   6.451
 3837SOL    HW112410   4.599   5.422   6.498
 3837SOL    HW212411   4.544   5.291   6.417
 3838SOL     OW12412   0.539   3.540   4.696
 3838SOL    HW112413   0.468   3.472   4.716
 3838SOL    HW212414   0.616   3.527   4.758
 3839SOL     OW12415   4.819   0.933   3.653
 3839SOL    HW112416   4.875   1.006   3.615
 3839SOL    HW212417   4.752   0.902   3.586
 3840SOL     OW12418   2.249   0.505   6.090
 3840SOL    HW112419   2.248   0.581   6.025
 3840SOL    HW212420   2.202   0.426   6.049
 3841SOL     OW12421   0.320   3.011   4.701
 3841SOL    HW112422   0.323   3.083   4.631
 3841SOL    HW212423   0.389   2.942   4.679
 3842SOL     OW12424   2.070   3.118   0.379
 3842SOL    HW112425   1.981   3.162   0.369
 3842SOL    HW212426   2.058   3.026   0.415
 3843SOL     OW12427   6.071   4.124   2.345
 3843SOL    HW112428   6.171   4.127   2.356
 3843SOL    HW212429   6.043   4.031   2.319
 3844SOL     OW12430   0.662   2.415   6.318
 3844SOL    HW112431   0.646   2.318   6.337
 3844SOL    HW212432   0.760   2.432   6.308
 3845SOL     OW12433   3.450   2.967   5.186
 3845SOL    HW112434   3.512   3.037   5.221
 3845SOL    HW212435   3.372   2.957   5.248
 3846SOL     OW12436   0.790   5.292   3.753
 3846SOL    HW112437   0.824   5.373   3.706
 3846SOL    HW212438   0.836   5.283   3.842
 3847SOL     OW12439   5.757   1.056   4.922
 3847SOL    HW112440   5.665   1.036   4.955
 3847SOL    HW212441   5.790   1.140   4.964
 3848SOL     OW12442   4.209   5.498   3.059
 3848SOL    HW112443   4.304   5.522   3.074
 3848SOL    HW212444   4.157   5.579   3.034
 3849SOL     OW12445   1.421   1.430   5.406
 3849SOL    HW112446   1.323   1.448   5.402
 3849SOL    HW212447   1.472   1.510   5.376
 3850SOL     OW12448   2.251   3.116   0.780
 3850SOL    HW112449   2.254   3.019   0.753
 3850SOL    HW212450   2.306   3.128   0.862
 3851SOL     OW12451   1.073   4.312   2.169
 3851SOL    HW112452   1.089   4.298   2.071
 3851SOL    HW212453   1.158   4.342   2.212
 3852SOL     OW12454   3.980   6.792   3.827
 3852SOL    HW112455   3.970   6.716   3.763
 3852SOL    HW212456   3.903   6.855   3.817
 3853SOL     OW12457   1.093   4.142   3.423
 3853SOL    HW112458   1.022   4.179   3.484
 3853SOL    HW212459   1.167   4.103   3.478
 3854SOL     OW12460   1.826   3.152   2.193
 3854SOL    HW112461   1.759   3.193   2.255
 3854SOL    HW212462   1.833   3.054   2.212
 3855SOL     OW12463   5.122   6.453   6.684
 3855SOL    HW112464   5.132   6.532   6.624
 3855SOL    HW212465   5.109   6.484   6.778
 3856SOL     OW12466   0.164   6.919   5.759
 3856SOL    HW112467   0.173   6.927   5.660
 3856SOL    HW212468   0.114   6.997   5.795
 3857SOL     OW12469   0.357   5.791   6.617
 3857SOL    HW112470   0.444   5.760   6.656
 3857SOL    HW212471   0.289   5.719   6.626
 3858SOL     OW12472   1.222   6.604   5.505
 3858SOL    HW112473   1.196   6.514   5.470
 3858SOL    HW212474   1.189   6.613   5.599
 3859SOL     OW12475   6.588   1.988   3.056
 3859SOL    HW112476   6.591   2.020   2.961
 3859SOL    HW212477   6.492   1.981   3.086
 3860SOL     OW12478   2.405   0.561   5.688
 3860SOL    HW112479   2.367   0.631   5.748
 3860SOL    HW212480   2.357   0.474   5.703
 3861SOL     OW12481   4.789   4.656   3.252
 3861SOL    HW112482   4.883   4.686   3.263
 3861SOL    HW212483   4.776   4.620   3.159
 3862SOL     OW12484   1.394   0.019   5.219
 3862SOL    HW112485   1.406   6.941   5.209
 3862SOL    HW212486   1.305   0.046   5.182
 3863SOL     OW12487   4.500   3.134   6.275
 3863SOL    HW112488   4.499   3.190   6.359
 3863SOL    HW212489   4.587   3.150   6.227
 3864SOL     OW12490   2.295   0.765   5.895
 3864SOL    HW112491   2.350   0.838   5.855
 3864SOL    HW212492   2.225   0.804   5.954
 3865SOL     OW12493   3.571   6.447   6.866
 3865SOL    HW112494   3.590   6.370   6.927
 3865SOL    HW212495   3.537   6.525   6.919
 3866SOL     OW12496   3.822   0.953   2.005
 3866SOL    HW112497   3.803   1.037   2.056
 3866SOL    HW212498   3.829   0.975   1.907
 3867SOL     OW12499   1.522   4.501   4.233
 3867SOL    HW112500   1.556   4.594   4.238
 3867SOL    HW212501   1.558   4.447   4.309
 3868SOL     OW12502   3.438   6.652   0.097
 3868SOL    HW112503   3.493   6.648   0.180
 3868SOL    HW212504   3.457   6.737   0.048
 3869SOL     OW12505   6.070   3.646   5.296
 3869SOL    HW112506   6.166   3.622   5.310
 3869SOL    HW212507   6.063   3.723   5.234
 3870SOL     OW12508   4.167   5.824   6.936
 3870SOL    HW112509   4.218   5.740   6.918
 3870SOL    HW212510   4.205   5.870   7.016
 3871SOL     OW12511   3.881   0.397   2.861
 3871SOL    HW112512   3.973   0.400   2.899
 3871SOL    HW212513   3.814   0.410   2.935
 3872SOL     OW12514   3.705   3.309   2.880
 3872SOL    HW112515   3.713   3.354   2.969
 3872SOL    HW212516   3.749   3.219   2.884
 3873SOL     OW12517   5.755   3.332   1.921
 3873SOL    HW112518   5.713   3.404   1.865
 3873SOL    HW212519   5.839   3.368   1.963
 3874SOL     OW12520   3.931   5.865   6.513
 3874SOL    HW112521   3.911   5.861   6.415
 3874SOL    HW212522   3.872   5.800   6.561
 3875SOL     OW12523   1.936   2.503   1.700
 3875SOL    HW112524   2.014   2.558   1.730
 3875SOL    HW212525   1.912   2.437   1.771
 3876SOL     OW12526   5.064   5.096   0.342
 3876SOL    HW112527   5.015   5.053   0.267
 3876SOL    HW212528   5.125   5.029   0.385
 3877SOL     OW12529   6.758   2.928   0.323
 3877SOL    HW112530   6.678   2.901   0.269
 3877SOL    HW212531   6.798   2.847   0.366
 3878SOL     OW12532   2.689   6.317   4.598
 3878SOL    HW112533   2.635   6.401   4.598
 3878SOL    HW212534   2.786   6.340   4.611
 3879SOL     OW12535   5.039   6.157   1.293
 3879SOL    HW112536   4.953   6.111   1.316
 3879SOL    HW212537   5.019   6.249   1.261
 3880SOL     OW12538   6.392   5.124   3.670
 3880SOL    HW112539   6.379   5.197   3.603
 3880SOL    HW212540   6.309   5.114   3.725
 3881SOL     OW12541   1.168   4.453   1.007
 3881SOL    HW112542   1.259   4.495   1.007
 3881SOL    HW212543   1.106   4.508   1.062
 3882SOL     OW12544   0.472   1.791   4.839
 3882SOL    HW112545   0.404   1.793   4.766
 3882SOL    HW212546   0.457   1.711   4.897
 3883SOL     OW12547   4.273   0.836   3.463
 3883SOL    HW112548   4.280   0.868   3.558
 3883SOL    HW212549   4.320   0.900   3.403
 3884SOL     OW12550   1.018   5.435   3.347
 3884SOL    HW112551   1.095   5.488   3.383
 3884SOL    HW212552   1.013   5.448   3.248
 3885SOL     OW12553   6.652   0.131   2.820
 3885SOL    HW112554   6.641   0.067   2.745
 3885SOL    HW212555   6.658   0.224   2.784
 3886SOL     OW12556   6.590   5.700   4.992
 3886SOL    HW112557   6.506   5.647   5.005
 3886SOL    HW212558   6.607   5.711   4.894
 3887SOL     OW12559   6.697   0.882   5.968
 3887SOL    HW112560   6.776   0.898   5.909
 3887SOL    HW212561   6.633   0.822   5.921
 3888SOL     OW12562   1.114   0.283   6.842
 3888SOL    HW112563   1.149   0.374   6.818
 3888SOL    HW212564   1.187   0.229   6.883
 3889SOL     OW12565   6.358   3.136   6.461
 3889SOL    HW112566   6.406   3.088   6.388
 3889SOL    HW212567   6.324   3.071   6.528
 3890SOL     OW12568   5.933   5.730   2.821
 3890SOL    HW112569   5.877   5.804   2.783
 3890SOL    HW212570   6.013   5.716   2.763
 3891SOL     OW12571   5.484   4.794   4.122
 3891SOL    HW112572   5.490   4.892   4.104
 3891SOL    HW212573   5.514   4.776   4.216
 3892SOL     OW12574   0.238   2.335   1.446
 3892SOL    HW112575   0.166   2.400   1.470
 3892SOL    HW212576   0.217   2.246   1.486
 3893SOL     OW12577   3.183   5.535   1.457
 3893SOL    HW112578   3.144   5.624   1.482
 3893SOL    HW212579   3.202   5.533   1.359
 3894SOL     OW12580   2.663   1.599   1.030
 3894SOL    HW112581   2.734   1.610   1.100
 3894SOL    HW212582   2.691   1.647   0.946
 3895SOL     OW12583   1.519   0.162   5.434
 3895SOL    HW112584   1.442   0.171   5.498
 3895SOL    HW212585   1.487   0.114   5.351
 3896SOL     OW12586   0.328   1.958   6.296
 3896SOL    HW112587   0.282   1.872   6.272
 3896SOL    HW212588   0.391   1.941   6.372
 3897SOL     OW12589   3.550   6.990   2.074
 3897SOL    HW112590   3.485   6.935   2.023
 3897SOL    HW212591   3.638   6.943   2.078
 3898SOL     OW12592   3.463   3.920   4.103
 3898SOL    HW112593   3.482   3.968   4.189
 3898SOL    HW212594   3.472   3.822   4.117
 3899SOL     OW12595   4.700   0.947   4.390
 3899SOL    HW112596   4.659   1.012   4.327
 3899SOL    HW212597   4.749   0.876   4.338
 3900SOL     OW12598   5.506   2.729   3.689
 3900SOL    HW112599   5.416   2.699   3.719
 3900SOL    HW212600   5.503   2.826   3.666
 3901SOL     OW12601   3.153   6.267   5.787
 3901SOL    HW112602   3.093   6.302   5.714
 3901SOL    HW212603   3.166   6.169   5.776
 3902SOL     OW12604   6.123   3.809   1.603
 3902SOL    HW112605   6.138   3.811   1.702
 3902SOL    HW212606   6.030   3.839   1.583
 3903SOL     OW12607   4.869   4.415   6.707
 3903SOL    HW112608   4.876   4.469   6.791
 3903SOL    HW212609   4.944   4.349   6.703
 3904SOL     OW12610   2.209   6.781   5.757
 3904SOL    HW112611   2.213   6.786   5.657
 3904SOL    HW212612   2.146   6.709   5.784
 3905SOL     OW12613   5.629   6.830   5.994
 3905SOL    HW112614   5.585   6.900   5.937
 3905SOL    HW212615   5.686   6.875   6.063
 3906SOL     OW12616   1.764   5.663   5.665
 3906SOL    HW112617   1.824   5.727   5.616
 3906SOL    HW212618   1.670   5.679   5.638
 3907SOL     OW12619   6.176   6.941   4.104
 3907SOL    HW112620   6.089   6.911   4.065
 3907SOL    HW212621   6.201   6.880   4.179
 3908SOL     OW12622   1.700   0.961   6.794
 3908SOL    HW112623   1.752   1.041   6.764
 3908SOL    HW212624   1.608   0.965   6.756
 3909SOL     OW12625   6.993   4.588   6.648
 3909SOL    HW112626   6.946   4.669   6.684
 3909SOL    HW212627   6.949   4.506   6.682
 3910SOL     OW12628   3.677   3.822   2.131
 3910SOL    HW112629   3.608   3.823   2.059
 3910SOL    HW212630   3.689   3.914   2.167
 3911SOL     OW12631   5.021   1.722   0.175
 3911SOL    HW112632   5.072   1.644   0.139
 3911SOL    HW212633   4.930   1.691   0.204
 3912SOL     OW12634   3.869   1.522   6.270
 3912SOL    HW112635   3.915   1.556   6.352
 3912SOL    HW212636   3.910   1.564   6.189
 3913SOL     OW12637   2.996   6.704   6.552
 3913SOL    HW112638   2.960   6.791   6.517
 3913SOL    HW212639   3.078   6.679   6.500
 3914SOL     OW12640   5.092   0.764   1.217
 3914SOL    HW112641   5.066   0.851   1.259
 3914SOL    HW212642   5.017   0.731   1.160
 3915SOL     OW12643   4.379   6.457   0.475
 3915SOL    HW112644   4.298   6.467   0.533
 3915SOL    HW212645   4.358   6.492   0.383
 3916SOL     OW12646   2.160   6.652   2.601
 3916SOL    HW112647   2.201   6.652   2.509
 3916SOL    HW212648   2.139   6.558   2.628
 3917SOL     OW12649   1.307   4.291   1.418
 3917SOL    HW112650   1.385   4.343   1.382
 3917SOL    HW212651   1.339   4.234   1.493
 3918SOL     OW12652   4.409   6.339   2.045
 3918SOL    HW112653   4.413   6.275   1.969
 3918SOL    HW212654   4.409   6.288   2.131
 3919SOL     OW12655   3.441   0.400   6.596
 3919SOL    HW112656   3.405   0.423   6.506
 3919SOL    HW212657   3.444   0.301   6.607
 3920SOL     OW12658   2.670   1.912   6.360
 3920SOL    HW112659   2.673   1.815   6.336
 3920SOL    HW212660   2.763   1.945   6.373
 3921SOL     OW12661   6.867   2.697   0.427
 3921SOL    HW112662   6.961   2.670   0.406
 3921SOL    HW212663   6.803   2.632   0.386
 3922SOL     OW12664   4.124   5.649   0.907
 3922SOL    HW112665   4.197   5.717   0.897
 3922SOL    HW212666   4.115   5.597   0.822
 3923SOL     OW12667   5.917   2.207   0.251
 3923SOL    HW112668   6.000   2.206   0.306
 3923SOL    HW212669   5.915   2.128   0.191
 3924SOL     OW12670   0.528   4.670   3.010
 3924SOL    HW112671   0.569   4.581   3.030
 3924SOL    HW212672   0.452   4.658   2.946
 3925SOL     OW12673   4.119   4.496   0.874
 3925SOL    HW112674   4.053   4.430   0.838
 3925SOL    HW212675   4.114   4.580   0.822
 3926SOL     OW12676   0.151   0.426   4.784
 3926SOL    HW112677   0.161   0.334   4.745
 3926SOL    HW212678   0.178   0.494   4.716
 3927SOL     OW12679   0.072   2.424   4.837
 3927SOL    HW112680   0.101   2.455   4.927
 3927SOL    HW212681   0.152   2.391   4.786
 3928SOL     OW12682   3.717   5.578   4.044
 3928SOL    HW112683   3.808   5.578   4.087
 3928SOL    HW212684   3.727   5.599   3.947
 3929SOL     OW12685   6.722   1.752   6.547
 3929SOL    HW112686   6.798   1.702   6.589
 3929SOL    HW212687   6.721   1.733   6.449
 3930SOL     OW12688   1.183   2.072   3.422
 3930SOL    HW112689   1.100   2.123   3.444
 3930SOL    HW212690   1.204   2.008   3.496
 3931SOL     OW12691   1.681   1.493   1.989
 3931SOL    HW112692   1.737   1.455   2.063
 3931SOL    HW212693   1.688   1.434   1.908
 3932SOL     OW12694   1.868   4.462   3.857
 3932SOL    HW112695   1.863   4.430   3.763
 3932SOL    HW212696   1.781   4.502   3.884
 3933SOL     OW12697   1.467   6.775   0.269
 3933SOL    HW112698   1.533   6.707   0.237
 3933SOL    HW212699   1.402   6.732   0.331
 3934SOL     OW12700   0.049   0.641   2.410
 3934SOL    HW112701   0.016   0.657   2.317
 3934SOL    HW212702   7.004   0.679   2.475
 3935SOL     OW12703   1.179   1.106   5.748
 3935SOL    HW112704   1.204   1.197   5.780
 3935SOL    HW212705   1.225   1.037   5.804
 3936SOL     OW12706   6.759   6.103   5.564
 3936SOL    HW112707   6.859   6.106   5.561
 3936SOL    HW212708   6.724   6.066   5.478
 3937SOL     OW12709   6.760   6.313   2.279
 3937SOL    HW112710   6.781   6.403   2.319
 3937SOL    HW212711   6.814   6.300   2.196
 3938SOL     OW12712   6.119   3.588   4.252
 3938SOL    HW112713   6.214   3.615   4.236
 3938SOL    HW212714   6.106   3.567   4.349
 3939SOL     OW12715   2.340   1.769   3.335
 3939SOL    HW112716   2.321   1.793   3.240
 3939SOL    HW212717   2.254   1.759   3.385
 3940SOL     OW12718   2.873   4.858   2.015
 3940SOL    HW112719   2.955   4.861   2.073
 3940SOL    HW212720   2.857   4.764   1.985
 3941SOL     OW12721   5.886   0.274   4.713
 3941SOL    HW112722   5.860   0.293   4.808
 3941SOL    HW212723   5.950   0.198   4.711
 3942SOL     OW12724   0.878   6.553   5.574
 3942SOL    HW112725   0.851   6.458   5.587
 3942SOL    HW212726   0.953   6.575   5.636
 3943SOL     OW12727   0.343   3.613   2.824
 3943SOL    HW112728   0.416   3.551   2.853
 3943SOL    HW212729   0.369   3.656   2.738
 3944SOL     OW12730   5.867   3.589   6.143
 3944SOL    HW112731   5.773   3.620   6.159
 3944SOL    HW212732   5.870   3.534   6.060
 3945SOL     OW12733   1.085   2.362   2.848
 3945SOL    HW112734   1.002   2.330   2.802
 3945SOL    HW212735   1.138   2.417   2.785
 3946SOL     OW12736   0.095   3.853   6.297
 3946SOL    HW112737   0.053   3.763   6.305
 3946SOL    HW212738   0.193   3.843   6.281
 3947SOL     OW12739   5.642   5.617   0.890
 3947SOL    HW112740   5.653   5.689   0.960
 3947SOL    HW212741   5.574   5.551   0.922
 3948SOL     OW12742   1.126   4.295   6.903
 3948SOL    HW112743   1.129   4.377   6.846
 3948SOL    HW212744   1.042   4.244   6.882
 3949SOL     OW12745   6.051   6.787   2.813
 3949SOL    HW112746   6.011   6.876   2.830
 3949SOL    HW212747   6.105   6.758   2.892
 3950SOL     OW12748   3.623   4.094   1.662
 3950SOL    HW112749   3.709   4.049   1.639
 3950SOL    HW212750   3.639   4.192   1.673
 3951SOL     OW12751   0.682   0.991   0.205
 3951SOL    HW112752   0.768   1.040   0.191
 3951SOL    HW212753   0.619   1.048   0.258
 3952SOL     OW12754   6.037   3.366   5.130
 3952SOL    HW112755   6.076   3.458   5.135
 3952SOL    HW212756   6.101   3.300   5.169
 3953SOL     OW12757   3.892   4.438   6.738
 3953SOL    HW112758   3.869   4.500   6.813
 3953SOL    HW212759   3.938   4.489   6.666
 3954SOL     OW12760   5.541   4.742   5.267
 3954SOL    HW112761   5.629   4.760   5.311
 3954SOL    HW212762   5.554   4.735   5.168
 3955SOL     OW12763   4.821   6.649   6.815
 3955SOL    HW112764   4.818   6.718   6.743
 3955SOL    HW212765   4.739   6.592   6.810
 3956SOL     OW12766   1.099   1.960   4.723
 3956SOL    HW112767   1.002   1.985   4.727
 3956SOL    HW212768   1.110   1.879   4.665
 3957SOL     OW12769   4.601   6.652   3.586
 3957SOL    HW112770   4.506   6.682   3.599
 3957SOL    HW212771   4.649   6.717   3.527
 3958SOL     OW12772   5.930   6.715   6.436
 3958SOL    HW112773   5.842   6.725   6.389
 3958SOL    HW212774   5.991   6.789   6.408
 3959SOL     OW12775   3.047   6.516   1.195
 3959SOL    HW112776   3.145   6.516   1.217
 3959SOL    HW212777   3.026   6.592   1.133
 3960SOL     OW12778   5.866   2.252   6.201
 3960SOL    HW112779   5.816   2.170   6.228
 3960SOL    HW212780   5.935   2.273   6.270
 3961SOL     OW12781   5.618   2.441   2.061
 3961SOL    HW112782   5.611   2.534   2.024
 3961SOL    HW212783   5.562   2.379   2.006
 3962SOL     OW12784   1.269   5.704   0.246
 3962SOL    HW112785   1.349   5.651   0.216
 3962SOL    HW212786   1.232   5.755   0.169
 3963SOL     OW12787   5.416   4.408   3.627
 3963SOL    HW112788   5.364   4.450   3.553
 3963SOL    HW212789   5.436   4.476   3.697
 3964SOL     OW12790   4.384   4.691   4.733
 3964SOL    HW112791   4.375   4.634   4.814
 3964SOL    HW212792   4.293   4.720   4.703
 3965SOL     OW12793   4.025   4.117   6.088
 3965SOL    HW112794   3.953   4.174   6.047
 3965SOL    HW212795   4.001   4.096   6.183
 3966SOL     OW12796   6.857   4.977   6.977
 3966SOL    HW112797   6.864   4.940   0.048
 3966SOL    HW212798   6.761   4.996   6.956
 3967SOL     OW12799   1.325   4.396   2.752
 3967SOL    HW112800   1.279   4.384   2.840
 3967SOL    HW212801   1.258   4.419   2.682
 3968SOL     OW12802   6.316   0.513   0.976
 3968SOL    HW112803   6.366   0.438   1.020
 3968SOL    HW212804   6.222   0.514   1.011
 3969SOL     OW12805   0.241   3.906   3.071
 3969SOL    HW112806   0.313   3.933   3.007
 3969SOL    HW212807   0.275   3.913   3.164
 3970SOL     OW12808   4.693   5.085   3.312
 3970SOL    HW112809   4.628   5.144   3.265
 3970SOL    HW212810   4.649   4.999   3.337
 3971SOL     OW12811   2.424   4.904   2.572
 3971SOL    HW112812   2.404   4.820   2.621
 3971SOL    HW212813   2.523   4.910   2.555
 3972SOL     OW12814   1.320   5.746   1.840
 3972SOL    HW112815   1.388   5.720   1.771
 3972SOL    HW212816   1.331   5.688   1.921
 3973SOL     OW12817   2.566   3.636   5.520
 3973SOL    HW112818   2.638   3.650   5.588
 3973SOL    HW212819   2.597   3.573   5.450
 3974SOL     OW12820   1.612   0.817   5.509
 3974SOL    HW112821   1.647   0.850   5.421
 3974SOL    HW212822   1.552   0.887   5.549
 3975SOL     OW12823   6.248   0.139   6.458
 3975SOL    HW112824   6.279   0.233   6.438
 3975SOL    HW212825   6.184   0.141   6.534
 3976SOL     OW12826   1.974   4.954   0.979
 3976SOL    HW112827   1.925   5.040   0.992
 3976SOL    HW212828   2.024   4.930   1.063
 3977SOL     OW12829   3.310   4.769   5.594
 3977SOL    HW112830   3.252   4.850   5.594
 3977SOL    HW212831   3.405   4.797   5.609
 3978SOL     OW12832   5.525   0.613   4.794
 3978SOL    HW112833   5.582   0.531   4.795
 3978SOL    HW212834   5.583   0.694   4.795
 3979SOL     OW12835   2.620   5.883   1.550
 3979SOL    HW112836   2.576   5.816   1.491
 3979SOL    HW212837   2.595   5.975   1.520
 3980SOL     OW12838   0.117   4.408   5.655
 3980SOL    HW112839   0.036   4.351   5.666
 3980SOL    HW212840   0.181   4.393   5.731
 3981SOL     OW12841   1.612   2.238   6.412
 3981SOL    HW112842   1.552   2.303   6.458
 3981SOL    HW212843   1.580   2.144   6.431
 3982SOL     OW12844   2.854   0.515   4.007
 3982SOL    HW112845   2.841   0.603   3.961
 3982SOL    HW212846   2.932   0.467   3.965
 3983SOL     OW12847   2.952   5.917   4.545
 3983SOL    HW112848   2.902   5.997   4.512
 3983SOL    HW212849   3.048   5.942   4.560
 3984SOL     OW12850   2.150   0.423   1.794
 3984SOL    HW112851   2.186   0.447   1.884
 3984SOL    HW212852   2.089   0.344   1.803
 3985SOL     OW12853   2.919   4.369   0.101
 3985SOL    HW112854   2.891   4.441   0.165
 3985SOL    HW212855   3.019   4.365   0.097
 3986SOL     OW12856   7.016   1.264   3.151
 3986SOL    HW112857   0.004   1.357   3.188
 3986SOL    HW212858   6.940   1.262   3.086
 3987SOL     OW12859   1.299   5.536   4.857
 3987SOL    HW112860   1.271   5.454   4.807
 3987SOL    HW212861   1.223   5.602   4.858
 3988SOL     OW12862   3.405   2.593   5.523
 3988SOL    HW112863   3.415   2.681   5.570
 3988SOL    HW212864   3.495   2.558   5.498
 3989SOL     OW12865   6.320   1.036   6.868
 3989SOL    HW112866   6.320   1.134   6.851
 3989SOL    HW212867   6.235   1.010   6.913
 3990SOL     OW12868   6.064   1.414   3.937
 3990SOL    HW112869   6.054   1.511   3.960
 3990SOL    HW212870   5.994   1.361   3.984
 3991SOL     OW12871   6.560   2.089   2.787
 3991SOL    HW112872   6.612   2.169   2.817
 3991SOL    HW212873   6.469   2.117   2.757
 3992SOL     OW12874   4.259   2.140   6.157
 3992SOL    HW112875   4.238   2.153   6.254
 3992SOL    HW212876   4.289   2.046   6.142
 3993SOL     OW12877   1.468   2.218   3.360
 3993SOL    HW112878   1.555   2.259   3.329
 3993SOL    HW212879   1.433   2.158   3.289
 3994SOL     OW12880   1.333   2.764   5.083
 3994SOL    HW112881   1.300   2.699   5.015
 3994SOL    HW212882   1.426   2.739   5.109
 3995SOL     OW12883   2.172   3.894   4.153
 3995SOL    HW112884   2.122   3.808   4.153
 3995SOL    HW212885   2.239   3.894   4.079
 3996SOL     OW12886   1.400   0.946   5.118
 3996SOL    HW112887   1.415   1.039   5.150
 3996SOL    HW212888   1.338   0.947   5.040
 3997SOL     OW12889   4.901   3.281   3.408
 3997SOL    HW112890   4.989   3.246   3.441
 3997SOL    HW212891   4.872   3.357   3.466
 3998SOL     OW12892   5.034   1.853   2.055
 3998SOL    HW112893   4.938   1.849   2.024
 3998SOL    HW212894   5.081   1.927   2.007
 3999SOL     OW12895   5.796   3.556   3.602
 3999SOL    HW112896   5.850   3.497   3.542
 3999SOL    HW212897   5.760   3.501   3.678
 4000SOL     OW12898   3.481   5.626   2.712
 4000SOL    HW112899   3.540   5.551   2.740
 4000SOL    HW212900   3.531   5.686   2.649
 4001SOL     OW12901   2.181   2.645   4.891
 4001SOL    HW112902   2.164   2.594   4.806
 4001SOL    HW212903   2.199   2.741   4.869
 4002SOL     OW12904   3.233   3.309   6.041
 4002SOL    HW112905   3.300   3.374   6.076
 4002SOL    HW212906   3.150   3.358   6.015
 4003SOL     OW12907   2.577   0.247   5.848
 4003SOL    HW112908   2.596   0.176   5.916
 4003SOL    HW212909   2.488   0.230   5.806
 4004SOL     OW12910   6.068   2.894   4.324
 4004SOL    HW112911   6.042   2.990   4.319
 4004SOL    HW212912   6.036   2.846   4.242
 4005SOL     OW12913   5.364   4.915   0.954
 4005SOL    HW112914   5.339   4.907   1.051
 4005SOL    HW212915   5.455   4.877   0.939
 4006SOL     OW12916   4.514   4.929   2.003
 4006SOL    HW112917   4.511   4.864   2.080
 4006SOL    HW212918   4.609   4.946   1.978
 4007SOL     OW12919   0.901   2.584   1.974
 4007SOL    HW112920   0.841   2.517   1.930
 4007SOL    HW212921   0.935   2.648   1.905
 4008SOL     OW12922   3.888   1.656   5.443
 4008SOL    HW112923   3.816   1.586   5.438
 4008SOL    HW212924   3.854   1.735   5.493
 4009SOL     OW12925   4.579   2.834   0.602
 4009SOL    HW112926   4.536   2.883   0.678
 4009SOL    HW212927   4.625   2.899   0.542
 4010SOL     OW12928   2.066   3.225   1.331
 4010SOL    HW112929   2.139   3.181   1.279
 4010SOL    HW212930   2.057   3.181   1.420
 4011SOL     OW12931   1.306   6.483   2.030
 4011SOL    HW112932   1.281   6.404   1.974
 4011SOL    HW212933   1.287   6.463   2.126
 4012SOL     OW12934   4.863   4.930   1.549
 4012SOL    HW112935   4.816   4.857   1.597
 4012SOL    HW212936   4.931   4.891   1.487
 4013SOL     OW12937   3.140   0.364   0.792
 4013SOL    HW112938   3.155   0.266   0.787
 4013SOL    HW212939   3.076   0.384   0.866
 4014SOL     OW12940   4.231   5.717   3.416
 4014SOL    HW112941   4.188   5.629   3.434
 4014SOL    HW212942   4.161   5.784   3.389
 4015SOL     OW12943   4.403   5.146   6.393
 4015SOL    HW112944   4.449   5.073   6.342
 4015SOL    HW212945   4.328   5.108   6.446
 4016SOL     OW12946   1.034   5.579   6.563
 4016SOL    HW112947   1.126   5.617   6.577
 4016SOL    HW212948   0.966   5.641   6.602
 4017SOL     OW12949   0.850   6.351   0.166
 4017SOL    HW112950   0.902   6.423   0.120
 4017SOL    HW212951   0.820   6.284   0.098
 4018SOL     OW12952   5.911   6.456   1.747
 4018SOL    HW112953   5.883   6.482   1.839
 4018SOL    HW212954   5.994   6.400   1.752
 4019SOL     OW12955   6.324   3.848   2.063
 4019SOL    HW112956   6.368   3.768   2.103
 4019SOL    HW212957   6.394   3.915   2.037
 4020SOL     OW12958   6.646   2.480   5.732
 4020SOL    HW112959   6.677   2.412   5.666
 4020SOL    HW212960   6.653   2.442   5.824
 4021SOL     OW12961   3.256   3.724   5.174
 4021SOL    HW112962   3.284   3.812   5.136
 4021SOL    HW212963   3.283   3.650   5.112
 4022SOL     OW12964   4.722   0.417   6.400
 4022SOL    HW112965   4.768   0.340   6.356
 4022SOL    HW212966   4.740   0.415   6.498
 4023SOL     OW12967   6.916   0.453   4.411
 4023SOL    HW112968   6.936   0.375   4.351
 4023SOL    HW212969   6.977   0.529   4.389
 4024SOL     OW12970   2.778   5.134   4.146
 4024SOL    HW112971   2.876   5.128   4.132
 4024SOL    HW212972   2.752   5.229   4.163
 4025SOL     OW12973   6.918   6.223   4.589
 4025SOL    HW112974   6.939   6.166   4.510
 4025SOL    HW212975   6.870   6.168   4.658
 4026SOL     OW12976   6.198   0.086   2.983
 4026SOL    HW112977   6.199   0.053   2.889
 4026SOL    HW212978   6.104   0.088   3.017
 4027SOL     OW12979   2.502   2.662   1.402
 4027SOL    HW112980   2.476   2.614   1.318
 4027SOL    HW212981   2.596   2.695   1.394
 4028SOL     OW12982   2.553   2.386   2.745
 4028SOL    HW112983   2.463   2.343   2.761
 4028SOL    HW212984   2.541   2.471   2.694
 4029SOL     OW12985   2.937   4.882   6.100
 4029SOL    HW112986   2.928   4.783   6.094
 4029SOL    HW212987   2.956   4.908   6.195
 4030SOL     OW12988   1.143   1.543   1.016
 4030SOL    HW112989   1.079   1.485   1.068
 4030SOL    HW212990   1.144   1.514   0.921
 4031SOL     OW12991   5.119   6.487   3.287
 4031SOL    HW112992   5.133   6.487   3.386
 4031SOL    HW212993   5.202   6.518   3.242
 4032SOL     OW12994   6.529   0.103   2.324
 4032SOL    HW112995   6.613   0.050   2.310
 4032SOL    HW212996   6.545   0.171   2.396
 4033SOL     OW12997   2.928   3.654   1.627
 4033SOL    HW112998   2.993   3.639   1.702
 4033SOL    HW212999   2.978   3.657   1.540
 4034SOL     OW13000   6.852   1.502   4.691
 4034SOL    HW113001   6.798   1.418   4.691
 4034SOL    HW213002   6.798   1.576   4.650
 4035SOL     OW13003   6.344   2.509   1.046
 4035SOL    HW113004   6.313   2.546   0.958
 4035SOL    HW213005   6.339   2.581   1.116
 4036SOL     OW13006   4.968   6.486   2.741
 4036SOL    HW113007   4.981   6.433   2.657
 4036SOL    HW213008   4.924   6.430   2.810
 4037SOL     OW13009   2.396   1.087   0.567
 4037SOL    HW113010   2.364   1.063   0.475
 4037SOL    HW213011   2.488   1.126   0.560
 4038SOL     OW13012   4.358   4.133   1.666
 4038SOL    HW113013   4.376   4.183   1.582
 4038SOL    HW213014   4.433   4.149   1.731
 4039SOL     OW13015   4.589   4.575   1.589
 4039SOL    HW113016   4.500   4.553   1.628
 4039SOL    HW213017   4.645   4.492   1.583
 4040SOL     OW13018   3.759   6.924   5.875
 4040SOL    HW113019   3.796   6.845   5.924
 4040SOL    HW213020   3.811   6.939   5.791
 4041SOL     OW13021   1.805   5.125   1.338
 4041SOL    HW113022   1.783   5.178   1.420
 4041SOL    HW213023   1.900   5.094   1.342
 4042SOL     OW13024   6.375   5.363   3.143
 4042SOL    HW113025   6.356   5.399   3.051
 4042SOL    HW213026   6.289   5.341   3.188
 4043SOL     OW13027   5.107   1.477   4.129
 4043SOL    HW113028   5.174   1.497   4.057
 4043SOL    HW213029   5.071   1.563   4.165
 4044SOL     OW13030   4.737   0.460   3.203
 4044SOL    HW113031   4.699   0.377   3.245
 4044SOL    HW213032   4.714   0.539   3.259
 4045SOL     OW13033   2.801   5.398   5.827
 4045SOL    HW113034   2.710   5.391   5.868
 4045SOL    HW213035   2.798   5.364   5.733
 4046SOL     OW13036   0.877   1.848   3.701
 4046SOL    HW113037   0.909   1.769   3.647
 4046SOL    HW213038   0.942   1.867   3.774
 4047SOL     OW13039   1.442   1.860   0.715
 4047SOL    HW113040   1.352   1.816   0.716
 4047SOL    HW213041   1.510   1.798   0.756
 4048SOL     OW13042   5.255   2.240   1.985
 4048SOL    HW113043   5.162   2.205   1.972
 4048SOL    HW213044   5.259   2.295   2.068
 4049SOL     OW13045   6.114   5.461   6.002
 4049SOL    HW113046   6.030   5.515   6.003
 4049SOL    HW213047   6.165   5.479   5.917
 4050SOL     OW13048   1.534   6.489   1.088
 4050SOL    HW113049   1.614   6.540   1.056
 4050SOL    HW213050   1.537   6.481   1.187
 4051SOL     OW13051   3.683   2.292   6.700
 4051SOL    HW113052   3.776   2.323   6.721
 4051SOL    HW213053   3.632   2.366   6.656
 4052SOL     OW13054   6.853   0.431   2.392
 4052SOL    HW113055   6.944   0.462   2.363
 4052SOL    HW213056   6.852   0.421   2.492
 4053SOL     OW13057   3.245   4.911   4.314
 4053SOL    HW113058   3.151   4.940   4.332
 4053SOL    HW213059   3.254   4.885   4.218
 4054SOL     OW13060   6.813   3.645   2.027
 4054SOL    HW113061   6.780   3.618   2.117
 4054SOL    HW213062   6.823   3.564   1.969
 4055SOL     OW13063   3.370   3.193   6.915
 4055SOL    HW113064   3.413   3.277   6.948
 4055SOL    HW213065   3.314   3.212   6.835
 4056SOL     OW13066   3.649   4.255   1.004
 4056SOL    HW113067   3.595   4.331   0.968
 4056SOL    HW213068   3.691   4.205   0.928
 4057SOL     OW13069   5.445   2.398   1.617
 4057SOL    HW113070   5.445   2.358   1.708
 4057SOL    HW213071   5.508   2.346   1.558
 4058SOL     OW13072   1.727   0.275   3.883
 4058SOL    HW113073   1.672   0.214   3.940
 4058SOL    HW213074   1.693   0.369   3.891
 4059SOL     OW13075   1.009   2.585   3.899
 4059SOL    HW113076   1.044   2.564   3.807
 4059SOL    HW213077   0.909   2.585   3.897
 4060SOL     OW13078   4.705   5.396   4.180
 4060SOL    HW113079   4.717   5.481   4.232
 4060SOL    HW213080   4.621   5.350   4.210
 4061SOL     OW13081   2.990   5.022   1.781
 4061SOL    HW113082   2.946   4.978   1.859
 4061SOL    HW213083   2.940   4.999   1.697
 4062SOL     OW13084   2.120   2.310   2.347
 4062SOL    HW113085   2.087   2.261   2.428
 4062SOL    HW213086   2.167   2.246   2.286
 4063SOL     OW13087   5.952   6.303   5.345
 4063SOL    HW113088   6.006   6.359   5.408
 4063SOL    HW213089   5.981   6.207   5.352
 4064SOL     OW13090   1.531   6.879   3.641
 4064SOL    HW113091   1.525   6.789   3.598
 4064SOL    HW213092   1.586   6.939   3.584
 4065SOL     OW13093   6.933   6.956   0.635
 4065SOL    HW113094   6.940   6.893   0.712
 4065SOL    HW213095   0.003   6.972   0.596
 4066SOL     OW13096   5.442   5.975   2.717
 4066SOL    HW113097   5.528   6.027   2.714
 4066SOL    HW213098   5.373   6.028   2.766
 4067SOL     OW13099   6.499   3.210   3.227
 4067SOL    HW113100   6.595   3.197   3.202
 4067SOL    HW213101   6.492   3.228   3.325
 4068SOL     OW13102   3.114   0.308   4.900
 4068SOL    HW113103   3.188   0.243   4.885
 4068SOL    HW213104   3.148   0.401   4.889
 4069SOL     OW13105   3.779   5.094   6.284
 4069SOL    HW113106   3.826   5.006   6.288
 4069SOL    HW213107   3.686   5.081   6.250
 4070SOL     OW13108   0.464   3.322   2.135
 4070SOL    HW113109   0.432   3.348   2.043
 4070SOL    HW213110   0.503   3.230   2.132
 4071SOL     OW13111   1.160   1.226   5.497
 4071SOL    HW113112   1.150   1.140   5.549
 4071SOL    HW213113   1.223   1.287   5.546
 4072SOL     OW13114   0.545   5.947   3.967
 4072SOL    HW113115   0.464   5.976   3.917
 4072SOL    HW213116   0.624   5.943   3.905
 4073SOL     OW13117   2.631   6.209   6.732
 4073SOL    HW113118   2.690   6.134   6.699
 4073SOL    HW213119   2.655   6.293   6.683
 4074SOL     OW13120   0.195   2.767   2.275
 4074SOL    HW113121   0.109   2.803   2.239
 4074SOL    HW213122   0.226   2.691   2.218
 4075SOL     OW13123   4.231   2.149   2.623
 4075SOL    HW113124   4.136   2.179   2.620
 4075SOL    HW213125   4.234   2.049   2.633
 4076SOL     OW13126   3.501   3.438   5.425
 4076SOL    HW113127   3.471   3.493   5.347
 4076SOL    HW213128   3.556   3.494   5.487
 4077SOL     OW13129   3.527   0.518   0.056
 4077SOL    HW113130   3.623   0.506   0.081
 4077SOL    HW213131   3.505   0.458   7.000
 4078SOL     OW13132   6.499   5.591   2.040
 4078SOL    HW113133   6.537   5.597   2.132
 4078SOL    HW213134   6.485   5.494   2.016
 4079SOL     OW13135   0.394   1.759   3.726
 4079SOL    HW113136   0.488   1.733   3.748
 4079SOL    HW213137   0.332   1.685   3.753
 4080SOL     OW13138   2.774   3.569   6.901
 4080SOL    HW113139   2.844   3.624   6.856
 4080SOL    HW213140   2.687   3.618   6.901
 4081SOL     OW13141   2.008   2.158   4.114
 4081SOL    HW113142   2.074   2.221   4.156
 4081SOL    HW213143   1.974   2.094   4.182
 4082SOL     OW13144   1.266   2.706   0.629
 4082SOL    HW113145   1.248   2.800   0.600
 4082SOL    HW213146   1.188   2.672   0.681
 4083SOL     OW13147   6.713   4.659   2.005
 4083SOL    HW113148   6.804   4.635   2.039
 4083SOL    HW213149   6.717   4.674   1.907
 4084SOL     OW13150   4.394   2.328   2.993
 4084SOL    HW113151   4.451   2.408   3.013
 4084SOL    HW213152   4.409   2.258   3.062
 4085SOL     OW13153   2.506   5.561   0.657
 4085SOL    HW113154   2.482   5.485   0.717
 4085SOL    HW213155   2.546   5.635   0.712
 4086SOL     OW13156   0.329   4.570   1.232
 4086SOL    HW113157   0.262   4.551   1.160
 4086SOL    HW213158   0.367   4.661   1.219
 4087SOL     OW13159   1.489   1.610   3.420
 4087SOL    HW113160   1.580   1.581   3.449
 4087SOL    HW213161   1.422   1.586   3.491
 4088SOL     OW13162   6.583   1.033   6.748
 4088SOL    HW113163   6.488   1.032   6.778
 4088SOL    HW213164   6.610   1.128   6.726
 4089SOL     OW13165   6.128   4.774   3.802
 4089SOL    HW113166   6.053   4.740   3.859
 4089SOL    HW213167   6.139   4.714   3.723
 4090SOL     OW13168   1.454   5.571   5.257
 4090SOL    HW113169   1.435   5.545   5.352
 4090SOL    HW213170   1.370   5.606   5.215
 4091SOL     OW13171   0.739   6.160   7.005
 4091SOL    HW113172   0.798   6.105   6.946
 4091SOL    HW213173   0.659   6.106   0.011
 4092SOL     OW13174   5.635   2.838   4.399
 4092SOL    HW113175   5.698   2.773   4.442
 4092SOL    HW213176   5.688   2.908   4.352
 4093SOL     OW13177   4.991   6.370   1.669
 4093SOL    HW113178   4.920   6.428   1.708
 4093SOL    HW213179   5.080   6.413   1.680
 4094SOL     OW13180   1.632   4.613   6.043
 4094SOL    HW113181   1.611   4.576   5.953
 4094SOL    HW213182   1.713   4.671   6.037
 4095SOL     OW13183   0.382   4.156   0.548
 4095SOL    HW113184   0.435   4.071   0.540
 4095SOL    HW213185   0.380   4.185   0.644
 4096SOL     OW13186   5.073   1.011   6.909
 4096SOL    HW113187   5.060   0.911   6.911
 4096SOL    HW213188   5.167   1.032   6.880
 4097SOL     OW13189   4.435   4.534   4.406
 4097SOL    HW113190   4.502   4.603   4.378
 4097SOL    HW213191   4.455   4.505   4.500
 4098SOL     OW13192   0.716   1.804   2.022
 4098SOL    HW113193   0.757   1.890   1.991
 4098SOL    HW213194   0.786   1.733   2.023
 4099SOL     OW13195   4.083   5.368   1.103
 4099SOL    HW113196   4.005   5.307   1.119
 4099SOL    HW213197   4.165   5.328   1.144
 4100SOL     OW13198   0.340   6.362   4.218
 4100SOL    HW113199   0.271   6.366   4.146
 4100SOL    HW213200   0.355   6.453   4.256
 4101SOL     OW13201   0.443   1.169   0.306
 4101SOL    HW113202   0.520   1.203   0.361
 4101SOL    HW213203   0.451   1.205   0.213
 4102SOL     OW13204   0.952   0.605   0.992
 4102SOL    HW113205   1.044   0.611   0.952
 4102SOL    HW213206   0.902   0.529   0.950
 4103SOL     OW13207   0.462   0.082   0.655
 4103SOL    HW113208   0.520   0.063   0.576
 4103SOL    HW213209   0.409   0.165   0.639
 4104SOL     OW13210   6.913   4.788   3.525
 4104SOL    HW113211   6.922   4.724   3.601
 4104SOL    HW213212   6.944   4.744   3.441
 4105SOL     OW13213   5.723   0.225   2.892
 4105SOL    HW113214   5.736   0.199   2.987
 4105SOL    HW213215   5.807   0.268   2.857
 4106SOL     OW13216   6.914   2.795   3.426
 4106SOL    HW113217   7.009   2.809   3.401
 4106SOL    HW213218   6.880   2.875   3.475
 4107SOL     OW13219   1.444   5.430   1.460
 4107SOL    HW113220   1.422   5.437   1.363
 4107SOL    HW213221   1.487   5.342   1.478
 4108SOL     OW13222   6.783   5.079   4.521
 4108SOL    HW113223   6.832   5.019   4.458
 4108SOL    HW213224   6.688   5.049   4.528
 4109SOL     OW13225   6.532   6.891   4.550
 4109SOL    HW113226   6.632   6.901   4.550
 4109SOL    HW213227   6.498   6.902   4.456
 4110SOL     OW13228   4.277   3.879   5.541
 4110SOL    HW113229   4.298   3.869   5.443
 4110SOL    HW213230   4.197   3.823   5.563
 4111SOL     OW13231   5.617   4.898   6.260
 4111SOL    HW113232   5.635   4.893   6.359
 4111SOL    HW213233   5.610   4.805   6.224
 4112SOL     OW13234   4.932   6.412   4.728
 4112SOL    HW113235   4.910   6.446   4.819
 4112SOL    HW213236   4.847   6.391   4.679
 4113SOL     OW13237   5.775   5.615   4.887
 4113SOL    HW113238   5.690   5.573   4.920
 4113SOL    HW213239   5.842   5.544   4.867
 4114SOL     OW13240   4.065   2.246   4.053
 4114SOL    HW113241   4.047   2.183   4.129
 4114SOL    HW213242   4.098   2.334   4.090
 4115SOL     OW13243   3.085   5.315   2.340
 4115SOL    HW113244   3.099   5.348   2.433
 4115SOL    HW213245   3.158   5.251   2.315
 4116SOL     OW13246   3.936   1.312   2.735
 4116SOL    HW113247   3.837   1.325   2.739
 4116SOL    HW213248   3.962   1.234   2.792
 4117SOL     OW13249   0.968   3.826   2.701
 4117SOL    HW113250   1.041   3.840   2.768
 4117SOL    HW213251   0.944   3.729   2.698
 4118SOL     OW13252   5.161   6.472   0.663
 4118SOL    HW113253   5.151   6.498   0.567
 4118SOL    HW213254   5.106   6.534   0.720
 4119SOL     OW13255   2.975   1.733   3.982
 4119SOL    HW113256   2.927   1.811   3.941
 4119SOL    HW213257   2.924   1.701   4.062
 4120SOL     OW13258   4.242   0.765   5.797
 4120SOL    HW113259   4.181   0.814   5.860
 4120SOL    HW213260   4.326   0.740   5.845
 4121SOL     OW13261   6.417   0.032   3.420
 4121SOL    HW113262   6.414   0.069   3.327
 4121SOL    HW213263   6.426   6.954   3.416
 4122SOL     OW13264   1.481   6.737   4.716
 4122SOL    HW113265   1.425   6.671   4.768
 4122SOL    HW213266   1.445   6.746   4.624
 4123SOL     OW13267   4.278   4.749   5.213
 4123SOL    HW113268   4.316   4.832   5.256
 4123SOL    HW213269   4.234   4.693   5.283
 4124SOL     OW13270   6.543   6.285   0.613
 4124SOL    HW113271   6.578   6.375   0.640
 4124SOL    HW213272   6.619   6.223   0.595
 4125SOL     OW13273   4.637   1.688   2.560
 4125SOL    HW113274   4.558   1.701   2.500
 4125SOL    HW213275   4.703   1.762   2.544
 4126SOL     OW13276   2.160   3.354   3.310
 4126SOL    HW113277   2.167   3.450   3.337
 4126SOL    HW213278   2.113   3.347   3.222
 4127SOL     OW13279   5.748   3.451   5.664
 4127SOL    HW113280   5.668   3.503   5.636
 4127SOL    HW213281   5.731   3.353   5.650
 4128SOL     OW13282   1.034   2.890   1.166
 4128SOL    HW113283   0.995   2.957   1.230
 4128SOL    HW213284   1.079   2.817   1.217
 4129SOL     OW13285   3.512   1.121   6.738
 4129SOL    HW113286   3.439   1.056   6.758
 4129SOL    HW213287   3.491   1.209   6.779
 4130SOL     OW13288   6.445   3.032   1.107
 4130SOL    HW113289   6.391   3.008   1.026
 4130SOL    HW213290   6.537   2.995   1.098
 4131SOL     OW13291   0.104   1.262   3.467
 4131SOL    HW113292   0.144   1.304   3.385
 4131SOL    HW213293   0.006   1.283   3.471
 4132SOL     OW13294   4.892   4.062   3.269
 4132SOL    HW113295   4.974   4.009   3.250
 4132SOL    HW213296   4.851   4.091   3.183
 4133SOL     OW13297   3.395   5.820   1.511
 4133SOL    HW113298   3.416   5.881   1.435
 4133SOL    HW213299   3.296   5.821   1.529
 4134SOL     OW13300   2.580   3.810   1.418
 4134SOL    HW113301   2.536   3.895   1.447
 4134SOL    HW213302   2.603   3.816   1.321
 4135SOL     OW13303   0.301   2.158   1.889
 4135SOL    HW113304   0.248   2.243   1.881
 4135SOL    HW213305   0.396   2.179   1.911
 4136SOL     OW13306   1.116   3.055   2.765
 4136SOL    HW113307   1.207   3.075   2.803
 4136SOL    HW213308   1.115   3.076   2.668
 4137SOL     OW13309   1.193   3.355   1.800
 4137SOL    HW113310   1.289   3.383   1.792
 4137SOL    HW213311   1.139   3.433   1.833
 4138SOL     OW13312   4.172   5.741   2.591
 4138SOL    HW113313   4.241   5.784   2.533
 4138SOL    HW213314   4.199   5.748   2.686
 4139SOL     OW13315   1.818   1.683   5.433
 4139SOL    HW113316   1.843   1.780   5.434
 4139SOL    HW213317   1.726   1.673   5.396
 4140SOL     OW13318   3.394   0.825   5.265
 4140SOL    HW113319   3.343   0.814   5.180
 4140SOL    HW213320   3.481   0.775   5.258
 4141SOL     OW13321   5.038   6.421   1.246
 4141SOL    HW113322   5.029   6.488   1.320
 4141SOL    HW213323   5.063   6.468   1.162
 4142SOL     OW13324   6.512   5.157   0.784
 4142SOL    HW113325   6.441   5.133   0.850
 4142SOL    HW213326   6.601   5.156   0.829
 4143SOL     OW13327   5.327   2.065   0.740
 4143SOL    HW113328   5.260   2.087   0.669
 4143SOL    HW213329   5.294   2.099   0.828
 4144SOL     OW13330   5.411   1.456   6.978
 4144SOL    HW113331   5.351   1.463   0.037
 4144SOL    HW213332   5.439   1.547   6.950
 4145SOL     OW13333   0.467   6.560   1.401
 4145SOL    HW113334   0.394   6.599   1.456
 4145SOL    HW213335   0.555   6.573   1.448
 4146SOL     OW13336   6.444   0.493   2.592
 4146SOL    HW113337   6.361   0.448   2.626
 4146SOL    HW213338   6.483   0.439   2.517
 4147SOL     OW13339   5.035   4.959   6.103
 4147SOL    HW113340   5.133   4.959   6.082
 4147SOL    HW213341   4.999   4.866   6.097
 4148SOL     OW13342   1.936   0.385   4.499
 4148SOL    HW113343   1.973   0.359   4.588
 4148SOL    HW213344   1.885   0.308   4.461
 4149SOL     OW13345   7.014   4.288   1.130
 4149SOL    HW113346   6.922   4.247   1.130
 4149SOL    HW213347   0.060   4.217   1.150
 4150SOL     OW13348   1.324   0.093   6.200
 4150SOL    HW113349   1.262   0.145   6.141
 4150SOL    HW213350   1.312   7.016   6.183
 4151SOL     OW13351   3.353   6.147   5.463
 4151SOL    HW113352   3.371   6.099   5.549
 4151SOL    HW213353   3.303   6.086   5.401
 4152SOL     OW13354   4.591   5.854   1.330
 4152SOL    HW113355   4.576   5.788   1.257
 4152SOL    HW213356   4.516   5.849   1.396
 4153SOL     OW13357   5.709   5.245   0.594
 4153SOL    HW113358   5.736   5.182   0.521
 4153SOL    HW213359   5.680   5.332   0.553
 4154SOL     OW13360   6.906   5.032   3.629
 4154SOL    HW113361   6.900   4.937   3.599
 4154SOL    HW213362   6.818   5.078   3.614
 4155SOL     OW13363   0.185   1.290   2.301
 4155SOL    HW113364   0.204   1.253   2.392
 4155SOL    HW213365   0.266   1.339   2.268
 4156SOL     OW13366   6.002   6.160   4.956
 4156SOL    HW113367   5.958   6.187   4.870
 4156SOL    HW213368   5.999   6.237   5.020
 4157SOL     OW13369   4.733   5.820   3.835
 4157SOL    HW113370   4.698   5.819   3.929
 4157SOL    HW213371   4.817   5.767   3.830
 4158SOL     OW13372   0.310   3.263   1.539
 4158SOL    HW113373   0.346   3.335   1.481
 4158SOL    HW213374   0.266   3.303   1.619
 4159SOL     OW13375   2.153   3.076   3.045
 4159SOL    HW113376   2.136   3.145   3.115
 4159SOL    HW213377   2.157   3.120   2.955
 4160SOL     OW13378   5.726   1.154   0.453
 4160SOL    HW113379   5.809   1.131   0.403
 4160SOL    HW213380   5.746   1.224   0.521
 4161SOL     OW13381   1.055   2.119   0.918
 4161SOL    HW113382   1.099   2.031   0.901
 4161SOL    HW213383   1.064   2.142   1.015
 4162SOL     OW13384   6.592   5.852   0.215
 4162SOL    HW113385   6.618   5.940   0.177
 4162SOL    HW213386   6.563   5.864   0.310
 4163SOL     OW13387   4.856   0.604   2.663
 4163SOL    HW113388   4.796   0.573   2.589
 4163SOL    HW213389   4.814   0.584   2.751
 4164SOL     OW13390   1.875   6.672   6.061
 4164SOL    HW113391   1.797   6.630   6.015
 4164SOL    HW213392   1.913   6.608   6.128
 4165SOL     OW13393   4.459   0.643   5.930
 4165SOL    HW113394   4.429   0.589   6.009
 4165SOL    HW213395   4.475   0.582   5.852
 4166SOL     OW13396   5.354   1.832   0.585
 4166SOL    HW113397   5.337   1.889   0.505
 4166SOL    HW213398   5.348   1.888   0.668
 4167SOL     OW13399   2.277   4.333   0.609
 4167SOL    HW113400   2.298   4.409   0.548
 4167SOL    HW213401   2.185   4.299   0.588
 4168SOL     OW13402   7.015   4.647   1.452
 4168SOL    HW113403   0.080   4.699   1.448
 4168SOL    HW213404   0.014   4.549   1.448
 4169SOL     OW13405   5.633   4.790   5.001
 4169SOL    HW113406   5.554   4.847   4.978
 4169SOL    HW213407   5.717   4.838   4.978
 4170SOL     OW13408   4.444   3.505   6.156
 4170SOL    HW113409   4.439   3.604   6.155
 4170SOL    HW213410   4.400   3.470   6.238
 4171SOL     OW13411   6.603   5.669   0.814
 4171SOL    HW113412   6.505   5.664   0.835
 4171SOL    HW213413   6.655   5.636   0.893
 4172SOL     OW13414   1.252   1.694   6.184
 4172SOL    HW113415   1.331   1.747   6.214
 4172SOL    HW213416   1.184   1.692   6.257
 4173SOL     OW13417   5.127   4.467   4.539
 4173SOL    HW113418   5.100   4.478   4.444
 4173SOL    HW213419   5.051   4.430   4.592
 4174SOL     OW13420   4.982   1.544   2.812
 4174SOL    HW113421   4.982   1.528   2.911
 4174SOL    HW213422   4.989   1.456   2.764
 4175SOL     OW13423   1.775   5.270   4.623
 4175SOL    HW113424   1.760   5.282   4.721
 4175SOL    HW213425   1.842   5.197   4.608
 4176SOL     OW13426   3.662   5.955   1.810
 4176SOL    HW113427   3.740   5.972   1.869
 4176SOL    HW213428   3.624   5.864   1.829
 4177SOL     OW13429   6.093   5.029   5.037
 4177SOL    HW113430   6.092   5.041   5.137
 4177SOL    HW213431   6.099   5.118   4.993
 4178SOL     OW13432   4.326   6.831   4.077
 4178SOL    HW113433   4.384   6.769   4.130
 4178SOL    HW213434   4.350   6.925   4.099
 4179SOL     OW13435   5.952   3.420   3.426
 4179SOL    HW113436   5.923   3.457   3.338
 4179SOL    HW213437   6.035   3.366   3.415
 4180SOL     OW13438   4.845   4.265   1.116
 4180SOL    HW113439   4.838   4.255   1.017
 4180SOL    HW213440   4.940   4.256   1.145
 4181SOL     OW13441   3.701   0.884   0.398
 4181SOL    HW113442   3.650   0.800   0.379
 4181SOL    HW213443   3.637   0.957   0.422
 4182SOL     OW13444   0.846   0.120   3.766
 4182SOL    HW113445   0.818   0.119   3.670
 4182SOL    HW213446   0.945   0.133   3.771
 4183SOL     OW13447   3.190   1.264   6.960
 4183SOL    HW113448   3.169   1.194   6.892
 4183SOL    HW213449   3.107   1.313   6.984
 4184SOL     OW13450   4.161   6.176   2.411
 4184SOL    HW113451   4.138   6.107   2.343
 4184SOL    HW213452   4.086   6.242   2.418
 4185SOL     OW13453   0.480   4.660   2.398
 4185SOL    HW113454   0.535   4.695   2.322
 4185SOL    HW213455   0.487   4.560   2.401
 4186SOL     OW13456   3.086   4.943   6.912
 4186SOL    HW113457   3.072   4.845   6.898
 4186SOL    HW213458   3.003   4.992   6.888
 4187SOL     OW13459   3.716   2.983   5.613
 4187SOL    HW113460   3.758   2.900   5.575
 4187SOL    HW213461   3.783   3.057   5.614
 4188SOL     OW13462   4.958   0.506   5.082
 4188SOL    HW113463   4.910   0.573   5.139
 4188SOL    HW213464   5.041   0.475   5.129
 4189SOL     OW13465   3.183   5.047   5.570
 4189SOL    HW113466   3.112   4.996   5.620
 4189SOL    HW213467   3.143   5.130   5.531
 4190SOL     OW13468   0.736   0.537   0.178
 4190SOL    HW113469   0.742   0.608   0.248
 4190SOL    HW213470   0.659   0.476   0.198
 4191SOL     OW13471   4.815   4.320   3.118
 4191SOL    HW113472   4.785   4.235   3.075
 4191SOL    HW213473   4.792   4.397   3.059
 4192SOL     OW13474   0.745   0.870   3.924
 4192SOL    HW113475   0.804   0.798   3.959
 4192SOL    HW213476   0.792   0.918   3.849
 4193SOL     OW13477   0.523   0.949   1.833
 4193SOL    HW113478   0.575   1.035   1.843
 4193SOL    HW213479   0.495   0.938   1.738
 4194SOL     OW13480   5.752   0.302   4.314
 4194SOL    HW113481   5.801   0.386   4.296
 4194SOL    HW213482   5.803   0.224   4.277
 4195SOL     OW13483   3.801   6.302   2.159
 4195SOL    HW113484   3.775   6.372   2.094
 4195SOL    HW213485   3.896   6.273   2.141
 4196SOL     OW13486   6.426   2.176   3.189
 4196SOL    HW113487   6.445   2.115   3.266
 4196SOL    HW213488   6.328   2.177   3.171
 4197SOL     OW13489   4.806   5.608   5.727
 4197SOL    HW113490   4.841   5.582   5.817
 4197SOL    HW213491   4.813   5.530   5.665
 4198SOL     OW13492   5.544   2.325   0.303
 4198SOL    HW113493   5.502   2.330   0.212
 4198SOL    HW213494   5.604   2.403   0.317
 4199SOL     OW13495   2.289   2.365   6.064
 4199SOL    HW113496   2.374   2.350   6.015
 4199SOL    HW213497   2.304   2.350   6.162
 4200SOL     OW13498   3.754   0.265   5.934
 4200SOL    HW113499   3.789   0.347   5.978
 4200SOL    HW213500   3.676   0.229   5.985
 4201SOL     OW13501   5.921   6.673   3.448
 4201SOL    HW113502   5.975   6.599   3.408
 4201SOL    HW213503   5.825   6.659   3.426
 4202SOL     OW13504   3.868   5.599   5.342
 4202SOL    HW113505   3.838   5.692   5.320
 4202SOL    HW213506   3.796   5.553   5.394
 4203SOL     OW13507   4.449   5.502   0.583
 4203SOL    HW113508   4.511   5.423   0.578
 4203SOL    HW213509   4.415   5.510   0.677
 4204SOL     OW13510   3.913   3.874   2.947
 4204SOL    HW113511   3.859   3.910   3.022
 4204SOL    HW213512   4.004   3.916   2.948
 4205SOL     OW13513   4.152   5.459   3.472
 4205SOL    HW113514   4.097   5.384   3.435
 4205SOL    HW213515   4.147   5.458   3.572
 4206SOL     OW13516   6.968   0.060   5.852
 4206SOL    HW113517   7.003   0.134   5.911
 4206SOL    HW213518   6.894   0.012   5.899
 4207SOL     OW13519   1.697   1.415   1.006
 4207SOL    HW113520   1.765   1.481   0.972
 4207SOL    HW213521   1.741   1.353   1.072
 4208SOL     OW13522   0.196   2.886   6.027
 4208SOL    HW113523   0.254   2.967   6.026
 4208SOL    HW213524   0.100   2.913   6.021
 4209SOL     OW13525   0.202   0.377   4.331
 4209SOL    HW113526   0.279   0.390   4.269
 4209SOL    HW213527   0.122   0.345   4.280
 4210SOL     OW13528   3.389   3.593   2.367
 4210SOL    HW113529   3.323   3.657   2.407
 4210SOL    HW213530   3.345   3.505   2.350
 4211SOL     OW13531   4.377   6.214   6.025
 4211SOL    HW113532   4.333   6.279   6.086
 4211SOL    HW213533   4.472   6.243   6.009
 4212SOL     OW13534   5.993   2.217   2.671
 4212SOL    HW113535   5.968   2.159   2.594
 4212SOL    HW213536   5.946   2.305   2.663
 4213SOL     OW13537   1.803   1.174   1.214
 4213SOL    HW113538   1.849   1.090   1.186
 4213SOL    HW213539   1.866   1.230   1.267
 4214SOL     OW13540   1.355   4.954   5.386
 4214SOL    HW113541   1.310   5.042   5.370
 4214SOL    HW213542   1.443   4.969   5.431
 4215SOL     OW13543   5.622   6.681   5.670
 4215SOL    HW113544   5.660   6.589   5.673
 4215SOL    HW213545   5.664   6.737   5.741
 4216SOL     OW13546   1.092   1.453   3.069
 4216SOL    HW113547   1.026   1.467   3.143
 4216SOL    HW213548   1.161   1.388   3.099
 4217SOL     OW13549   1.055   0.274   2.186
 4217SOL    HW113550   1.082   0.369   2.201
 4217SOL    HW213551   1.024   0.263   2.091
 4218SOL     OW13552   4.411   0.930   1.727
 4218SOL    HW113553   4.319   0.896   1.749
 4218SOL    HW213554   4.411   1.030   1.731
 4219SOL     OW13555   3.099   5.456   4.049
 4219SOL    HW113556   3.082   5.536   3.992
 4219SOL    HW213557   3.129   5.486   4.140
 4220SOL     OW13558   5.298   2.944   4.139
 4220SOL    HW113559   5.285   3.004   4.061
 4220SOL    HW213560   5.312   2.850   4.108
 4221SOL     OW13561   6.141   5.215   6.645
 4221SOL    HW113562   6.180   5.138   6.695
 4221SOL    HW213563   6.067   5.183   6.586
 4222SOL     OW13564   6.361   2.301   2.748
 4222SOL    HW113565   6.448   2.348   2.730
 4222SOL    HW213566   6.292   2.368   2.775
 4223SOL     OW13567   3.703   3.345   6.029
 4223SOL    HW113568   3.767   3.355   6.105
 4223SOL    HW213569   3.716   3.256   5.985
 4224SOL     OW13570   5.188   3.840   4.003
 4224SOL    HW113571   5.163   3.905   3.932
 4224SOL    HW213572   5.141   3.753   3.987
 4225SOL     OW13573   4.098   0.903   5.995
 4225SOL    HW113574   4.031   0.951   5.938
 4225SOL    HW213575   4.066   0.900   6.089
 4226SOL     OW13576   0.859   0.140   2.333
 4226SOL    HW113577   0.772   0.186   2.352
 4226SOL    HW213578   0.917   0.198   2.276
 4227SOL     OW13579   3.612   4.473   1.339
 4227SOL    HW113580   3.565   4.560   1.354
 4227SOL    HW213581   3.701   4.490   1.298
 4228SOL     OW13582   0.345   4.461   4.994
 4228SOL    HW113583   0.299   4.373   5.003
 4228SOL    HW213584   0.314   4.508   4.912
 4229SOL     OW13585   5.283   5.430   5.489
 4229SOL    HW113586   5.327   5.502   5.436
 4229SOL    HW213587   5.203   5.396   5.440
 4230SOL     OW13588   1.298   6.875   2.674
 4230SOL    HW113589   1.365   6.873   2.600
 4230SOL    HW213590   1.326   6.944   2.742
 4231SOL     OW13591   5.388   6.528   5.303
 4231SOL    HW113592   5.362   6.540   5.398
 4231SOL    HW213593   5.366   6.611   5.252
 4232SOL     OW13594   6.928   4.525   2.628
 4232SOL    HW113595   6.872   4.496   2.706
 4232SOL    HW213596   6.941   4.624   2.630
 4233SOL     OW13597   7.018   0.711   6.252
 4233SOL    HW113598   6.924   0.744   6.251
 4233SOL    HW213599   0.060   0.789   6.261
 4234SOL     OW13600   2.479   6.826   5.430
 4234SOL    HW113601   2.382   6.850   5.425
 4234SOL    HW213602   2.534   6.898   5.387
 4235SOL     OW13603   6.106   3.945   5.848
 4235SOL    HW113604   6.200   3.939   5.815
 4235SOL    HW213605   6.069   3.853   5.863
 4236SOL     OW13606   0.010   3.496   3.074
 4236SOL    HW113607   6.978   3.560   3.128
 4236SOL    HW213608   0.026   3.533   2.983
 4237SOL     OW13609   5.619   5.427   2.585
 4237SOL    HW113610   5.610   5.328   2.574
 4237SOL    HW213611   5.596   5.472   2.499
 4238SOL     OW13612   2.865   5.215   2.867
 4238SOL    HW113613   2.933   5.198   2.937
 4238SOL    HW213614   2.899   5.286   2.805
 4239SOL     OW13615   5.643   1.988   3.032
 4239SOL    HW113616   5.632   1.980   2.933
 4239SOL    HW213617   5.587   1.919   3.077
 4240SOL     OW13618   2.450   6.944   0.061
 4240SOL    HW113619   2.483   6.924   0.153
 4240SOL    HW213620   2.485   0.012   0.031
 4241SOL     OW13621   5.969   1.085   0.351
 4241SOL    HW113622   6.064   1.055   0.360
 4241SOL    HW213623   5.936   1.067   0.259
 4242SOL     OW13624   2.130   1.047   3.330
 4242SOL    HW113625   2.228   1.028   3.328
 4242SOL    HW213626   2.080   0.964   3.303
 4243SOL     OW13627   6.562   2.970   3.602
 4243SOL    HW113628   6.591   2.913   3.526
 4243SOL    HW213629   6.467   2.999   3.588
 4244SOL     OW13630   4.581   4.632   1.309
 4244SOL    HW113631   4.597   4.722   1.269
 4244SOL    HW213632   4.611   4.632   1.404
 4245SOL     OW13633   6.770   0.837   6.212
 4245SOL    HW113634   6.721   0.850   6.125
 4245SOL    HW213635   6.724   0.889   6.284
 4246SOL     OW13636   6.599   3.453   2.626
 4246SOL    HW113637   6.529   3.422   2.562
 4246SOL    HW213638   6.661   3.377   2.647
 4247SOL     OW13639   2.603   4.990   3.222
 4247SOL    HW113640   2.554   4.979   3.309
 4247SOL    HW213641   2.672   4.919   3.213
 4248SOL     OW13642   1.781   1.723   3.944
 4248SOL    HW113643   1.786   1.820   3.921
 4248SOL    HW213644   1.873   1.684   3.946
 4249SOL     OW13645   5.966   2.571   4.193
 4249SOL    HW113646   5.918   2.597   4.277
 4249SOL    HW213647   6.012   2.650   4.155
 4250SOL     OW13648   6.867   5.874   3.455
 4250SOL    HW113649   6.832   5.787   3.487
 4250SOL    HW213650   6.898   5.929   3.533
 4251SOL     OW13651   5.351   3.821   1.091
 4251SOL    HW113652   5.365   3.893   1.023
 4251SOL    HW213653   5.335   3.734   1.045
 4252SOL     OW13654   6.200   6.797   6.629
 4252SOL    HW113655   6.252   6.879   6.654
 4252SOL    HW213656   6.226   6.767   6.537
 4253SOL     OW13657   3.223   6.760   1.024
 4253SOL    HW113658   3.253   6.854   1.041
 4253SOL    HW213659   3.123   6.755   1.026
 4254SOL     OW13660   1.420   3.215   2.129
 4254SOL    HW113661   1.486   3.290   2.126
 4254SOL    HW213662   1.332   3.250   2.161
 4255SOL     OW13663   6.984   3.953   4.276
 4255SOL    HW113664   6.963   3.964   4.373
 4255SOL    HW213665   0.018   4.030   4.244
 4256SOL     OW13666   1.656   6.212   1.058
 4256SOL    HW113667   1.676   6.178   1.150
 4256SOL    HW213668   1.615   6.303   1.065
 4257SOL     OW13669   3.140   0.631   4.161
 4257SOL    HW113670   3.070   0.692   4.123
 4257SOL    HW213671   3.202   0.602   4.088
 4258SOL     OW13672   3.472   5.731   1.080
 4258SOL    HW113673   3.410   5.747   1.157
 4258SOL    HW213674   3.426   5.674   1.012
 4259SOL     OW13675   2.408   0.467   0.799
 4259SOL    HW113676   2.451   0.489   0.887
 4259SOL    HW213677   2.474   0.419   0.741
 4260SOL     OW13678   5.917   0.687   1.572
 4260SOL    HW113679   5.853   0.614   1.597
 4260SOL    HW213680   5.978   0.706   1.649
 4261SOL     OW13681   2.398   0.339   2.486
 4261SOL    HW113682   2.413   0.257   2.429
 4261SOL    HW213683   2.482   0.393   2.488
 4262SOL     OW13684   0.661   4.439   6.360
 4262SOL    HW113685   0.656   4.340   6.377
 4262SOL    HW213686   0.726   4.480   6.425
 4263SOL     OW13687   2.969   0.646   2.426
 4263SOL    HW113688   2.957   0.548   2.409
 4263SOL    HW213689   2.942   0.667   2.520
 4264SOL     OW13690   6.060   1.695   3.699
 4264SOL    HW113691   6.006   1.619   3.662
 4264SOL    HW213692   6.002   1.752   3.757
 4265SOL     OW13693   3.906   1.568   0.738
 4265SOL    HW113694   3.935   1.633   0.808
 4265SOL    HW213695   3.979   1.501   0.723
 4266SOL     OW13696   1.417   5.967   6.257
 4266SOL    HW113697   1.398   5.919   6.343
 4266SOL    HW213698   1.468   5.908   6.196
 4267SOL     OW13699   2.104   3.790   3.533
 4267SOL    HW113700   2.164   3.835   3.468
 4267SOL    HW213701   2.062   3.710   3.489
 4268SOL     OW13702   0.800   5.698   6.612
 4268SOL    HW113703   0.788   5.748   6.526
 4268SOL    HW213704   0.732   5.625   6.617
 4269SOL     OW13705   2.706   0.605   2.036
 4269SOL    HW113706   2.716   0.510   2.069
 4269SOL    HW213707   2.771   0.621   1.962
 4270SOL     OW13708   4.143   3.482   3.396
 4270SOL    HW113709   4.114   3.406   3.454
 4270SOL    HW213710   4.117   3.464   3.301
 4271SOL     OW13711   6.634   1.312   6.729
 4271SOL    HW113712   6.545   1.332   6.688
 4271SOL    HW213713   6.670   1.394   6.773
 4272SOL     OW13714   6.444   2.085   4.538
 4272SOL    HW113715   6.513   2.156   4.549
 4272SOL    HW213716   6.406   2.061   4.627
 4273SOL     OW13717   4.123   6.580   5.007
 4273SOL    HW113718   4.205   6.592   4.952
 4273SOL    HW213719   4.077   6.668   5.020
 4274SOL     OW13720   1.020   0.465   1.492
 4274SOL    HW113721   0.960   0.401   1.541
 4274SOL    HW213722   0.972   0.498   1.410
 4275SOL     OW13723   6.056   2.170   4.747
 4275SOL    HW113724   5.994   2.126   4.812
 4275SOL    HW213725   6.050   2.124   4.659
 4276SOL     OW13726   2.387   5.142   3.884
 4276SOL    HW113727   2.414   5.163   3.790
 4276SOL    HW213728   2.374   5.228   3.934
 4277SOL     OW13729   6.310   4.750   3.245
 4277SOL    HW113730   6.397   4.703   3.257
 4277SOL    HW213731   6.304   4.825   3.311
 4278SOL     OW13732   0.005   6.661   4.970
 4278SOL    HW113733   0.088   6.668   5.026
 4278SOL    HW213734   6.955   6.719   5.010
 4279SOL     OW13735   3.391   1.123   3.746
 4279SOL    HW113736   3.467   1.075   3.790
 4279SOL    HW213737   3.338   1.171   3.816
 4280SOL     OW13738   5.138   0.630   6.379
 4280SOL    HW113739   5.185   0.718   6.393
 4280SOL    HW213740   5.164   0.594   6.289
 4281SOL     OW13741   6.704   4.529   3.533
 4281SOL    HW113742   6.722   4.431   3.548
 4281SOL    HW213743   6.720   4.578   3.619
 4282SOL     OW13744   3.748   4.595   6.159
 4282SOL    HW113745   3.810   4.567   6.086
 4282SOL    HW213746   3.655   4.600   6.124
 4283SOL     OW13747   1.499   0.716   2.916
 4283SOL    HW113748   1.576   0.698   2.854
 4283SOL    HW213749   1.503   0.811   2.947
 4284SOL     OW13750   3.930   4.560   1.223
 4284SOL    HW113751   3.943   4.576   1.321
 4284SOL    HW213752   4.008   4.510   1.187
 4285SOL     OW13753   1.630   0.463   6.183
 4285SOL    HW113754   1.620   0.448   6.085
 4285SOL    HW213755   1.690   0.542   6.199
 4286SOL     OW13756   5.049   6.455   5.390
 4286SOL    HW113757   5.004   6.543   5.404
 4286SOL    HW213758   5.133   6.452   5.444
 4287SOL     OW13759   5.990   1.263   6.113
 4287SOL    HW113760   5.983   1.301   6.020
 4287SOL    HW213761   5.979   1.164   6.109
 4288SOL     OW13762   0.698   6.056   3.462
 4288SOL    HW113763   0.682   5.958   3.447
 4288SOL    HW213764   0.797   6.074   3.460
 4289SOL     OW13765   0.208   2.786   6.313
 4289SOL    HW113766   0.193   2.813   6.218
 4289SOL    HW213767   0.175   2.692   6.327
 4290SOL     OW13768   1.342   6.460   3.611
 4290SOL    HW113769   1.376   6.366   3.615
 4290SOL    HW213770   1.406   6.517   3.561
 4291SOL     OW13771   4.785   3.785   0.683
 4291SOL    HW113772   4.871   3.764   0.635
 4291SOL    HW213773   4.717   3.715   0.662
 4292SOL     OW13774   5.230   3.239   0.404
 4292SOL    HW113775   5.254   3.153   0.450
 4292SOL    HW213776   5.248   3.316   0.464
 4293SOL     OW13777   2.570   2.652   0.029
 4293SOL    HW113778   2.538   2.577   6.991
 4293SOL    HW213779   2.643   2.702   7.004
 4294SOL     OW13780   2.155   2.404   6.610
 4294SOL    HW113781   2.075   2.464   6.599
 4294SOL    HW213782   2.190   2.411   6.703
 4295SOL     OW13783   3.710   5.817   4.980
 4295SOL    HW113784   3.799   5.788   4.945
 4295SOL    HW213785   3.698   5.915   4.960
 4296SOL     OW13786   3.481   6.747   0.643
 4296SOL    HW113787   3.562   6.690   0.651
 4296SOL    HW213788   3.505   6.842   0.664
 4297SOL     OW13789   4.967   0.069   0.790
 4297SOL    HW113790   5.038   0.006   0.758
 4297SOL    HW213791   4.932   0.036   0.878
 4298SOL     OW13792   3.968   5.379   0.472
 4298SOL    HW113793   3.993   5.288   0.505
 4298SOL    HW213794   4.051   5.430   0.450
 4299SOL     OW13795   1.240   3.137   6.603
 4299SOL    HW113796   1.228   3.079   6.522
 4299SOL    HW213797   1.214   3.231   6.581
 4300SOL     OW13798   3.231   6.568   6.958
 4300SOL    HW113799   3.198   6.640   6.897
 4300SOL    HW213800   3.301   6.606   7.019
 4301SOL     OW13801   4.132   0.913   1.796
 4301SOL    HW113802   4.093   0.833   1.842
 4301SOL    HW213803   4.060   0.981   1.779
 4302SOL     OW13804   0.677   0.460   6.079
 4302SOL    HW113805   0.703   0.555   6.063
 4302SOL    HW213806   0.748   0.414   6.132
 4303SOL     OW13807   6.788   4.951   3.892
 4303SOL    HW113808   6.848   5.004   3.832
 4303SOL    HW213809   6.696   4.989   3.888
 4304SOL     OW13810   3.180   3.654   2.785
 4304SOL    HW113811   3.277   3.632   2.796
 4304SOL    HW213812   3.141   3.596   2.713
 4305SOL     OW13813   0.475   6.975   5.801
 4305SOL    HW113814   0.517   6.887   5.782
 4305SOL    HW213815   0.375   6.966   5.799
 4306SOL     OW13816   4.901   5.032   5.490
 4306SOL    HW113817   4.973   5.072   5.431
 4306SOL    HW213818   4.904   4.933   5.483
 4307SOL     OW13819   5.576   3.645   6.129
 4307SOL    HW113820   5.577   3.736   6.087
 4307SOL    HW213821   5.514   3.644   6.207
 4308SOL     OW13822   5.957   4.541   0.765
 4308SOL    HW113823   5.908   4.514   0.682
 4308SOL    HW213824   5.949   4.640   0.776
 4309SOL     OW13825   0.958   1.121   0.345
 4309SOL    HW113826   1.010   1.131   0.260
 4309SOL    HW213827   1.021   1.104   0.421
 4310SOL     OW13828   2.094   2.816   2.053
 4310SOL    HW113829   2.083   2.901   2.002
 4310SOL    HW213830   2.191   2.793   2.061
 4311SOL     OW13831   1.800   6.221   2.633
 4311SOL    HW113832   1.757   6.288   2.694
 4311SOL    HW213833   1.793   6.253   2.538
 4312SOL     OW13834   2.141   5.750   1.729
 4312SOL    HW113835   2.209   5.813   1.766
 4312SOL    HW213836   2.093   5.705   1.804
 4313SOL     OW13837   4.384   1.398   1.334
 4313SOL    HW113838   4.391   1.334   1.257
 4313SOL    HW213839   4.292   1.392   1.373
 4314SOL     OW13840   5.958   1.508   4.276
 4314SOL    HW113841   6.031   1.556   4.325
 4314SOL    HW213842   5.947   1.416   4.314
 4315SOL     OW13843   2.816   6.347   2.498
 4315SOL    HW113844   2.901   6.394   2.474
 4315SOL    HW213845   2.774   6.310   2.415
 4316SOL     OW13846   5.129   1.032   1.830
 4316SOL    HW113847   5.210   1.061   1.781
 4316SOL    HW213848   5.047   1.066   1.784
 4317SOL     OW13849   5.134   2.312   5.002
 4317SOL    HW113850   5.117   2.286   4.907
 4317SOL    HW213851   5.218   2.269   5.034
 4318SOL     OW13852   0.148   2.764   4.988
 4318SOL    HW113853   0.145   2.852   5.036
 4318SOL    HW213854   0.141   2.690   5.055
 4319SOL     OW13855   1.884   1.325   0.603
 4319SOL    HW113856   1.958   1.266   0.572
 4319SOL    HW213857   1.821   1.341   0.528
 4320SOL     OW13858   4.846   4.948   0.698
 4320SOL    HW113859   4.900   4.936   0.615
 4320SOL    HW213860   4.889   4.897   0.773
 4321SOL     OW13861   7.008   6.063   5.479
 4321SOL    HW113862   0.039   6.083   5.562
 4321SOL    HW213863   0.030   6.108   5.401
 4322SOL     OW13864   5.875   2.935   7.006
 4322SOL    HW113865   5.845   3.027   6.981
 4322SOL    HW213866   5.862   2.873   6.928
 4323SOL     OW13867   4.478   4.320   0.072
 4323SOL    HW113868   4.565   4.278   0.046
 4323SOL    HW213869   4.431   4.354   7.012
 4324SOL     OW13870   5.824   4.067   6.853
 4324SOL    HW113871   5.736   4.047   6.810
 4324SOL    HW213872   5.891   3.997   6.825
 4325SOL     OW13873   2.311   1.093   1.712
 4325SOL    HW113874   2.359   1.156   1.651
 4325SOL    HW213875   2.365   1.079   1.795
 4326SOL     OW13876   4.602   4.817   3.403
 4326SOL    HW113877   4.533   4.779   3.464
 4326SOL    HW213878   4.644   4.743   3.350
 4327SOL     OW13879   5.604   5.921   1.788
 4327SOL    HW113880   5.539   5.893   1.718
 4327SOL    HW213881   5.555   5.963   1.864
 4328SOL     OW13882   4.357   4.110   5.645
 4328SOL    HW113883   4.443   4.089   5.690
 4328SOL    HW213884   4.314   4.025   5.614
 4329SOL     OW13885   4.757   2.189   5.404
 4329SOL    HW113886   4.722   2.275   5.367
 4329SOL    HW213887   4.703   2.162   5.483
 4330SOL     OW13888   1.991   6.427   4.520
 4330SOL    HW113889   2.088   6.450   4.509
 4330SOL    HW213890   1.961   6.371   4.443
 4331SOL     OW13891   6.141   1.684   2.214
 4331SOL    HW113892   6.130   1.745   2.136
 4331SOL    HW213893   6.067   1.617   2.215
 4332SOL     OW13894   5.064   3.308   2.444
 4332SOL    HW113895   5.045   3.211   2.458
 4332SOL    HW213896   5.070   3.328   2.347
 4333SOL     OW13897   4.440   1.256   6.049
 4333SOL    HW113898   4.516   1.252   6.113
 4333SOL    HW213899   4.419   1.352   6.028
 4334SOL     OW13900   1.871   2.034   2.810
 4334SOL    HW113901   1.858   2.133   2.814
 4334SOL    HW213902   1.799   1.993   2.754
 4335SOL     OW13903   3.389   4.007   2.606
 4335SOL    HW113904   3.403   4.064   2.524
 4335SOL    HW213905   3.347   3.921   2.579
 4336SOL     OW13906   3.488   6.632   5.666
 4336SOL    HW113907   3.409   6.600   5.613
 4336SOL    HW213908   3.462   6.714   5.718
 4337SOL     OW13909   1.048   4.373   0.195
 4337SOL    HW113910   1.062   4.471   0.186
 4337SOL    HW213911   1.135   4.329   0.218
 4338SOL     OW13912   5.975   6.779   6.050
 4338SOL    HW113913   5.928   6.693   6.071
 4338SOL    HW213914   5.936   6.820   5.968
 4339SOL     OW13915   4.759   3.310   5.823
 4339SOL    HW113916   4.731   3.240   5.757
 4339SOL    HW213917   4.792   3.391   5.774
 4340SOL     OW13918   5.914   3.577   1.344
 4340SOL    HW113919   5.823   3.602   1.379
 4340SOL    HW213920   5.950   3.499   1.396
 4341SOL     OW13921   0.565   4.742   1.859
 4341SOL    HW113922   0.661   4.720   1.844
 4341SOL    HW213923   0.508   4.663   1.836
 4342SOL     OW13924   5.343   3.833   3.053
 4342SOL    HW113925   5.426   3.888   3.043
 4342SOL    HW213926   5.367   3.736   3.043
 4343SOL     OW13927   2.837   5.825   4.983
 4343SOL    HW113928   2.836   5.798   4.886
 4343SOL    HW213929   2.744   5.828   5.018
 4344SOL     OW13930   0.261   3.765   1.970
 4344SOL    HW113931   0.312   3.766   1.884
 4344SOL    HW213932   0.305   3.703   2.035
 4345SOL     OW13933   3.462   4.206   5.721
 4345SOL    HW113934   3.387   4.188   5.658
 4345SOL    HW213935   3.479   4.304   5.725
 4346SOL     OW13936   1.759   3.558   2.985
 4346SOL    HW113937   1.736   3.466   3.015
 4346SOL    HW213938   1.794   3.555   2.891
 4347SOL     OW13939   6.214   6.811   2.251
 4347SOL    HW113940   6.148   6.741   2.281
 4347SOL    HW213941   6.199   6.832   2.154
 4348SOL     OW13942   0.227   5.393   3.433
 4348SOL    HW113943   0.149   5.454   3.420
 4348SOL    HW213944   0.195   5.302   3.458
 4349SOL     OW13945   5.570   1.989   2.753
 4349SOL    HW113946   5.537   1.935   2.676
 4349SOL    HW213947   5.566   2.086   2.731
 4350SOL     OW13948   3.469   1.627   3.547
 4350SOL    HW113949   3.441   1.536   3.577
 4350SOL    HW213950   3.461   1.634   3.448
 4351SOL     OW13951   1.681   5.804   1.005
 4351SOL    HW113952   1.717   5.809   1.098
 4351SOL    HW213953   1.637   5.891   0.982
 4352SOL     OW13954   6.582   3.686   2.451
 4352SOL    HW113955   6.608   3.608   2.507
 4352SOL    HW213956   6.653   3.704   2.383
 4353SOL     OW13957   4.027   2.604   6.582
 4353SOL    HW113958   4.120   2.595   6.619
 4353SOL    HW213959   3.979   2.677   6.630
 4354SOL     OW13960   1.975   0.653   5.794
 4354SOL    HW113961   1.963   0.557   5.767
 4354SOL    HW213962   2.004   0.706   5.714
 4355SOL     OW13963   2.742   6.976   2.728
 4355SOL    HW113964   2.692   0.034   2.696
 4355SOL    HW213965   2.798   6.939   2.655
 4356SOL     OW13966   5.251   3.660   0.111
 4356SOL    HW113967   5.320   3.711   0.059
 4356SOL    HW213968   5.296   3.599   0.176
 4357SOL     OW13969   6.268   1.175   1.432
 4357SOL    HW113970   6.348   1.234   1.446
 4357SOL    HW213971   6.297   1.079   1.434
 4358SOL     OW13972   0.144   0.727   0.628
 4358SOL    HW113973   0.122   0.699   0.721
 4358SOL    HW213974   0.243   0.737   0.618
 4359SOL     OW13975   1.835   1.046   6.004
 4359SOL    HW113976   1.787   0.959   5.993
 4359SOL    HW213977   1.813   1.084   6.094
 4360SOL     OW13978   1.088   3.161   3.706
 4360SOL    HW113979   1.120   3.194   3.617
 4360SOL    HW213980   1.001   3.204   3.728
 4361SOL     OW13981   2.405   3.555   1.462
 4361SOL    HW113982   2.405   3.478   1.398
 4361SOL    HW213983   2.489   3.609   1.449
 4362SOL     OW13984   6.578   5.330   3.317
 4362SOL    HW113985   6.509   5.361   3.253
 4362SOL    HW213986   6.576   5.230   3.323
 4363SOL     OW13987   5.362   2.040   1.177
 4363SOL    HW113988   5.299   2.117   1.188
 4363SOL    HW213989   5.359   2.006   1.083
 4364SOL     OW13990   3.082   4.007   4.474
 4364SOL    HW113991   3.092   4.104   4.497
 4364SOL    HW213992   3.142   3.952   4.533
 4365SOL     OW13993   2.752   0.640   1.493
 4365SOL    HW113994   2.720   0.586   1.415
 4365SOL    HW213995   2.816   0.710   1.462
 4366SOL     OW13996   6.360   7.004   6.721
 4366SOL    HW113997   6.401   0.007   6.809
 4366SOL    HW213998   6.396   0.043   6.650
 4367SOL     OW13999   2.341   4.392   4.559
 4367SOL    HW114000   2.258   4.340   4.538
 4367SOL    HW214001   2.350   4.403   4.658
 4368SOL     OW14002   3.718   5.481   0.549
 4368SOL    HW114003   3.655   5.545   0.504
 4368SOL    HW214004   3.805   5.481   0.500
 4369SOL     OW14005   4.728   5.582   2.814
 4369SOL    HW114006   4.772   5.670   2.797
 4369SOL    HW214007   4.631   5.589   2.791
 4370SOL     OW14008   3.613   4.884   1.652
 4370SOL    HW114009   3.553   4.963   1.665
 4370SOL    HW214010   3.585   4.810   1.713
 4371SOL     OW14011   0.738   2.091   2.271
 4371SOL    HW114012   0.756   2.047   2.184
 4371SOL    HW214013   0.824   2.118   2.313
 4372SOL     OW14014   2.529   2.227   3.500
 4372SOL    HW114015   2.433   2.249   3.518
 4372SOL    HW214016   2.535   2.139   3.453
 4373SOL     OW14017   5.598   1.197   0.115
 4373SOL    HW114018   5.580   1.294   0.102
 4373SOL    HW214019   5.566   1.168   0.205
 4374SOL     OW14020   0.418   1.307   0.825
 4374SOL    HW114021   0.346   1.323   0.758
 4374SOL    HW214022   0.448   1.394   0.864
 4375SOL     OW14023   4.345   6.667   3.257
 4375SOL    HW114024   4.336   6.757   3.300
 4375SOL    HW214025   4.278   6.604   3.298
 4376SOL     OW14026   6.290   6.481   2.824
 4376SOL    HW114027   6.244   6.556   2.870
 4376SOL    HW214028   6.268   6.482   2.726
 4377SOL     OW14029   5.497   5.421   6.971
 4377SOL    HW114030   5.549   5.478   0.013
 4377SOL    HW214031   5.400   5.426   6.995
 4378SOL     OW14032   1.907   3.050   2.546
 4378SOL    HW114033   1.812   3.019   2.551
 4378SOL    HW214034   1.961   3.003   2.617
 4379SOL     OW14035   2.269   2.291   2.771
 4379SOL    HW114036   2.197   2.302   2.703
 4379SOL    HW214037   2.303   2.197   2.769
 4380SOL     OW14038   0.905   6.880   2.927
 4380SOL    HW114039   0.815   6.922   2.930
 4380SOL    HW214040   0.968   6.933   2.984
 4381SOL     OW14041   1.902   3.979   5.533
 4381SOL    HW114042   1.945   3.889   5.522
 4381SOL    HW214043   1.939   4.042   5.465
 4382SOL     OW14044   5.938   3.230   6.246
 4382SOL    HW114045   5.990   3.309   6.213
 4382SOL    HW214046   5.919   3.241   6.343
 4383SOL     OW14047   0.528   2.158   5.779
 4383SOL    HW114048   0.566   2.222   5.712
 4383SOL    HW214049   0.561   2.180   5.870
 4384SOL     OW14050   5.900   2.054   5.978
 4384SOL    HW114051   5.826   2.068   6.045
 4384SOL    HW214052   5.863   2.059   5.886
 4385SOL     OW14053   6.179   2.687   5.139
 4385SOL    HW114054   6.242   2.674   5.215
 4385SOL    HW214055   6.147   2.781   5.136
 4386SOL     OW14056   2.242   3.471   0.369
 4386SOL    HW114057   2.288   3.399   0.317
 4386SOL    HW214058   2.247   3.450   0.467
 4387SOL     OW14059   6.735   1.391   1.150
 4387SOL    HW114060   6.698   1.427   1.236
 4387SOL    HW214061   6.807   1.325   1.170
 4388SOL     OW14062   5.217   1.814   6.571
 4388SOL    HW114063   5.278   1.833   6.494
 4388SOL    HW214064   5.158   1.737   6.548
 4389SOL     OW14065   0.482   3.906   0.573
 4389SOL    HW114066   0.545   3.837   0.539
 4389SOL    HW214067   0.392   3.864   0.590
 4390SOL     OW14068   3.711   0.914   0.838
 4390SOL    HW114069   3.782   0.881   0.777
 4390SOL    HW214070   3.740   0.901   0.933
 4391SOL     OW14071   1.870   5.790   0.258
 4391SOL    HW114072   1.908   5.768   0.169
 4391SOL    HW214073   1.780   5.832   0.246
 4392SOL     OW14074   0.005   3.305   6.151
 4392SOL    HW114075   7.020   3.221   6.205
 4392SOL    HW214076   0.011   3.282   6.054
 4393SOL     OW14077   5.956   0.769   2.315
 4393SOL    HW114078   5.961   0.808   2.406
 4393SOL    HW214079   5.932   0.840   2.249
 4394SOL     OW14080   5.856   5.842   2.342
 4394SOL    HW114081   5.770   5.836   2.291
 4394SOL    HW214082   5.837   5.845   2.440
 4395SOL     OW14083   3.317   6.907   1.689
 4395SOL    HW114084   3.338   6.961   1.607
 4395SOL    HW214085   3.358   6.950   1.769
 4396SOL     OW14086   2.136   2.227   3.885
 4396SOL    HW114087   2.090   2.182   3.962
 4396SOL    HW214088   2.228   2.256   3.913
 4397SOL     OW14089   0.188   1.148   4.785
 4397SOL    HW114090   0.112   1.118   4.727
 4397SOL    HW214091   0.207   1.078   4.853
 4398SOL     OW14092   0.957   4.412   5.689
 4398SOL    HW114093   1.007   4.481   5.638
 4398SOL    HW214094   0.877   4.382   5.636
 4399SOL     OW14095   1.943   0.525   1.651
 4399SOL    HW114096   1.982   0.607   1.607
 4399SOL    HW214097   1.986   0.511   1.740
 4400SOL     OW14098   3.695   6.737   5.489
 4400SOL    HW114099   3.605   6.706   5.520
 4400SOL    HW214100   3.721   6.689   5.405
 4401SOL     OW14101   4.521   6.886   6.372
 4401SOL    HW114102   4.502   6.984   6.382
 4401SOL    HW214103   4.520   6.843   6.462
 4402SOL     OW14104   2.704   6.909   1.372
 4402SOL    HW114105   2.641   6.865   1.436
 4402SOL    HW214106   2.734   6.997   1.410
 4403SOL     OW14107   0.603   0.249   3.231
 4403SOL    HW114108   0.702   0.267   3.226
 4403SOL    HW214109   0.561   0.313   3.294
 4404SOL     OW14110   0.275   4.621   5.901
 4404SOL    HW114111   0.328   4.660   5.826
 4404SOL    HW214112   0.321   4.540   5.936
 4405SOL     OW14113   1.838   4.663   1.487
 4405SOL    HW114114   1.884   4.729   1.547
 4405SOL    HW214115   1.871   4.676   1.393
 4406SOL     OW14116   0.091   4.112   0.740
 4406SOL    HW114117   0.101   4.206   0.770
 4406SOL    HW214118   0.172   4.060   0.765
 4407SOL     OW14119   6.549   4.695   0.900
 4407SOL    HW114120   6.525   4.598   0.903
 4407SOL    HW214121   6.637   4.707   0.854
 4408SOL     OW14122   3.520   0.827   1.862
 4408SOL    HW114123   3.607   0.844   1.907
 4408SOL    HW214124   3.458   0.904   1.880
 4409SOL     OW14125   5.038   0.396   2.527
 4409SOL    HW114126   5.016   0.399   2.625
 4409SOL    HW214127   4.961   0.432   2.475
 4410SOL     OW14128   1.336   5.577   6.630
 4410SOL    HW114129   1.337   5.605   6.726
 4410SOL    HW214130   1.336   5.658   6.571
 4411SOL     OW14131   3.539   4.017   4.381
 4411SOL    HW114132   3.450   4.054   4.355
 4411SOL    HW214133   3.554   4.029   4.479
 4412SOL     OW14134   4.334   6.400   4.782
 4412SOL    HW114135   4.376   6.482   4.819
 4412SOL    HW214136   4.275   6.359   4.851
 4413SOL     OW14137   6.537   5.406   4.393
 4413SOL    HW114138   6.490   5.462   4.324
 4413SOL    HW214139   6.623   5.372   4.355
 4414SOL     OW14140   3.500   4.711   1.372
 4414SOL    HW114141   3.414   4.689   1.417
 4414SOL    HW214142   3.524   4.807   1.390
 4415SOL     OW14143   3.811   3.566   0.520
 4415SOL    HW114144   3.731   3.529   0.473
 4415SOL    HW214145   3.894   3.540   0.469
 4416SOL     OW14146   2.617   0.581   3.580
 4416SOL    HW114147   2.589   0.604   3.673
 4416SOL    HW214148   2.714   0.558   3.578
 4417SOL     OW14149   5.944   4.284   3.379
 4417SOL    HW114150   5.879   4.279   3.303
 4417SOL    HW214151   5.913   4.227   3.454
 4418SOL     OW14152   5.890   1.982   2.142
 4418SOL    HW114153   5.957   1.925   2.095
 4418SOL    HW214154   5.799   1.943   2.131
 4419SOL     OW14155   5.943   6.398   6.815
 4419SOL    HW114156   6.040   6.381   6.801
 4419SOL    HW214157   5.889   6.347   6.748
 4420SOL     OW14158   5.423   1.745   1.976
 4420SOL    HW114159   5.357   1.672   1.996
 4420SOL    HW214160   5.489   1.713   1.908
 4421SOL     OW14161   1.678   0.864   5.258
 4421SOL    HW114162   1.591   0.884   5.212
 4421SOL    HW214163   1.749   0.923   5.221
 4422SOL     OW14164   2.582   3.770   6.909
 4422SOL    HW114165   2.541   3.731   6.992
 4422SOL    HW214166   2.521   3.840   6.873
 4423SOL     OW14167   0.900   2.785   5.860
 4423SOL    HW114168   0.810   2.828   5.858
 4423SOL    HW214169   0.968   2.847   5.819
 4424SOL     OW14170   5.919   0.766   4.405
 4424SOL    HW114171   5.970   0.685   4.432
 4424SOL    HW214172   5.941   0.842   4.467
 4425SOL     OW14173   3.235   4.836   0.279
 4425SOL    HW114174   3.249   4.740   0.253
 4425SOL    HW214175   3.137   4.857   0.278
 4426SOL     OW14176   0.096   0.817   4.746
 4426SOL    HW114177   0.163   0.823   4.820
 4426SOL    HW214178   0.136   0.853   4.662
 4427SOL     OW14179   0.972   6.077   2.157
 4427SOL    HW114180   0.916   6.039   2.231
 4427SOL    HW214181   1.044   6.134   2.196
 4428SOL     OW14182   3.360   0.120   2.722
 4428SOL    HW114183   3.350   0.127   2.623
 4428SOL    HW214184   3.395   0.206   2.759
 4429SOL     OW14185   2.681   6.590   2.678
 4429SOL    HW114186   2.611   6.661   2.672
 4429SOL    HW214187   2.708   6.576   2.773
 4430SOL     OW14188   4.947   3.849   4.680
 4430SOL    HW114189   4.918   3.783   4.749
 4430SOL    HW214190   4.901   3.936   4.695
 4431SOL     OW14191   1.887   1.066   1.821
 4431SOL    HW114192   1.886   1.060   1.921
 4431SOL    HW214193   1.951   1.137   1.792
 4432SOL     OW14194   3.295   3.377   5.171
 4432SOL    HW114195   3.312   3.325   5.254
 4432SOL    HW214196   3.364   3.353   5.102
 4433SOL     OW14197   4.441   1.525   4.504
 4433SOL    HW114198   4.523   1.467   4.510
 4433SOL    HW214199   4.400   1.516   4.414
 4434SOL     OW14200   5.205   1.946   3.933
 4434SOL    HW114201   5.152   1.950   4.018
 4434SOL    HW214202   5.298   1.915   3.952
 4435SOL     OW14203   4.552   3.518   1.320
 4435SOL    HW114204   4.516   3.433   1.282
 4435SOL    HW214205   4.582   3.502   1.414
 4436SOL     OW14206   4.524   1.111   0.909
 4436SOL    HW114207   4.613   1.155   0.917
 4436SOL    HW214208   4.534   1.012   0.916
 4437SOL     OW14209   6.172   2.108   2.839
 4437SOL    HW114210   6.243   2.176   2.822
 4437SOL    HW214211   6.090   2.132   2.787
 4438SOL     OW14212   5.494   6.995   6.936
 4438SOL    HW114213   5.550   6.961   6.861
 4438SOL    HW214214   5.432   0.044   6.901
 4439SOL     OW14215   0.352   5.248   2.091
 4439SOL    HW114216   0.253   5.249   2.106
 4439SOL    HW214217   0.393   5.329   2.134
 4440SOL     OW14218   2.849   5.270   0.515
 4440SOL    HW114219   2.799   5.354   0.495
 4440SOL    HW214220   2.871   5.223   0.430
 4441SOL     OW14221   0.172   1.577   2.844
 4441SOL    HW114222   0.110   1.571   2.922
 4441SOL    HW214223   0.172   1.489   2.795
 4442SOL     OW14224   2.733   5.660   4.259
 4442SOL    HW114225   2.679   5.632   4.338
 4442SOL    HW214226   2.817   5.704   4.291
 4443SOL     OW14227   0.123   3.263   0.693
 4443SOL    HW114228   0.144   3.174   0.731
 4443SOL    HW214229   0.046   3.255   0.629
 4444SOL     OW14230   2.837   4.700   5.490
 4444SOL    HW114231   2.818   4.606   5.519
 4444SOL    HW214232   2.921   4.703   5.437
 4445SOL     OW14233   0.875   0.003   1.163
 4445SOL    HW114234   0.962   0.041   1.131
 4445SOL    HW214235   0.815   0.079   1.189
 4446SOL     OW14236   5.714   1.118   2.030
 4446SOL    HW114237   5.628   1.106   2.080
 4446SOL    HW214238   5.704   1.193   1.964
 4447SOL     OW14239   5.414   3.608   6.345
 4447SOL    HW114240   5.464   3.530   6.382
 4447SOL    HW214241   5.366   3.580   6.261
 4448SOL     OW14242   2.745   3.876   1.667
 4448SOL    HW114243   2.787   3.786   1.684
 4448SOL    HW214244   2.698   3.875   1.579
 4449SOL     OW14245   5.202   0.439   6.152
 4449SOL    HW114246   5.296   0.470   6.164
 4449SOL    HW214247   5.199   0.339   6.154
 4450SOL     OW14248   3.661   3.510   4.576
 4450SOL    HW114249   3.606   3.431   4.603
 4450SOL    HW214250   3.701   3.493   4.486
 4451SOL     OW14251   6.236   4.691   2.960
 4451SOL    HW114252   6.278   4.601   2.970
 4451SOL    HW214253   6.244   4.742   3.045
 4452SOL     OW14254   5.118   6.593   4.629
 4452SOL    HW114255   5.202   6.590   4.682
 4452SOL    HW214256   5.053   6.526   4.664
 4453SOL     OW14257   0.586   2.528   1.563
 4453SOL    HW114258   0.492   2.494   1.554
 4453SOL    HW214259   0.649   2.450   1.561
 4454SOL     OW14260   1.401   2.291   0.380
 4454SOL    HW114261   1.445   2.290   0.290
 4454SOL    HW214262   1.450   2.230   0.442
 4455SOL     OW14263   4.181   6.523   5.897
 4455SOL    HW114264   4.260   6.476   5.857
 4455SOL    HW214265   4.203   6.549   5.991
 4456SOL     OW14266   3.563   6.176   2.110
 4456SOL    HW114267   3.522   6.178   2.201
 4456SOL    HW214268   3.659   6.202   2.116
 4457SOL     OW14269   4.716   1.614   2.264
 4457SOL    HW114270   4.760   1.682   2.324
 4457SOL    HW214271   4.727   1.523   2.304
 4458SOL     OW14272   1.542   3.168   6.719
 4458SOL    HW114273   1.448   3.135   6.709
 4458SOL    HW214274   1.555   3.203   6.812
 4459SOL     OW14275   3.601   0.852   4.901
 4459SOL    HW114276   3.603   0.757   4.872
 4459SOL    HW214277   3.676   0.870   4.965
 4460SOL     OW14278   2.693   2.552   5.940
 4460SOL    HW114279   2.774   2.535   5.884
 4460SOL    HW214280   2.638   2.624   5.898
 4461SOL     OW14281   1.292   0.448   1.449
 4461SOL    HW114282   1.192   0.452   1.457
 4461SOL    HW214283   1.326   0.534   1.413
 4462SOL     OW14284   6.008   4.749   2.029
 4462SOL    HW114285   5.983   4.660   2.065
 4462SOL    HW214286   6.103   4.770   2.054
 4463SOL     OW14287   5.404   1.995   6.972
 4463SOL    HW114288   5.357   1.918   7.015
 4463SOL    HW214289   5.354   2.023   6.890
 4464SOL     OW14290   6.378   5.327   0.642
 4464SOL    HW114291   6.440   5.260   0.681
 4464SOL    HW214292   6.430   5.405   0.608
 4465SOL     OW14293   2.789   5.580   1.255
 4465SOL    HW114294   2.725   5.588   1.331
 4465SOL    HW214295   2.772   5.495   1.206
 4466SOL     OW14296   1.429   1.772   3.202
 4466SOL    HW114297   1.451   1.688   3.251
 4466SOL    HW214298   1.491   1.845   3.232
 4467SOL     OW14299   2.096   6.394   2.627
 4467SOL    HW114300   2.067   6.362   2.537
 4467SOL    HW214301   2.022   6.381   2.693
 4468SOL     OW14302   1.956   2.870   0.446
 4468SOL    HW114303   1.867   2.843   0.409
 4468SOL    HW214304   1.945   2.895   0.542
 4469SOL     OW14305   3.814   0.843   1.555
 4469SOL    HW114306   3.788   0.851   1.458
 4469SOL    HW214307   3.863   0.757   1.569
 4470SOL     OW14308   5.968   2.526   2.496
 4470SOL    HW114309   6.061   2.488   2.486
 4470SOL    HW214310   5.917   2.510   2.412
 4471SOL     OW14311   0.795   1.779   6.536
 4471SOL    HW114312   0.760   1.784   6.630
 4471SOL    HW214313   0.728   1.733   6.478
 4472SOL     OW14314   1.509   3.237   2.757
 4472SOL    HW114315   1.466   3.172   2.819
 4472SOL    HW214316   1.452   3.248   2.675
 4473SOL     OW14317   6.414   2.906   4.753
 4473SOL    HW114318   6.348   2.843   4.795
 4473SOL    HW214319   6.479   2.938   4.822
 4474SOL     OW14320   2.623   0.591   1.745
 4474SOL    HW114321   2.690   0.587   1.671
 4474SOL    HW214322   2.610   0.500   1.784
 4475SOL     OW14323   1.712   3.847   2.677
 4475SOL    HW114324   1.791   3.901   2.708
 4475SOL    HW214325   1.743   3.755   2.651
 4476SOL     OW14326   4.024   0.082   3.334
 4476SOL    HW114327   4.091   0.134   3.386
 4476SOL    HW214328   3.960   0.037   3.397
 4477SOL     OW14329   2.103   6.989   5.078
 4477SOL    HW114330   2.110   6.925   5.001
 4477SOL    HW214331   2.020   6.969   5.130
 4478SOL     OW14332   3.904   0.013   2.971
 4478SOL    HW114333   3.955   0.025   2.886
 4478SOL    HW214334   3.898   6.937   2.993
 4479SOL     OW14335   0.956   1.131   1.826
 4479SOL    HW114336   1.019   1.206   1.803
 4479SOL    HW214337   0.971   1.055   1.764
 4480SOL     OW14338   1.579   3.723   5.278
 4480SOL    HW114339   1.629   3.802   5.313
 4480SOL    HW214340   1.573   3.730   5.178
 4481SOL     OW14341   2.987   6.122   4.811
 4481SOL    HW114342   3.037   6.173   4.742
 4481SOL    HW214343   2.917   6.066   4.768
 4482SOL     OW14344   1.042   3.425   4.412
 4482SOL    HW114345   1.065   3.348   4.472
 4482SOL    HW214346   1.090   3.507   4.445
 4483SOL     OW14347   5.627   2.892   2.278
 4483SOL    HW114348   5.600   2.975   2.228
 4483SOL    HW214349   5.557   2.870   2.346
 4484SOL     OW14350   2.870   2.860   5.961
 4484SOL    HW114351   2.839   2.827   5.871
 4484SOL    HW214352   2.933   2.936   5.949
 4485SOL     OW14353   5.732   1.741   5.396
 4485SOL    HW114354   5.824   1.765   5.427
 4485SOL    HW214355   5.667   1.812   5.425
 4486SOL     OW14356   5.484   4.478   5.004
 4486SOL    HW114357   5.497   4.384   4.974
 4486SOL    HW214358   5.409   4.519   4.953
 4487SOL     OW14359   2.331   3.050   6.127
 4487SOL    HW114360   2.325   3.084   6.221
 4487SOL    HW214361   2.389   2.969   6.124
 4488SOL     OW14362   0.085   3.290   6.517
 4488SOL    HW114363   0.049   3.244   6.598
 4488SOL    HW214364   0.181   3.264   6.503
 4489SOL     OW14365   5.396   5.516   4.301
 4489SOL    HW114366   5.420   5.464   4.219
 4489SOL    HW214367   5.464   5.588   4.315
 4490SOL     OW14368   6.373   3.005   2.821
 4490SOL    HW114369   6.413   3.084   2.865
 4490SOL    HW214370   6.392   2.923   2.875
 4491SOL     OW14371   6.912   2.477   4.664
 4491SOL    HW114372   6.971   2.478   4.584
 4491SOL    HW214373   6.968   2.473   4.747
 4492SOL     OW14374   5.758   4.198   1.188
 4492SOL    HW114375   5.776   4.111   1.235
 4492SOL    HW214376   5.716   4.263   1.251
 4493SOL     OW14377   4.400   5.471   4.900
 4493SOL    HW114378   4.334   5.414   4.852
 4493SOL    HW214379   4.481   5.484   4.842
 4494SOL     OW14380   0.171   1.377   6.633
 4494SOL    HW114381   0.160   1.379   6.733
 4494SOL    HW214382   0.082   1.376   6.589
 4495SOL     OW14383   3.574   6.539   4.337
 4495SOL    HW114384   3.571   6.585   4.248
 4495SOL    HW214385   3.644   6.582   4.394
 4496SOL     OW14386   5.523   6.133   1.212
 4496SOL    HW114387   5.498   6.115   1.117
 4496SOL    HW214388   5.458   6.197   1.252
 4497SOL     OW14389   5.126   1.231   0.092
 4497SOL    HW114390   5.082   1.160   0.036
 4497SOL    HW214391   5.203   1.270   0.041
 4498SOL     OW14392   0.058   3.913   0.368
 4498SOL    HW114393   0.047   3.836   0.305
 4498SOL    HW214394   0.094   3.992   0.318
 4499SOL     OW14395   6.464   3.729   5.109
 4499SOL    HW114396   6.516   3.807   5.074
 4499SOL    HW214397   6.490   3.647   5.059
 4500SOL     OW14398   3.077   3.329   4.325
 4500SOL    HW114399   3.019   3.406   4.297
 4500SOL    HW214400   3.169   3.342   4.288
 4501SOL     OW14401   0.224   3.360   3.560
 4501SOL    HW114402   0.170   3.357   3.476
 4501SOL    HW214403   0.238   3.455   3.588
 4502SOL     OW14404   0.688   2.963   6.791
 4502SOL    HW114405   0.675   2.975   6.693
 4502SOL    HW214406   0.786   2.968   6.813
 4503SOL     OW14407   3.687   0.136   1.787
 4503SOL    HW114408   3.727   0.147   1.696
 4503SOL    HW214409   3.591   0.163   1.785
 4504SOL     OW14410   6.476   0.764   5.458
 4504SOL    HW114411   6.436   0.832   5.396
 4504SOL    HW214412   6.545   0.712   5.408
 4505SOL     OW14413   5.461   4.830   1.926
 4505SOL    HW114414   5.425   4.825   1.833
 4505SOL    HW214415   5.541   4.889   1.928
 4506SOL     OW14416   4.480   2.027   3.447
 4506SOL    HW114417   4.474   1.927   3.441
 4506SOL    HW214418   4.446   2.057   3.536
 4507SOL     OW14419   5.129   4.236   2.340
 4507SOL    HW114420   5.210   4.278   2.382
 4507SOL    HW214421   5.074   4.192   2.411
 4508SOL     OW14422   1.337   5.316   6.685
 4508SOL    HW114423   1.330   5.410   6.653
 4508SOL    HW214424   1.284   5.305   6.769
 4509SOL     OW14425   4.393   2.359   2.732
 4509SOL    HW114426   4.314   2.311   2.694
 4509SOL    HW214427   4.396   2.343   2.831
 4510SOL     OW14428   3.632   1.087   3.854
 4510SOL    HW114429   3.711   1.111   3.799
 4510SOL    HW214430   3.596   1.169   3.898
 4511SOL     OW14431   6.641   3.163   0.421
 4511SOL    HW114432   6.687   3.167   0.510
 4511SOL    HW214433   6.676   3.085   0.369
 4512SOL     OW14434   2.936   1.447   5.753
 4512SOL    HW114435   2.955   1.390   5.673
 4512SOL    HW214436   2.919   1.541   5.724
 4513SOL     OW14437   6.153   5.477   0.371
 4513SOL    HW114438   6.153   5.469   0.271
 4513SOL    HW214439   6.149   5.386   0.411
 4514SOL     OW14440   4.360   1.759   6.451
 4514SOL    HW114441   4.396   1.753   6.544
 4514SOL    HW214442   4.265   1.789   6.454
 4515SOL     OW14443   6.776   1.245   5.771
 4515SOL    HW114444   6.684   1.283   5.785
 4515SOL    HW214445   6.768   1.155   5.728
 4516SOL     OW14446   2.044   0.354   6.537
 4516SOL    HW114447   2.044   0.260   6.570
 4516SOL    HW214448   2.117   0.365   6.469
 4517SOL     OW14449   4.013   0.929   6.841
 4517SOL    HW114450   4.034   0.983   6.760
 4517SOL    HW214451   4.095   0.921   6.897
 4518SOL     OW14452   6.799   0.584   3.125
 4518SOL    HW114453   6.731   0.523   3.164
 4518SOL    HW214454   6.755   0.667   3.090
 4519SOL     OW14455   6.423   0.385   1.504
 4519SOL    HW114456   6.430   0.286   1.498
 4519SOL    HW214457   6.455   0.415   1.594
 4520SOL     OW14458   4.649   6.409   4.609
 4520SOL    HW114459   4.671   6.494   4.562
 4520SOL    HW214460   4.568   6.368   4.566
 4521SOL     OW14461   6.072   1.745   4.128
 4521SOL    HW114462   5.987   1.696   4.110
 4521SOL    HW214463   6.054   1.843   4.132
 4522SOL     OW14464   6.062   5.965   3.185
 4522SOL    HW114465   6.059   5.867   3.207
 4522SOL    HW214466   6.101   5.977   3.093
 4523SOL     OW14467   0.810   4.365   0.041
 4523SOL    HW114468   0.824   4.294   6.994
 4523SOL    HW214469   0.895   4.381   0.091
 4524SOL     OW14470   6.607   2.825   3.369
 4524SOL    HW114471   6.690   2.864   3.330
 4524SOL    HW214472   6.597   2.730   3.340
 4525SOL     OW14473   4.842   1.279   5.401
 4525SOL    HW114474   4.821   1.181   5.397
 4525SOL    HW214475   4.757   1.331   5.393
 4526SOL     OW14476   6.478   0.338   1.089
 4526SOL    HW114477   6.521   0.369   1.174
 4526SOL    HW214478   6.470   0.238   1.091
 4527SOL     OW14479   5.094   0.931   3.479
 4527SOL    HW114480   5.118   1.025   3.504
 4527SOL    HW214481   5.149   0.902   3.400
 4528SOL     OW14482   5.286   0.262   0.694
 4528SOL    HW114483   5.327   0.178   0.729
 4528SOL    HW214484   5.321   0.340   0.746
 4529SOL     OW14485   2.700   0.595   5.337
 4529SOL    HW114486   2.798   0.579   5.352
 4529SOL    HW214487   2.651   0.508   5.343
 4530SOL     OW14488   2.057   4.908   5.302
 4530SOL    HW114489   2.092   4.894   5.209
 4530SOL    HW214490   2.101   4.988   5.342
 4531SOL     OW14491   0.276   2.688   5.301
 4531SOL    HW114492   0.185   2.651   5.319
 4531SOL    HW214493   0.272   2.788   5.296
 4532SOL     OW14494   6.707   1.746   2.820
 4532SOL    HW114495   6.795   1.789   2.803
 4532SOL    HW214496   6.648   1.809   2.870
 4533SOL     OW14497   1.125   1.644   1.798
 4533SOL    HW114498   1.102   1.741   1.800
 4533SOL    HW214499   1.217   1.631   1.836
 4534SOL     OW14500   4.788   4.058   3.865
 4534SOL    HW114501   4.762   3.978   3.919
 4534SOL    HW214502   4.768   4.141   3.916
 4535SOL     OW14503   3.581   0.708   2.867
 4535SOL    HW114504   3.617   0.636   2.807
 4535SOL    HW214505   3.610   0.798   2.833
 4536SOL     OW14506   3.556   1.549   4.293
 4536SOL    HW114507   3.628   1.544   4.224
 4536SOL    HW214508   3.469   1.524   4.252
 4537SOL     OW14509   4.376   3.248   6.881
 4537SOL    HW114510   4.306   3.191   6.840
 4537SOL    HW214511   4.466   3.207   6.865
 4538SOL     OW14512   1.668   0.266   3.218
 4538SOL    HW114513   1.657   0.354   3.171
 4538SOL    HW214514   1.698   0.282   3.312
 4539SOL     OW14515   2.556   0.269   4.791
 4539SOL    HW114516   2.555   0.347   4.853
 4539SOL    HW214517   2.575   0.185   4.842
 4540SOL     OW14518   3.038   2.369   5.547
 4540SOL    HW114519   3.125   2.321   5.557
 4540SOL    HW214520   2.997   2.345   5.459
 4541SOL     OW14521   5.979   2.074   0.932
 4541SOL    HW114522   5.916   1.997   0.932
 4541SOL    HW214523   5.957   2.135   1.008
 4542SOL     OW14524   0.056   1.103   2.144
 4542SOL    HW114525   0.129   1.048   2.105
 4542SOL    HW214526   0.092   1.158   2.219
 4543SOL     OW14527   4.337   2.125   1.591
 4543SOL    HW114528   4.412   2.190   1.574
 4543SOL    HW214529   4.253   2.160   1.551
 4544SOL     OW14530   3.133   6.456   5.991
 4544SOL    HW114531   3.082   6.419   6.069
 4544SOL    HW214532   3.136   6.389   5.917
 4545SOL     OW14533   5.267   3.808   4.364
 4545SOL    HW114534   5.239   3.724   4.317
 4545SOL    HW214535   5.257   3.796   4.463
 4546SOL     OW14536   1.454   1.180   5.274
 4546SOL    HW114537   1.460   1.133   5.362
 4546SOL    HW214538   1.439   1.278   5.290
 4547SOL     OW14539   5.623   2.442   2.514
 4547SOL    HW114540   5.530   2.461   2.485
 4547SOL    HW214541   5.660   2.521   2.563
 4548SOL     OW14542   1.077   3.344   3.966
 4548SOL    HW114543   1.149   3.323   3.900
 4548SOL    HW214544   0.992   3.301   3.937
 4549SOL     OW14545   6.837   4.152   1.365
 4549SOL    HW114546   6.782   4.208   1.303
 4549SOL    HW214547   6.776   4.103   1.427
 4550SOL     OW14548   0.959   4.987   2.952
 4550SOL    HW114549   0.913   5.046   2.885
 4550SOL    HW214550   0.929   4.892   2.939
 4551SOL     OW14551   0.764   2.600   5.144
 4551SOL    HW114552   0.687   2.664   5.145
 4551SOL    HW214553   0.805   2.596   5.235
 4552SOL     OW14554   6.212   3.489   1.674
 4552SOL    HW114555   6.269   3.571   1.675
 4552SOL    HW214556   6.219   3.445   1.585
 4553SOL     OW14557   3.140   4.536   6.677
 4553SOL    HW114558   3.139   4.569   6.772
 4553SOL    HW214559   3.046   4.535   6.642
 4554SOL     OW14560   5.803   0.135   1.715
 4554SOL    HW114561   5.764   0.159   1.626
 4554SOL    HW214562   5.874   0.201   1.739
 4555SOL     OW14563   2.811   2.247   5.801
 4555SOL    HW114564   2.791   2.338   5.765
 4555SOL    HW214565   2.879   2.255   5.874
 4556SOL     OW14566   5.598   3.264   4.231
 4556SOL    HW114567   5.613   3.245   4.134
 4556SOL    HW214568   5.552   3.186   4.273
 4557SOL     OW14569   4.909   6.291   5.727
 4557SOL    HW114570   4.955   6.264   5.643
 4557SOL    HW214571   4.820   6.245   5.733
 4558SOL     OW14572   0.530   4.236   5.027
 4558SOL    HW114573   0.502   4.142   5.045
 4558SOL    HW214574   0.469   4.276   4.958
 4559SOL     OW14575   0.274   4.136   1.313
 4559SOL    HW114576   0.189   4.084   1.310
 4559SOL    HW214577   0.304   4.147   1.408
 4560SOL     OW14578   5.287   4.251   1.623
 4560SOL    HW114579   5.296   4.341   1.580
 4560SOL    HW214580   5.289   4.261   1.722
 4561SOL     OW14581   2.074   1.873   2.764
 4561SOL    HW114582   2.036   1.837   2.679
 4561SOL    HW214583   2.009   1.935   2.806
 4562SOL     OW14584   2.510   6.256   5.426
 4562SOL    HW114585   2.538   6.163   5.404
 4562SOL    HW214586   2.512   6.269   5.525
 4563SOL     OW14587   0.452   2.871   1.375
 4563SOL    HW114588   0.416   2.778   1.385
 4563SOL    HW214589   0.400   2.933   1.435
 4564SOL     OW14590   6.756   6.210   1.411
 4564SOL    HW114591   6.745   6.116   1.379
 4564SOL    HW214592   6.839   6.217   1.466
 4565SOL     OW14593   0.685   1.212   4.772
 4565SOL    HW114594   0.731   1.149   4.835
 4565SOL    HW214595   0.727   1.302   4.780
 4566SOL     OW14596   6.489   2.824   0.491
 4566SOL    HW114597   6.514   2.750   0.428
 4566SOL    HW214598   6.538   2.813   0.577
 4567SOL     OW14599   6.187   0.321   6.972
 4567SOL    HW114600   6.206   0.363   0.040
 4567SOL    HW214601   6.172   0.223   6.984
 4568SOL     OW14602   2.775   3.960   5.529
 4568SOL    HW114603   2.723   3.877   5.549
 4568SOL    HW214604   2.799   3.962   5.432
 4569SOL     OW14605   2.066   1.869   3.211
 4569SOL    HW114606   2.075   1.896   3.307
 4569SOL    HW214607   2.130   1.921   3.155
 4570SOL     OW14608   0.803   6.497   3.149
 4570SOL    HW114609   0.820   6.539   3.060
 4570SOL    HW214610   0.889   6.467   3.189
 4571SOL     OW14611   3.930   4.094   6.346
 4571SOL    HW114612   3.960   4.132   6.433
 4571SOL    HW214613   3.846   4.042   6.359
 4572SOL     OW14614   1.788   0.388   6.917
 4572SOL    HW114615   1.778   0.443   7.000
 4572SOL    HW214616   1.774   0.291   6.941
 4573SOL     OW14617   6.365   0.780   0.250
 4573SOL    HW114618   6.436   0.715   0.276
 4573SOL    HW214619   6.336   0.762   0.156
 4574SOL     OW14620   6.044   4.023   0.870
 4574SOL    HW114621   6.097   4.078   0.806
 4574SOL    HW214622   6.076   3.928   0.867
 4575SOL     OW14623   5.959   0.831   6.385
 4575SOL    HW114624   5.866   0.798   6.377
 4575SOL    HW214625   6.021   0.754   6.401
 4576SOL     OW14626   2.622   6.246   5.700
 4576SOL    HW114627   2.591   6.182   5.770
 4576SOL    HW214628   2.693   6.202   5.645
 4577SOL     OW14629   1.371   2.790   4.687
 4577SOL    HW114630   1.302   2.836   4.745
 4577SOL    HW214631   1.422   2.724   4.742
 4578SOL     OW14632   0.927   2.865   5.210
 4578SOL    HW114633   0.996   2.917   5.159
 4578SOL    HW214634   0.839   2.912   5.206
 4579SOL     OW14635   3.993   0.657   3.237
 4579SOL    HW114636   3.940   0.720   3.181
 4579SOL    HW214637   4.049   0.708   3.302
 4580SOL     OW14638   5.598   5.372   0.272
 4580SOL    HW114639   5.605   5.467   0.304
 4580SOL    HW214640   5.686   5.343   0.235
 4581SOL     OW14641   2.120   4.796   2.849
 4581SOL    HW114642   2.126   4.886   2.893
 4581SOL    HW214643   2.025   4.765   2.852
 4582SOL     OW14644   5.301   0.157   5.107
 4582SOL    HW114645   5.231   0.124   5.044
 4582SOL    HW214646   5.270   0.241   5.151
 4583SOL     OW14647   2.650   2.805   6.425
 4583SOL    HW114648   2.624   2.720   6.379
 4583SOL    HW214649   2.686   2.870   6.357
 4584SOL     OW14650   0.681   4.703   6.040
 4584SOL    HW114651   0.768   4.681   5.997
 4584SOL    HW214652   0.669   4.802   6.041
 4585SOL     OW14653   3.391   5.948   3.147
 4585SOL    HW114654   3.390   5.884   3.071
 4585SOL    HW214655   3.358   5.902   3.230
 4586SOL     OW14656   3.485   5.315   0.578
 4586SOL    HW114657   3.517   5.394   0.526
 4586SOL    HW214658   3.531   5.233   0.546
 4587SOL     OW14659   3.811   3.710   3.242
 4587SOL    HW114660   3.776   3.795   3.280
 4587SOL    HW214661   3.909   3.720   3.222
 4588SOL     OW14662   3.065   3.430   5.026
 4588SOL    HW114663   3.146   3.433   5.085
 4588SOL    HW214664   3.020   3.341   5.036
 4589SOL     OW14665   6.153   1.304   2.457
 4589SOL    HW114666   6.062   1.309   2.498
 4589SOL    HW214667   6.163   1.217   2.409
 4590SOL     OW14668   5.124   5.938   1.418
 4590SOL    HW114669   5.192   5.888   1.365
 4590SOL    HW214670   5.108   6.027   1.376
 4591SOL     OW14671   0.919   6.585   4.824
 4591SOL    HW114672   0.969   6.557   4.742
 4591SOL    HW214673   0.880   6.505   4.869
 4592SOL     OW14674   2.869   1.442   2.279
 4592SOL    HW114675   2.778   1.484   2.284
 4592SOL    HW214676   2.907   1.456   2.187
 4593SOL     OW14677   4.917   5.438   2.629
 4593SOL    HW114678   4.941   5.502   2.556
 4593SOL    HW214679   4.874   5.488   2.704
 4594SOL     OW14680   2.790   1.716   3.014
 4594SOL    HW114681   2.849   1.637   2.996
 4594SOL    HW214682   2.839   1.800   2.988
 4595SOL     OW14683   3.566   3.077   6.516
 4595SOL    HW114684   3.564   3.022   6.599
 4595SOL    HW214685   3.568   3.017   6.436
 4596SOL     OW14686   5.762   6.995   2.270
 4596SOL    HW114687   5.781   6.904   2.234
 4596SOL    HW214688   5.670   0.002   2.242
 4597SOL     OW14689   4.016   5.664   5.696
 4597SOL    HW114690   4.079   5.652   5.619
 4597SOL    HW214691   4.067   5.696   5.776
 4598SOL     OW14692   2.442   6.444   6.471
 4598SOL    HW114693   2.399   6.356   6.448
 4598SOL    HW214694   2.540   6.432   6.480
 4599SOL     OW14695   1.292   4.935   0.928
 4599SOL    HW114696   1.316   4.860   0.991
 4599SOL    HW214697   1.375   4.987   0.907
 4600SOL     OW14698   0.958   5.251   5.803
 4600SOL    HW114699   0.900   5.235   5.723
 4600SOL    HW214700   0.998   5.164   5.833
 4601SOL     OW14701   1.769   1.104   5.529
 4601SOL    HW114702   1.683   1.058   5.548
 4601SOL    HW214703   1.805   1.145   5.612
 4602SOL     OW14704   2.309   6.483   1.474
 4602SOL    HW114705   2.379   6.435   1.527
 4602SOL    HW214706   2.306   6.445   1.381
 4603SOL     OW14707   3.041   6.266   0.710
 4603SOL    HW114708   3.057   6.171   0.737
 4603SOL    HW214709   3.120   6.300   0.661
 4604SOL     OW14710   4.531   0.830   0.860
 4604SOL    HW114711   4.472   0.805   0.937
 4604SOL    HW214712   4.597   0.756   0.844
 4605SOL     OW14713   2.736   0.359   2.837
 4605SOL    HW114714   2.813   0.341   2.776
 4605SOL    HW214715   2.700   0.451   2.820
 4606SOL     OW14716   1.184   6.231   2.203
 4606SOL    HW114717   1.246   6.156   2.225
 4606SOL    HW214718   1.218   6.316   2.243
 4607SOL     OW14719   1.731   3.060   1.296
 4607SOL    HW114720   1.672   3.133   1.261
 4607SOL    HW214721   1.771   3.011   1.220
 4608SOL     OW14722   0.374   6.159   3.641
 4608SOL    HW114723   0.285   6.122   3.613
 4608SOL    HW214724   0.397   6.124   3.732
 4609SOL     OW14725   4.248   5.610   6.596
 4609SOL    HW114726   4.178   5.647   6.657
 4609SOL    HW214727   4.265   5.514   6.618
 4610SOL     OW14728   4.847   2.937   0.833
 4610SOL    HW114729   4.858   2.892   0.921
 4610SOL    HW214730   4.790   2.880   0.773
 4611SOL     OW14731   0.502   5.583   6.375
 4611SOL    HW114732   0.530   5.504   6.430
 4611SOL    HW214733   0.564   5.660   6.391
 4612SOL     OW14734   1.544   5.966   6.875
 4612SOL    HW114735   1.498   6.052   6.899
 4612SOL    HW214736   1.620   5.951   6.938
 4613SOL     OW14737   2.661   6.074   2.033
 4613SOL    HW114738   2.680   6.030   1.946
 4613SOL    HW214739   2.742   6.125   2.064
 4614SOL     OW14740   6.864   3.098   4.828
 4614SOL    HW114741   6.897   3.004   4.835
 4614SOL    HW214742   6.934   3.160   4.863
 4615SOL     OW14743   1.700   0.032   6.964
 4615SOL    HW114744   1.632   0.104   6.978
 4615SOL    HW214745   1.791   0.066   6.987
 4616SOL     OW14746   6.533   0.386   5.080
 4616SOL    HW114747   6.451   0.372   5.136
 4616SOL    HW214748   6.509   0.372   4.984
 4617SOL     OW14749   0.433   2.365   2.330
 4617SOL    HW114750   0.378   2.295   2.286
 4617SOL    HW214751   0.529   2.354   2.302
 4618SOL     OW14752   2.291   2.910   4.648
 4618SOL    HW114753   2.372   2.927   4.704
 4618SOL    HW214754   2.225   2.984   4.662
 4619SOL     OW14755   3.286   6.213   3.317
 4619SOL    HW114756   3.209   6.202   3.380
 4619SOL    HW214757   3.322   6.123   3.291
 4620SOL     OW14758   2.844   4.603   0.698
 4620SOL    HW114759   2.920   4.667   0.685
 4620SOL    HW214760   2.778   4.642   0.762
 4621SOL     OW14761   5.487   1.041   2.173
 4621SOL    HW114762   5.399   1.002   2.145
 4621SOL    HW214763   5.535   0.975   2.231
 4622SOL     OW14764   2.675   4.687   0.887
 4622SOL    HW114765   2.720   4.698   0.975
 4622SOL    HW214766   2.580   4.659   0.901
 4623SOL     OW14767   4.813   6.431   0.315
 4623SOL    HW114768   4.773   6.482   0.391
 4623SOL    HW214769   4.741   6.404   0.251
 4624SOL     OW14770   4.578   7.006   3.323
 4624SOL    HW114771   4.527   6.988   3.239
 4624SOL    HW214772   4.604   0.081   3.326
 4625SOL     OW14773   2.435   4.506   0.982
 4625SOL    HW114774   2.418   4.531   1.078
 4625SOL    HW214775   2.474   4.414   0.978
 4626SOL     OW14776   5.102   4.693   1.807
 4626SOL    HW114777   5.201   4.685   1.823
 4626SOL    HW214778   5.082   4.664   1.714
 4627SOL     OW14779   2.514   4.589   4.532
 4627SOL    HW114780   2.455   4.509   4.517
 4627SOL    HW214781   2.578   4.570   4.607
 4628SOL     OW14782   6.564   4.268   3.784
 4628SOL    HW114783   6.513   4.215   3.852
 4628SOL    HW214784   6.521   4.358   3.773
 4629SOL     OW14785   2.394   5.210   5.578
 4629SOL    HW114786   2.385   5.299   5.534
 4629SOL    HW214787   2.417   5.141   5.510
 4630SOL     OW14788   3.474   5.162   2.466
 4630SOL    HW114789   3.533   5.187   2.389
 4630SOL    HW214790   3.481   5.063   2.481
 4631SOL     OW14791   1.615   6.166   3.154
 4631SOL    HW114792   1.529   6.189   3.109
 4631SOL    HW214793   1.690   6.177   3.089
 4632SOL     OW14794   3.452   4.868   2.516
 4632SOL    HW114795   3.497   4.798   2.571
 4632SOL    HW214796   3.393   4.924   2.575
 4633SOL     OW14797   5.439   0.370   4.559
 4633SOL    HW114798   5.445   0.272   4.575
 4633SOL    HW214799   5.531   0.409   4.559
 4634SOL     OW14800   3.577   4.453   5.805
 4634SOL    HW114801   3.549   4.547   5.786
 4634SOL    HW214802   3.624   4.416   5.725
 4635SOL     OW14803   4.539   3.976   1.255
 4635SOL    HW114804   4.449   4.015   1.237
 4635SOL    HW214805   4.531   3.904   1.324
 4636SOL     OW14806   1.723   4.377   0.006
 4636SOL    HW114807   1.631   4.372   0.044
 4636SOL    HW214808   1.733   4.461   6.975
 4637SOL     OW14809   0.852   6.345   1.109
 4637SOL    HW114810   0.832   6.296   1.024
 4637SOL    HW214811   0.875   6.280   1.181
 4638SOL     OW14812   4.566   4.588   6.452
 4638SOL    HW114813   4.620   4.672   6.454
 4638SOL    HW214814   4.478   4.604   6.497
 4639SOL     OW14815   3.106   4.582   5.750
 4639SOL    HW114816   3.150   4.634   5.677
 4639SOL    HW214817   3.057   4.504   5.710
 4640SOL     OW14818   5.075   4.017   3.800
 4640SOL    HW114819   5.056   4.006   3.702
 4640SOL    HW214820   4.998   4.063   3.844
 4641SOL     OW14821   2.469   0.096   5.085
 4641SOL    HW114822   2.400   0.031   5.053
 4641SOL    HW214823   2.551   0.088   5.029
 4642SOL     OW14824   0.917   5.502   4.503
 4642SOL    HW114825   1.001   5.555   4.514
 4642SOL    HW214826   0.892   5.497   4.407
 4643SOL     OW14827   6.324   2.701   1.233
 4643SOL    HW114828   6.266   2.669   1.308
 4643SOL    HW214829   6.307   2.798   1.216
 4644SOL     OW14830   6.610   5.155   5.086
 4644SOL    HW114831   6.554   5.135   5.006
 4644SOL    HW214832   6.707   5.156   5.060
 4645SOL     OW14833   0.355   0.384   4.116
 4645SOL    HW114834   0.320   0.438   4.039
 4645SOL    HW214835   0.412   0.310   4.082
 4646SOL     OW14836   1.820   6.032   4.200
 4646SOL    HW114837   1.888   5.967   4.234
 4646SOL    HW214838   1.805   6.015   4.102
 4647SOL     OW14839   1.813   0.607   3.167
 4647SOL    HW114840   1.882   0.548   3.126
 4647SOL    HW214841   1.722   0.569   3.150
 4648SOL     OW14842   3.538   1.183   2.593
 4648SOL    HW114843   3.603   1.258   2.604
 4648SOL    HW214844   3.446   1.220   2.583
 4649SOL     OW14845   5.440   0.339   7.004
 4649SOL    HW114846   5.383   0.271   6.959
 4649SOL    HW214847   5.464   0.307   0.075
 4650SOL     OW14848   4.510   5.344   2.669
 4650SOL    HW114849   4.591   5.391   2.706
 4650SOL    HW214850   4.427   5.389   2.702
 4651SOL     OW14851   6.864   3.018   0.962
 4651SOL    HW114852   6.828   3.108   0.984
 4651SOL    HW214853   6.798   2.948   0.988
 4652SOL     OW14854   6.523   6.848   3.851
 4652SOL    HW114855   6.559   6.801   3.932
 4652SOL    HW214856   6.583   6.923   3.825
 4653SOL     OW14857   5.530   5.124   0.760
 4653SOL    HW114858   5.599   5.159   0.697
 4653SOL    HW214859   5.477   5.201   0.797
 4654SOL     OW14860   1.012   0.140   0.512
 4654SOL    HW114861   0.956   0.059   0.529
 4654SOL    HW214862   1.007   0.202   0.591
 4655SOL     OW14863   4.691   4.054   1.059
 4655SOL    HW114864   4.755   4.116   1.105
 4655SOL    HW214865   4.637   4.006   1.128
 4656SOL     OW14866   1.602   0.511   2.453
 4656SOL    HW114867   1.692   0.471   2.437
 4656SOL    HW214868   1.611   0.598   2.501
 4657SOL     OW14869   4.670   6.632   1.556
 4657SOL    HW114870   4.659   6.671   1.465
 4657SOL    HW214871   4.580   6.613   1.596
 4658SOL     OW14872   3.494   1.262   2.968
 4658SOL    HW114873   3.410   1.278   3.019
 4658SOL    HW214874   3.572   1.296   3.021
 4659SOL     OW14875   3.516   4.943   5.081
 4659SOL    HW114876   3.440   4.923   5.143
 4659SOL    HW214877   3.495   5.025   5.028
 4660SOL     OW14878   1.285   3.924   5.828
 4660SOL    HW114879   1.185   3.913   5.831
 4660SOL    HW214880   1.329   3.835   5.837
 4661SOL     OW14881   2.712   4.476   5.589
 4661SOL    HW114882   2.695   4.379   5.606
 4661SOL    HW214883   2.683   4.530   5.667
 4662SOL     OW14884   3.129   6.850   5.572
 4662SOL    HW114885   3.054   6.883   5.630
 4662SOL    HW214886   3.098   6.769   5.522
 4663SOL     OW14887   0.496   1.862   1.695
 4663SOL    HW114888   0.524   1.858   1.791
 4663SOL    HW214889   0.397   1.852   1.688
 4664SOL     OW14890   1.535   0.958   0.856
 4664SOL    HW114891   1.481   1.021   0.911
 4664SOL    HW214892   1.529   0.984   0.759
 4665SOL     OW14893   3.744   6.925   6.488
 4665SOL    HW114894   3.688   6.853   6.446
 4665SOL    HW214895   3.746   6.911   6.587
 4666SOL     OW14896   1.631   2.491   0.511
 4666SOL    HW114897   1.634   2.550   0.430
 4666SOL    HW214898   1.593   2.543   0.588
 4667SOL     OW14899   6.629   3.427   2.227
 4667SOL    HW114900   6.582   3.372   2.158
 4667SOL    HW214901   6.722   3.394   2.239
 4668SOL     OW14902   4.363   2.223   2.407
 4668SOL    HW114903   4.331   2.215   2.501
 4668SOL    HW214904   4.453   2.181   2.399
 4669SOL     OW14905   5.000   6.562   6.370
 4669SOL    HW114906   4.931   6.511   6.420
 4669SOL    HW214907   5.034   6.507   6.294
 4670SOL     OW14908   2.347   2.440   5.525
 4670SOL    HW114909   2.356   2.519   5.465
 4670SOL    HW214910   2.266   2.450   5.583
 4671SOL     OW14911   6.907   2.617   0.889
 4671SOL    HW114912   6.913   2.527   0.847
 4671SOL    HW214913   6.984   2.631   0.951
 4672SOL     OW14914   2.319   4.666   5.834
 4672SOL    HW114915   2.395   4.704   5.885
 4672SOL    HW214916   2.304   4.571   5.861
 4673SOL     OW14917   5.055   0.452   1.902
 4673SOL    HW114918   4.989   0.521   1.873
 4673SOL    HW214919   5.147   0.491   1.899
 4674SOL     OW14920   5.503   0.415   6.561
 4674SOL    HW114921   5.569   0.453   6.625
 4674SOL    HW214922   5.506   0.467   6.476
 4675SOL     OW14923   1.778   1.399   6.520
 4675SOL    HW114924   1.702   1.417   6.457
 4675SOL    HW214925   1.862   1.439   6.484
 4676SOL     OW14926   6.829   6.283   3.718
 4676SOL    HW114927   6.875   6.299   3.631
 4676SOL    HW214928   6.852   6.192   3.752
 4677SOL     OW14929   2.230   1.691   6.576
 4677SOL    HW114930   2.303   1.744   6.533
 4677SOL    HW214931   2.144   1.740   6.569
 4678SOL     OW14932   2.013   4.251   3.099
 4678SOL    HW114933   2.023   4.336   3.048
 4678SOL    HW214934   1.987   4.272   3.193
 4679SOL     OW14935   4.067   1.071   0.565
 4679SOL    HW114936   4.071   1.028   0.475
 4679SOL    HW214937   4.158   1.107   0.589
 4680SOL     OW14938   3.374   1.331   0.566
 4680SOL    HW114939   3.337   1.246   0.530
 4680SOL    HW214940   3.443   1.311   0.636
 4681SOL     OW14941   5.292   5.854   6.068
 4681SOL    HW114942   5.263   5.821   5.979
 4681SOL    HW214943   5.322   5.777   6.125
 4682SOL     OW14944   4.434   4.552   5.788
 4682SOL    HW114945   4.470   4.615   5.720
 4682SOL    HW214946   4.510   4.500   5.828
 4683SOL     OW14947   4.449   4.978   2.872
 4683SOL    HW114948   4.350   4.989   2.870
 4683SOL    HW214949   4.472   4.888   2.909
 4684SOL     OW14950   6.396   1.144   5.048
 4684SOL    HW114951   6.342   1.086   4.987
 4684SOL    HW214952   6.356   1.236   5.051
 4685SOL     OW14953   0.567   5.988   5.789
 4685SOL    HW114954   0.476   5.947   5.778
 4685SOL    HW214955   0.573   6.034   5.877
 4686SOL     OW14956   4.027   5.365   0.017
 4686SOL    HW114957   3.989   5.340   0.106
 4686SOL    HW214958   4.031   5.283   6.980
 4687SOL     OW14959   6.413   3.959   4.834
 4687SOL    HW114960   6.455   4.047   4.815
 4687SOL    HW214961   6.315   3.964   4.814
 4688SOL     OW14962   6.101   4.261   4.846
 4688SOL    HW114963   6.122   4.350   4.887
 4688SOL    HW214964   6.024   4.271   4.783
 4689SOL     OW14965   5.477   1.071   0.336
 4689SOL    HW114966   5.489   0.975   0.313
 4689SOL    HW214967   5.560   1.105   0.380
 4690SOL     OW14968   1.114   6.780   0.282
 4690SOL    HW114969   1.209   6.792   0.311
 4690SOL    HW214970   1.080   6.865   0.242
 4691SOL     OW14971   2.916   5.333   1.772
 4691SOL    HW114972   2.833   5.297   1.729
 4691SOL    HW214973   2.978   5.258   1.794
 4692SOL     OW14974   5.732   5.555   2.070
 4692SOL    HW114975   5.678   5.594   2.144
 4692SOL    HW214976   5.828   5.548   2.098
 4693SOL     OW14977   0.829   1.721   3.080
 4693SOL    HW114978   0.920   1.750   3.049
 4693SOL    HW214979   0.786   1.795   3.130
 4694SOL     OW14980   1.853   0.611   6.782
 4694SOL    HW114981   1.837   0.513   6.796
 4694SOL    HW214982   1.939   0.624   6.733
 4695SOL     OW14983   1.362   3.623   1.559
 4695SOL    HW114984   1.388   3.559   1.631
 4695SOL    HW214985   1.305   3.576   1.491
 4696SOL     OW14986   0.158   4.264   0.097
 4696SOL    HW114987   0.205   4.179   0.123
 4696SOL    HW214988   0.213   4.311   0.028
 4697SOL     OW14989   1.851   2.852   0.770
 4697SOL    HW114990   1.813   2.909   0.842
 4697SOL    HW214991   1.885   2.766   0.810
 4698SOL     OW14992   4.498   5.078   2.583
 4698SOL    HW114993   4.487   5.010   2.656
 4698SOL    HW214994   4.499   5.169   2.623
 4699SOL     OW14995   1.936   6.573   2.264
 4699SOL    HW114996   1.987   6.656   2.285
 4699SOL    HW214997   1.967   6.536   2.176
 4700SOL     OW14998   6.831   1.261   2.952
 4700SOL    HW114999   6.804   1.192   2.885
 4700SOL    HW215000   6.808   1.352   2.917
 4701SOL     OW15001   2.529   2.403   6.912
 4701SOL    HW115002   2.530   2.361   6.821
 4701SOL    HW215003   2.602   2.364   6.968
 4702SOL     OW15004   4.216   5.492   0.418
 4702SOL    HW115005   4.286   5.510   0.487
 4702SOL    HW215006   4.245   5.416   0.360
 4703SOL     OW15007   0.773   1.259   1.585
 4703SOL    HW115008   0.707   1.327   1.554
 4703SOL    HW215009   0.859   1.271   1.536
 4704SOL     OW15010   0.677   6.198   0.439
 4704SOL    HW115011   0.740   6.194   0.362
 4704SOL    HW215012   0.695   6.121   0.501
 4705SOL     OW15013   3.473   3.425   1.849
 4705SOL    HW115014   3.484   3.449   1.945
 4705SOL    HW215015   3.446   3.506   1.797
 4706SOL     OW15016   3.403   0.316   6.918
 4706SOL    HW115017   3.388   0.270   6.830
 4706SOL    HW215018   3.323   0.373   6.939
 4707SOL     OW15019   2.060   6.617   1.434
 4707SOL    HW115020   2.047   6.597   1.336
 4707SOL    HW215021   2.157   6.611   1.457
 4708SOL     OW15022   1.224   1.525   6.606
 4708SOL    HW115023   1.235   1.603   6.668
 4708SOL    HW215024   1.136   1.533   6.558
 4709SOL     OW15025   4.442   6.112   5.494
 4709SOL    HW115026   4.445   6.014   5.475
 4709SOL    HW215027   4.428   6.162   5.408
 4710SOL     OW15028   4.302   0.687   5.462
 4710SOL    HW115029   4.221   0.645   5.504
 4710SOL    HW215030   4.310   0.781   5.494
 4711SOL     OW15031   6.054   1.480   1.650
 4711SOL    HW115032   6.101   1.544   1.590
 4711SOL    HW215033   6.055   1.389   1.609
 4712SOL     OW15034   3.182   4.567   0.348
 4712SOL    HW115035   3.178   4.471   0.322
 4712SOL    HW215036   3.250   4.580   0.420
 4713SOL     OW15037   3.452   4.329   0.484
 4713SOL    HW115038   3.549   4.338   0.461
 4713SOL    HW215039   3.438   4.244   0.535
 4714SOL     OW15040   0.813   2.142   6.772
 4714SOL    HW115041   0.867   2.217   6.810
 4714SOL    HW215042   0.833   2.133   6.674
 4715SOL     OW15043   5.379   2.447   2.421
 4715SOL    HW115044   5.370   2.544   2.395
 4715SOL    HW215045   5.294   2.399   2.398
 4716SOL     OW15046   4.703   6.050   6.252
 4716SOL    HW115047   4.610   6.060   6.287
 4716SOL    HW215048   4.720   5.955   6.229
 4717SOL     OW15049   0.071   0.407   3.943
 4717SOL    HW115050   0.134   0.431   3.869
 4717SOL    HW215051   0.043   0.490   3.991
 4718SOL     OW15052   5.366   2.852   1.561
 4718SOL    HW115053   5.297   2.917   1.594
 4718SOL    HW215054   5.325   2.762   1.550
 4719SOL     OW15055   4.758   3.345   1.640
 4719SOL    HW115056   4.725   3.438   1.653
 4719SOL    HW215057   4.813   3.318   1.719
 4720SOL     OW15058   2.063   5.726   5.920
 4720SOL    HW115059   2.056   5.782   6.003
 4720SOL    HW215060   2.140   5.757   5.865
 4721SOL     OW15061   6.537   2.496   2.166
 4721SOL    HW115062   6.623   2.532   2.131
 4721SOL    HW215063   6.554   2.440   2.246
 4722SOL     OW15064   0.721   5.749   6.365
 4722SOL    HW115065   0.719   5.832   6.311
 4722SOL    HW215066   0.783   5.683   6.323
 4723SOL     OW15067   2.465   3.810   6.101
 4723SOL    HW115068   2.516   3.875   6.045
 4723SOL    HW215069   2.443   3.853   6.189
 4724SOL     OW15070   6.181   6.310   2.252
 4724SOL    HW115071   6.219   6.400   2.232
 4724SOL    HW215072   6.174   6.258   2.168
 4725SOL     OW15073   6.479   5.329   1.944
 4725SOL    HW115074   6.518   5.276   2.019
 4725SOL    HW215075   6.380   5.314   1.941
 4726SOL     OW15076   1.853   2.531   5.831
 4726SOL    HW115077   1.865   2.527   5.930
 4726SOL    HW215078   1.755   2.533   5.809
 4727SOL     OW15079   1.639   5.703   1.282
 4727SOL    HW115080   1.617   5.606   1.274
 4727SOL    HW215081   1.561   5.752   1.321
 4728SOL     OW15082   6.644   1.251   1.857
 4728SOL    HW115083   6.742   1.253   1.878
 4728SOL    HW215084   6.594   1.211   1.933
 4729SOL     OW15085   3.034   1.409   0.576
 4729SOL    HW115086   3.031   1.310   0.578
 4729SOL    HW215087   2.970   1.446   0.644
 4730SOL     OW15088   3.221   6.052   5.239
 4730SOL    HW115089   3.248   5.959   5.215
 4730SOL    HW215090   3.138   6.076   5.188
 4731SOL     OW15091   4.339   0.328   0.047
 4731SOL    HW115092   4.359   0.230   0.048
 4731SOL    HW215093   4.277   0.349   6.992
 4732SOL     OW15094   1.019   3.397   5.918
 4732SOL    HW115095   1.098   3.348   5.953
 4732SOL    HW215096   0.993   3.469   5.983
 4733SOL     OW15097   1.303   4.099   3.601
 4733SOL    HW115098   1.277   4.098   3.697
 4733SOL    HW215099   1.347   4.013   3.576
 4734SOL     OW15100   4.150   2.622   0.027
 4734SOL    HW115101   4.199   2.667   0.101
 4734SOL    HW215102   4.061   2.590   0.061
 4735SOL     OW15103   6.654   5.712   4.207
 4735SOL    HW115104   6.701   5.723   4.295
 4735SOL    HW215105   6.720   5.687   4.137
 4736SOL     OW15106   6.917   1.430   5.911
 4736SOL    HW115107   6.867   1.377   5.842
 4736SOL    HW215108   6.988   1.373   5.952
 4737SOL     OW15109   2.538   4.599   2.037
 4737SOL    HW115110   2.635   4.596   2.014
 4737SOL    HW215111   2.518   4.680   2.091
 4738SOL     OW15112   0.356   6.284   2.792
 4738SOL    HW115113   0.352   6.345   2.713
 4738SOL    HW215114   0.265   6.277   2.834
 4739SOL     OW15115   3.741   0.576   3.351
 4739SOL    HW115116   3.726   0.540   3.443
 4739SOL    HW215117   3.835   0.608   3.343
 4740SOL     OW15118   1.007   1.375   1.472
 4740SOL    HW115119   1.058   1.324   1.403
 4740SOL    HW215120   1.064   1.387   1.553
 4741SOL     OW15121   3.872   3.652   1.087
 4741SOL    HW115122   3.797   3.648   1.020
 4741SOL    HW215123   3.904   3.746   1.096
 4742SOL     OW15124   3.532   6.723   6.294
 4742SOL    HW115125   3.548   6.632   6.257
 4742SOL    HW215126   3.583   6.790   6.241
 4743SOL     OW15127   1.516   3.111   3.426
 4743SOL    HW115128   1.595   3.101   3.487
 4743SOL    HW215129   1.541   3.084   3.333
 4744SOL     OW15130   2.034   4.230   0.586
 4744SOL    HW115131   1.965   4.302   0.581
 4744SOL    HW215132   2.034   4.189   0.677
 4745SOL     OW15133   2.873   4.485   6.048
 4745SOL    HW115134   2.892   4.406   6.105
 4745SOL    HW215135   2.956   4.539   6.037
 4746SOL     OW15136   5.499   5.579   2.306
 4746SOL    HW115137   5.406   5.604   2.333
 4746SOL    HW215138   5.504   5.479   2.297
 4747SOL     OW15139   1.886   3.920   0.405
 4747SOL    HW115140   1.875   3.887   0.499
 4747SOL    HW215141   1.963   3.874   0.362
 4748SOL     OW15142   2.110   5.351   0.961
 4748SOL    HW115143   2.053   5.311   0.890
 4748SOL    HW215144   2.076   5.442   0.985
 4749SOL     OW15145   1.929   6.657   5.710
 4749SOL    HW115146   1.904   6.677   5.615
 4749SOL    HW215147   1.863   6.699   5.771
 4750SOL     OW15148   0.672   3.980   4.310
 4750SOL    HW115149   0.652   4.006   4.405
 4750SOL    HW215150   0.727   3.897   4.309
 4751SOL     OW15151   3.939   1.980   2.287
 4751SOL    HW115152   3.972   1.885   2.291
 4751SOL    HW215153   3.921   2.005   2.192
 4752SOL     OW15154   4.534   1.464   6.588
 4752SOL    HW115155   4.477   1.391   6.551
 4752SOL    HW215156   4.584   1.508   6.514
 4753SOL     OW15157   5.762   0.059   3.883
 4753SOL    HW115158   5.815   0.049   3.799
 4753SOL    HW215159   5.665   0.069   3.860
 4754SOL     OW15160   5.909   6.095   4.508
 4754SOL    HW115161   5.809   6.088   4.516
 4754SOL    HW215162   5.952   6.013   4.544
 4755SOL     OW15163   3.209   0.367   0.297
 4755SOL    HW115164   3.192   0.358   0.199
 4755SOL    HW215165   3.127   0.404   0.342
 4756SOL     OW15166   5.383   2.664   0.307
 4756SOL    HW115167   5.473   2.649   0.348
 4756SOL    HW215168   5.311   2.635   0.371
 4757SOL     OW15169   2.875   1.476   0.798
 4757SOL    HW115170   2.842   1.569   0.781
 4757SOL    HW215171   2.797   1.414   0.803
 4758SOL     OW15172   1.825   6.533   3.488
 4758SOL    HW115173   1.765   6.473   3.435
 4758SOL    HW215174   1.865   6.483   3.564
 4759SOL     OW15175   6.286   4.376   5.260
 4759SOL    HW115176   6.307   4.329   5.174
 4759SOL    HW215177   6.259   4.309   5.329
 4760SOL     OW15178   2.586   1.908   0.870
 4760SOL    HW115179   2.537   1.865   0.945
 4760SOL    HW215180   2.657   1.846   0.836
 4761SOL     OW15181   0.689   5.649   0.500
 4761SOL    HW115182   0.646   5.561   0.518
 4761SOL    HW215183   0.653   5.687   0.415
 4762SOL     OW15184   1.461   5.816   2.622
 4762SOL    HW115185   1.538   5.875   2.647
 4762SOL    HW215186   1.380   5.872   2.606
 4763SOL     OW15187   6.146   6.638   3.007
 4763SOL    HW115188   6.049   6.621   3.024
 4763SOL    HW215189   6.187   6.684   3.086
 4764SOL     OW15190   4.929   3.543   4.697
 4764SOL    HW115191   4.837   3.513   4.723
 4764SOL    HW215192   4.994   3.469   4.714
 4765SOL     OW15193   4.806   1.367   4.631
 4765SOL    HW115194   4.876   1.297   4.647
 4765SOL    HW215195   4.780   1.409   4.718
 4766SOL     OW15196   5.299   5.770   4.136
 4766SOL    HW115197   5.259   5.774   4.228
 4766SOL    HW215198   5.377   5.707   4.137
 4767SOL     OW15199   3.030   5.567   5.203
 4767SOL    HW115200   3.110   5.541   5.257
 4767SOL    HW215201   3.054   5.643   5.143
 4768SOL     OW15202   4.495   2.384   6.113
 4768SOL    HW115203   4.416   2.401   6.172
 4768SOL    HW215204   4.499   2.454   6.042
 4769SOL     OW15205   4.702   5.129   6.846
 4769SOL    HW115206   4.722   5.048   6.792
 4769SOL    HW215207   4.742   5.120   6.937
 4770SOL     OW15208   0.497   1.098   4.297
 4770SOL    HW115209   0.569   1.118   4.363
 4770SOL    HW215210   0.528   1.026   4.235
 4771SOL     OW15211   2.676   5.780   5.347
 4771SOL    HW115212   2.701   5.684   5.339
 4771SOL    HW215213   2.758   5.837   5.345
 4772SOL     OW15214   4.277   5.160   1.087
 4772SOL    HW115215   4.332   5.171   1.004
 4772SOL    HW215216   4.319   5.092   1.146
 4773SOL     OW15217   6.716   5.342   4.143
 4773SOL    HW115218   6.715   5.429   4.094
 4773SOL    HW215219   6.774   5.277   4.094
 4774SOL     OW15220   1.405   3.125   1.598
 4774SOL    HW115221   1.501   3.150   1.601
 4774SOL    HW215222   1.377   3.088   1.687
 4775SOL     OW15223   5.434   6.548   2.774
 4775SOL    HW115224   5.428   6.479   2.702
 4775SOL    HW215225   5.342   6.580   2.798
 4776SOL     OW15226   1.147   6.182   5.774
 4776SOL    HW115227   1.228   6.145   5.820
 4776SOL    HW215228   1.082   6.108   5.757
 4777SOL     OW15229   2.194   5.214   1.201
 4777SOL    HW115230   2.282   5.174   1.175
 4777SOL    HW215231   2.161   5.273   1.126
 4778SOL     OW15232   6.515   2.418   4.174
 4778SOL    HW115233   6.553   2.329   4.201
 4778SOL    HW215234   6.558   2.490   4.229
 4779SOL     OW15235   6.035   5.435   2.608
 4779SOL    HW115236   5.959   5.453   2.670
 4779SOL    HW215237   6.037   5.504   2.536
 4780SOL     OW15238   5.792   1.721   0.104
 4780SOL    HW115239   5.766   1.634   0.061
 4780SOL    HW215240   5.852   1.702   0.182
 4781SOL     OW15241   2.582   6.086   2.606
 4781SOL    HW115242   2.577   6.173   2.556
 4781SOL    HW215243   2.634   6.020   2.552
 4782SOL     OW15244   6.268   5.852   0.122
 4782SOL    HW115245   6.247   5.816   0.213
 4782SOL    HW215246   6.205   5.812   0.055
 4783SOL     OW15247   4.893   4.363   0.084
 4783SOL    HW115248   4.857   4.424   0.013
 4783SOL    HW215249   4.930   4.280   0.042
 4784SOL     OW15250   6.128   3.647   6.401
 4784SOL    HW115251   6.170   3.557   6.415
 4784SOL    HW215252   6.196   3.710   6.365
 4785SOL     OW15253   1.713   6.612   3.103
 4785SOL    HW115254   1.651   6.636   3.028
 4785SOL    HW215255   1.699   6.516   3.127
 4786SOL     OW15256   2.672   0.638   0.085
 4786SOL    HW115257   2.760   0.604   0.050
 4786SOL    HW215258   2.598   0.606   0.025
 4787SOL     OW15259   4.089   1.615   2.810
 4787SOL    HW115260   4.057   1.594   2.717
 4787SOL    HW215261   4.027   1.681   2.852
 4788SOL     OW15262   6.638   6.480   6.630
 4788SOL    HW115263   6.636   6.551   6.699
 4788SOL    HW215264   6.702   6.505   6.557
 4789SOL     OW15265   4.483   2.369   1.622
 4789SOL    HW115266   4.483   2.414   1.533
 4789SOL    HW215267   4.571   2.385   1.667
 4790SOL     OW15268   6.321   1.997   5.116
 4790SOL    HW115269   6.311   1.992   5.216
 4790SOL    HW215270   6.294   1.910   5.076
 4791SOL     OW15271   0.060   2.755   1.291
 4791SOL    HW115272   0.071   2.797   1.201
 4791SOL    HW215273   0.033   2.825   1.358
 4792SOL     OW15274   2.779   4.857   3.081
 4792SOL    HW115275   2.727   4.863   2.995
 4792SOL    HW215276   2.839   4.937   3.089
 4793SOL     OW15277   2.347   2.494   5.079
 4793SOL    HW115278   2.371   2.574   5.025
 4793SOL    HW215279   2.248   2.479   5.073
 4794SOL     OW15280   5.152   0.557   4.667
 4794SOL    HW115281   5.239   0.507   4.676
 4794SOL    HW215282   5.122   0.555   4.572
 4795SOL     OW15283   6.266   2.119   4.317
 4795SOL    HW115284   6.341   2.093   4.378
 4795SOL    HW215285   6.296   2.194   4.258
 4796SOL     OW15286   4.730   1.889   4.617
 4796SOL    HW115287   4.818   1.931   4.640
 4796SOL    HW215288   4.728   1.868   4.519
 4797SOL     OW15289   0.553   6.310   5.368
 4797SOL    HW115290   0.525   6.309   5.272
 4797SOL    HW215291   0.563   6.405   5.399
 4798SOL     OW15292   0.231   3.896   5.665
 4798SOL    HW115293   0.322   3.881   5.626
 4798SOL    HW215294   0.180   3.960   5.608
 4799SOL     OW15295   4.606   1.611   0.608
 4799SOL    HW115296   4.572   1.518   0.598
 4799SOL    HW215297   4.533   1.669   0.645
 4800SOL     OW15298   2.937   2.359   6.546
 4800SOL    HW115299   2.949   2.260   6.542
 4800SOL    HW215300   2.852   2.385   6.499
 4801SOL     OW15301   3.346   2.230   6.476
 4801SOL    HW115302   3.329   2.283   6.393
 4801SOL    HW215303   3.306   2.276   6.555
 4802SOL     OW15304   0.995   6.560   1.822
 4802SOL    HW115305   0.989   6.490   1.893
 4802SOL    HW215306   1.081   6.550   1.772
 4803SOL     OW15307   6.913   5.031   0.436
 4803SOL    HW115308   6.873   4.970   0.505
 4803SOL    HW215309   6.899   5.126   0.463
 4804SOL     OW15310   6.878   6.462   1.578
 4804SOL    HW115311   6.824   6.419   1.506
 4804SOL    HW215312   6.924   6.543   1.542
 4805SOL     OW15313   6.661   2.133   2.497
 4805SOL    HW115314   6.595   2.092   2.434
 4805SOL    HW215315   6.722   2.062   2.532
 4806SOL     OW15316   0.909   4.165   2.801
 4806SOL    HW115317   0.908   4.226   2.880
 4806SOL    HW215318   1.003   4.152   2.770
 4807SOL     OW15319   0.799   4.955   0.124
 4807SOL    HW115320   0.814   4.957   0.223
 4807SOL    HW215321   0.883   4.981   0.077
 4808SOL     OW15322   4.800   5.181   0.472
 4808SOL    HW115323   4.805   5.105   0.407
 4808SOL    HW215324   4.890   5.197   0.512
 4809SOL     OW15325   3.456   4.842   0.116
 4809SOL    HW115326   3.373   4.876   0.161
 4809SOL    HW215327   3.536   4.886   0.158
 4810SOL     OW15328   1.641   4.630   2.665
 4810SOL    HW115329   1.585   4.548   2.654
 4810SOL    HW215330   1.628   4.689   2.586
 4811SOL     OW15331   2.379   4.182   1.801
 4811SOL    HW115332   2.316   4.139   1.737
 4811SOL    HW215333   2.473   4.157   1.778
 4812SOL     OW15334   0.420   5.454   2.245
 4812SOL    HW115335   0.496   5.466   2.309
 4812SOL    HW215336   0.407   5.538   2.193
 4813SOL     OW15337   6.110   2.104   6.627
 4813SOL    HW115338   6.105   2.007   6.606
 4813SOL    HW215339   6.198   2.125   6.669
 4814SOL     OW15340   6.948   2.946   1.464
 4814SOL    HW115341   6.952   3.020   1.397
 4814SOL    HW215342   6.940   2.986   1.556
 4815SOL     OW15343   5.183   3.816   2.386
 4815SOL    HW115344   5.247   3.823   2.309
 4815SOL    HW215345   5.105   3.761   2.359
 4816SOL     OW15346   2.254   4.764   1.265
 4816SOL    HW115347   2.259   4.770   1.365
 4816SOL    HW215348   2.187   4.694   1.240
 4817SOL     OW15349   1.790   1.591   6.734
 4817SOL    HW115350   1.809   1.511   6.677
 4817SOL    HW215351   1.867   1.607   6.796
 4818SOL     OW15352   0.864   6.684   4.390
 4818SOL    HW115353   0.951   6.635   4.391
 4818SOL    HW215354   0.793   6.627   4.433
 4819SOL     OW15355   1.737   1.643   0.499
 4819SOL    HW115356   1.805   1.642   0.571
 4819SOL    HW215357   1.713   1.549   0.475
 4820SOL     OW15358   6.266   2.807   2.610
 4820SOL    HW115359   6.293   2.878   2.675
 4820SOL    HW215360   6.187   2.757   2.645
 4821SOL     OW15361   0.594   6.426   2.262
 4821SOL    HW115362   0.645   6.512   2.269
 4821SOL    HW215363   0.558   6.417   2.169
 4822SOL     OW15364   1.845   3.602   4.993
 4822SOL    HW115365   1.930   3.561   4.959
 4822SOL    HW215366   1.812   3.551   5.072
 4823SOL     OW15367   1.711   0.562   4.171
 4823SOL    HW115368   1.753   0.550   4.081
 4823SOL    HW215369   1.689   0.472   4.209
 4824SOL     OW15370   5.229   2.014   4.302
 4824SOL    HW115371   5.237   1.980   4.395
 4824SOL    HW215372   5.320   2.029   4.264
 4825SOL     OW15373   1.300   2.397   4.102
 4825SOL    HW115374   1.305   2.493   4.077
 4825SOL    HW215375   1.315   2.340   4.021
 4826SOL     OW15376   6.437   1.486   6.380
 4826SOL    HW115377   6.476   1.401   6.343
 4826SOL    HW215378   6.338   1.485   6.367
 4827SOL     OW15379   6.358   1.399   0.942
 4827SOL    HW115380   6.413   1.449   1.009
 4827SOL    HW215381   6.302   1.463   0.890
 4828SOL     OW15382   5.254   2.993   0.540
 4828SOL    HW115383   5.346   3.016   0.572
 4828SOL    HW215384   5.214   2.923   0.599
 4829SOL     OW15385   4.338   0.023   6.757
 4829SOL    HW115386   4.326   0.088   6.682
 4829SOL    HW215387   4.254   6.991   6.769
 4830SOL     OW15388   4.361   6.767   3.592
 4830SOL    HW115389   4.349   6.796   3.497
 4830SOL    HW215390   4.301   6.820   3.651
 4831SOL     OW15391   0.189   4.433   6.168
 4831SOL    HW115392   0.197   4.512   6.107
 4831SOL    HW215393   0.104   4.440   6.221
 4832SOL     OW15394   3.476   3.327   4.687
 4832SOL    HW115395   3.386   3.330   4.644
 4832SOL    HW215396   3.465   3.316   4.786
 4833SOL     OW15397   4.767   2.306   3.127
 4833SOL    HW115398   4.799   2.241   3.058
 4833SOL    HW215399   4.727   2.255   3.204
 4834SOL     OW15400   3.491   6.270   1.151
 4834SOL    HW115401   3.533   6.185   1.119
 4834SOL    HW215402   3.562   6.335   1.176
 4835SOL     OW15403   6.296   1.793   6.440
 4835SOL    HW115404   6.354   1.856   6.492
 4835SOL    HW215405   6.350   1.714   6.412
 4836SOL     OW15406   5.473   3.069   4.729
 4836SOL    HW115407   5.544   3.043   4.794
 4836SOL    HW215408   5.393   3.010   4.741
 4837SOL     OW15409   6.234   3.668   2.772
 4837SOL    HW115410   6.269   3.718   2.693
 4837SOL    HW215411   6.243   3.725   2.854
 4838SOL     OW15412   1.149   5.258   6.894
 4838SOL    HW115413   1.071   5.291   6.842
 4838SOL    HW215414   1.131   5.165   6.925
 4839SOL     OW15415   1.982   3.691   6.919
 4839SOL    HW115416   1.961   3.656   7.010
 4839SOL    HW215417   2.033   3.622   6.868
 4840SOL     OW15418   6.957   4.716   6.174
 4840SOL    HW115419   0.017   4.714   6.232
 4840SOL    HW215420   6.985   4.718   6.078
 4841SOL     OW15421   2.866   5.577   1.910
 4841SOL    HW115422   2.877   5.568   2.009
 4841SOL    HW215423   2.887   5.490   1.865
 4842SOL     OW15424   3.739   5.056   2.760
 4842SOL    HW115425   3.670   4.988   2.781
 4842SOL    HW215426   3.783   5.087   2.845
 4843SOL     OW15427   0.095   3.169   1.113
 4843SOL    HW115428   0.040   3.180   1.196
 4843SOL    HW215429   0.091   3.074   1.082
 4844SOL     OW15430   1.128   2.855   6.085
 4844SOL    HW115431   1.111   2.953   6.077
 4844SOL    HW215432   1.075   2.806   6.016
 4845SOL     OW15433   5.149   5.474   6.238
 4845SOL    HW115434   5.155   5.426   6.150
 4845SOL    HW215435   5.108   5.414   6.306
 4846SOL     OW15436   6.905   2.973   4.183
 4846SOL    HW115437   6.981   3.021   4.226
 4846SOL    HW215438   6.885   2.889   4.235
 4847SOL     OW15439   2.864   0.705   6.261
 4847SOL    HW115440   2.870   0.729   6.164
 4847SOL    HW215441   2.828   0.784   6.312
 4848SOL     OW15442   1.515   0.698   3.778
 4848SOL    HW115443   1.601   0.749   3.784
 4848SOL    HW215444   1.438   0.761   3.789
 4849SOL     OW15445   1.399   5.730   6.909
 4849SOL    HW115446   1.436   5.817   6.875
 4849SOL    HW215447   1.307   5.745   6.945
 4850SOL     OW15448   3.861   1.224   2.118
 4850SOL    HW115449   3.906   1.254   2.035
 4850SOL    HW215450   3.929   1.194   2.185
 4851SOL     OW15451   4.322   0.229   5.873
 4851SOL    HW115452   4.396   0.252   5.810
 4851SOL    HW215453   4.358   0.174   5.948
 4852SOL     OW15454   1.494   5.985   4.882
 4852SOL    HW115455   1.398   5.987   4.910
 4852SOL    HW215456   1.503   5.933   4.798
 4853SOL     OW15457   3.259   1.292   3.121
 4853SOL    HW115458   3.159   1.292   3.115
 4853SOL    HW215459   3.286   1.328   3.211
 4854SOL     OW15460   4.201   6.879   1.212
 4854SOL    HW115461   4.215   6.938   1.132
 4854SOL    HW215462   4.104   6.879   1.237
 4855SOL     OW15463   6.081   2.645   3.475
 4855SOL    HW115464   6.080   2.729   3.529
 4855SOL    HW215465   6.069   2.667   3.378
 4856SOL     OW15466   1.158   3.347   2.928
 4856SOL    HW115467   1.190   3.283   2.999
 4856SOL    HW215468   1.078   3.396   2.962
 4857SOL     OW15469   2.773   1.774   4.927
 4857SOL    HW115470   2.730   1.814   4.845
 4857SOL    HW215471   2.730   1.813   5.009
 4858SOL     OW15472   1.027   0.467   4.319
 4858SOL    HW115473   0.986   0.559   4.316
 4858SOL    HW215474   1.126   0.476   4.330
 4859SOL     OW15475   1.078   0.013   4.423
 4859SOL    HW115476   1.120   0.028   4.333
 4859SOL    HW215477   1.023   0.093   4.447
 4860SOL     OW15478   4.397   4.423   1.747
 4860SOL    HW115479   4.425   4.370   1.827
 4860SOL    HW215480   4.384   4.362   1.669
 4861SOL     OW15481   5.998   5.443   7.010
 4861SOL    HW115482   5.983   5.417   6.915
 4861SOL    HW215483   5.942   5.386   0.048
 4862SOL     OW15484   2.358   4.573   4.870
 4862SOL    HW115485   2.326   4.484   4.837
 4862SOL    HW215486   2.406   4.560   4.958
 4863SOL     OW15487   5.316   3.531   1.031
 4863SOL    HW115488   5.376   3.480   0.969
 4863SOL    HW215489   5.224   3.491   1.028
 4864SOL     OW15490   4.129   1.041   2.733
 4864SOL    HW115491   4.037   1.049   2.769
 4864SOL    HW215492   4.195   1.044   2.808
 4865SOL     OW15493   2.110   6.378   4.096
 4865SOL    HW115494   2.117   6.388   3.997
 4865SOL    HW215495   2.192   6.331   4.131
 4866SOL     OW15496   6.142   3.781   1.886
 4866SOL    HW115497   6.099   3.693   1.907
 4866SOL    HW215498   6.218   3.798   1.949
 4867SOL     OW15499   3.992   5.450   1.822
 4867SOL    HW115500   4.076   5.419   1.778
 4867SOL    HW215501   3.920   5.463   1.753
 4868SOL     OW15502   6.523   4.931   3.045
 4868SOL    HW115503   6.607   4.980   3.025
 4868SOL    HW215504   6.536   4.833   3.030
 4869SOL     OW15505   1.109   1.089   1.497
 4869SOL    HW115506   1.083   1.032   1.419
 4869SOL    HW215507   1.188   1.144   1.473
 4870SOL     OW15508   0.334   6.163   2.036
 4870SOL    HW115509   0.264   6.134   1.971
 4870SOL    HW215510   0.419   6.114   2.017
 4871SOL     OW15511   1.244   0.674   4.613
 4871SOL    HW115512   1.202   0.735   4.546
 4871SOL    HW215513   1.333   0.711   4.641
 4872SOL     OW15514   6.598   6.396   3.828
 4872SOL    HW115515   6.549   6.464   3.772
 4872SOL    HW215516   6.678   6.363   3.779
 4873SOL     OW15517   6.636   4.692   3.748
 4873SOL    HW115518   6.698   4.689   3.827
 4873SOL    HW215519   6.632   4.785   3.712
 4874SOL     OW15520   6.179   3.254   3.079
 4874SOL    HW115521   6.224   3.303   3.004
 4874SOL    HW215522   6.215   3.161   3.086
 4875SOL     OW15523   5.554   2.410   1.237
 4875SOL    HW115524   5.454   2.409   1.240
 4875SOL    HW215525   5.588   2.484   1.295
 4876SOL     OW15526   5.839   1.624   4.063
 4876SOL    HW115527   5.770   1.566   4.020
 4876SOL    HW215528   5.865   1.584   4.152
 4877SOL     OW15529   1.233   2.197   6.616
 4877SOL    HW115530   1.263   2.104   6.592
 4877SOL    HW215531   1.174   2.193   6.697
 4878SOL     OW15532   6.297   0.681   2.953
 4878SOL    HW115533   6.285   0.776   2.926
 4878SOL    HW215534   6.355   0.634   2.887
 4879SOL     OW15535   4.636   5.997   2.920
 4879SOL    HW115536   4.559   5.982   2.981
 4879SOL    HW215537   4.672   6.090   2.934
 4880SOL     OW15538   5.580   3.642   0.202
 4880SOL    HW115539   5.606   3.687   0.288
 4880SOL    HW215540   5.511   3.572   0.220
 4881SOL     OW15541   1.782   1.168   6.266
 4881SOL    HW115542   1.870   1.144   6.307
 4881SOL    HW215543   1.710   1.159   6.334
 4882SOL     OW15544   5.233   1.494   5.081
 4882SOL    HW115545   5.193   1.428   5.017
 4882SOL    HW215546   5.215   1.464   5.175
 4883SOL     OW15547   5.582   4.495   1.691
 4883SOL    HW115548   5.571   4.499   1.592
 4883SOL    HW215549   5.678   4.477   1.714
 4884SOL     OW15550   3.385   0.107   1.504
 4884SOL    HW115551   3.332   0.186   1.533
 4884SOL    HW215552   3.362   0.085   1.409
 4885SOL     OW15553   1.555   5.066   2.376
 4885SOL    HW115554   1.538   5.126   2.298
 4885SOL    HW215555   1.648   5.083   2.411
 4886SOL     OW15556   0.949   5.195   0.767
 4886SOL    HW115557   1.006   5.276   0.754
 4886SOL    HW215558   0.875   5.216   0.830
 4887SOL     OW15559   0.840   0.317   2.591
 4887SOL    HW115560   0.819   0.392   2.654
 4887SOL    HW215561   0.870   0.354   2.503
 4888SOL     OW15562   2.204   6.709   4.601
 4888SOL    HW115563   2.127   6.734   4.542
 4888SOL    HW215564   2.261   6.641   4.555
 4889SOL     OW15565   6.309   1.173   6.307
 4889SOL    HW115566   6.259   1.258   6.289
 4889SOL    HW215567   6.382   1.163   6.239
 4890SOL     OW15568   1.188   2.117   6.916
 4890SOL    HW115569   1.111   2.180   6.904
 4890SOL    HW215570   1.180   2.071   7.004
 4891SOL     OW15571   1.681   4.931   6.646
 4891SOL    HW115572   1.646   4.839   6.664
 4891SOL    HW215573   1.616   4.999   6.678
 4892SOL     OW15574   3.434   6.527   2.046
 4892SOL    HW115575   3.432   6.466   1.967
 4892SOL    HW215576   3.409   6.476   2.128
 4893SOL     OW15577   6.826   3.698   1.459
 4893SOL    HW115578   6.817   3.690   1.360
 4893SOL    HW215579   6.739   3.676   1.502
 4894SOL     OW15580   2.529   1.849   2.976
 4894SOL    HW115581   2.471   1.807   2.907
 4894SOL    HW215582   2.601   1.785   3.003
 4895SOL     OW15583   0.560   5.013   3.426
 4895SOL    HW115584   0.569   4.951   3.348
 4895SOL    HW215585   0.647   5.018   3.476
 4896SOL     OW15586   2.153   5.768   2.412
 4896SOL    HW115587   2.094   5.822   2.472
 4896SOL    HW215588   2.247   5.800   2.421
 4897SOL     OW15589   3.139   4.078   6.426
 4897SOL    HW115590   3.068   4.128   6.476
 4897SOL    HW215591   3.202   4.144   6.384
 4898SOL     OW15592   3.256   0.931   4.150
 4898SOL    HW115593   3.266   0.875   4.233
 4898SOL    HW215594   3.279   0.876   4.070
 4899SOL     OW15595   6.202   5.165   3.287
 4899SOL    HW115596   6.164   5.209   3.368
 4899SOL    HW215597   6.128   5.130   3.230
 4900SOL     OW15598   2.006   5.830   4.337
 4900SOL    HW115599   2.073   5.824   4.411
 4900SOL    HW215600   1.935   5.761   4.350
 4901SOL     OW15601   3.060   6.572   5.735
 4901SOL    HW115602   3.086   6.541   5.827
 4901SOL    HW215603   2.970   6.615   5.739
 4902SOL     OW15604   2.589   2.019   4.266
 4902SOL    HW115605   2.524   2.061   4.203
 4902SOL    HW215606   2.572   2.054   4.358
 4903SOL     OW15607   3.818   6.372   6.517
 4903SOL    HW115608   3.790   6.309   6.444
 4903SOL    HW215609   3.871   6.321   6.586
 4904SOL     OW15610   1.923   6.959   3.875
 4904SOL    HW115611   1.828   6.961   3.905
 4904SOL    HW215612   1.929   6.911   3.788
 4905SOL     OW15613   4.358   0.068   2.553
 4905SOL    HW115614   4.315   0.139   2.497
 4905SOL    HW215615   4.300   0.048   2.632
 4906SOL     OW15616   4.765   1.952   5.814
 4906SOL    HW115617   4.841   2.005   5.853
 4906SOL    HW215618   4.719   1.901   5.887
 4907SOL     OW15619   4.273   6.443   0.970
 4907SOL    HW115620   4.308   6.442   1.064
 4907SOL    HW215621   4.320   6.373   0.916
 4908SOL     OW15622   5.011   4.808   6.876
 4908SOL    HW115623   4.952   4.865   6.819
 4908SOL    HW215624   5.093   4.784   6.824
 4909SOL     OW15625   6.474   0.266   4.267
 4909SOL    HW115626   6.435   0.305   4.184
 4909SOL    HW215627   6.426   0.301   4.347
 4910SOL     OW15628   5.277   6.831   4.569
 4910SOL    HW115629   5.209   6.883   4.517
 4910SOL    HW215630   5.231   6.763   4.626
 4911SOL     OW15631   1.253   3.407   4.209
 4911SOL    HW115632   1.196   3.403   4.291
 4911SOL    HW215633   1.196   3.420   4.129
 4912SOL     OW15634   5.515   1.111   6.636
 4912SOL    HW115635   5.517   1.203   6.598
 4912SOL    HW215636   5.603   1.066   6.620
 4913SOL     OW15637   4.010   3.023   5.324
 4913SOL    HW115638   3.942   3.019   5.252
 4913SOL    HW215639   4.041   2.930   5.347
 4914SOL     OW15640   3.571   0.191   5.117
 4914SOL    HW115641   3.590   0.286   5.142
 4914SOL    HW215642   3.491   0.189   5.057
 4915SOL     OW15643   4.249   0.346   4.863
 4915SOL    HW115644   4.159   0.322   4.901
 4915SOL    HW215645   4.237   0.417   4.794
 4916SOL     OW15646   1.395   0.600   4.011
 4916SOL    HW115647   1.408   0.646   4.099
 4916SOL    HW215648   1.462   0.634   3.945
 4917SOL     OW15649   2.056   4.859   1.551
 4917SOL    HW115650   2.090   4.791   1.615
 4917SOL    HW215651   2.090   4.949   1.576
 4918SOL     OW15652   4.429   5.756   2.285
 4918SOL    HW115653   4.381   5.669   2.292
 4918SOL    HW215654   4.480   5.759   2.199
 4919SOL     OW15655   2.931   2.356   6.828
 4919SOL    HW115656   2.906   2.350   6.732
 4919SOL    HW215657   2.850   2.343   6.885
 4920SOL     OW15658   5.929   0.738   4.825
 4920SOL    HW115659   5.829   0.739   4.820
 4920SOL    HW215660   5.963   0.655   4.779
 4921SOL     OW15661   1.633   4.612   0.562
 4921SOL    HW115662   1.596   4.574   0.477
 4921SOL    HW215663   1.609   4.708   0.568
 4922SOL     OW15664   1.892   2.349   4.797
 4922SOL    HW115665   1.868   2.332   4.702
 4922SOL    HW215666   1.967   2.416   4.801
 4923SOL     OW15667   3.992   1.877   1.573
 4923SOL    HW115668   4.054   1.799   1.560
 4923SOL    HW215669   3.898   1.847   1.560
 4924SOL     OW15670   2.757   1.565   5.522
 4924SOL    HW115671   2.792   1.558   5.428
 4924SOL    HW215672   2.770   1.658   5.555
 4925SOL     OW15673   6.156   6.345   1.876
 4925SOL    HW115674   6.255   6.344   1.887
 4925SOL    HW215675   6.121   6.252   1.886
 4926SOL     OW15676   5.531   1.477   0.299
 4926SOL    HW115677   5.603   1.437   0.357
 4926SOL    HW215678   5.540   1.577   0.300
 4927SOL     OW15679   4.101   3.448   4.550
 4927SOL    HW115680   4.040   3.370   4.561
 4927SOL    HW215681   4.115   3.493   4.638
 4928SOL     OW15682   1.416   0.126   6.669
 4928SOL    HW115683   1.459   0.113   6.758
 4928SOL    HW215684   1.432   0.046   6.612
 4929SOL     OW15685   0.770   5.284   4.961
 4929SOL    HW115686   0.734   5.204   4.912
 4929SOL    HW215687   0.706   5.360   4.952
 4930SOL     OW15688   4.882   0.883   3.302
 4930SOL    HW115689   4.971   0.928   3.312
 4930SOL    HW215690   4.875   0.807   3.368
 4931SOL     OW15691   6.625   6.825   0.746
 4931SOL    HW115692   6.540   6.787   0.709
 4931SOL    HW215693   6.615   6.923   0.758
 4932SOL     OW15694   2.490   3.408   1.693
 4932SOL    HW115695   2.416   3.437   1.754
 4932SOL    HW215696   2.473   3.443   1.601
 4933SOL     OW15697   2.197   6.854   3.200
 4933SOL    HW115698   2.220   6.777   3.140
 4933SOL    HW215699   2.269   6.923   3.193
 4934SOL     OW15700   2.550   5.774   2.666
 4934SOL    HW115701   2.476   5.709   2.677
 4934SOL    HW215702   2.521   5.864   2.700
 4935SOL     OW15703   1.433   1.226   6.051
 4935SOL    HW115704   1.403   1.293   6.118
 4935SOL    HW215705   1.477   1.272   5.974
 4936SOL     OW15706   2.326   4.726   1.957
 4936SOL    HW115707   2.410   4.690   1.997
 4936SOL    HW215708   2.275   4.777   2.026
 4937SOL     OW15709   7.018   2.899   6.443
 4937SOL    HW115710   6.975   2.934   6.526
 4937SOL    HW215711   0.092   2.875   6.463
 4938SOL     OW15712   2.277   6.260   5.742
 4938SOL    HW115713   2.352   6.326   5.741
 4938SOL    HW215714   2.201   6.294   5.687
 4939SOL     OW15715   6.080   2.006   4.141
 4939SOL    HW115716   6.121   2.052   4.220
 4939SOL    HW215717   6.135   2.022   4.060
 4940SOL     OW15718   0.281   0.930   4.926
 4940SOL    HW115719   0.359   0.894   4.873
 4940SOL    HW215720   0.245   0.859   4.985
 4941SOL     OW15721   4.653   2.095   5.165
 4941SOL    HW115722   4.729   2.120   5.224
 4941SOL    HW215723   4.661   2.144   5.078
 4942SOL     OW15724   5.575   3.400   6.415
 4942SOL    HW115725   5.574   3.375   6.318
 4942SOL    HW215726   5.581   3.317   6.471
 4943SOL     OW15727   4.323   3.750   5.932
 4943SOL    HW115728   4.291   3.665   5.891
 4943SOL    HW215729   4.244   3.808   5.955
 4944SOL     OW15730   2.459   4.475   1.657
 4944SOL    HW115731   2.365   4.449   1.676
 4944SOL    HW215732   2.480   4.459   1.560
 4945SOL     OW15733   1.298   0.049   4.687
 4945SOL    HW115734   1.367   7.006   4.655
 4945SOL    HW215735   1.225   0.056   4.620
 4946SOL     OW15736   1.605   5.370   0.054
 4946SOL    HW115737   1.615   5.320   0.140
 4946SOL    HW215738   1.656   5.322   7.003
 4947SOL     OW15739   2.329   0.190   0.573
 4947SOL    HW115740   2.299   0.283   0.553
 4947SOL    HW215741   2.275   0.152   0.647
 4948SOL     OW15742   1.226   2.833   2.465
 4948SOL    HW115743   1.177   2.777   2.532
 4948SOL    HW215744   1.160   2.884   2.410
 4949SOL     OW15745   5.735   5.291   5.937
 4949SOL    HW115746   5.795   5.246   5.871
 4949SOL    HW215747   5.733   5.239   6.022
 4950SOL     OW15748   1.987   5.451   4.522
 4950SOL    HW115749   1.904   5.434   4.576
 4950SOL    HW215750   2.068   5.435   4.578
 4951SOL     OW15751   6.046   0.776   5.069
 4951SOL    HW115752   5.995   0.824   5.141
 4951SOL    HW215753   5.992   0.776   4.985
 4952SOL     OW15754   0.452   0.746   5.814
 4952SOL    HW115755   0.423   0.840   5.793
 4952SOL    HW215756   0.389   0.682   5.771
 4953SOL     OW15757   2.020   6.383   3.054
 4953SOL    HW115758   2.118   6.404   3.053
 4953SOL    HW215759   1.970   6.461   3.091
 4954SOL     OW15760   3.590   3.249   0.372
 4954SOL    HW115761   3.490   3.247   0.369
 4954SOL    HW215762   3.623   3.342   0.357
 4955SOL     OW15763   3.086   6.758   6.820
 4955SOL    HW115764   3.010   6.751   6.755
 4955SOL    HW215765   3.050   6.758   6.913
 4956SOL     OW15766   2.142   0.257   4.989
 4956SOL    HW115767   2.151   0.164   5.025
 4956SOL    HW215768   2.210   0.316   5.032
 4957SOL     OW15769   5.502   2.257   1.870
 4957SOL    HW115770   5.416   2.239   1.919
 4957SOL    HW215771   5.561   2.177   1.877
 4958SOL     OW15772   0.308   4.984   5.693
 4958SOL    HW115773   0.209   4.978   5.679
 4958SOL    HW215774   0.353   4.910   5.643
 4959SOL     OW15775   6.211   1.945   0.065
 4959SOL    HW115776   6.111   1.951   0.062
 4959SOL    HW215777   6.244   1.980   0.152
 4960SOL     OW15778   3.451   4.965   3.439
 4960SOL    HW115779   3.398   4.941   3.520
 4960SOL    HW215780   3.389   4.977   3.361
 4961SOL     OW15781   4.378   1.215   5.761
 4961SOL    HW115782   4.345   1.123   5.741
 4961SOL    HW215783   4.422   1.215   5.851
 4962SOL     OW15784   5.847   2.452   0.364
 4962SOL    HW115785   5.880   2.441   0.458
 4962SOL    HW215786   5.876   2.374   0.309
 4963SOL     OW15787   6.339   5.816   0.644
 4963SOL    HW115788   6.335   5.907   0.685
 4963SOL    HW215789   6.378   5.752   0.711
 4964SOL     OW15790   2.872   0.535   3.646
 4964SOL    HW115791   2.860   0.436   3.636
 4964SOL    HW215792   2.969   0.558   3.634
 4965SOL     OW15793   0.546   1.181   2.385
 4965SOL    HW115794   0.613   1.186   2.311
 4965SOL    HW215795   0.575   1.112   2.452
 4966SOL     OW15796   1.976   6.593   5.395
 4966SOL    HW115797   2.048   6.527   5.375
 4966SOL    HW215798   2.017   6.683   5.411
 4967SOL     OW15799   4.104   5.398   5.245
 4967SOL    HW115800   4.054   5.484   5.232
 4967SOL    HW215801   4.062   5.326   5.189
 4968SOL     OW15802   6.447   1.806   3.845
 4968SOL    HW115803   6.540   1.777   3.868
 4968SOL    HW215804   6.423   1.768   3.755
 4969SOL     OW15805   2.859   6.229   2.974
 4969SOL    HW115806   2.899   6.241   2.883
 4969SOL    HW215807   2.885   6.306   3.032
 4970SOL     OW15808   2.361   2.709   2.745
 4970SOL    HW115809   2.346   2.808   2.746
 4970SOL    HW215810   2.365   2.675   2.839
 4971SOL     OW15811   6.114   5.431   3.499
 4971SOL    HW115812   6.072   5.497   3.437
 4971SOL    HW215813   6.053   5.415   3.576
 4972SOL     OW15814   1.313   3.858   0.822
 4972SOL    HW115815   1.339   3.945   0.780
 4972SOL    HW215816   1.220   3.834   0.794
 4973SOL     OW15817   1.836   6.360   2.398
 4973SOL    HW115818   1.837   6.440   2.338
 4973SOL    HW215819   1.914   6.301   2.377
 4974SOL     OW15820   6.363   4.438   1.160
 4974SOL    HW115821   6.282   4.390   1.194
 4974SOL    HW215822   6.349   4.537   1.166
 4975SOL     OW15823   5.754   3.838   5.607
 4975SOL    HW115824   5.748   3.873   5.513
 4975SOL    HW215825   5.837   3.783   5.617
 4976SOL     OW15826   1.591   1.099   3.716
 4976SOL    HW115827   1.625   1.174   3.773
 4976SOL    HW215828   1.496   1.119   3.689
 4977SOL     OW15829   4.035   4.980   0.275
 4977SOL    HW115830   4.023   5.019   0.367
 4977SOL    HW215831   4.061   5.053   0.211
 4978SOL     OW15832   6.734   4.126   4.894
 4978SOL    HW115833   6.673   4.128   4.815
 4978SOL    HW215834   6.716   4.044   4.948
 4979SOL     OW15835   0.269   0.210   6.764
 4979SOL    HW115836   0.314   0.127   6.797
 4979SOL    HW215837   0.239   0.195   6.669
 4980SOL     OW15838   5.263   6.126   3.293
 4980SOL    HW115839   5.232   6.201   3.235
 4980SOL    HW215840   5.291   6.049   3.235
 4981SOL     OW15841   4.585   5.947   0.227
 4981SOL    HW115842   4.679   5.954   0.194
 4981SOL    HW215843   4.527   6.012   0.177
 4982SOL     OW15844   2.873   1.092   6.000
 4982SOL    HW115845   2.798   1.025   6.006
 4982SOL    HW215846   2.933   1.067   5.924
 4983SOL     OW15847   5.892   3.401   4.700
 4983SOL    HW115848   5.830   3.322   4.699
 4983SOL    HW215849   5.870   3.460   4.622
 4984SOL     OW15850   5.713   3.947   3.353
 4984SOL    HW115851   5.677   4.040   3.346
 4984SOL    HW215852   5.650   3.882   3.311
 4985SOL     OW15853   6.464   6.770   3.275
 4985SOL    HW115854   6.526   6.758   3.198
 4985SOL    HW215855   6.480   6.698   3.343
 4986SOL     OW15856   6.529   4.270   1.837
 4986SOL    HW115857   6.498   4.357   1.875
 4986SOL    HW215858   6.481   4.195   1.882
 4987SOL     OW15859   1.325   0.678   2.070
 4987SOL    HW115860   1.414   0.712   2.099
 4987SOL    HW215861   1.298   0.723   1.985
 4988SOL     OW15862   5.546   1.031   2.652
 4988SOL    HW115863   5.501   1.063   2.569
 4988SOL    HW215864   5.482   0.974   2.704
 4989SOL     OW15865   5.046   0.147   1.272
 4989SOL    HW115866   5.023   0.244   1.273
 4989SOL    HW215867   5.145   0.136   1.287
 4990SOL     OW15868   2.339   1.996   5.914
 4990SOL    HW115869   2.369   1.919   5.970
 4990SOL    HW215870   2.393   1.999   5.829
 4991SOL     OW15871   6.123   5.163   4.249
 4991SOL    HW115872   6.216   5.175   4.216
 4991SOL    HW215873   6.108   5.218   4.331
 4992SOL     OW15874   5.454   0.873   3.501
 4992SOL    HW115875   5.361   0.843   3.524
 4992SOL    HW215876   5.520   0.811   3.543
 4993SOL     OW15877   2.382   6.010   3.986
 4993SOL    HW115878   2.467   5.962   4.006
 4993SOL    HW215879   2.305   5.960   4.027
 4994SOL     OW15880   2.113   0.320   3.384
 4994SOL    HW115881   2.210   0.341   3.378
 4994SOL    HW215882   2.060   0.404   3.380
 4995SOL     OW15883   0.187   2.168   5.909
 4995SOL    HW115884   0.177   2.187   5.812
 4995SOL    HW215885   0.100   2.134   5.945
 4996SOL     OW15886   0.913   1.236   2.938
 4996SOL    HW115887   0.977   1.298   2.983
 4996SOL    HW215888   0.861   1.286   2.869
 4997SOL     OW15889   5.571   2.855   2.726
 4997SOL    HW115890   5.528   2.789   2.786
 4997SOL    HW215891   5.526   2.944   2.735
 4998SOL     OW15892   2.129   4.303   5.065
 4998SOL    HW115893   2.179   4.231   5.113
 4998SOL    HW215894   2.040   4.267   5.035
 4999SOL     OW15895   6.592   3.598   0.281
 4999SOL    HW115896   6.680   3.554   0.264
 4999SOL    HW215897   6.518   3.536   0.254
 5000SOL     OW15898   2.837   6.789   3.311
 5000SOL    HW115899   2.903   6.717   3.290
 5000SOL    HW215900   2.748   6.748   3.330
 5001SOL     OW15901   0.680   3.921   0.804
 5001SOL    HW115902   0.626   3.948   0.724
 5001SOL    HW215903   0.666   3.824   0.823
 5002SOL     OW15904   0.762   3.387   3.536
 5002SOL    HW115905   0.695   3.424   3.472
 5002SOL    HW215906   0.854   3.415   3.508
 5003SOL     OW15907   2.857   6.042   2.684
 5003SOL    HW115908   2.913   6.116   2.721
 5003SOL    HW215909   2.760   6.069   2.685
 5004SOL     OW15910   3.539   5.021   6.217
 5004SOL    HW115911   3.457   5.077   6.209
 5004SOL    HW215912   3.514   4.930   6.251
 5005SOL     OW15913   2.976   2.489   0.742
 5005SOL    HW115914   3.038   2.497   0.664
 5005SOL    HW215915   2.900   2.430   0.719
 5006SOL     OW15916   5.321   0.739   0.607
 5006SOL    HW115917   5.348   0.825   0.650
 5006SOL    HW215918   5.279   0.759   0.518
 5007SOL     OW15919   1.241   6.990   0.480
 5007SOL    HW115920   1.178   0.044   0.497
 5007SOL    HW215921   1.319   0.001   0.426
 5008SOL     OW15922   6.590   6.435   2.600
 5008SOL    HW115923   6.552   6.391   2.681
 5008SOL    HW215924   6.683   6.400   2.584
 5009SOL     OW15925   0.804   6.804   1.028
 5009SOL    HW115926   0.732   6.770   1.088
 5009SOL    HW215927   0.844   6.886   1.067
 5010SOL     OW15928   3.790   3.504   2.717
 5010SOL    HW115929   3.807   3.484   2.620
 5010SOL    HW215930   3.774   3.418   2.766
 5011SOL     OW15931   1.916   3.806   2.478
 5011SOL    HW115932   1.886   3.741   2.408
 5011SOL    HW215933   1.923   3.897   2.438
 5012SOL     OW15934   5.788   4.078   6.073
 5012SOL    HW115935   5.880   4.055   6.103
 5012SOL    HW215936   5.791   4.115   5.980
 5013SOL     OW15937   5.083   1.599   6.508
 5013SOL    HW115938   4.994   1.587   6.463
 5013SOL    HW215939   5.121   1.510   6.532
 5014SOL     OW15940   5.488   4.390   0.355
 5014SOL    HW115941   5.552   4.316   0.336
 5014SOL    HW215942   5.445   4.375   0.444
 5015SOL     OW15943   4.591   1.770   4.118
 5015SOL    HW115944   4.602   1.670   4.120
 5015SOL    HW215945   4.495   1.792   4.104
 5016SOL     OW15946   2.028   2.029   0.597
 5016SOL    HW115947   1.970   2.034   0.515
 5016SOL    HW215948   2.090   2.108   0.598
 5017SOL     OW15949   2.022   2.216   6.891
 5017SOL    HW115950   2.043   2.143   6.957
 5017SOL    HW215951   1.996   2.299   6.940
 5018SOL     OW15952   0.015   4.118   1.941
 5018SOL    HW115953   0.067   4.198   1.972
 5018SOL    HW215954   0.050   4.036   1.987
 5019SOL     OW15955   1.326   4.821   6.382
 5019SOL    HW115956   1.410   4.769   6.399
 5019SOL    HW215957   1.349   4.908   6.337
 5020SOL     OW15958   5.112   0.417   6.568
 5020SOL    HW115959   5.188   0.354   6.582
 5020SOL    HW215960   5.134   0.481   6.495
 5021SOL     OW15961   1.189   1.624   5.911
 5021SOL    HW115962   1.209   1.615   6.008
 5021SOL    HW215963   1.264   1.673   5.866
 5022SOL     OW15964   1.278   1.615   0.121
 5022SOL    HW115965   1.309   1.700   0.163
 5022SOL    HW215966   1.181   1.622   0.099
 5023SOL     OW15967   6.453   2.901   1.564
 5023SOL    HW115968   6.456   2.993   1.603
 5023SOL    HW215969   6.381   2.897   1.494
 5024SOL     OW15970   5.362   5.754   1.882
 5024SOL    HW115971   5.294   5.759   1.956
 5024SOL    HW215972   5.449   5.723   1.920
 5025SOL     OW15973   3.237   1.895   1.822
 5025SOL    HW115974   3.333   1.867   1.814
 5025SOL    HW215975   3.229   1.994   1.811
 5026SOL     OW15976   6.286   6.014   5.918
 5026SOL    HW115977   6.362   5.973   5.869
 5026SOL    HW215978   6.252   5.951   5.987
 5027SOL     OW15979   0.561   5.886   2.319
 5027SOL    HW115980   0.591   5.981   2.305
 5027SOL    HW215981   0.493   5.862   2.249
 5028SOL     OW15982   0.543   1.168   3.018
 5028SOL    HW115983   0.625   1.112   3.016
 5028SOL    HW215984   0.559   1.249   3.074
 5029SOL     OW15985   6.858   2.518   2.958
 5029SOL    HW115986   6.937   2.484   2.907
 5029SOL    HW215987   6.819   2.445   3.013
 5030SOL     OW15988   0.224   6.568   7.016
 5030SOL    HW115989   0.127   6.590   7.010
 5030SOL    HW215990   0.239   6.474   6.985
 5031SOL     OW15991   5.907   0.123   5.184
 5031SOL    HW115992   5.881   0.167   5.270
 5031SOL    HW215993   5.982   0.059   5.200
 5032SOL     OW15994   1.518   3.268   1.251
 5032SOL    HW115995   1.534   3.366   1.264
 5032SOL    HW215996   1.421   3.248   1.264
 5033SOL     OW15997   2.838   6.097   5.599
 5033SOL    HW115998   2.857   6.044   5.681
 5033SOL    HW215999   2.911   6.163   5.584
 5034SOL     OW16000   4.864   1.078   2.876
 5034SOL    HW116001   4.940   1.096   2.813
 5034SOL    HW216002   4.837   1.163   2.921
 5035SOL     OW16003   0.557   4.433   0.131
 5035SOL    HW116004   0.534   4.386   0.216
 5035SOL    HW216005   0.650   4.411   0.104
 5036SOL     OW16006   0.139   4.923   0.353
 5036SOL    HW116007   0.205   4.995   0.336
 5036SOL    HW216008   0.049   4.963   0.372
 5037SOL     OW16009   5.398   2.704   3.248
 5037SOL    HW116010   5.347   2.647   3.312
 5037SOL    HW216011   5.489   2.665   3.234
 5038SOL     OW16012   2.249   3.955   6.370
 5038SOL    HW116013   2.204   3.886   6.313
 5038SOL    HW216014   2.301   4.018   6.312
 5039SOL     OW16015   3.027   4.294   5.273
 5039SOL    HW116016   2.981   4.381   5.257
 5039SOL    HW216017   2.981   4.221   5.222
 5040SOL     OW16018   2.135   5.285   6.151
 5040SOL    HW116019   2.074   5.215   6.190
 5040SOL    HW216020   2.230   5.253   6.157
 5041SOL     OW16021   2.031   1.599   1.878
 5041SOL    HW116022   2.020   1.531   1.951
 5041SOL    HW216023   2.126   1.598   1.846
 5042SOL     OW16024   6.336   3.068   0.853
 5042SOL    HW116025   6.261   3.130   0.831
 5042SOL    HW216026   6.339   2.994   0.785
 5043SOL     OW16027   3.601   0.619   6.008
 5043SOL    HW116028   3.625   0.580   6.097
 5043SOL    HW216029   3.556   0.708   6.021
 5044SOL     OW16030   0.360   6.346   0.894
 5044SOL    HW116031   0.369   6.264   0.949
 5044SOL    HW216032   0.445   6.399   0.897
 5045SOL     OW16033   5.620   2.036   6.813
 5045SOL    HW116034   5.542   1.981   6.842
 5045SOL    HW216035   5.618   2.124   6.860
 5046SOL     OW16036   3.650   4.134   3.568
 5046SOL    HW116037   3.576   4.163   3.629
 5046SOL    HW216038   3.730   4.110   3.623
 5047SOL     OW16039   6.785   3.295   2.816
 5047SOL    HW116040   6.746   3.205   2.799
 5047SOL    HW216041   6.819   3.300   2.909
 5048SOL     OW16042   0.620   0.894   2.095
 5048SOL    HW116043   0.609   0.903   1.996
 5048SOL    HW216044   0.714   0.915   2.121
 5049SOL     OW16045   6.552   1.684   5.371
 5049SOL    HW116046   6.579   1.649   5.460
 5049SOL    HW216047   6.455   1.667   5.356
 5050SOL     OW16048   1.691   0.560   1.578
 5050SOL    HW116049   1.784   0.530   1.599
 5050SOL    HW216050   1.644   0.490   1.524
 5051SOL     OW16051   4.936   4.580   1.021
 5051SOL    HW116052   4.982   4.528   1.093
 5051SOL    HW216053   4.855   4.529   0.990
 5052SOL     OW16054   2.293   6.564   6.148
 5052SOL    HW116055   2.268   6.605   6.236
 5052SOL    HW216056   2.221   6.502   6.119
 5053SOL     OW16057   2.246   3.971   3.102
 5053SOL    HW116058   2.211   3.890   3.150
 5053SOL    HW216059   2.274   4.040   3.169
 5054SOL     OW16060   3.336   6.407   4.715
 5054SOL    HW116061   3.408   6.338   4.703
 5054SOL    HW216062   3.344   6.448   4.805
 5055SOL     OW16063   1.918   0.461   5.588
 5055SOL    HW116064   1.995   0.463   5.525
 5055SOL    HW216065   1.839   0.418   5.544
 5056SOL     OW16066   6.612   4.284   0.745
 5056SOL    HW116067   6.588   4.191   0.717
 5056SOL    HW216068   6.688   4.317   0.690
 5057SOL     OW16069   6.399   6.082   5.533
 5057SOL    HW116070   6.392   6.153   5.602
 5057SOL    HW216071   6.310   6.037   5.522
 5058SOL     OW16072   2.611   3.179   5.382
 5058SOL    HW116073   2.576   3.116   5.314
 5058SOL    HW216074   2.534   3.221   5.431
 5059SOL     OW16075   5.607   2.504   3.227
 5059SOL    HW116076   5.684   2.516   3.165
 5059SOL    HW216077   5.628   2.432   3.294
 5060SOL     OW16078   0.420   1.881   5.754
 5060SOL    HW116079   0.440   1.978   5.766
 5060SOL    HW216080   0.323   1.869   5.731
 5061SOL     OW16081   3.789   3.472   3.105
 5061SOL    HW116082   3.884   3.454   3.081
 5061SOL    HW216083   3.784   3.554   3.162
 5062SOL     OW16084   5.323   0.519   3.196
 5062SOL    HW116085   5.408   0.549   3.240
 5062SOL    HW216086   5.245   0.541   3.255
 5063SOL     OW16087   1.329   0.142   2.283
 5063SOL    HW116088   1.401   0.212   2.280
 5063SOL    HW216089   1.245   0.179   2.243
 5064SOL     OW16090   4.492   3.838   1.711
 5064SOL    HW116091   4.443   3.925   1.709
 5064SOL    HW216092   4.588   3.854   1.735
 5065SOL     OW16093   1.307   1.953   4.157
 5065SOL    HW116094   1.348   1.908   4.077
 5065SOL    HW216095   1.374   2.015   4.198
 5066SOL     OW16096   3.943   4.778   1.075
 5066SOL    HW116097   3.928   4.693   1.125
 5066SOL    HW216098   3.856   4.811   1.039
 5067SOL     OW16099   3.084   1.079   2.518
 5067SOL    HW116100   3.122   0.987   2.519
 5067SOL    HW216101   3.155   1.144   2.489
 5068SOL     OW16102   3.251   4.831   6.618
 5068SOL    HW116103   3.262   4.929   6.602
 5068SOL    HW216104   3.269   4.811   6.714
 5069SOL     OW16105   2.220   3.131   5.875
 5069SOL    HW116106   2.251   3.043   5.838
 5069SOL    HW216107   2.232   3.131   5.974
 5070SOL     OW16108   4.731   4.270   4.092
 5070SOL    HW116109   4.720   4.201   4.163
 5070SOL    HW216110   4.642   4.309   4.069
 5071SOL     OW16111   3.873   1.070   3.127
 5071SOL    HW116112   3.813   1.096   3.203
 5071SOL    HW216113   3.968   1.093   3.150
 5072SOL     OW16114   1.109   0.915   1.699
 5072SOL    HW116115   1.116   0.983   1.626
 5072SOL    HW216116   1.193   0.916   1.753
 5073SOL     OW16117   1.360   4.722   1.632
 5073SOL    HW116118   1.392   4.735   1.538
 5073SOL    HW216119   1.439   4.727   1.694
 5074SOL     OW16120   3.226   2.146   1.324
 5074SOL    HW116121   3.135   2.148   1.366
 5074SOL    HW216122   3.295   2.169   1.392
 5075SOL     OW16123   1.196   2.374   6.406
 5075SOL    HW116124   1.198   2.323   6.492
 5075SOL    HW216125   1.215   2.311   6.331
 5076SOL     OW16126   4.905   0.448   0.718
 5076SOL    HW116127   4.981   0.512   0.724
 5076SOL    HW216128   4.934   0.366   0.669
 5077SOL     OW16129   2.080   4.235   5.641
 5077SOL    HW116130   2.071   4.299   5.564
 5077SOL    HW216131   2.037   4.148   5.616
 5078SOL     OW16132   0.338   0.964   3.826
 5078SOL    HW116133   0.251   0.991   3.786
 5078SOL    HW216134   0.395   0.919   3.756
 5079SOL     OW16135   2.062   3.418   4.957
 5079SOL    HW116136   2.088   3.362   5.036
 5079SOL    HW216137   2.012   3.361   4.891
 5080SOL     OW16138   5.848   6.563   6.153
 5080SOL    HW116139   5.796   6.512   6.084
 5080SOL    HW216140   5.874   6.502   6.227
 5081SOL     OW16141   3.657   3.544   5.175
 5081SOL    HW116142   3.737   3.513   5.225
 5081SOL    HW216143   3.633   3.476   5.106
 5082SOL     OW16144   5.121   5.539   1.560
 5082SOL    HW116145   5.117   5.520   1.658
 5082SOL    HW216146   5.103   5.636   1.545
 5083SOL     OW16147   2.544   0.180   2.865
 5083SOL    HW116148   2.612   0.253   2.857
 5083SOL    HW216149   2.463   0.213   2.913
 5084SOL     OW16150   0.405   4.082   4.232
 5084SOL    HW116151   0.339   4.073   4.306
 5084SOL    HW216152   0.490   4.036   4.257
 5085SOL     OW16153   6.467   2.612   6.291
 5085SOL    HW116154   6.409   2.534   6.312
 5085SOL    HW216155   6.410   2.688   6.259
 5086SOL     OW16156   1.190   5.273   2.938
 5086SOL    HW116157   1.120   5.229   2.995
 5086SOL    HW216158   1.270   5.296   2.994
 5087SOL     OW16159   1.542   5.650   3.305
 5087SOL    HW116160   1.481   5.716   3.261
 5087SOL    HW216161   1.514   5.557   3.281
 5088SOL     OW16162   5.829   0.091   4.138
 5088SOL    HW116163   5.785   0.103   4.048
 5088SOL    HW216164   5.868   7.020   4.144
 5089SOL     OW16165   5.709   3.573   4.011
 5089SOL    HW116166   5.782   3.609   4.069
 5089SOL    HW216167   5.639   3.531   4.068
 5090SOL     OW16168   2.168   3.763   2.560
 5090SOL    HW116169   2.229   3.754   2.482
 5090SOL    HW216170   2.075   3.781   2.528
 5091SOL     OW16171   6.954   1.244   1.199
 5091SOL    HW116172   7.017   1.302   1.250
 5091SOL    HW216173   6.983   1.148   1.207
 5092SOL     OW16174   3.435   3.842   3.313
 5092SOL    HW116175   3.455   3.757   3.361
 5092SOL    HW216176   3.389   3.821   3.226
 5093SOL     OW16177   2.968   0.735   0.553
 5093SOL    HW116178   3.052   0.785   0.575
 5093SOL    HW216179   2.900   0.799   0.516
 5094SOL     OW16180   2.278   5.849   5.825
 5094SOL    HW116181   2.341   5.926   5.811
 5094SOL    HW216182   2.329   5.770   5.857
 5095SOL     OW16183   6.130   2.107   3.702
 5095SOL    HW116184   6.165   2.047   3.774
 5095SOL    HW216185   6.186   2.190   3.697
 5096SOL     OW16186   3.982   5.079   6.777
 5096SOL    HW116187   3.944   4.987   6.788
 5096SOL    HW216188   3.909   5.143   6.754
 5097SOL     OW16189   1.149   0.289   6.534
 5097SOL    HW116190   1.202   0.252   6.610
 5097SOL    HW216191   1.208   0.346   6.477
 5098SOL     OW16192   2.884   0.284   1.851
 5098SOL    HW116193   2.884   0.199   1.904
 5098SOL    HW216194   2.963   0.340   1.876
 5099SOL     OW16195   0.730   0.184   0.900
 5099SOL    HW116196   0.648   0.128   0.913
 5099SOL    HW216197   0.781   0.190   0.985
 5100SOL     OW16198   3.325   5.538   4.643
 5100SOL    HW116199   3.319   5.622   4.588
 5100SOL    HW216200   3.279   5.464   4.595
 5101SOL     OW16201   4.833   0.534   7.006
 5101SOL    HW116202   4.873   0.536   6.914
 5101SOL    HW216203   4.906   0.535   0.053
 5102SOL     OW16204   5.413   6.971   4.197
 5102SOL    HW116205   5.446   6.926   4.114
 5102SOL    HW216206   5.458   0.039   4.207
 5103SOL     OW16207   0.486   0.175   4.014
 5103SOL    HW116208   0.502   0.081   4.043
 5103SOL    HW216209   0.461   0.176   3.917
 5104SOL     OW16210   1.879   6.128   2.147
 5104SOL    HW116211   1.936   6.057   2.104
 5104SOL    HW216212   1.935   6.181   2.210
 5105SOL     OW16213   2.534   2.478   0.682
 5105SOL    HW116214   2.531   2.441   0.776
 5105SOL    HW216215   2.443   2.474   0.642
 5106SOL     OW16216   4.112   2.356   0.228
 5106SOL    HW116217   4.082   2.451   0.238
 5106SOL    HW216218   4.150   2.324   0.314
 5107SOL     OW16219   3.731   1.618   1.120
 5107SOL    HW116220   3.775   1.636   1.032
 5107SOL    HW216221   3.639   1.656   1.120
 5108SOL     OW16222   3.926   4.115   5.188
 5108SOL    HW116223   3.838   4.119   5.237
 5108SOL    HW216224   3.988   4.183   5.226
 5109SOL     OW16225   0.925   1.828   0.113
 5109SOL    HW116226   0.917   1.832   0.213
 5109SOL    HW216227   0.878   1.905   0.072
 5110SOL     OW16228   0.894   0.753   5.455
 5110SOL    HW116229   0.870   0.847   5.479
 5110SOL    HW216230   0.826   0.690   5.495
 5111SOL     OW16231   1.329   0.466   4.855
 5111SOL    HW116232   1.316   0.446   4.758
 5111SOL    HW216233   1.241   0.466   4.901
 5112SOL     OW16234   1.518   1.137   3.445
 5112SOL    HW116235   1.580   1.117   3.521
 5112SOL    HW216236   1.543   1.225   3.404
 5113SOL     OW16237   1.882   0.078   0.958
 5113SOL    HW116238   1.940   0.029   1.023
 5113SOL    HW216239   1.903   0.175   0.962
 5114SOL     OW16240   3.445   1.190   6.482
 5114SOL    HW116241   3.471   1.146   6.568
 5114SOL    HW216242   3.517   1.252   6.453
 5115SOL     OW16243   1.829   5.137   4.161
 5115SOL    HW116244   1.763   5.064   4.144
 5115SOL    HW216245   1.916   5.098   4.190
 5116SOL     OW16246   0.483   0.388   5.907
 5116SOL    HW116247   0.509   0.375   5.811
 5116SOL    HW216248   0.560   0.427   5.957
 5117SOL     OW16249   2.309   4.309   4.829
 5117SOL    HW116250   2.372   4.232   4.841
 5117SOL    HW216251   2.227   4.294   4.885
 5118SOL     OW16252   5.063   0.260   0.108
 5118SOL    HW116253   5.043   0.165   0.084
 5118SOL    HW216254   5.069   0.315   0.025
 5119SOL     OW16255   5.258   0.899   2.065
 5119SOL    HW116256   5.197   0.842   2.119
 5119SOL    HW216257   5.205   0.956   2.002
 5120SOL     OW16258   3.990   0.391   4.192
 5120SOL    HW116259   3.952   0.321   4.131
 5120SOL    HW216260   4.035   0.346   4.269
 5121SOL     OW16261   2.650   2.372   6.460
 5121SOL    HW116262   2.669   2.341   6.367
 5121SOL    HW216263   2.599   2.458   6.456
 5122SOL     OW16264   3.203   6.720   3.582
 5122SOL    HW116265   3.233   6.742   3.490
 5122SOL    HW216266   3.267   6.655   3.623
 5123SOL     OW16267   4.047   2.254   4.555
 5123SOL    HW116268   4.122   2.297   4.504
 5123SOL    HW216269   3.968   2.244   4.495
 5124SOL     OW16270   2.319   5.470   4.608
 5124SOL    HW116271   2.312   5.557   4.657
 5124SOL    HW216272   2.328   5.396   4.674
 5125SOL     OW16273   5.902   3.724   4.161
 5125SOL    HW116274   5.992   3.687   4.186
 5125SOL    HW216275   5.914   3.792   4.089
 5126SOL     OW16276   6.123   5.004   5.312
 5126SOL    HW116277   6.059   5.021   5.388
 5126SOL    HW216278   6.196   4.944   5.343
 5127SOL     OW16279   1.449   4.443   6.695
 5127SOL    HW116280   1.452   4.370   6.627
 5127SOL    HW216281   1.382   4.421   6.765
 5128SOL     OW16282   7.006   0.567   6.658
 5128SOL    HW116283   6.967   0.518   6.580
 5128SOL    HW216284   0.066   0.619   6.628
 5129SOL     OW16285   5.695   6.844   2.522
 5129SOL    HW116286   5.735   6.918   2.468
 5129SOL    HW216287   5.768   6.794   2.568
 5130SOL     OW16288   0.425   5.793   3.573
 5130SOL    HW116289   0.489   5.791   3.496
 5130SOL    HW216290   0.332   5.779   3.539
 5131SOL     OW16291   2.582   4.867   3.779
 5131SOL    HW116292   2.603   4.892   3.874
 5131SOL    HW216293   2.617   4.938   3.718
 5132SOL     OW16294   3.142   2.669   6.277
 5132SOL    HW116295   3.066   2.722   6.241
 5132SOL    HW216296   3.222   2.678   6.217
 5133SOL     OW16297   1.801   5.529   6.952
 5133SOL    HW116298   1.711   5.570   6.964
 5133SOL    HW216299   1.792   5.430   6.941
 5134SOL     OW16300   6.791   2.639   2.103
 5134SOL    HW116301   6.832   2.713   2.156
 5134SOL    HW216302   6.732   2.677   2.032
 5135SOL     OW16303   5.790   3.247   4.407
 5135SOL    HW116304   5.800   3.346   4.418
 5135SOL    HW216305   5.723   3.229   4.335
 5136SOL     OW16306   4.979   0.541   6.768
 5136SOL    HW116307   5.023   0.622   6.807
 5136SOL    HW216308   5.037   0.502   6.697
 5137SOL     OW16309   5.337   3.692   5.785
 5137SOL    HW116310   5.252   3.742   5.806
 5137SOL    HW216311   5.407   3.758   5.757
 5138SOL     OW16312   4.087   3.005   5.569
 5138SOL    HW116313   4.022   2.943   5.611
 5138SOL    HW216314   4.048   3.043   5.485
 5139SOL     OW16315   1.028   1.269   3.405
 5139SOL    HW116316   1.126   1.249   3.401
 5139SOL    HW216317   1.010   1.358   3.364
 5140SOL     OW16318   3.905   2.712   6.157
 5140SOL    HW116319   3.842   2.788   6.140
 5140SOL    HW216320   3.990   2.726   6.107
 5141SOL     OW16321   6.295   3.850   0.925
 5141SOL    HW116322   6.286   3.837   0.826
 5141SOL    HW216323   6.344   3.936   0.942
 5142SOL     OW16324   6.220   6.528   2.569
 5142SOL    HW116325   6.286   6.595   2.534
 5142SOL    HW216326   6.162   6.496   2.494
 5143SOL     OW16327   6.474   4.459   4.380
 5143SOL    HW116328   6.506   4.495   4.292
 5143SOL    HW216329   6.375   4.472   4.387
 5144SOL     OW16330   1.007   4.403   5.946
 5144SOL    HW116331   0.982   4.404   5.849
 5144SOL    HW216332   0.990   4.493   5.986
 5145SOL     OW16333   3.458   5.878   5.403
 5145SOL    HW116334   3.451   5.816   5.482
 5145SOL    HW216335   3.379   5.864   5.343
 5146SOL     OW16336   3.219   4.166   5.589
 5146SOL    HW116337   3.149   4.237   5.601
 5146SOL    HW216338   3.191   4.105   5.515
 5147SOL     OW16339   6.590   5.258   2.916
 5147SOL    HW116340   6.687   5.279   2.924
 5147SOL    HW216341   6.548   5.262   3.007
 5148SOL     OW16342   6.559   6.984   1.599
 5148SOL    HW116343   6.503   7.008   1.519
 5148SOL    HW216344   6.504   6.930   1.662
 5149SOL     OW16345   6.542   5.868   3.100
 5149SOL    HW116346   6.510   5.828   3.014
 5149SOL    HW216347   6.507   5.961   3.109
 5150SOL     OW16348   2.093   5.674   3.292
 5150SOL    HW116349   2.161   5.677   3.365
 5150SOL    HW216350   2.077   5.766   3.258
 5151SOL     OW16351   6.820   3.408   1.898
 5151SOL    HW116352   6.743   3.345   1.889
 5151SOL    HW216353   6.880   3.400   1.818
 5152SOL     OW16354   1.785   4.795   0.024
 5152SOL    HW116355   1.698   4.844   0.029
 5152SOL    HW216356   1.794   4.753   6.954
 5153SOL     OW16357   1.366   1.283   6.995
 5153SOL    HW116358   1.421   1.215   0.022
 5153SOL    HW216359   1.398   1.291   6.901
 5154SOL     OW16360   0.934   2.422   6.239
 5154SOL    HW116361   1.022   2.375   6.242
 5154SOL    HW216362   0.922   2.464   6.149
 5155SOL     OW16363   4.168   0.643   2.293
 5155SOL    HW116364   4.260   0.654   2.254
 5155SOL    HW216365   4.113   0.585   2.233
 5156SOL     OW16366   5.519   4.098   6.483
 5156SOL    HW116367   5.471   4.071   6.399
 5156SOL    HW216368   5.515   4.198   6.493
 5157SOL     OW16369   3.787   2.082   3.070
 5157SOL    HW116370   3.852   2.031   3.126
 5157SOL    HW216371   3.834   2.160   3.027
 5158SOL     OW16372   3.396   1.407   1.561
 5158SOL    HW116373   3.307   1.408   1.515
 5158SOL    HW216374   3.466   1.372   1.498
 5159SOL     OW16375   5.771   3.868   5.338
 5159SOL    HW116376   5.676   3.864   5.308
 5159SOL    HW216377   5.825   3.801   5.288
 5160SOL     OW16378   0.323   4.880   3.225
 5160SOL    HW116379   0.400   4.834   3.268
 5160SOL    HW216380   0.239   4.829   3.242
 5161SOL     OW16381   1.961   3.533   5.874
 5161SOL    HW116382   2.051   3.567   5.846
 5161SOL    HW216383   1.969   3.439   5.908
 5162SOL     OW16384   0.682   4.711   2.598
 5162SOL    HW116385   0.599   4.678   2.553
 5162SOL    HW216386   0.705   4.801   2.562
 5163SOL     OW16387   3.004   6.132   6.924
 5163SOL    HW116388   2.929   6.197   6.936
 5163SOL    HW216389   3.079   6.175   6.875
 5164SOL     OW16390   4.366   2.359   6.515
 5164SOL    HW116391   4.459   2.394   6.525
 5164SOL    HW216392   4.316   2.415   6.450
 5165SOL     OW16393   6.677   4.148   5.680
 5165SOL    HW116394   6.767   4.191   5.677
 5165SOL    HW216395   6.686   4.051   5.656
 5166SOL     OW16396   0.591   5.384   1.917
 5166SOL    HW116397   0.503   5.347   1.888
 5166SOL    HW216398   0.635   5.320   1.980
 5167SOL     OW16399   6.776   6.034   6.053
 5167SOL    HW116400   6.838   6.096   6.101
 5167SOL    HW216401   6.723   6.086   5.986
 5168SOL     OW16402   4.889   3.481   1.990
 5168SOL    HW116403   4.920   3.528   1.907
 5168SOL    HW216404   4.873   3.385   1.970
 5169SOL     OW16405   4.007   2.063   4.254
 5169SOL    HW116406   4.071   1.993   4.286
 5169SOL    HW216407   3.922   2.056   4.305
 5170SOL     OW16408   0.458   4.525   5.233
 5170SOL    HW116409   0.412   4.481   5.156
 5170SOL    HW216410   0.413   4.499   5.318
 5171SOL     OW16411   0.756   5.169   5.367
 5171SOL    HW116412   0.673   5.152   5.314
 5171SOL    HW216413   0.742   5.137   5.461
 5172SOL     OW16414   1.187   2.558   2.293
 5172SOL    HW116415   1.165   2.656   2.296
 5172SOL    HW216416   1.282   2.546   2.264
 5173SOL     OW16417   5.079   5.185   5.354
 5173SOL    HW116418   5.042   5.263   5.304
 5173SOL    HW216419   5.173   5.169   5.326
 5174SOL     OW16420   2.025   4.945   3.194
 5174SOL    HW116421   2.044   4.891   3.276
 5174SOL    HW216422   1.991   5.035   3.221
 5175SOL     OW16423   2.913   3.695   6.689
 5175SOL    HW116424   2.955   3.783   6.709
 5175SOL    HW216425   2.842   3.706   6.620
 5176SOL     OW16426   4.910   3.445   6.775
 5176SOL    HW116427   4.836   3.511   6.793
 5176SOL    HW216428   4.968   3.439   6.856
 5177SOL     OW16429   5.580   0.368   0.548
 5177SOL    HW116430   5.562   0.414   0.634
 5177SOL    HW216431   5.634   0.428   0.489
 5178SOL     OW16432   1.336   3.636   1.988
 5178SOL    HW116433   1.337   3.735   2.006
 5178SOL    HW216434   1.297   3.620   1.898
 5179SOL     OW16435   4.061   5.064   3.708
 5179SOL    HW116436   3.995   4.989   3.720
 5179SOL    HW216437   4.083   5.073   3.611
 5180SOL     OW16438   2.236   2.048   0.960
 5180SOL    HW116439   2.154   2.094   0.926
 5180SOL    HW216440   2.219   2.012   1.052
 5181SOL     OW16441   5.773   1.368   2.773
 5181SOL    HW116442   5.681   1.344   2.805
 5181SOL    HW216443   5.825   1.405   2.850
 5182SOL     OW16444   3.982   4.303   1.609
 5182SOL    HW116445   4.030   4.220   1.638
 5182SOL    HW216446   3.923   4.282   1.531
 5183SOL     OW16447   3.707   1.767   2.464
 5183SOL    HW116448   3.716   1.680   2.416
 5183SOL    HW216449   3.611   1.781   2.490
 5184SOL     OW16450   0.089   1.470   4.796
 5184SOL    HW116451   0.007   1.502   4.748
 5184SOL    HW216452   0.090   1.509   4.888
 5185SOL     OW16453   5.953   0.879   2.568
 5185SOL    HW116454   5.909   0.964   2.597
 5185SOL    HW216455   6.037   0.866   2.620
 5186SOL     OW16456   6.589   2.442   0.956
 5186SOL    HW116457   6.661   2.437   1.025
 5186SOL    HW216458   6.500   2.443   1.001
 5187SOL     OW16459   0.996   6.617   4.068
 5187SOL    HW116460   0.985   6.557   4.147
 5187SOL    HW216461   1.047   6.698   4.095
 5188SOL     OW16462   0.566   5.648   1.101
 5188SOL    HW116463   0.623   5.572   1.131
 5188SOL    HW216464   0.487   5.613   1.051
 5189SOL     OW16465   3.696   4.892   0.968
 5189SOL    HW116466   3.708   4.991   0.973
 5189SOL    HW216467   3.609   4.866   1.009
 5190SOL     OW16468   0.647   1.865   4.528
 5190SOL    HW116469   0.608   1.956   4.537
 5190SOL    HW216470   0.577   1.802   4.495
 5191SOL     OW16471   4.098   0.120   1.899
 5191SOL    HW116472   4.130   0.151   1.809
 5191SOL    HW216473   4.133   0.182   1.969
 5192SOL     OW16474   2.602   5.783   2.080
 5192SOL    HW116475   2.629   5.878   2.093
 5192SOL    HW216476   2.641   5.749   1.994
 5193SOL     OW16477   4.879   4.431   4.673
 5193SOL    HW116478   4.806   4.498   4.659
 5193SOL    HW216479   4.893   4.418   4.771
 5194SOL     OW16480   4.576   1.958   0.313
 5194SOL    HW116481   4.636   1.893   0.359
 5194SOL    HW216482   4.516   1.908   0.250
 5195SOL     OW16483   6.837   6.539   4.139
 5195SOL    HW116484   6.887   6.496   4.214
 5195SOL    HW216485   6.878   6.512   4.051
 5196SOL     OW16486   3.697   5.572   0.825
 5196SOL    HW116487   3.678   5.521   0.740
 5196SOL    HW216488   3.748   5.654   0.803
 5197SOL     OW16489   1.990   5.187   5.614
 5197SOL    HW116490   2.058   5.178   5.542
 5197SOL    HW216491   1.980   5.283   5.639
 5198SOL     OW16492   4.774   6.832   3.422
 5198SOL    HW116493   4.731   6.921   3.407
 5198SOL    HW216494   4.754   6.772   3.344
 5199SOL     OW16495   1.923   6.019   0.662
 5199SOL    HW116496   1.823   6.023   0.673
 5199SOL    HW216497   1.945   6.025   0.564
 5200SOL     OW16498   0.922   2.636   5.382
 5200SOL    HW116499   0.971   2.700   5.322
 5200SOL    HW216500   0.975   2.552   5.392
 5201SOL     OW16501   0.338   6.810   3.426
 5201SOL    HW116502   0.420   6.852   3.388
 5201SOL    HW216503   0.333   6.831   3.524
 5202SOL     OW16504   6.347   3.961   5.748
 5202SOL    HW116505   6.428   4.017   5.765
 5202SOL    HW216506   6.368   3.893   5.678
 5203SOL     OW16507   2.091   1.492   6.671
 5203SOL    HW116508   2.146   1.575   6.664
 5203SOL    HW216509   2.122   1.425   6.604
 5204SOL     OW16510   4.137   5.966   6.634
 5204SOL    HW116511   4.116   5.918   6.720
 5204SOL    HW216512   4.069   5.941   6.565
 5205SOL     OW16513   0.816   5.727   1.008
 5205SOL    HW116514   0.856   5.811   1.046
 5205SOL    HW216515   0.723   5.716   1.044
 5206SOL     OW16516   0.887   4.796   6.303
 5206SOL    HW116517   0.796   4.775   6.269
 5206SOL    HW216518   0.938   4.847   6.234
 5207SOL     OW16519   0.936   6.211   4.004
 5207SOL    HW116520   0.968   6.127   3.960
 5207SOL    HW216521   0.869   6.256   3.945
 5208SOL     OW16522   4.931   2.779   6.243
 5208SOL    HW116523   4.894   2.851   6.183
 5208SOL    HW216524   4.926   2.691   6.196
 5209SOL     OW16525   5.507   6.414   2.214
 5209SOL    HW116526   5.538   6.499   2.172
 5209SOL    HW216527   5.567   6.391   2.290
 5210SOL     OW16528   4.634   3.005   6.847
 5210SOL    HW116529   4.616   2.979   6.752
 5210SOL    HW216530   4.599   2.934   6.908
 5211SOL     OW16531   3.601   2.418   5.448
 5211SOL    HW116532   3.589   2.329   5.493
 5211SOL    HW216533   3.698   2.430   5.425
 5212SOL     OW16534   0.242   3.007   0.790
 5212SOL    HW116535   0.332   3.046   0.806
 5212SOL    HW216536   0.249   2.926   0.731
 5213SOL     OW16537   4.694   3.881   6.318
 5213SOL    HW116538   4.618   3.887   6.253
 5213SOL    HW216539   4.673   3.813   6.388
 5214SOL     OW16540   5.356   1.883   6.107
 5214SOL    HW116541   5.300   1.880   6.024
 5214SOL    HW216542   5.452   1.874   6.083
 5215SOL     OW16543   0.258   4.523   4.112
 5215SOL    HW116544   0.354   4.495   4.100
 5215SOL    HW216545   0.222   4.482   4.196
 5216SOL     OW16546   4.924   4.778   2.195
 5216SOL    HW116547   5.013   4.823   2.188
 5216SOL    HW216548   4.925   4.693   2.142
 5217SOL     OW16549   4.309   5.000   3.749
 5217SOL    HW116550   4.324   4.901   3.751
 5217SOL    HW216551   4.213   5.020   3.769
 5218SOL     OW16552   1.105   0.731   2.505
 5218SOL    HW116553   1.146   0.641   2.496
 5218SOL    HW216554   1.172   0.801   2.478
 5219SOL     OW16555   4.142   1.526   4.928
 5219SOL    HW116556   4.141   1.490   4.834
 5219SOL    HW216557   4.224   1.493   4.974
 5220SOL     OW16558   0.871   5.971   2.391
 5220SOL    HW116559   0.945   5.922   2.436
 5220SOL    HW216560   0.783   5.933   2.420
 5221SOL     OW16561   5.446   1.973   3.723
 5221SOL    HW116562   5.537   1.993   3.688
 5221SOL    HW216563   5.453   1.911   3.801
 5222SOL     OW16564   4.019   6.301   3.228
 5222SOL    HW116565   3.926   6.281   3.195
 5222SOL    HW216566   4.085   6.273   3.158
 5223SOL     OW16567   6.268   2.638   0.803
 5223SOL    HW116568   6.275   2.596   0.712
 5223SOL    HW216569   6.191   2.702   0.803
 5224SOL     OW16570   6.643   2.485   4.689
 5224SOL    HW116571   6.593   2.549   4.630
 5224SOL    HW216572   6.741   2.497   4.674
 5225SOL     OW16573   0.385   0.595   3.497
 5225SOL    HW116574   0.296   0.562   3.464
 5225SOL    HW216575   0.381   0.608   3.596
 5226SOL     OW16576   6.825   6.226   5.063
 5226SOL    HW116577   6.734   6.184   5.053
 5226SOL    HW216578   6.817   6.309   5.118
 5227SOL     OW16579   0.201   3.608   5.234
 5227SOL    HW116580   0.151   3.528   5.269
 5227SOL    HW216581   0.256   3.647   5.308
 5228SOL     OW16582   6.225   2.287   1.150
 5228SOL    HW116583   6.125   2.292   1.140
 5228SOL    HW216584   6.264   2.378   1.133
 5229SOL     OW16585   1.827   6.157   6.958
 5229SOL    HW116586   1.740   6.196   6.986
 5229SOL    HW216587   1.900   6.194   7.016
 5230SOL     OW16588   0.791   5.285   1.767
 5230SOL    HW116589   0.713   5.318   1.821
 5230SOL    HW216590   0.872   5.338   1.790
 5231SOL     OW16591   4.602   2.581   4.732
 5231SOL    HW116592   4.581   2.535   4.818
 5231SOL    HW216593   4.520   2.585   4.675
 5232SOL     OW16594   2.500   3.448   6.191
 5232SOL    HW116595   2.540   3.357   6.193
 5232SOL    HW216596   2.462   3.466   6.100
 5233SOL     OW16597   5.041   1.131   2.260
 5233SOL    HW116598   5.086   1.201   2.205
 5233SOL    HW216599   5.016   1.170   2.349
 5234SOL     OW16600   2.855   1.390   6.010
 5234SOL    HW116601   2.830   1.293   6.008
 5234SOL    HW216602   2.903   1.414   5.925
 5235SOL     OW16603   1.677   2.366   0.909
 5235SOL    HW116604   1.587   2.389   0.872
 5235SOL    HW216605   1.739   2.340   0.835
 5236SOL     OW16606   5.240   4.878   2.119
 5236SOL    HW116607   5.325   4.853   2.072
 5236SOL    HW216608   5.198   4.956   2.073
 5237SOL     OW16609   1.822   1.040   4.696
 5237SOL    HW116610   1.873   0.968   4.651
 5237SOL    HW216611   1.880   1.085   4.764
 5238SOL     OW16612   0.412   4.625   6.886
 5238SOL    HW116613   0.319   4.608   6.853
 5238SOL    HW216614   0.458   4.690   6.826
 5239SOL     OW16615   3.253   2.960   4.470
 5239SOL    HW116616   3.338   2.987   4.515
 5239SOL    HW216617   3.274   2.913   4.384
 5240SOL     OW16618   2.973   1.701   5.705
 5240SOL    HW116619   3.070   1.725   5.695
 5240SOL    HW216620   2.918   1.765   5.652
 5241SOL     OW16621   0.177   5.327   4.910
 5241SOL    HW116622   0.186   5.427   4.906
 5241SOL    HW216623   0.148   5.293   4.820
 5242SOL     OW16624   6.711   6.406   6.322
 5242SOL    HW116625   6.671   6.362   6.241
 5242SOL    HW216626   6.732   6.337   6.391
 5243SOL     OW16627   1.024   5.268   1.114
 5243SOL    HW116628   1.042   5.170   1.100
 5243SOL    HW216629   1.091   5.321   1.062
 5244SOL     OW16630   3.620   5.346   6.952
 5244SOL    HW116631   3.630   5.314   0.025
 5244SOL    HW216632   3.524   5.373   6.936
 5245SOL     OW16633   4.069   4.867   0.009
 5245SOL    HW116634   4.070   4.940   0.077
 5245SOL    HW216635   3.976   4.854   6.996
 5246SOL     OW16636   5.620   4.226   1.891
 5246SOL    HW116637   5.596   4.315   1.852
 5246SOL    HW216638   5.567   4.154   1.847
 5247SOL     OW16639   1.788   0.803   6.963
 5247SOL    HW116640   1.747   0.874   6.905
 5247SOL    HW216641   1.812   0.724   6.906
 5248SOL     OW16642   5.876   1.424   3.208
 5248SOL    HW116643   5.878   1.509   3.156
 5248SOL    HW216644   5.798   1.424   3.271
 5249SOL     OW16645   0.021   4.950   5.716
 5249SOL    HW116646   6.995   5.035   5.742
 5249SOL    HW216647   0.023   4.887   5.793
 5250SOL     OW16648   1.831   6.140   5.903
 5250SOL    HW116649   1.923   6.105   5.888
 5250SOL    HW216650   1.822   6.174   5.997
 5251SOL     OW16651   0.371   3.546   0.086
 5251SOL    HW116652   0.391   3.612   0.014
 5251SOL    HW216653   0.313   3.589   0.155
 5252SOL     OW16654   1.580   6.387   0.535
 5252SOL    HW116655   1.551   6.292   0.541
 5252SOL    HW216656   1.506   6.443   0.497
 5253SOL     OW16657   5.563   4.641   4.668
 5253SOL    HW116658   5.608   4.561   4.628
 5253SOL    HW216659   5.510   4.613   4.748
 5254SOL     OW16660   4.415   1.290   3.181
 5254SOL    HW116661   4.426   1.329   3.090
 5254SOL    HW216662   4.386   1.361   3.245
 5255SOL     OW16663   5.793   0.863   5.757
 5255SOL    HW116664   5.717   0.830   5.813
 5255SOL    HW216665   5.872   0.879   5.816
 5256SOL     OW16666   4.294   1.478   3.831
 5256SOL    HW116667   4.381   1.523   3.852
 5256SOL    HW216668   4.251   1.523   3.753
 5257SOL     OW16669   5.612   6.576   2.032
 5257SOL    HW116670   5.599   6.661   1.981
 5257SOL    HW216671   5.599   6.498   1.970
 5258SOL     OW16672   5.685   3.630   1.899
 5258SOL    HW116673   5.745   3.666   1.970
 5258SOL    HW216674   5.739   3.605   1.818
 5259SOL     OW16675   5.776   6.159   1.740
 5259SOL    HW116676   5.866   6.120   1.755
 5259SOL    HW216677   5.710   6.086   1.724
 5260SOL     OW16678   4.976   3.517   1.047
 5260SOL    HW116679   4.964   3.597   1.104
 5260SOL    HW216680   4.930   3.531   0.959
 5261SOL     OW16681   0.882   4.182   6.844
 5261SOL    HW116682   0.894   4.088   6.875
 5261SOL    HW216683   0.792   4.192   6.802
 5262SOL     OW16684   2.694   0.851   2.629
 5262SOL    HW116685   2.751   0.928   2.603
 5262SOL    HW216686   2.632   0.878   2.703
 5263SOL     OW16687   1.397   1.753   4.527
 5263SOL    HW116688   1.297   1.757   4.526
 5263SOL    HW216689   1.432   1.820   4.593
 5264SOL     OW16690   6.433   2.519   2.963
 5264SOL    HW116691   6.340   2.518   2.926
 5264SOL    HW216692   6.498   2.531   2.889
 5265SOL     OW16693   6.379   4.077   3.944
 5265SOL    HW116694   6.424   4.003   3.993
 5265SOL    HW216695   6.315   4.124   4.005
 5266SOL     OW16696   2.706   5.486   0.451
 5266SOL    HW116697   2.631   5.507   0.514
 5266SOL    HW216698   2.747   5.571   0.419
 5267SOL     OW16699   5.057   3.719   4.982
 5267SOL    HW116700   4.961   3.705   5.006
 5267SOL    HW216701   5.073   3.682   4.890
 5268SOL     OW16702   5.683   0.248   6.771
 5268SOL    HW116703   5.721   0.160   6.800
 5268SOL    HW216704   5.611   0.276   6.834
 5269SOL     OW16705   1.186   6.929   3.557
 5269SOL    HW116706   1.117   6.875   3.509
 5269SOL    HW216707   1.170   6.924   3.655
 5270SOL     OW16708   6.015   1.570   1.298
 5270SOL    HW116709   5.923   1.605   1.315
 5270SOL    HW216710   6.020   1.475   1.329
 5271SOL     OW16711   6.021   5.451   4.770
 5271SOL    HW116712   6.101   5.469   4.714
 5271SOL    HW216713   5.957   5.392   4.720
 5272SOL     OW16714   2.928   5.524   2.168
 5272SOL    HW116715   2.993   5.464   2.214
 5272SOL    HW216716   2.951   5.619   2.187
 5273SOL     OW16717   6.909   2.943   3.916
 5273SOL    HW116718   6.813   2.943   3.886
 5273SOL    HW216719   6.914   2.965   4.013
 5274SOL     OW16720   6.782   6.943   2.595
 5274SOL    HW116721   6.828   6.860   2.564
 5274SOL    HW216722   6.690   6.920   2.628
 5275SOL     OW16723   3.463   2.122   0.790
 5275SOL    HW116724   3.431   2.211   0.823
 5275SOL    HW216725   3.411   2.096   0.709
 5276SOL     OW16726   1.919   0.301   0.715
 5276SOL    HW116727   1.912   0.326   0.812
 5276SOL    HW216728   1.828   0.276   0.681
 5277SOL     OW16729   1.249   1.772   2.714
 5277SOL    HW116730   1.182   1.698   2.707
 5277SOL    HW216731   1.203   1.858   2.733
 5278SOL     OW16732   5.568   0.234   3.186
 5278SOL    HW116733   5.543   0.257   3.280
 5278SOL    HW216734   5.626   0.153   3.186
 5279SOL     OW16735   1.997   4.946   6.022
 5279SOL    HW116736   2.074   4.998   5.985
 5279SOL    HW216737   1.961   4.992   6.103
 5280SOL     OW16738   2.567   5.964   4.728
 5280SOL    HW116739   2.575   6.021   4.647
 5280SOL    HW216740   2.561   6.022   4.809
 5281SOL     OW16741   0.800   1.410   2.386
 5281SOL    HW116742   0.727   1.428   2.320
 5281SOL    HW216743   0.887   1.442   2.349
 5282SOL     OW16744   2.502   2.255   3.133
 5282SOL    HW116745   2.551   2.229   3.049
 5282SOL    HW216746   2.527   2.349   3.157
 5283SOL     OW16747   4.228   6.521   1.577
 5283SOL    HW116748   4.313   6.510   1.629
 5283SOL    HW216749   4.248   6.557   1.486
 5284SOL     OW16750   5.093   3.875   3.289
 5284SOL    HW116751   5.026   3.801   3.284
 5284SOL    HW216752   5.180   3.844   3.250
 5285SOL     OW16753   2.437   4.972   3.447
 5285SOL    HW116754   2.500   5.024   3.505
 5285SOL    HW216755   2.345   4.974   3.487
 5286SOL     OW16756   1.564   4.249   0.460
 5286SOL    HW116757   1.587   4.179   0.528
 5286SOL    HW216758   1.639   4.261   0.396
 5287SOL     OW16759   2.742   6.488   1.150
 5287SOL    HW116760   2.833   6.528   1.163
 5287SOL    HW216761   2.740   6.434   1.067
 5288SOL     OW16762   4.017   0.259   1.493
 5288SOL    HW116763   4.065   0.227   1.575
 5288SOL    HW216764   3.931   0.302   1.520
 5289SOL     OW16765   1.904   4.163   6.121
 5289SOL    HW116766   1.883   4.211   6.036
 5289SOL    HW216767   1.947   4.075   6.100
 5290SOL     OW16768   1.540   5.199   5.323
 5290SOL    HW116769   1.631   5.228   5.294
 5290SOL    HW216770   1.545   5.159   5.414
 5291SOL     OW16771   2.505   5.351   5.777
 5291SOL    HW116772   2.584   5.321   5.724
 5291SOL    HW216773   2.421   5.323   5.730
 5292SOL     OW16774   6.335   3.155   0.023
 5292SOL    HW116775   6.294   3.246   0.023
 5292SOL    HW216776   6.377   3.138   0.112
 5293SOL     OW16777   0.892   0.188   4.703
 5293SOL    HW116778   0.888   0.089   4.717
 5293SOL    HW216779   0.909   0.207   4.607
 5294SOL     OW16780   4.520   3.551   5.637
 5294SOL    HW116781   4.517   3.492   5.717
 5294SOL    HW216782   4.531   3.646   5.666
 5295SOL     OW16783   5.312   0.199   2.442
 5295SOL    HW116784   5.397   0.233   2.482
 5295SOL    HW216785   5.277   0.267   2.376
 5296SOL     OW16786   2.183   5.291   0.447
 5296SOL    HW116787   2.189   5.378   0.496
 5296SOL    HW216788   2.252   5.228   0.481
 5297SOL     OW16789   3.262   2.367   1.121
 5297SOL    HW116790   3.229   2.316   1.200
 5297SOL    HW216791   3.338   2.426   1.149
 5298SOL     OW16792   1.101   5.513   7.006
 5298SOL    HW116793   1.107   5.424   6.961
 5298SOL    HW216794   1.148   5.509   0.072
 5299SOL     OW16795   2.272   2.527   1.193
 5299SOL    HW116796   2.327   2.456   1.238
 5299SOL    HW216797   2.187   2.486   1.161
 5300SOL     OW16798   0.185   6.095   1.820
 5300SOL    HW116799   0.113   6.051   1.873
 5300SOL    HW216800   0.201   6.043   1.737
 5301SOL     OW16801   4.543   3.037   0.810
 5301SOL    HW116802   4.598   3.005   0.887
 5301SOL    HW216803   4.495   3.121   0.835
 5302SOL     OW16804   6.101   4.067   2.836
 5302SOL    HW116805   6.061   3.979   2.859
 5302SOL    HW216806   6.199   4.065   2.855
 5303SOL     OW16807   6.833   5.939   2.889
 5303SOL    HW116808   6.807   6.033   2.869
 5303SOL    HW216809   6.850   5.929   2.988
 5304SOL     OW16810   6.739   1.895   5.831
 5304SOL    HW116811   6.662   1.901   5.895
 5304SOL    HW216812   6.824   1.911   5.881
 5305SOL     OW16813   1.240   6.109   4.218
 5305SOL    HW116814   1.304   6.070   4.151
 5305SOL    HW216815   1.291   6.142   4.297
 5306SOL     OW16816   0.275   6.062   4.996
 5306SOL    HW116817   0.322   6.029   4.914
 5306SOL    HW216818   0.176   6.048   4.985
 5307SOL     OW16819   4.396   0.451   6.597
 5307SOL    HW116820   4.348   0.528   6.640
 5307SOL    HW216821   4.425   0.476   6.505
 5308SOL     OW16822   0.991   6.284   4.272
 5308SOL    HW116823   0.932   6.267   4.193
 5308SOL    HW216824   1.074   6.229   4.263
 5309SOL     OW16825   3.165   4.061   2.332
 5309SOL    HW116826   3.129   4.102   2.248
 5309SOL    HW216827   3.090   4.022   2.385
 5310SOL     OW16828   5.399   2.896   1.956
 5310SOL    HW116829   5.349   2.876   1.872
 5310SOL    HW216830   5.422   2.993   1.958
 5311SOL     OW16831   0.148   5.810   1.093
 5311SOL    HW116832   0.107   5.774   1.177
 5311SOL    HW216833   0.124   5.752   1.016
 5312SOL     OW16834   0.413   4.094   2.118
 5312SOL    HW116835   0.409   4.065   2.213
 5312SOL    HW216836   0.417   4.194   2.113
 5313SOL     OW16837   1.123   4.675   6.990
 5313SOL    HW116838   1.029   4.709   6.986
 5313SOL    HW216839   1.138   4.608   6.917
 5314SOL     OW16840   3.371   5.233   0.139
 5314SOL    HW116841   3.311   5.212   0.062
 5314SOL    HW216842   3.384   5.332   0.146
 5315SOL     OW16843   3.866   3.810   1.652
 5315SOL    HW116844   3.934   3.814   1.724
 5315SOL    HW216845   3.897   3.747   1.580
 5316SOL     OW16846   6.916   4.638   4.806
 5316SOL    HW116847   6.993   4.639   4.870
 5316SOL    HW216848   6.865   4.552   4.817
 5317SOL     OW16849   6.884   0.780   5.079
 5317SOL    HW116850   6.909   0.694   5.034
 5317SOL    HW216851   6.884   0.854   5.012
 5318SOL     OW16852   0.251   1.526   5.789
 5318SOL    HW116853   0.177   1.589   5.813
 5318SOL    HW216854   0.248   1.508   5.690
 5319SOL     OW16855   4.550   6.303   6.675
 5319SOL    HW116856   4.461   6.266   6.646
 5319SOL    HW216857   4.623   6.242   6.646
 5320SOL     OW16858   5.699   5.338   6.835
 5320SOL    HW116859   5.627   5.364   6.900
 5320SOL    HW216860   5.676   5.252   6.791
 5321SOL     OW16861   0.703   3.842   3.059
 5321SOL    HW116862   0.751   3.904   3.121
 5321SOL    HW216863   0.731   3.860   2.965
 5322SOL     OW16864   3.713   6.080   6.045
 5322SOL    HW116865   3.742   6.169   6.010
 5322SOL    HW216866   3.786   6.013   6.030
 5323SOL     OW16867   4.072   3.580   0.687
 5323SOL    HW116868   4.004   3.517   0.726
 5323SOL    HW216869   4.163   3.557   0.722
 5324SOL     OW16870   3.633   2.573   1.753
 5324SOL    HW116871   3.688   2.568   1.669
 5324SOL    HW216872   3.639   2.486   1.802
 5325SOL     OW16873   5.690   6.603   3.745
 5325SOL    HW116874   5.763   6.667   3.720
 5325SOL    HW216875   5.602   6.652   3.746
 5326SOL     OW16876   6.964   4.961   3.211
 5326SOL    HW116877   0.020   4.997   3.263
 5326SOL    HW216878   6.997   4.918   3.127
 5327SOL     OW16879   6.344   5.138   5.465
 5327SOL    HW116880   6.420   5.203   5.465
 5327SOL    HW216881   6.262   5.182   5.429
 5328SOL     OW16882   4.705   2.420   5.266
 5328SOL    HW116883   4.644   2.494   5.239
 5328SOL    HW216884   4.739   2.374   5.184
 5329SOL     OW16885   0.782   4.004   0.075
 5329SOL    HW116886   0.703   3.974   0.126
 5329SOL    HW216887   0.844   4.055   0.135
 5330SOL     OW16888   3.784   4.607   6.909
 5330SOL    HW116889   3.741   4.571   6.992
 5330SOL    HW216890   3.715   4.614   6.837
 5331SOL     OW16891   5.398   1.399   1.714
 5331SOL    HW116892   5.476   1.414   1.776
 5331SOL    HW216893   5.318   1.446   1.750
 5332SOL     OW16894   6.569   4.278   0.399
 5332SOL    HW116895   6.604   4.188   0.425
 5332SOL    HW216896   6.587   4.295   0.302
 5333SOL     OW16897   1.118   0.704   3.880
 5333SOL    HW116898   1.216   0.722   3.881
 5333SOL    HW216899   1.078   0.745   3.798
 5334SOL     OW16900   3.798   5.083   5.550
 5334SOL    HW116901   3.876   5.145   5.542
 5334SOL    HW216902   3.751   5.100   5.636
 5335SOL     OW16903   0.207   4.613   2.496
 5335SOL    HW116904   0.134   4.646   2.436
 5335SOL    HW216905   0.296   4.640   2.457
 5336SOL     OW16906   1.997   1.981   3.590
 5336SOL    HW116907   1.920   1.970   3.653
 5336SOL    HW216908   1.968   2.035   3.511
 5337SOL     OW16909   5.356   4.546   1.850
 5337SOL    HW116910   5.443   4.532   1.803
 5337SOL    HW216911   5.312   4.458   1.867
 5338SOL     OW16912   6.132   1.376   6.301
 5338SOL    HW116913   6.095   1.385   6.394
 5338SOL    HW216914   6.060   1.344   6.239
 5339SOL     OW16915   5.463   1.777   3.067
 5339SOL    HW116916   5.507   1.703   3.016
 5339SOL    HW216917   5.367   1.754   3.082
 5340SOL     OW16918   6.087   4.353   1.233
 5340SOL    HW116919   6.033   4.433   1.258
 5340SOL    HW216920   6.084   4.286   1.307
 5341SOL     OW16921   3.089   4.866   5.174
 5341SOL    HW116922   2.994   4.885   5.151
 5341SOL    HW216923   3.097   4.773   5.209
 5342SOL     OW16924   5.363   6.547   4.748
 5342SOL    HW116925   5.385   6.463   4.799
 5342SOL    HW216926   5.410   6.625   4.790
 5343SOL     OW16927   4.063   3.290   4.794
 5343SOL    HW116928   4.158   3.262   4.808
 5343SOL    HW216929   4.026   3.242   4.714
 5344SOL     OW16930   0.847   1.670   0.591
 5344SOL    HW116931   0.748   1.682   0.581
 5344SOL    HW216932   0.868   1.651   0.687
 5345SOL     OW16933   5.095   6.757   0.104
 5345SOL    HW116934   5.041   6.774   0.187
 5345SOL    HW216935   5.187   6.794   0.117
 5346SOL     OW16936   3.221   5.876   3.913
 5346SOL    HW116937   3.224   5.887   4.012
 5346SOL    HW216938   3.310   5.843   3.880
 5347SOL     OW16939   7.011   3.815   3.018
 5347SOL    HW116940   7.015   3.764   2.932
 5347SOL    HW216941   0.083   3.843   3.044
 5348SOL     OW16942   0.091   1.611   6.782
 5348SOL    HW116943   0.137   1.637   6.866
 5348SOL    HW216944   7.018   1.643   6.784
 5349SOL     OW16945   2.491   3.561   0.721
 5349SOL    HW116946   2.414   3.625   0.714
 5349SOL    HW216947   2.571   3.600   0.677
 5350SOL     OW16948   2.351   0.282   5.244
 5350SOL    HW116949   2.333   0.362   5.187
 5350SOL    HW216950   2.399   0.213   5.191
 5351SOL     OW16951   0.225   5.814   1.975
 5351SOL    HW116952   0.173   5.766   2.046
 5351SOL    HW216953   0.163   5.868   1.918
 5352SOL     OW16954   1.775   4.867   3.057
 5352SOL    HW116955   1.712   4.883   3.133
 5352SOL    HW216956   1.850   4.932   3.061
 5353SOL     OW16957   3.789   6.414   3.901
 5353SOL    HW116958   3.798   6.340   3.968
 5353SOL    HW216959   3.867   6.413   3.839
 5354SOL     OW16960   1.965   4.582   0.741
 5354SOL    HW116961   2.051   4.539   0.772
 5354SOL    HW216962   1.935   4.539   0.656
 5355SOL     OW16963   5.940   4.963   4.105
 5355SOL    HW116964   5.983   4.874   4.091
 5355SOL    HW216965   6.009   5.029   4.134
 5356SOL     OW16966   6.903   3.692   2.730
 5356SOL    HW116967   6.987   3.641   2.747
 5356SOL    HW216968   6.838   3.633   2.681
 5357SOL     OW16969   3.837   4.776   0.684
 5357SOL    HW116970   3.836   4.876   0.685
 5357SOL    HW216971   3.796   4.742   0.768
 5358SOL     OW16972   4.332   2.618   1.140
 5358SOL    HW116973   4.234   2.620   1.125
 5358SOL    HW216974   4.375   2.556   1.075
 5359SOL     OW16975   2.365   1.441   6.391
 5359SOL    HW116976   2.266   1.434   6.380
 5359SOL    HW216977   2.395   1.385   6.468
 5360SOL     OW16978   4.750   6.097   3.592
 5360SOL    HW116979   4.773   6.083   3.688
 5360SOL    HW216980   4.713   6.189   3.579
 5361SOL     OW16981   2.184   6.611   4.233
 5361SOL    HW116982   2.253   6.660   4.180
 5361SOL    HW216983   2.140   6.542   4.176
 5362SOL     OW16984   6.739   5.698   2.769
 5362SOL    HW116985   6.656   5.674   2.819
 5362SOL    HW216986   6.773   5.786   2.800
 5363SOL     OW16987   5.814   5.968   5.842
 5363SOL    HW116988   5.858   5.879   5.845
 5363SOL    HW216989   5.715   5.956   5.842
 5364SOL     OW16990   6.174   6.646   1.723
 5364SOL    HW116991   6.235   6.648   1.644
 5364SOL    HW216992   6.189   6.561   1.775
 5365SOL     OW16993   2.933   3.301   2.254
 5365SOL    HW116994   2.982   3.214   2.263
 5365SOL    HW216995   2.895   3.309   2.163
 5366SOL     OW16996   6.926   6.402   1.865
 5366SOL    HW116997   6.986   6.477   1.895
 5366SOL    HW216998   6.901   6.415   1.769
 5367SOL     OW16999   0.406   0.161   1.612
 5367SOL    HW117000   0.327   0.119   1.568
 5367SOL    HW217001   0.405   0.260   1.595
 5368SOL     OW17002   6.531   6.907   2.695
 5368SOL    HW117003   6.501   6.824   2.647
 5368SOL    HW217004   6.452   6.965   2.711
 5369SOL     OW17005   2.513   6.655   0.865
 5369SOL    HW117006   2.613   6.653   0.859
 5369SOL    HW217007   2.474   6.609   0.785
 5370SOL     OW17008   4.179   3.937   0.946
 5370SOL    HW117009   4.190   3.990   0.861
 5370SOL    HW217010   4.220   3.847   0.934
 5371SOL     OW17011   0.441   4.907   5.378
 5371SOL    HW117012   0.520   4.846   5.377
 5371SOL    HW217013   0.453   4.979   5.309
 5372SOL     OW17014   1.028   6.316   2.870
 5372SOL    HW117015   1.016   6.415   2.866
 5372SOL    HW217016   1.090   6.286   2.798
 5373SOL     OW17017   4.202   6.626   5.425
 5373SOL    HW117018   4.144   6.623   5.507
 5373SOL    HW217019   4.237   6.534   5.407
 5374SOL     OW17020   2.624   4.929   0.696
 5374SOL    HW117021   2.607   4.846   0.749
 5374SOL    HW217022   2.623   5.009   0.756
 5375SOL     OW17023   0.195   5.765   5.889
 5375SOL    HW117024   0.134   5.789   5.965
 5375SOL    HW217025   0.270   5.709   5.923
 5376SOL     OW17026   1.037   2.527   1.672
 5376SOL    HW117027   1.022   2.618   1.711
 5376SOL    HW217028   1.028   2.531   1.573
 5377SOL     OW17029   1.017   0.076   2.614
 5377SOL    HW117030   0.983   7.004   2.604
 5377SOL    HW217031   0.941   0.141   2.605
 5378SOL     OW17032   0.172   6.985   2.562
 5378SOL    HW117033   0.102   6.988   2.633
 5378SOL    HW217034   0.139   6.930   2.485
 5379SOL     OW17035   0.893   3.234   4.921
 5379SOL    HW117036   0.803   3.278   4.928
 5379SOL    HW217037   0.960   3.301   4.890
 5380SOL     OW17038   3.015   6.944   1.366
 5380SOL    HW117039   3.028   6.963   1.463
 5380SOL    HW217040   2.955   6.865   1.355
 5381SOL     OW17041   6.989   5.959   1.937
 5381SOL    HW117042   6.908   5.911   1.903
 5381SOL    HW217043   6.977   5.980   2.034
 5382SOL     OW17044   2.904   2.028   2.010
 5382SOL    HW117045   2.904   2.128   2.001
 5382SOL    HW217046   2.858   2.002   2.095
 5383SOL     OW17047   1.725   3.106   4.852
 5383SOL    HW117048   1.637   3.149   4.831
 5383SOL    HW217049   1.717   3.007   4.844
 5384SOL     OW17050   4.961   6.150   4.608
 5384SOL    HW117051   4.967   6.227   4.671
 5384SOL    HW217052   4.900   6.173   4.532
 5385SOL     OW17053   4.647   2.851   5.413
 5385SOL    HW117054   4.559   2.810   5.438
 5385SOL    HW217055   4.662   2.933   5.467
 5386SOL     OW17056   5.466   1.768   3.919
 5386SOL    HW117057   5.557   1.734   3.896
 5386SOL    HW217058   5.397   1.704   3.885
 5387SOL     OW17059   2.485   6.329   2.938
 5387SOL    HW117060   2.513   6.233   2.929
 5387SOL    HW217061   2.551   6.379   2.994
 5388SOL     OW17062   1.179   0.265   2.510
 5388SOL    HW117063   1.246   0.221   2.450
 5388SOL    HW217064   1.129   0.196   2.562
 5389SOL     OW17065   3.550   1.334   3.956
 5389SOL    HW117066   3.482   1.313   4.027
 5389SOL    HW217067   3.627   1.381   3.998
 5390SOL     OW17068   5.895   4.144   3.611
 5390SOL    HW117069   5.923   4.053   3.582
 5390SOL    HW217070   5.945   4.169   3.695
 5391SOL     OW17071   2.398   1.820   0.583
 5391SOL    HW117072   2.299   1.829   0.568
 5391SOL    HW217073   2.428   1.887   0.651
 5392SOL     OW17074   5.428   3.847   0.808
 5392SOL    HW117075   5.452   3.761   0.762
 5392SOL    HW217076   5.331   3.867   0.793
 5393SOL     OW17077   5.179   1.012   4.956
 5393SOL    HW117078   5.261   1.028   4.901
 5393SOL    HW217079   5.147   0.918   4.942
 5394SOL     OW17080   1.061   5.631   1.205
 5394SOL    HW117081   0.989   5.621   1.136
 5394SOL    HW217082   1.146   5.660   1.161
 5395SOL     OW17083   5.016   0.428   1.222
 5395SOL    HW117084   4.996   0.381   1.136
 5395SOL    HW217085   4.932   0.473   1.255
 5396SOL     OW17086   5.745   4.901   1.829
 5396SOL    HW117087   5.670   4.869   1.771
 5396SOL    HW217088   5.744   4.849   1.915
 5397SOL     OW17089   6.811   1.980   1.770
 5397SOL    HW117090   6.909   2.001   1.776
 5397SOL    HW217091   6.763   2.022   1.846
 5398SOL     OW17092   2.945   2.049   4.049
 5398SOL    HW117093   2.928   1.988   4.126
 5398SOL    HW217094   2.899   2.136   4.064
 5399SOL     OW17095   2.710   6.715   6.165
 5399SOL    HW117096   2.808   6.725   6.151
 5399SOL    HW217097   2.663   6.722   6.077
 5400SOL     OW17098   3.213   3.600   0.454
 5400SOL    HW117099   3.261   3.588   0.541
 5400SOL    HW217100   3.274   3.575   0.378
 5401SOL     OW17101   5.768   4.044   2.081
 5401SOL    HW117102   5.713   4.055   2.164
 5401SOL    HW217103   5.742   4.115   2.015
 5402SOL     OW17104   2.936   6.700   1.039
 5402SOL    HW117105   2.891   6.652   0.964
 5402SOL    HW217106   2.874   6.768   1.077
 5403SOL     OW17107   4.983   3.406   5.952
 5403SOL    HW117108   4.917   3.338   5.921
 5403SOL    HW217109   4.935   3.489   5.980
 5404SOL     OW17110   0.796   0.155   1.503
 5404SOL    HW117111   0.748   0.068   1.513
 5404SOL    HW217112   0.764   0.218   1.574
 5405SOL     OW17113   5.561   5.087   6.754
 5405SOL    HW117114   5.580   5.012   6.691
 5405SOL    HW217115   5.503   5.054   6.829
 5406SOL     OW17116   1.947   0.989   5.108
 5406SOL    HW117117   1.898   1.060   5.160
 5406SOL    HW217118   2.009   1.032   5.043
 5407SOL     OW17119   3.305   1.727   0.937
 5407SOL    HW117120   3.233   1.676   0.984
 5407SOL    HW217121   3.273   1.820   0.918
 5408SOL     OW17122   4.147   0.727   4.898
 5408SOL    HW117123   4.181   0.821   4.893
 5408SOL    HW217124   4.143   0.699   4.994
 5409SOL     OW17125   6.473   1.808   2.692
 5409SOL    HW117126   6.569   1.781   2.680
 5409SOL    HW217127   6.459   1.898   2.650
 5410SOL     OW17128   0.849   2.059   6.491
 5410SOL    HW117129   0.826   1.962   6.495
 5410SOL    HW217130   0.902   2.078   6.408
 5411SOL     OW17131   5.505   5.541   6.251
 5411SOL    HW117132   5.419   5.496   6.227
 5411SOL    HW217133   5.573   5.472   6.277
 5412SOL     OW17134   3.191   1.285   6.504
 5412SOL    HW117135   3.288   1.260   6.512
 5412SOL    HW217136   3.168   1.352   6.574
 5413SOL     OW17137   0.857   6.871   6.831
 5413SOL    HW117138   0.821   6.861   6.923
 5413SOL    HW217139   0.867   6.968   6.809
 5414SOL     OW17140   6.130   5.042   4.599
 5414SOL    HW117141   6.184   4.961   4.618
 5414SOL    HW217142   6.190   5.118   4.572
 5415SOL     OW17143   2.479   6.578   1.212
 5415SOL    HW117144   2.564   6.535   1.181
 5415SOL    HW217145   2.409   6.508   1.224
 5416SOL     OW17146   2.835   4.893   4.964
 5416SOL    HW117147   2.805   4.798   4.975
 5416SOL    HW217148   2.850   4.913   4.867
 5417SOL     OW17149   4.032   6.852   5.003
 5417SOL    HW117150   4.034   6.880   4.907
 5417SOL    HW217151   3.954   6.896   5.049
 5418SOL     OW17152   5.738   5.894   4.791
 5418SOL    HW117153   5.761   5.942   4.876
 5418SOL    HW217154   5.772   5.800   4.796
 5419SOL     OW17155   3.199   5.890   0.619
 5419SOL    HW117156   3.159   5.840   0.542
 5419SOL    HW217157   3.128   5.911   0.686
 5420SOL     OW17158   1.953   1.770   1.089
 5420SOL    HW117159   1.914   1.849   1.135
 5420SOL    HW217160   2.020   1.800   1.021
 5421SOL     OW17161   3.285   5.014   1.739
 5421SOL    HW117162   3.330   5.103   1.750
 5421SOL    HW217163   3.189   5.022   1.765
 5422SOL     OW17164   0.967   4.497   4.462
 5422SOL    HW117165   1.036   4.452   4.519
 5422SOL    HW217166   1.005   4.581   4.424
 5423SOL     OW17167   5.177   4.969   0.008
 5423SOL    HW117168   5.113   4.899   6.996
 5423SOL    HW217169   5.165   5.052   6.975
 5424SOL     OW17170   5.607   3.934   4.513
 5424SOL    HW117171   5.548   3.960   4.437
 5424SOL    HW217172   5.551   3.901   4.589
 5425SOL     OW17173   5.670   1.832   5.029
 5425SOL    HW117174   5.756   1.788   5.055
 5425SOL    HW217175   5.594   1.779   5.065
 5426SOL     OW17176   5.487   5.535   2.873
 5426SOL    HW117177   5.399   5.508   2.912
 5426SOL    HW217178   5.544   5.454   2.857
 5427SOL     OW17179   5.214   3.245   0.119
 5427SOL    HW117180   5.205   3.235   0.218
 5427SOL    HW217181   5.267   3.168   0.082
 5428SOL     OW17182   5.467   6.704   1.508
 5428SOL    HW117183   5.537   6.676   1.574
 5428SOL    HW217184   5.446   6.626   1.448
 5429SOL     OW17185   2.107   0.424   5.384
 5429SOL    HW117186   2.191   0.478   5.389
 5429SOL    HW217187   2.129   0.330   5.359
 5430SOL     OW17188   1.946   2.937   5.185
 5430SOL    HW117189   2.030   2.885   5.174
 5430SOL    HW217190   1.867   2.877   5.169
 5431SOL     OW17191   2.860   3.882   6.260
 5431SOL    HW117192   2.912   3.838   6.187
 5431SOL    HW217193   2.816   3.813   6.316
 5432SOL     OW17194   3.793   5.444   6.508
 5432SOL    HW117195   3.712   5.450   6.449
 5432SOL    HW217196   3.859   5.380   6.467
 5433SOL     OW17197   1.014   0.649   1.811
 5433SOL    HW117198   0.917   0.637   1.791
 5433SOL    HW217199   1.044   0.740   1.782
 5434SOL     OW17200   3.844   1.239   4.442
 5434SOL    HW117201   3.938   1.212   4.423
 5434SOL    HW217202   3.784   1.202   4.371
 5435SOL     OW17203   6.345   3.483   0.620
 5435SOL    HW117204   6.299   3.440   0.698
 5435SOL    HW217205   6.441   3.497   0.641
 5436SOL     OW17206   5.947   4.708   3.981
 5436SOL    HW117207   5.863   4.656   3.966
 5436SOL    HW217208   5.991   4.678   4.066
 5437SOL     OW17209   3.215   4.941   4.940
 5437SOL    HW117210   3.155   4.920   5.017
 5437SOL    HW217211   3.186   4.888   4.860
 5438SOL     OW17212   5.638   4.394   2.249
 5438SOL    HW117213   5.605   4.452   2.175
 5438SOL    HW217214   5.672   4.451   2.323
 5439SOL     OW17215   0.463   3.097   6.941
 5439SOL    HW117216   0.453   3.033   7.017
 5439SOL    HW217217   0.551   3.082   6.897
 5440SOL     OW17218   6.529   6.297   3.434
 5440SOL    HW117219   6.583   6.247   3.366
 5440SOL    HW217220   6.533   6.248   3.522
 5441SOL     OW17221   5.003   3.712   3.650
 5441SOL    HW117222   4.986   3.711   3.748
 5441SOL    HW217223   5.017   3.807   3.619
 5442SOL     OW17224   3.698   0.545   3.620
 5442SOL    HW117225   3.620   0.553   3.682
 5442SOL    HW217226   3.782   0.540   3.673
 5443SOL     OW17227   4.005   5.767   3.738
 5443SOL    HW117228   4.072   5.822   3.787
 5443SOL    HW217229   4.040   5.674   3.727
 5444SOL     OW17230   0.349   0.692   3.950
 5444SOL    HW117231   0.294   0.686   3.867
 5444SOL    HW217232   0.416   0.767   3.941
 5445SOL     OW17233   5.939   4.523   3.663
 5445SOL    HW117234   5.878   4.443   3.668
 5445SOL    HW217235   6.031   4.496   3.689
 5446SOL     OW17236   5.820   5.633   4.083
 5446SOL    HW117237   5.844   5.653   4.178
 5446SOL    HW217238   5.871   5.553   4.052
 5447SOL     OW17239   1.599   1.198   0.641
 5447SOL    HW117240   1.649   1.272   0.686
 5447SOL    HW217241   1.501   1.214   0.651
 5448SOL     OW17242   4.434   4.498   3.589
 5448SOL    HW117243   4.458   4.515   3.494
 5448SOL    HW217244   4.348   4.544   3.612
 5449SOL     OW17245   2.232   1.285   0.669
 5449SOL    HW117246   2.286   1.203   0.649
 5449SOL    HW217247   2.200   1.282   0.764
 5450SOL     OW17248   3.206   0.295   1.306
 5450SOL    HW117249   3.229   0.198   1.297
 5450SOL    HW217250   3.263   0.349   1.244
 5451SOL     OW17251   2.088   6.175   3.591
 5451SOL    HW117252   2.069   6.203   3.497
 5451SOL    HW217253   2.044   6.239   3.654
 5452SOL     OW17254   2.753   4.296   1.133
 5452SOL    HW117255   2.693   4.282   1.054
 5452SOL    HW217256   2.708   4.262   1.215
 5453SOL     OW17257   5.006   3.650   2.161
 5453SOL    HW117258   4.943   3.603   2.099
 5453SOL    HW217259   5.017   3.745   2.132
 5454SOL     OW17260   5.954   5.949   1.139
 5454SOL    HW117261   5.886   6.022   1.140
 5454SOL    HW217262   5.969   5.917   1.233
 5455SOL     OW17263   0.270   2.119   3.888
 5455SOL    HW117264   0.321   2.118   3.802
 5455SOL    HW217265   0.178   2.084   3.873
 5456SOL     OW17266   3.260   2.036   6.739
 5456SOL    HW117267   3.301   2.127   6.726
 5456SOL    HW217268   3.249   2.019   6.837
 5457SOL     OW17269   6.479   1.948   1.076
 5457SOL    HW117270   6.431   2.027   1.039
 5457SOL    HW217271   6.430   1.914   1.156
 5458SOL     OW17272   6.717   5.340   0.437
 5458SOL    HW117273   6.665   5.412   0.483
 5458SOL    HW217274   6.791   5.381   0.384
 5459SOL     OW17275   1.977   4.702   5.515
 5459SOL    HW117276   1.991   4.731   5.610
 5459SOL    HW217277   2.031   4.760   5.454
 5460SOL     OW17278   2.848   6.928   2.421
 5460SOL    HW117279   2.937   6.903   2.383
 5460SOL    HW217280   2.836   0.006   2.416
 5461SOL     OW17281   0.835   6.874   4.202
 5461SOL    HW117282   0.929   6.868   4.170
 5461SOL    HW217283   0.819   6.805   4.273
 5462SOL     OW17284   5.634   6.251   0.078
 5462SOL    HW117285   5.662   6.156   0.094
 5462SOL    HW217286   5.572   6.256   0.000
 5463SOL     OW17287   0.532   2.064   0.050
 5463SOL    HW117288   0.465   1.993   0.073
 5463SOL    HW217289   0.504   2.151   0.092
 5464SOL     OW17290   5.540   6.311   4.851
 5464SOL    HW117291   5.526   6.363   4.935
 5464SOL    HW217292   5.628   6.336   4.810
 5465SOL     OW17293   6.106   0.871   3.246
 5465SOL    HW117294   6.054   0.799   3.200
 5465SOL    HW217295   6.067   0.960   3.225
 5466SOL     OW17296   5.013   2.633   5.733
 5466SOL    HW117297   4.952   2.640   5.654
 5466SOL    HW217298   5.096   2.583   5.707
 5467SOL     OW17299   6.455   3.627   3.424
 5467SOL    HW117300   6.408   3.549   3.466
 5467SOL    HW217301   6.395   3.707   3.428
 5468SOL     OW17302   6.546   1.425   5.203
 5468SOL    HW117303   6.620   1.363   5.228
 5468SOL    HW217304   6.585   1.513   5.174
 5469SOL     OW17305   3.312   5.804   5.188
 5469SOL    HW117306   3.387   5.803   5.122
 5469SOL    HW217307   3.226   5.787   5.140
 5470SOL     OW17308   3.628   5.293   4.204
 5470SOL    HW117309   3.562   5.227   4.242
 5470SOL    HW217310   3.579   5.375   4.176
 5471SOL     OW17311   6.628   0.691   2.644
 5471SOL    HW117312   6.563   0.617   2.627
 5471SOL    HW217313   6.593   0.750   2.717
 5472SOL     OW17314   3.131   3.182   6.610
 5472SOL    HW117315   3.146   3.272   6.651
 5472SOL    HW217316   3.201   3.165   6.541
 5473SOL     OW17317   1.707   3.240   0.627
 5473SOL    HW117318   1.789   3.194   0.663
 5473SOL    HW217319   1.708   3.234   0.527
 5474SOL     OW17320   1.061   4.788   4.946
 5474SOL    HW117321   1.103   4.877   4.966
 5474SOL    HW217322   1.038   4.742   5.032
 5475SOL     OW17323   1.375   2.070   0.570
 5475SOL    HW117324   1.381   1.989   0.628
 5475SOL    HW217325   1.285   2.074   0.527
 5476SOL     OW17326   2.066   4.569   5.122
 5476SOL    HW117327   2.082   4.473   5.095
 5476SOL    HW217328   2.082   4.628   5.043
 5477SOL     OW17329   1.911   4.025   2.948
 5477SOL    HW117330   1.977   3.950   2.953
 5477SOL    HW217331   1.939   4.098   3.010
 5478SOL     OW17332   4.301   0.073   5.477
 5478SOL    HW117333   4.292   0.125   5.392
 5478SOL    HW217334   4.210   0.044   5.508
 5479SOL     OW17335   5.064   2.045   4.798
 5479SOL    HW117336   5.012   2.129   4.784
 5479SOL    HW217337   5.065   2.022   4.895
 5480SOL     OW17338   5.144   5.504   4.317
 5480SOL    HW117339   5.125   5.601   4.334
 5480SOL    HW217340   5.242   5.488   4.322
 5481SOL     OW17341   4.643   1.723   4.412
 5481SOL    HW117342   4.569   1.673   4.458
 5481SOL    HW217343   4.609   1.762   4.327
 5482SOL     OW17344   3.806   3.586   2.193
 5482SOL    HW117345   3.742   3.662   2.183
 5482SOL    HW217346   3.899   3.620   2.188
 5483SOL     OW17347   0.583   2.176   5.174
 5483SOL    HW117348   0.604   2.108   5.104
 5483SOL    HW217349   0.484   2.187   5.183
 5484SOL     OW17350   5.033   0.642   4.141
 5484SOL    HW117351   4.936   0.662   4.154
 5484SOL    HW217352   5.061   0.671   4.050
 5485SOL     OW17353   3.169   0.006   5.259
 5485SOL    HW117354   3.199   0.099   5.235
 5485SOL    HW217355   3.072   7.017   5.240
 5486SOL     OW17356   2.059   5.729   5.387
 5486SOL    HW117357   2.142   5.754   5.438
 5486SOL    HW217358   2.064   5.632   5.362
 5487SOL     OW17359   4.917   3.178   6.229
 5487SOL    HW117360   4.933   3.143   6.322
 5487SOL    HW217361   4.890   3.274   6.235
 5488SOL     OW17362   5.620   0.972   1.314
 5488SOL    HW117363   5.708   0.929   1.336
 5488SOL    HW217364   5.553   0.949   1.384
 5489SOL     OW17365   1.394   4.929   1.218
 5489SOL    HW117366   1.308   4.879   1.231
 5489SOL    HW217367   1.466   4.884   1.270
 5490SOL     OW17368   3.703   0.021   0.156
 5490SOL    HW117369   3.782   6.986   0.134
 5490SOL    HW217370   3.624   7.013   0.102
 5491SOL     OW17371   2.068   4.059   0.815
 5491SOL    HW117372   2.090   4.065   0.912
 5491SOL    HW217373   2.090   3.967   0.781
 5492SOL     OW17374   0.584   2.168   6.429
 5492SOL    HW117375   0.678   2.148   6.455
 5492SOL    HW217376   0.522   2.141   6.503
 5493SOL     OW17377   3.791   4.042   4.285
 5493SOL    HW117378   3.698   4.017   4.313
 5493SOL    HW217379   3.787   4.104   4.206
 5494SOL     OW17380   6.565   2.554   6.565
 5494SOL    HW117381   6.563   2.567   6.466
 5494SOL    HW217382   6.556   2.643   6.610
 5495SOL     OW17383   4.210   2.315   1.335
 5495SOL    HW117384   4.152   2.264   1.398
 5495SOL    HW217385   4.153   2.367   1.271
 5496SOL     OW17386   2.550   6.793   2.883
 5496SOL    HW117387   2.587   6.875   2.840
 5496SOL    HW217388   2.625   6.741   2.924
 5497SOL     OW17389   0.344   1.858   4.210
 5497SOL    HW117390   0.365   1.786   4.143
 5497SOL    HW217391   0.263   1.907   4.180
 5498SOL     OW17392   5.673   6.536   1.109
 5498SOL    HW117393   5.642   6.467   1.043
 5498SOL    HW217394   5.617   6.530   1.192
 5499SOL     OW17395   6.893   0.653   4.611
 5499SOL    HW117396   6.914   0.576   4.550
 5499SOL    HW217397   6.975   0.680   4.661
 5500SOL     OW17398   1.625   0.043   0.562
 5500SOL    HW117399   1.625   6.970   0.593
 5500SOL    HW217400   1.570   0.051   0.479
 5501SOL     OW17401   4.037   6.490   0.397
 5501SOL    HW117402   4.037   6.577   0.349
 5501SOL    HW217403   3.974   6.427   0.352
 5502SOL     OW17404   5.864   3.514   0.239
 5502SOL    HW117405   5.772   3.480   0.221
 5502SOL    HW217406   5.907   3.540   0.152
 5503SOL     OW17407   0.082   5.249   2.888
 5503SOL    HW117408   0.112   5.326   2.832
 5503SOL    HW217409   0.114   5.263   2.982
 5504SOL     OW17410   3.955   0.972   4.992
 5504SOL    HW117411   3.953   1.026   4.908
 5504SOL    HW217412   3.960   1.033   5.071
 5505SOL     OW17413   1.537   5.530   4.417
 5505SOL    HW117414   1.567   5.437   4.396
 5505SOL    HW217415   1.599   5.596   4.374
 5506SOL     OW17416   1.701   1.806   6.126
 5506SOL    HW117417   1.771   1.876   6.142
 5506SOL    HW217418   1.725   1.752   6.046
 5507SOL     OW17419   2.769   0.198   3.780
 5507SOL    HW117420   2.791   0.135   3.706
 5507SOL    HW217421   2.697   0.261   3.751
 5508SOL     OW17422   1.392   0.748   6.188
 5508SOL    HW117423   1.378   0.660   6.142
 5508SOL    HW217424   1.388   0.735   6.287
 5509SOL     OW17425   0.799   6.526   0.390
 5509SOL    HW117426   0.817   6.470   0.309
 5509SOL    HW217427   0.738   6.477   0.452
 5510SOL     OW17428   4.829   5.659   1.119
 5510SOL    HW117429   4.920   5.619   1.105
 5510SOL    HW217430   4.832   5.756   1.095
 5511SOL     OW17431   2.294   1.632   4.362
 5511SOL    HW117432   2.224   1.570   4.398
 5511SOL    HW217433   2.329   1.596   4.276
 5512SOL     OW17434   5.963   2.086   1.815
 5512SOL    HW117435   5.886   2.026   1.794
 5512SOL    HW217436   6.031   2.079   1.742
 5513SOL     OW17437   4.263   5.344   6.669
 5513SOL    HW117438   4.251   5.258   6.619
 5513SOL    HW217439   4.345   5.338   6.726
 5514SOL     OW17440   3.818   6.730   3.433
 5514SOL    HW117441   3.843   6.826   3.421
 5514SOL    HW217442   3.869   6.692   3.511
 5515SOL     OW17443   0.410   5.050   1.084
 5515SOL    HW117444   0.479   5.041   1.012
 5515SOL    HW217445   0.323   5.078   1.043
 5516SOL     OW17446   1.879   3.968   6.836
 5516SOL    HW117447   1.927   3.881   6.829
 5516SOL    HW217448   1.935   4.040   6.793
 5517SOL     OW17449   2.039   3.280   1.842
 5517SOL    HW117450   2.024   3.347   1.914
 5517SOL    HW217451   2.083   3.325   1.764
 5518SOL     OW17452   6.607   6.719   6.780
 5518SOL    HW117453   6.661   6.779   6.839
 5518SOL    HW217454   6.528   6.684   6.830
 5519SOL     OW17455   5.272   3.359   3.163
 5519SOL    HW117456   5.254   3.412   3.246
 5519SOL    HW217457   5.191   3.307   3.138
 5520SOL     OW17458   6.352   6.012   1.787
 5520SOL    HW117459   6.385   5.956   1.864
 5520SOL    HW217460   6.413   5.999   1.708
 5521SOL     OW17461   5.158   6.988   1.624
 5521SOL    HW117462   5.147   0.050   1.678
 5521SOL    HW217463   5.082   6.926   1.642
 5522SOL     OW17464   6.848   5.269   0.672
 5522SOL    HW117465   6.793   5.301   0.596
 5522SOL    HW217466   6.909   5.342   0.703
 5523SOL     OW17467   3.779   0.236   2.173
 5523SOL    HW117468   3.859   0.256   2.230
 5523SOL    HW217469   3.804   0.170   2.102
 5524SOL     OW17470   5.046   5.161   4.882
 5524SOL    HW117471   4.976   5.119   4.825
 5524SOL    HW217472   5.013   5.249   4.917
 5525SOL     OW17473   0.250   2.520   0.681
 5525SOL    HW117474   0.175   2.535   0.745
 5525SOL    HW217475   0.332   2.565   0.716
 5526SOL     OW17476   4.637   4.684   4.348
 5526SOL    HW117477   4.602   4.777   4.359
 5526SOL    HW217478   4.683   4.677   4.260
 5527SOL     OW17479   5.510   3.784   3.871
 5527SOL    HW117480   5.493   3.750   3.964
 5527SOL    HW217481   5.609   3.787   3.854
 5528SOL     OW17482   0.990   1.596   0.026
 5528SOL    HW117483   0.947   1.590   6.958
 5528SOL    HW217484   0.969   1.684   0.068
 5529SOL     OW17485   2.294   0.189   2.986
 5529SOL    HW117486   2.338   0.128   3.053
 5529SOL    HW217487   2.204   0.154   2.963
 5530SOL     OW17488   6.206   2.413   2.369
 5530SOL    HW117489   6.160   2.443   2.286
 5530SOL    HW217490   6.203   2.314   2.375
 5531SOL     OW17491   3.504   2.908   2.469
 5531SOL    HW117492   3.591   2.945   2.502
 5531SOL    HW217493   3.498   2.811   2.493
 5532SOL     OW17494   0.982   2.446   0.514
 5532SOL    HW117495   0.971   2.407   0.423
 5532SOL    HW217496   0.960   2.544   0.512
 5533SOL     OW17497   3.494   1.084   3.341
 5533SOL    HW117498   3.431   1.091   3.418
 5533SOL    HW217499   3.451   1.031   3.268
 5534SOL     OW17500   1.185   2.235   6.164
 5534SOL    HW117501   1.278   2.249   6.129
 5534SOL    HW217502   1.124   2.215   6.088
 5535SOL     OW17503   0.133   2.998   3.835
 5535SOL    HW117504   0.178   2.925   3.782
 5535SOL    HW217505   0.037   2.973   3.851
 5536SOL     OW17506   3.109   1.469   4.438
 5536SOL    HW117507   3.117   1.387   4.494
 5536SOL    HW217508   3.087   1.444   4.344
 5537SOL     OW17509   2.160   1.000   2.689
 5537SOL    HW117510   2.156   0.901   2.705
 5537SOL    HW217511   2.222   1.018   2.613
 5538SOL     OW17512   2.635   6.520   5.411
 5538SOL    HW117513   2.683   6.512   5.325
 5538SOL    HW217514   2.537   6.536   5.394
 5539SOL     OW17515   1.089   3.675   1.112
 5539SOL    HW117516   1.176   3.645   1.072
 5539SOL    HW217517   1.092   3.773   1.128
 5540SOL     OW17518   5.841   3.428   3.851
 5540SOL    HW117519   5.783   3.491   3.902
 5540SOL    HW217520   5.937   3.447   3.871
 5541SOL     OW17521   6.031   0.417   6.521
 5541SOL    HW117522   6.113   0.391   6.471
 5541SOL    HW217523   5.962   0.345   6.512
 5542SOL     OW17524   5.884   4.567   6.157
 5542SOL    HW117525   5.909   4.571   6.060
 5542SOL    HW217526   5.887   4.473   6.188
 5543SOL     OW17527   3.567   5.514   5.753
 5543SOL    HW117528   3.630   5.583   5.717
 5543SOL    HW217529   3.499   5.491   5.683
 5544SOL     OW17530   5.665   6.230   5.993
 5544SOL    HW117531   5.656   6.254   6.090
 5544SOL    HW217532   5.761   6.215   5.971
 5545SOL     OW17533   3.928   1.689   2.004
 5545SOL    HW117534   3.927   1.752   1.926
 5545SOL    HW217535   3.939   1.596   1.971
 5546SOL     OW17536   0.912   6.074   4.791
 5546SOL    HW117537   0.852   5.994   4.787
 5546SOL    HW217538   0.937   6.102   4.698
 5547SOL     OW17539   3.071   0.138   4.551
 5547SOL    HW117540   2.994   0.103   4.497
 5547SOL    HW217541   3.152   0.082   4.534
 5548SOL     OW17542   5.508   3.473   5.922
 5548SOL    HW117543   5.418   3.510   5.898
 5548SOL    HW217544   5.551   3.530   5.991
 5549SOL     OW17545   4.376   3.887   6.859
 5549SOL    HW117546   4.327   3.970   6.833
 5549SOL    HW217547   4.377   3.878   6.958
 5550SOL     OW17548   2.392   4.346   2.013
 5550SOL    HW117549   2.384   4.278   1.940
 5550SOL    HW217550   2.470   4.406   1.994
 5551SOL     OW17551   1.885   0.062   3.154
 5551SOL    HW117552   1.938   0.038   3.235
 5551SOL    HW217553   1.833   0.145   3.170
 5552SOL     OW17554   0.129   0.120   0.063
 5552SOL    HW117555   0.207   0.181   0.074
 5552SOL    HW217556   0.044   0.173   0.065
 5553SOL     OW17557   5.559   6.311   6.750
 5553SOL    HW117558   5.645   6.302   6.700
 5553SOL    HW217559   5.482   6.305   6.686
 5554SOL     OW17560   4.404   1.581   5.254
 5554SOL    HW117561   4.417   1.668   5.205
 5554SOL    HW217562   4.310   1.578   5.290
 5555SOL     OW17563   2.111   4.552   3.828
 5555SOL    HW117564   2.141   4.615   3.900
 5555SOL    HW217565   2.031   4.502   3.859
 5556SOL     OW17566   6.701   1.548   3.315
 5556SOL    HW117567   6.643   1.612   3.365
 5556SOL    HW217568   6.764   1.503   3.378
 5557SOL     OW17569   3.631   6.843   2.403
 5557SOL    HW117570   3.621   6.804   2.495
 5557SOL    HW217571   3.616   6.771   2.335
 5558SOL     OW17572   4.819   3.631   6.038
 5558SOL    HW117573   4.859   3.698   6.100
 5558SOL    HW217574   4.728   3.662   6.010
 5559SOL     OW17575   2.370   0.724   2.306
 5559SOL    HW117576   2.317   0.796   2.262
 5559SOL    HW217577   2.359   0.638   2.255
 5560SOL     OW17578   1.327   0.294   3.100
 5560SOL    HW117579   1.308   0.241   3.018
 5560SOL    HW217580   1.350   0.231   3.175
 5561SOL     OW17581   1.293   2.405   4.363
 5561SOL    HW117582   1.279   2.392   4.265
 5561SOL    HW217583   1.327   2.497   4.380
 5562SOL     OW17584   3.250   2.147   6.991
 5562SOL    HW117585   3.172   2.210   6.987
 5562SOL    HW217586   3.335   2.199   6.998
 5563SOL     OW17587   4.272   5.542   2.271
 5563SOL    HW117588   4.172   5.538   2.272
 5563SOL    HW217589   4.309   5.449   2.277
 5564SOL     OW17590   4.544   1.361   1.927
 5564SOL    HW117591   4.643   1.362   1.944
 5564SOL    HW217592   4.499   1.426   1.988
 5565SOL     OW17593   4.871   1.499   6.110
 5565SOL    HW117594   4.788   1.470   6.063
 5565SOL    HW217595   4.904   1.584   6.070
 5566SOL     OW17596   1.969   5.711   0.017
 5566SOL    HW117597   2.055   5.661   0.016
 5566SOL    HW217598   1.896   5.654   7.001
 5567SOL     OW17599   0.357   3.759   1.699
 5567SOL    HW117600   0.426   3.689   1.678
 5567SOL    HW217601   0.283   3.755   1.632
 5568SOL     OW17602   4.111   2.243   3.347
 5568SOL    HW117603   4.098   2.253   3.248
 5568SOL    HW217604   4.189   2.299   3.376
 5569SOL     OW17605   1.929   1.422   2.690
 5569SOL    HW117606   1.994   1.498   2.693
 5569SOL    HW217607   1.838   1.456   2.713
 5570SOL     OW17608   5.442   4.248   4.608
 5570SOL    HW117609   5.475   4.325   4.553
 5570SOL    HW217610   5.517   4.210   4.662
 5571SOL     OW17611   0.105   5.613   0.429
 5571SOL    HW117612   0.113   5.514   0.420
 5571SOL    HW217613   0.195   5.652   0.449
 5572SOL     OW17614   0.768   2.338   5.055
 5572SOL    HW117615   0.697   2.298   5.114
 5572SOL    HW217616   0.778   2.435   5.076
 5573SOL     OW17617   1.734   3.683   6.756
 5573SOL    HW117618   1.727   3.601   6.698
 5573SOL    HW217619   1.826   3.688   6.795
 5574SOL     OW17620   6.238   1.938   3.324
 5574SOL    HW117621   6.243   1.875   3.246
 5574SOL    HW217622   6.143   1.944   3.354
 5575SOL     OW17623   6.858   1.246   0.753
 5575SOL    HW117624   6.773   1.267   0.802
 5575SOL    HW217625   6.851   1.155   0.713
 5576SOL     OW17626   1.000   5.721   2.810
 5576SOL    HW117627   0.932   5.652   2.835
 5576SOL    HW217628   1.030   5.769   2.893
 5577SOL     OW17629   2.776   2.428   5.238
 5577SOL    HW117630   2.735   2.413   5.328
 5577SOL    HW217631   2.833   2.511   5.241
 5578SOL     OW17632   3.987   4.271   0.139
 5578SOL    HW117633   4.034   4.356   0.161
 5578SOL    HW217634   4.012   4.201   0.205
 5579SOL     OW17635   0.253   3.475   6.158
 5579SOL    HW117636   0.311   3.419   6.217
 5579SOL    HW217637   0.157   3.455   6.177
 5580SOL     OW17638   5.059   2.909   5.922
 5580SOL    HW117639   5.075   2.810   5.926
 5580SOL    HW217640   5.053   2.938   5.827
 5581SOL     OW17641   2.763   6.801   1.789
 5581SOL    HW117642   2.724   6.889   1.764
 5581SOL    HW217643   2.776   6.746   1.707
 5582SOL     OW17644   3.643   3.229   4.322
 5582SOL    HW117645   3.689   3.181   4.396
 5582SOL    HW217646   3.554   3.186   4.305
 5583SOL     OW17647   4.085   0.490   3.008
 5583SOL    HW117648   4.050   0.528   3.094
 5583SOL    HW217649   4.092   0.562   2.940
 5584SOL     OW17650   5.777   4.419   3.959
 5584SOL    HW117651   5.794   4.382   3.868
 5584SOL    HW217652   5.679   4.429   3.973
 5585SOL     OW17653   4.932   6.460   4.135
 5585SOL    HW117654   4.897   6.482   4.226
 5585SOL    HW217655   5.025   6.423   4.144
 5586SOL     OW17656   0.049   2.324   6.855
 5586SOL    HW117657   7.004   2.383   6.808
 5586SOL    HW217658   0.115   2.380   6.904
 5587SOL     OW17659   3.952   5.992   2.581
 5587SOL    HW117660   3.877   5.974   2.518
 5587SOL    HW217661   4.026   5.927   2.566
 5588SOL     OW17662   1.746   7.006   2.624
 5588SOL    HW117663   1.750   7.013   2.724
 5588SOL    HW217664   1.674   6.941   2.598
 5589SOL     OW17665   5.906   2.817   6.239
 5589SOL    HW117666   5.840   2.751   6.277
 5589SOL    HW217667   5.932   2.883   6.310
 5590SOL     OW17668   6.767   5.720   3.126
 5590SOL    HW117669   6.692   5.779   3.097
 5590SOL    HW217670   6.729   5.638   3.169
 5591SOL     OW17671   5.922   1.277   6.940
 5591SOL    HW117672   5.918   1.201   7.005
 5591SOL    HW217673   5.963   1.245   6.855
 5592SOL     OW17674   0.269   4.633   2.769
 5592SOL    HW117675   0.234   4.542   2.794
 5592SOL    HW217676   0.259   4.647   2.671
 5593SOL     OW17677   6.909   2.150   6.069
 5593SOL    HW117678   6.926   2.167   5.972
 5593SOL    HW217679   6.846   2.219   6.104
 5594SOL     OW17680   2.857   0.901   6.994
 5594SOL    HW117681   2.809   0.988   7.004
 5594SOL    HW217682   2.808   0.843   6.927
 5595SOL     OW17683   5.818   0.210   5.427
 5595SOL    HW117684   5.805   0.142   5.499
 5595SOL    HW217685   5.729   0.233   5.387
 5596SOL     OW17686   4.987   0.486   2.969
 5596SOL    HW117687   5.058   0.540   3.013
 5596SOL    HW217688   4.902   0.539   2.965
 5597SOL     OW17689   6.797   1.812   5.486
 5597SOL    HW117690   6.797   1.909   5.462
 5597SOL    HW217691   6.722   1.794   5.550
 5598SOL     OW17692   6.514   2.711   4.557
 5598SOL    HW117693   6.484   2.778   4.625
 5598SOL    HW217694   6.435   2.660   4.524
 5599SOL     OW17695   0.161   2.363   1.821
 5599SOL    HW117696   0.063   2.367   1.802
 5599SOL    HW217697   0.196   2.456   1.831
 5600SOL     OW17698   2.524   0.172   2.317
 5600SOL    HW117699   2.566   0.096   2.367
 5600SOL    HW217700   2.533   0.156   2.218
 5601SOL     OW17701   3.450   1.448   6.223
 5601SOL    HW117702   3.512   1.420   6.297
 5601SOL    HW217703   3.387   1.518   6.256
 5602SOL     OW17704   0.621   0.278   2.331
 5602SOL    HW117705   0.574   0.255   2.416
 5602SOL    HW217706   0.694   0.344   2.350
 5603SOL     OW17707   5.465   2.170   6.441
 5603SOL    HW117708   5.545   2.138   6.491
 5603SOL    HW217709   5.494   2.226   6.364
 5604SOL     OW17710   6.839   2.320   5.256
 5604SOL    HW117711   6.830   2.413   5.220
 5604SOL    HW217712   6.758   2.266   5.232
 5605SOL     OW17713   1.566   0.014   4.451
 5605SOL    HW117714   1.576   0.110   4.424
 5605SOL    HW217715   1.590   0.004   4.547
 5606SOL     OW17716   5.800   1.033   0.999
 5606SOL    HW117717   5.776   0.951   1.050
 5606SOL    HW217718   5.717   1.086   0.980
 5607SOL     OW17719   5.663   1.455   3.907
 5607SOL    HW117720   5.641   1.358   3.897
 5607SOL    HW217721   5.732   1.482   3.840
 5608SOL     OW17722   6.266   1.610   2.948
 5608SOL    HW117723   6.341   1.547   2.967
 5608SOL    HW217724   6.301   1.703   2.943
 5609SOL     OW17725   4.788   6.068   1.354
 5609SOL    HW117726   4.726   5.998   1.388
 5609SOL    HW217727   4.769   6.155   1.399
 5610SOL     OW17728   5.110   4.204   1.169
 5610SOL    HW117729   5.198   4.241   1.197
 5610SOL    HW217730   5.121   4.147   1.088
 5611SOL     OW17731   0.719   5.129   2.791
 5611SOL    HW117732   0.682   5.219   2.770
 5611SOL    HW217733   0.715   5.071   2.710
 5612SOL     OW17734   3.838   3.464   0.787
 5612SOL    HW117735   3.777   3.395   0.827
 5612SOL    HW217736   3.796   3.501   0.704
 5613SOL     OW17737   5.594   5.189   5.080
 5613SOL    HW117738   5.686   5.179   5.120
 5613SOL    HW217739   5.562   5.101   5.047
 5614SOL     OW17740   5.213   3.375   5.126
 5614SOL    HW117741   5.122   3.400   5.093
 5614SOL    HW217742   5.282   3.411   5.065
 5615SOL     OW17743   6.372   1.457   3.864
 5615SOL    HW117744   6.286   1.406   3.864
 5615SOL    HW217745   6.373   1.521   3.940
 5616SOL     OW17746   1.886   2.797   4.516
 5616SOL    HW117747   1.937   2.865   4.464
 5616SOL    HW217748   1.926   2.789   4.608
 5617SOL     OW17749   1.233   4.120   4.996
 5617SOL    HW117750   1.221   4.074   5.085
 5617SOL    HW217751   1.181   4.070   4.926
 5618SOL     OW17752   6.540   4.599   3.309
 5618SOL    HW117753   6.486   4.515   3.303
 5618SOL    HW217754   6.583   4.605   3.399
 5619SOL     OW17755   3.267   3.734   3.716
 5619SOL    HW117756   3.178   3.735   3.669
 5619SOL    HW217757   3.287   3.826   3.750
 5620SOL     OW17758   4.651   3.958   6.817
 5620SOL    HW117759   4.556   3.929   6.827
 5620SOL    HW217760   4.658   4.022   6.741
 5621SOL     OW17761   1.387   2.824   6.772
 5621SOL    HW117762   1.349   2.893   6.834
 5621SOL    HW217763   1.391   2.862   6.679
 5622SOL     OW17764   4.986   0.221   5.356
 5622SOL    HW117765   4.923   0.283   5.403
 5622SOL    HW217766   5.064   0.202   5.414
 5623SOL     OW17767   4.441   6.653   4.875
 5623SOL    HW117768   4.504   6.683   4.947
 5623SOL    HW217769   4.437   6.722   4.803
 5624SOL     OW17770   0.497   4.746   3.889
 5624SOL    HW117771   0.532   4.655   3.864
 5624SOL    HW217772   0.450   4.740   3.977
 5625SOL     OW17773   6.780   6.366   5.487
 5625SOL    HW117774   6.873   6.394   5.512
 5625SOL    HW217775   6.762   6.275   5.526
 5626SOL     OW17776   2.663   4.920   4.028
 5626SOL    HW117777   2.722   4.988   4.072
 5626SOL    HW217778   2.695   4.828   4.051
 5627SOL     OW17779   0.089   4.671   6.383
 5627SOL    HW117780   0.043   4.738   6.442
 5627SOL    HW217781   0.090   4.582   6.429
 5628SOL     OW17782   1.878   2.418   1.333
 5628SOL    HW117783   1.800   2.380   1.283
 5628SOL    HW217784   1.845   2.481   1.404
 5629SOL     OW17785   4.860   3.229   1.868
 5629SOL    HW117786   4.949   3.195   1.835
 5629SOL    HW217787   4.806   3.152   1.902
 5630SOL     OW17788   1.899   4.402   6.669
 5630SOL    HW117789   1.898   4.343   6.750
 5630SOL    HW217790   1.842   4.362   6.598
 5631SOL     OW17791   4.548   1.740   1.564
 5631SOL    HW117792   4.630   1.725   1.509
 5631SOL    HW217793   4.485   1.799   1.513
 5632SOL     OW17794   3.316   2.320   5.421
 5632SOL    HW117795   3.364   2.384   5.480
 5632SOL    HW217796   3.296   2.363   5.334
 5633SOL     OW17797   6.152   4.613   4.623
 5633SOL    HW117798   6.160   4.561   4.537
 5633SOL    HW217799   6.056   4.625   4.645
 5634SOL     OW17800   2.034   4.751   4.912
 5634SOL    HW117801   1.937   4.777   4.901
 5634SOL    HW217802   2.061   4.690   4.838
 5635SOL     OW17803   1.916   6.591   6.954
 5635SOL    HW117804   1.942   6.575   6.859
 5635SOL    HW217805   1.833   6.647   6.957
 5636SOL     OW17806   6.514   0.100   4.947
 5636SOL    HW117807   6.456   0.169   4.905
 5636SOL    HW217808   6.600   0.141   4.976
 5637SOL     OW17809   3.828   0.008   3.503
 5637SOL    HW117810   3.751   0.072   3.493
 5637SOL    HW217811   3.822   6.985   3.593
 5638SOL     OW17812   6.322   4.155   0.890
 5638SOL    HW117813   6.235   4.205   0.887
 5638SOL    HW217814   6.334   4.105   0.804
 5639SOL     OW17815   2.423   0.539   1.966
 5639SOL    HW117816   2.444   0.457   1.913
 5639SOL    HW217817   2.503   0.565   2.020
 5640SOL     OW17818   2.870   0.655   2.689
 5640SOL    HW117819   2.789   0.701   2.653
 5640SOL    HW217820   2.879   0.673   2.786
 5641SOL     OW17821   0.943   4.662   5.986
 5641SOL    HW117822   1.019   4.698   6.039
 5641SOL    HW217823   0.949   4.695   5.892
 5642SOL     OW17824   0.550   5.586   5.108
 5642SOL    HW117825   0.637   5.560   5.148
 5642SOL    HW217826   0.538   5.685   5.113
 5643SOL     OW17827   2.899   0.782   4.186
 5643SOL    HW117828   2.932   0.874   4.209
 5643SOL    HW217829   2.843   0.747   4.261
 5644SOL     OW17830   3.541   0.107   4.614
 5644SOL    HW117831   3.522   0.011   4.636
 5644SOL    HW217832   3.523   0.123   4.517
 5645SOL     OW17833   5.960   5.003   2.853
 5645SOL    HW117834   5.934   4.907   2.838
 5645SOL    HW217835   6.009   5.037   2.773
 5646SOL     OW17836   0.702   5.528   3.423
 5646SOL    HW117837   0.637   5.457   3.450
 5646SOL    HW217838   0.770   5.489   3.361
 5647SOL     OW17839   5.811   0.011   0.979
 5647SOL    HW117840   5.878   0.069   0.933
 5647SOL    HW217841   5.719   0.046   0.962
 5648SOL     OW17842   1.464   0.840   3.364
 5648SOL    HW117843   1.457   0.758   3.421
 5648SOL    HW217844   1.464   0.921   3.423
 5649SOL     OW17845   6.974   6.890   5.166
 5649SOL    HW117846   6.974   6.966   5.101
 5649SOL    HW217847   6.889   6.838   5.157
 5650SOL     OW17848   1.318   5.196   1.210
 5650SOL    HW117849   1.347   5.213   1.304
 5650SOL    HW217850   1.315   5.097   1.193
 5651SOL     OW17851   0.372   1.072   1.549
 5651SOL    HW117852   0.472   1.067   1.548
 5651SOL    HW217853   0.343   1.161   1.584
 5652SOL     OW17854   6.423   0.111   2.059
 5652SOL    HW117855   6.351   0.043   2.047
 5652SOL    HW217856   6.441   0.124   2.157
 5653SOL     OW17857   0.827   6.068   6.502
 5653SOL    HW117858   0.824   6.027   6.411
 5653SOL    HW217859   0.774   6.153   6.501
 5654SOL     OW17860   6.446   6.746   5.926
 5654SOL    HW117861   6.478   6.669   5.870
 5654SOL    HW217862   6.481   6.737   6.019
 5655SOL     OW17863   1.870   3.858   5.112
 5655SOL    HW117864   1.829   3.771   5.084
 5655SOL    HW217865   1.969   3.853   5.102
 5656SOL     OW17866   0.208   3.426   0.354
 5656SOL    HW117867   0.201   3.326   0.366
 5656SOL    HW217868   0.231   3.468   0.442
 5657SOL     OW17869   5.717   1.450   6.980
 5657SOL    HW117870   5.624   1.429   6.948
 5657SOL    HW217871   5.781   1.386   6.936
 5658SOL     OW17872   3.920   4.810   6.010
 5658SOL    HW117873   3.986   4.879   6.040
 5658SOL    HW217874   3.828   4.846   6.018
 5659SOL     OW17875   3.883   3.570   4.088
 5659SOL    HW117876   3.842   3.480   4.072
 5659SOL    HW217877   3.821   3.641   4.054
 5660SOL     OW17878   5.666   0.532   6.743
 5660SOL    HW117879   5.648   0.624   6.777
 5660SOL    HW217880   5.719   0.481   6.811
 5661SOL     OW17881   1.390   5.149   5.092
 5661SOL    HW117882   1.388   5.248   5.079
 5661SOL    HW217883   1.439   5.127   5.177
 5662SOL     OW17884   3.144   5.304   2.879
 5662SOL    HW117885   3.135   5.351   2.791
 5662SOL    HW217886   3.227   5.334   2.925
 5663SOL     OW17887   2.322   3.472   0.022
 5663SOL    HW117888   2.264   3.403   0.066
 5663SOL    HW217889   2.388   3.426   6.983
 5664SOL     OW17890   6.282   4.210   4.634
 5664SOL    HW117891   6.221   4.215   4.713
 5664SOL    HW217892   6.229   4.190   4.552
 5665SOL     OW17893   1.740   1.798   0.260
 5665SOL    HW117894   1.745   1.757   0.351
 5665SOL    HW217895   1.800   1.748   0.198
 5666SOL     OW17896   5.872   5.858   1.919
 5666SOL    HW117897   5.866   5.792   1.994
 5666SOL    HW217898   5.780   5.885   1.891
 5667SOL     OW17899   0.898   5.045   4.451
 5667SOL    HW117900   0.858   5.132   4.482
 5667SOL    HW217901   0.996   5.056   4.438
 5668SOL     OW17902   5.392   1.742   5.027
 5668SOL    HW117903   5.315   1.678   5.017
 5668SOL    HW217904   5.399   1.771   5.123
 5669SOL     OW17905   0.441   2.965   0.193
 5669SOL    HW117906   0.356   2.913   0.180
 5669SOL    HW217907   0.518   2.901   0.203
 5670SOL     OW17908   6.801   2.567   3.733
 5670SOL    HW117909   6.810   2.627   3.813
 5670SOL    HW217910   6.712   2.583   3.690
 5671SOL     OW17911   0.385   5.860   6.993
 5671SOL    HW117912   0.345   5.784   0.022
 5671SOL    HW217913   0.447   5.825   6.922
 5672SOL     OW17914   4.198   4.988   6.202
 5672SOL    HW117915   4.294   4.992   6.174
 5672SOL    HW217916   4.182   4.904   6.254
 5673SOL     OW17917   0.868   6.763   2.006
 5673SOL    HW117918   0.820   6.715   1.932
 5673SOL    HW217919   0.914   6.696   2.064
 5674SOL     OW17920   0.171   4.974   5.168
 5674SOL    HW117921   0.110   5.048   5.197
 5674SOL    HW217922   0.149   4.891   5.220
 5675SOL     OW17923   4.130   1.965   5.682
 5675SOL    HW117924   4.031   1.981   5.690
 5675SOL    HW217925   4.162   1.914   5.761
 5676SOL     OW17926   1.731   2.708   2.310
 5676SOL    HW117927   1.670   2.741   2.382
 5676SOL    HW217928   1.802   2.776   2.293
 5677SOL     OW17929   6.828   0.957   1.511
 5677SOL    HW117930   6.911   0.989   1.556
 5677SOL    HW217931   6.780   0.893   1.571
 5678SOL     OW17932   3.976   6.552   2.892
 5678SOL    HW117933   3.995   6.511   2.804
 5678SOL    HW217934   3.996   6.487   2.965
 5679SOL     OW17935   1.111   1.292   4.031
 5679SOL    HW117936   1.155   1.204   4.050
 5679SOL    HW217937   1.041   1.279   3.962
 5680SOL     OW17938   1.492   5.111   6.703
 5680SOL    HW117939   1.435   5.030   6.687
 5680SOL    HW217940   1.435   5.193   6.698
 5681SOL     OW17941   0.298   4.574   0.290
 5681SOL    HW117942   0.327   4.587   0.385
 5681SOL    HW217943   0.198   4.570   0.286
 5682SOL     OW17944   2.492   4.084   5.537
 5682SOL    HW117945   2.426   4.052   5.470
 5682SOL    HW217946   2.580   4.039   5.523
 5683SOL     OW17947   3.922   0.625   6.639
 5683SOL    HW117948   3.920   0.712   6.591
 5683SOL    HW217949   4.000   0.624   6.703
 5684SOL     OW17950   3.089   3.678   5.407
 5684SOL    HW117951   3.170   3.704   5.355
 5684SOL    HW217952   3.029   3.623   5.351
 5685SOL     OW17953   1.474   2.800   2.390
 5685SOL    HW117954   1.478   2.848   2.302
 5685SOL    HW217955   1.391   2.827   2.439
 5686SOL     OW17956   3.130   0.848   6.138
 5686SOL    HW117957   3.049   0.836   6.082
 5686SOL    HW217958   3.117   0.925   6.201
 5687SOL     OW17959   0.416   4.608   6.424
 5687SOL    HW117960   0.473   4.539   6.379
 5687SOL    HW217961   0.320   4.582   6.415
 5688SOL     OW17962   0.385   2.224   0.799
 5688SOL    HW117963   0.427   2.261   0.716
 5688SOL    HW217964   0.440   2.250   0.879
 5689SOL     OW17965   4.020   1.463   1.129
 5689SOL    HW117966   4.079   1.544   1.120
 5689SOL    HW217967   4.066   1.394   1.184
 5690SOL     OW17968   2.378   5.925   0.454
 5690SOL    HW117969   2.476   5.917   0.435
 5690SOL    HW217970   2.360   6.008   0.505
 5691SOL     OW17971   2.971   0.056   1.937
 5691SOL    HW117972   2.933   0.002   2.012
 5691SOL    HW217973   3.069   0.069   1.952
 5692SOL     OW17974   5.919   3.205   0.554
 5692SOL    HW117975   5.973   3.184   0.635
 5692SOL    HW217976   5.940   3.140   0.482
 5693SOL     OW17977   5.469   2.253   2.261
 5693SOL    HW117978   5.421   2.291   2.340
 5693SOL    HW217979   5.537   2.319   2.229
 5694SOL     OW17980   0.278   1.912   3.526
 5694SOL    HW117981   0.314   1.847   3.593
 5694SOL    HW217982   0.239   1.861   3.449
 5695SOL     OW17983   1.063   2.696   2.912
 5695SOL    HW117984   1.099   2.658   2.998
 5695SOL    HW217985   1.064   2.796   2.917
 5696SOL     OW17986   1.425   0.987   2.932
 5696SOL    HW117987   1.354   1.057   2.928
 5696SOL    HW217988   1.441   0.962   3.028
 5697SOL     OW17989   5.905   2.537   1.831
 5697SOL    HW117990   5.838   2.586   1.886
 5697SOL    HW217991   5.867   2.450   1.801
 5698SOL     OW17992   0.911   3.744   3.372
 5698SOL    HW117993   0.830   3.794   3.340
 5698SOL    HW217994   0.993   3.790   3.341
 5699SOL     OW17995   0.265   2.204   3.518
 5699SOL    HW117996   0.344   2.263   3.503
 5699SOL    HW217997   0.291   2.108   3.503
 5700SOL     OW17998   0.128   0.036   4.226
 5700SOL    HW117999   0.162   7.002   4.150
 5700SOL    HW218000   0.087   0.120   4.191
 5701SOL     OW18001   1.726   0.798   2.323
 5701SOL    HW118002   1.811   0.847   2.346
 5701SOL    HW218003   1.663   0.804   2.401
 5702SOL     OW18004   2.564   6.090   4.978
 5702SOL    HW118005   2.550   5.999   5.017
 5702SOL    HW218006   2.538   6.159   5.046
 5703SOL     OW18007   6.302   4.692   1.257
 5703SOL    HW118008   6.225   4.737   1.302
 5703SOL    HW218009   6.328   4.743   1.175
 5704SOL     OW18010   4.310   4.624   2.446
 5704SOL    HW118011   4.239   4.571   2.400
 5704SOL    HW218012   4.270   4.673   2.524
 5705SOL     OW18013   4.810   1.005   0.883
 5705SOL    HW118014   4.900   1.043   0.862
 5705SOL    HW218015   4.762   0.985   0.798
 5706SOL     OW18016   6.597   3.654   0.556
 5706SOL    HW118017   6.633   3.746   0.571
 5706SOL    HW218018   6.571   3.643   0.460
 5707SOL     OW18019   0.414   6.622   0.425
 5707SOL    HW118020   0.456   6.562   0.356
 5707SOL    HW218021   0.318   6.637   0.402
 5708SOL     OW18022   5.318   6.298   1.256
 5708SOL    HW118023   5.301   6.260   1.165
 5708SOL    HW218024   5.234   6.338   1.292
 5709SOL     OW18025   1.488   6.813   2.496
 5709SOL    HW118026   1.533   6.726   2.478
 5709SOL    HW218027   1.523   6.883   2.434
 5710SOL     OW18028   2.826   2.826   0.183
 5710SOL    HW118029   2.833   2.740   0.233
 5710SOL    HW218030   2.805   2.900   0.246
 5711SOL     OW18031   5.052   1.300   2.688
 5711SOL    HW118032   5.014   1.211   2.661
 5711SOL    HW218033   5.127   1.286   2.753
 5712SOL     OW18034   0.262   6.045   6.290
 5712SOL    HW118035   0.219   6.066   6.202
 5712SOL    HW218036   0.191   6.036   6.360
 5713SOL     OW18037   2.743   3.033   1.709
 5713SOL    HW118038   2.715   2.995   1.620
 5713SOL    HW218039   2.839   3.012   1.725
 5714SOL     OW18040   0.576   5.774   6.796
 5714SOL    HW118041   0.640   5.766   6.719
 5714SOL    HW218042   0.621   5.745   6.880
 5715SOL     OW18043   0.500   6.637   3.695
 5715SOL    HW118044   0.465   6.561   3.640
 5715SOL    HW218045   0.470   6.626   3.790
 5716SOL     OW18046   1.436   4.075   6.816
 5716SOL    HW118047   1.410   4.023   6.735
 5716SOL    HW218048   1.506   4.143   6.791
 5717SOL     OW18049   2.126   5.770   0.451
 5717SOL    HW118050   2.195   5.842   0.462
 5717SOL    HW218051   2.035   5.811   0.454
 5718SOL     OW18052   0.368   2.443   5.833
 5718SOL    HW118053   0.465   2.443   5.810
 5718SOL    HW218054   0.317   2.486   5.758
 5719SOL     OW18055   3.137   1.490   6.652
 5719SOL    HW118056   3.065   1.526   6.593
 5719SOL    HW218057   3.145   1.548   6.734
 5720SOL     OW18058   1.455   5.398   5.041
 5720SOL    HW118059   1.413   5.454   4.970
 5720SOL    HW218060   1.463   5.451   5.125
 5721SOL     OW18061   0.727   3.949   1.102
 5721SOL    HW118062   0.768   3.934   1.012
 5721SOL    HW218063   0.699   4.045   1.110
 5722SOL     OW18064   6.289   1.680   5.355
 5722SOL    HW118065   6.251   1.736   5.429
 5722SOL    HW218066   6.215   1.650   5.294
 5723SOL     OW18067   4.606   3.546   0.070
 5723SOL    HW118068   4.685   3.508   0.117
 5723SOL    HW218069   4.636   3.590   7.006
 5724SOL     OW18070   5.119   2.838   4.948
 5724SOL    HW118071   5.176   2.755   4.942
 5724SOL    HW218072   5.068   2.849   4.862
 5725SOL     OW18073   5.272   4.837   3.518
 5725SOL    HW118074   5.260   4.847   3.617
 5725SOL    HW218075   5.288   4.927   3.477
 5726SOL     OW18076   0.061   4.396   5.257
 5726SOL    HW118077   0.065   4.304   5.295
 5726SOL    HW218078   0.028   4.460   5.327
 5727SOL     OW18079   6.650   1.209   3.981
 5727SOL    HW118080   6.674   1.113   4.000
 5727SOL    HW218081   6.618   1.217   3.887
 5728SOL     OW18082   3.918   1.086   5.927
 5728SOL    HW118083   3.875   1.152   5.989
 5728SOL    HW218084   3.948   1.133   5.844
 5729SOL     OW18085   0.830   1.029   0.698
 5729SOL    HW118086   0.920   1.070   0.679
 5729SOL    HW218087   0.776   1.091   0.754
 5730SOL     OW18088   4.924   5.572   5.987
 5730SOL    HW118089   4.893   5.541   6.077
 5730SOL    HW218090   4.983   5.502   5.947
 5731SOL     OW18091   0.507   6.892   4.025
 5731SOL    HW118092   0.543   6.888   4.119
 5731SOL    HW218093   0.584   6.896   3.961
 5732SOL     OW18094   6.328   5.250   4.479
 5732SOL    HW118095   6.395   5.316   4.444
 5732SOL    HW218096   6.237   5.294   4.482
 5733SOL     OW18097   3.648   6.725   4.947
 5733SOL    HW118098   3.683   6.642   4.988
 5733SOL    HW218099   3.589   6.773   5.012
 5734SOL     OW18100   0.826   6.980   6.192
 5734SOL    HW118101   0.859   0.052   6.204
 5734SOL    HW218102   0.773   6.974   6.107
 5735SOL     OW18103   3.884   2.068   2.041
 5735SOL    HW118104   3.862   1.994   1.977
 5735SOL    HW218105   3.800   2.117   2.064
 5736SOL     OW18106   5.911   4.146   0.515
 5736SOL    HW118107   5.963   4.084   0.457
 5736SOL    HW218108   5.968   4.177   0.591
 5737SOL     OW18109   4.774   6.459   0.681
 5737SOL    HW118110   4.683   6.427   0.707
 5737SOL    HW218111   4.767   6.520   0.602
 5738SOL     OW18112   2.988   3.186   6.278
 5738SOL    HW118113   2.915   3.161   6.214
 5738SOL    HW218114   2.969   3.147   6.368
 5739SOL     OW18115   1.073   0.656   5.671
 5739SOL    HW118116   1.149   0.678   5.610
 5739SOL    HW218117   1.027   0.741   5.699
 5740SOL     OW18118   4.198   3.735   1.510
 5740SOL    HW118119   4.213   3.834   1.508
 5740SOL    HW218120   4.114   3.713   1.460
 5741SOL     OW18121   0.101   4.186   4.170
 5741SOL    HW118122   0.020   4.244   4.164
 5741SOL    HW218123   0.169   4.230   4.229
 5742SOL     OW18124   4.889   6.719   2.982
 5742SOL    HW118125   4.895   6.813   3.014
 5742SOL    HW218126   4.873   6.719   2.883
 5743SOL     OW18127   2.676   5.288   5.316
 5743SOL    HW118128   2.590   5.325   5.280
 5743SOL    HW218129   2.691   5.197   5.277
 5744SOL     OW18130   5.194   1.613   2.042
 5744SOL    HW118131   5.195   1.587   1.946
 5744SOL    HW218132   5.160   1.706   2.052
 5745SOL     OW18133   1.798   0.815   4.215
 5745SOL    HW118134   1.745   0.891   4.177
 5745SOL    HW218135   1.758   0.729   4.185
 5746SOL     OW18136   5.439   6.540   1.286
 5746SOL    HW118137   5.402   6.448   1.281
 5746SOL    HW218138   5.406   6.593   1.208
 5747SOL     OW18139   0.173   4.389   2.999
 5747SOL    HW118140   0.139   4.380   2.905
 5747SOL    HW218141   0.265   4.351   3.005
 5748SOL     OW18142   1.684   6.096   0.823
 5748SOL    HW118143   1.600   6.126   0.777
 5748SOL    HW218144   1.695   6.146   0.909
 5749SOL     OW18145   1.088   6.526   4.338
 5749SOL    HW118146   1.058   6.438   4.302
 5749SOL    HW218147   1.186   6.537   4.321
 5750SOL     OW18148   6.937   6.047   4.383
 5750SOL    HW118149   6.979   5.989   4.453
 5750SOL    HW218150   6.844   6.015   4.365
 5751SOL     OW18151   2.692   2.454   4.358
 5751SOL    HW118152   2.770   2.423   4.412
 5751SOL    HW218153   2.615   2.472   4.419
 5752SOL     OW18154   6.617   0.634   0.314
 5752SOL    HW118155   6.670   0.642   0.398
 5752SOL    HW218156   6.628   0.542   0.275
 5753SOL     OW18157   3.762   3.021   4.515
 5753SOL    HW118158   3.754   2.978   4.425
 5753SOL    HW218159   3.672   3.027   4.557
 5754SOL     OW18160   6.763   4.939   1.279
 5754SOL    HW118161   6.845   4.973   1.325
 5754SOL    HW218162   6.702   4.897   1.347
 5755SOL     OW18163   2.124   3.426   6.255
 5755SOL    HW118164   2.088   3.335   6.236
 5755SOL    HW218165   2.150   3.471   6.169
 5756SOL     OW18166   6.224   6.866   3.191
 5756SOL    HW118167   6.256   6.939   3.130
 5756SOL    HW218168   6.302   6.826   3.239
 5757SOL     OW18169   6.763   6.707   2.831
 5757SOL    HW118170   6.807   6.654   2.903
 5757SOL    HW218171   6.729   6.793   2.869
 5758SOL     OW18172   2.430   0.651   4.495
 5758SOL    HW118173   2.488   0.716   4.444
 5758SOL    HW218174   2.347   0.697   4.526
 5759SOL     OW18175   5.356   1.711   6.800
 5759SOL    HW118176   5.315   1.767   6.727
 5759SOL    HW218177   5.319   1.739   6.888
 5760SOL     OW18178   0.169   4.494   0.577
 5760SOL    HW118179   0.147   4.445   0.493
 5760SOL    HW218180   0.144   4.438   0.656
 5761SOL     OW18181   5.678   6.314   6.260
 5761SOL    HW118182   5.729   6.331   6.344
 5761SOL    HW218183   5.624   6.396   6.237
 5762SOL     OW18184   4.778   5.478   0.616
 5762SOL    HW118185   4.724   5.394   0.611
 5762SOL    HW218186   4.810   5.503   0.524
 5763SOL     OW18187   0.398   6.979   0.299
 5763SOL    HW118188   0.407   6.971   0.200
 5763SOL    HW218189   0.305   7.005   0.322
 5764SOL     OW18190   5.361   5.173   5.239
 5764SOL    HW118191   5.442   5.209   5.193
 5764SOL    HW218192   5.303   5.127   5.173
 5765SOL     OW18193   6.242   3.203   0.567
 5765SOL    HW118194   6.305   3.265   0.616
 5765SOL    HW218195   6.246   3.223   0.469
 5766SOL     OW18196   1.918   2.534   6.644
 5766SOL    HW118197   1.920   2.628   6.680
 5766SOL    HW218198   1.866   2.533   6.558
 5767SOL     OW18199   1.965   0.892   0.128
 5767SOL    HW118200   2.010   0.964   0.074
 5767SOL    HW218201   1.901   0.843   0.070
 5768SOL     OW18202   1.080   6.398   3.179
 5768SOL    HW118203   1.115   6.324   3.237
 5768SOL    HW218204   1.070   6.364   3.086
 5769SOL     OW18205   2.188   5.828   4.086
 5769SOL    HW118206   2.110   5.827   4.148
 5769SOL    HW218207   2.222   5.735   4.074
 5770SOL     OW18208   5.981   6.741   0.524
 5770SOL    HW118209   6.065   6.763   0.475
 5770SOL    HW218210   5.943   6.824   0.565
 5771SOL     OW18211   1.690   7.014   3.473
 5771SOL    HW118212   1.737   6.926   3.465
 5771SOL    HW218213   1.751   0.066   3.445
 5772SOL     OW18214   5.949   1.878   1.239
 5772SOL    HW118215   5.890   1.876   1.320
 5772SOL    HW218216   5.929   1.960   1.186
 5773SOL     OW18217   4.264   0.932   3.736
 5773SOL    HW118218   4.275   1.029   3.757
 5773SOL    HW218219   4.167   0.908   3.739
 5774SOL     OW18220   2.967   5.476   3.507
 5774SOL    HW118221   2.973   5.489   3.408
 5774SOL    HW218222   2.878   5.508   3.539
 5775SOL     OW18223   1.409   1.363   2.115
 5775SOL    HW118224   1.311   1.357   2.100
 5775SOL    HW218225   1.452   1.275   2.096
 5776SOL     OW18226   0.453   0.668   5.427
 5776SOL    HW118227   0.370   0.724   5.436
 5776SOL    HW218228   0.428   0.571   5.429
 5777SOL     OW18229   6.320   0.042   4.676
 5777SOL    HW118230   6.402   0.018   4.623
 5777SOL    HW218231   6.347   0.092   4.758
 5778SOL     OW18232   1.472   0.678   1.684
 5778SOL    HW118233   1.398   0.614   1.705
 5778SOL    HW218234   1.552   0.627   1.654
 5779SOL     OW18235   4.576   2.142   0.605
 5779SOL    HW118236   4.491   2.136   0.553
 5779SOL    HW218237   4.610   2.049   0.624
 5780SOL     OW18238   6.015   5.024   3.140
 5780SOL    HW118239   5.929   5.014   3.189
 5780SOL    HW218240   6.001   5.003   3.043
 5781SOL     OW18241   6.814   4.032   4.509
 5781SOL    HW118242   6.899   4.079   4.532
 5781SOL    HW218243   6.759   4.020   4.592
 5782SOL     OW18244   0.645   0.869   0.618
 5782SOL    HW118245   0.727   0.923   0.636
 5782SOL    HW218246   0.615   0.825   0.702
 5783SOL     OW18247   1.661   0.798   1.447
 5783SOL    HW118248   1.696   0.709   1.479
 5783SOL    HW218249   1.675   0.806   1.349
 5784SOL     OW18250   0.209   6.046   0.060
 5784SOL    HW118251   0.114   6.018   0.047
 5784SOL    HW218252   0.271   5.979   0.020
 5785SOL     OW18253   1.699   1.725   0.846
 5785SOL    HW118254   1.677   1.755   0.938
 5785SOL    HW218255   1.780   1.773   0.813
 5786SOL     OW18256   0.593   4.508   0.982
 5786SOL    HW118257   0.607   4.459   0.896
 5786SOL    HW218258   0.654   4.587   0.986
 5787SOL     OW18259   3.890   2.522   5.552
 5787SOL    HW118260   3.895   2.466   5.469
 5787SOL    HW218261   3.968   2.585   5.555
 5788SOL     OW18262   2.912   1.526   1.460
 5788SOL    HW118263   2.998   1.571   1.485
 5788SOL    HW218264   2.854   1.516   1.541
 5789SOL     OW18265   3.167   4.258   6.845
 5789SOL    HW118266   3.248   4.279   6.791
 5789SOL    HW218267   3.109   4.194   6.795
 5790SOL     OW18268   0.406   4.669   4.779
 5790SOL    HW118269   0.369   4.708   4.864
 5790SOL    HW218270   0.482   4.726   4.747
 5791SOL     OW18271   3.111   1.678   2.232
 5791SOL    HW118272   3.133   1.583   2.253
 5791SOL    HW218273   3.063   1.684   2.145
 5792SOL     OW18274   5.370   2.702   2.196
 5792SOL    HW118275   5.402   2.759   2.120
 5792SOL    HW218276   5.390   2.747   2.283
 5793SOL     OW18277   6.104   0.569   4.432
 5793SOL    HW118278   6.109   0.472   4.410
 5793SOL    HW218279   6.158   0.622   4.367
 5794SOL     OW18280   2.506   0.560   6.125
 5794SOL    HW118281   2.555   0.552   6.038
 5794SOL    HW218282   2.410   0.537   6.111
 5795SOL     OW18283   0.215   6.233   0.622
 5795SOL    HW118284   0.167   6.286   0.692
 5795SOL    HW218285   0.301   6.278   0.599
 5796SOL     OW18286   4.890   1.293   6.733
 5796SOL    HW118287   4.842   1.238   6.801
 5796SOL    HW218288   4.985   1.305   6.761
 5797SOL     OW18289   4.953   2.320   0.250
 5797SOL    HW118290   4.894   2.257   0.300
 5797SOL    HW218291   5.049   2.297   0.269
 5798SOL     OW18292   6.823   5.334   4.627
 5798SOL    HW118293   6.741   5.389   4.638
 5798SOL    HW218294   6.798   5.238   4.614
 5799SOL     OW18295   6.928   0.575   4.883
 5799SOL    HW118296   7.011   0.519   4.875
 5799SOL    HW218297   6.847   0.516   4.880
 5800SOL     OW18298   0.274   6.973   1.874
 5800SOL    HW118299   0.370   6.953   1.855
 5800SOL    HW218300   0.268   0.035   1.929
 5801SOL     OW18301   1.652   1.872   3.542
 5801SOL    HW118302   1.678   1.883   3.446
 5801SOL    HW218303   1.622   1.777   3.557
 5802SOL     OW18304   6.671   3.048   2.881
 5802SOL    HW118305   6.591   2.993   2.856
 5802SOL    HW218306   6.700   3.024   2.974
 5803SOL     OW18307   2.244   5.923   2.741
 5803SOL    HW118308   2.267   5.992   2.673
 5803SOL    HW218309   2.156   5.945   2.783
 5804SOL     OW18310   0.157   5.327   3.139
 5804SOL    HW118311   0.130   5.408   3.191
 5804SOL    HW218312   0.159   5.247   3.200
 5805SOL     OW18313   1.736   2.906   1.026
 5805SOL    HW118314   1.707   2.810   1.016
 5805SOL    HW218315   1.819   2.909   1.082
 5806SOL     OW18316   6.822   5.664   4.442
 5806SOL    HW118317   6.761   5.653   4.521
 5806SOL    HW218318   6.878   5.581   4.433
 5807SOL     OW18319   1.289   5.054   0.297
 5807SOL    HW118320   1.288   5.139   0.244
 5807SOL    HW218321   1.205   5.048   0.352
 5808SOL     OW18322   7.006   6.233   4.200
 5808SOL    HW118323   6.993   6.156   4.262
 5808SOL    HW218324   0.001   6.317   4.253
 5809SOL     OW18325   6.851   1.542   5.355
 5809SOL    HW118326   6.820   1.621   5.408
 5809SOL    HW218327   6.926   1.569   5.294
 5810SOL     OW18328   5.004   0.894   5.872
 5810SOL    HW118329   4.950   0.968   5.912
 5810SOL    HW218330   4.960   0.861   5.789
 5811SOL     OW18331   3.231   1.297   5.078
 5811SOL    HW118332   3.262   1.230   5.011
 5811SOL    HW218333   3.268   1.274   5.168
 5812SOL     OW18334   5.199   3.178   5.771
 5812SOL    HW118335   5.245   3.235   5.839
 5812SOL    HW218336   5.109   3.218   5.750
 5813SOL     OW18337   2.355   0.739   0.781
 5813SOL    HW118338   2.418   0.665   0.808
 5813SOL    HW218339   2.330   0.728   0.685
 5814SOL     OW18340   6.823   3.283   2.345
 5814SOL    HW118341   6.879   3.358   2.381
 5814SOL    HW218342   6.864   3.195   2.368
 5815SOL     OW18343   3.933   1.714   3.527
 5815SOL    HW118344   3.915   1.779   3.601
 5815SOL    HW218345   3.854   1.708   3.467
 5816SOL     OW18346   4.788   4.677   0.420
 5816SOL    HW118347   4.877   4.713   0.447
 5816SOL    HW218348   4.717   4.718   0.476
 5817SOL     OW18349   6.183   4.922   5.872
 5817SOL    HW118350   6.151   4.887   5.784
 5817SOL    HW218351   6.209   5.018   5.862
 5818SOL     OW18352   6.503   5.498   5.794
 5818SOL    HW118353   6.564   5.470   5.868
 5818SOL    HW218354   6.542   5.577   5.747
 5819SOL     OW18355   3.977   0.149   6.759
 5819SOL    HW118356   3.953   0.146   6.662
 5819SOL    HW218357   3.900   0.183   6.812
 5820SOL     OW18358   4.245   4.656   2.914
 5820SOL    HW118359   4.329   4.604   2.898
 5820SOL    HW218360   4.205   4.628   3.001
 5821SOL     OW18361   6.863   0.697   1.751
 5821SOL    HW118362   6.914   0.666   1.831
 5821SOL    HW218363   6.905   0.660   1.668
 5822SOL     OW18364   1.744   2.602   1.536
 5822SOL    HW118365   1.821   2.568   1.591
 5822SOL    HW218366   1.659   2.587   1.586
 5823SOL     OW18367   2.725   0.664   4.406
 5823SOL    HW118368   2.693   0.579   4.365
 5823SOL    HW218369   2.772   0.644   4.492
 5824SOL     OW18370   0.047   6.002   2.796
 5824SOL    HW118371   6.984   5.955   2.824
 5824SOL    HW218372   0.126   5.957   2.836
 5825SOL     OW18373   0.157   6.909   4.772
 5825SOL    HW118374   0.244   6.861   4.763
 5825SOL    HW218375   0.083   6.849   4.742
 5826SOL     OW18376   6.689   5.484   6.641
 5826SOL    HW118377   6.679   5.505   6.738
 5826SOL    HW218378   6.603   5.502   6.593
 5827SOL     OW18379   1.636   3.459   5.159
 5827SOL    HW118380   1.630   3.548   5.204
 5827SOL    HW218381   1.726   3.418   5.176
 5828SOL     OW18382   5.216   1.967   2.542
 5828SOL    HW118383   5.169   1.906   2.605
 5828SOL    HW218384   5.310   1.936   2.529
 5829SOL     OW18385   1.804   0.267   4.220
 5829SOL    HW118386   1.883   0.322   4.195
 5829SOL    HW218387   1.830   0.170   4.218
 5830SOL     OW18388   5.528   0.013   5.853
 5830SOL    HW118389   5.578   0.062   5.782
 5830SOL    HW218390   5.435   7.015   5.820
 5831SOL     OW18391   0.969   0.919   5.766
 5831SOL    HW118392   0.884   0.973   5.773
 5831SOL    HW218393   1.039   0.973   5.719
 5832SOL     OW18394   3.385   4.771   6.886
 5832SOL    HW118395   3.412   4.803   6.976
 5832SOL    HW218396   3.456   4.710   6.849
 5833SOL     OW18397   4.347   3.538   5.243
 5833SOL    HW118398   4.262   3.580   5.214
 5833SOL    HW218399   4.424   3.592   5.209
 5834SOL     OW18400   0.089   3.541   0.133
 5834SOL    HW118401   0.143   3.499   0.206
 5834SOL    HW218402   0.088   3.481   0.053
 5835SOL     OW18403   6.016   2.435   3.065
 5835SOL    HW118404   5.924   2.409   3.095
 5835SOL    HW218405   6.043   2.520   3.110
 5836SOL     OW18406   3.249   0.356   1.581
 5836SOL    HW118407   3.220   0.366   1.485
 5836SOL    HW218408   3.210   0.430   1.635
 5837SOL     OW18409   3.334   3.616   0.206
 5837SOL    HW118410   3.397   3.623   0.129
 5837SOL    HW218411   3.264   3.547   0.185
 5838SOL     OW18412   2.772   1.727   0.744
 5838SOL    HW118413   2.757   1.744   0.647
 5838SOL    HW218414   2.842   1.790   0.778
 5839SOL     OW18415   0.726   2.249   1.568
 5839SOL    HW118416   0.771   2.179   1.513
 5839SOL    HW218417   0.643   2.211   1.609
 5840SOL     OW18418   1.756   4.460   6.240
 5840SOL    HW118419   1.691   4.499   6.176
 5840SOL    HW218420   1.835   4.521   6.249
 5841SOL     OW18421   4.935   1.359   2.434
 5841SOL    HW118422   4.976   1.333   2.522
 5841SOL    HW218423   4.836   1.363   2.444
 5842SOL     OW18424   4.609   2.825   1.721
 5842SOL    HW118425   4.597   2.911   1.770
 5842SOL    HW218426   4.554   2.827   1.637
 5843SOL     OW18427   1.323   4.406   2.235
 5843SOL    HW118428   1.369   4.488   2.200
 5843SOL    HW218429   1.391   4.335   2.254
 5844SOL     OW18430   1.794   6.097   5.359
 5844SOL    HW118431   1.792   6.162   5.283
 5844SOL    HW218432   1.712   6.108   5.415
 5845SOL     OW18433   0.942   0.649   2.064
 5845SOL    HW118434   0.845   0.627   2.069
 5845SOL    HW218435   0.975   0.633   1.971
 5846SOL     OW18436   6.144   3.419   6.190
 5846SOL    HW118437   6.225   3.463   6.151
 5846SOL    HW218438   6.080   3.489   6.222
 5847SOL     OW18439   2.686   2.229   2.201
 5847SOL    HW118440   2.772   2.245   2.152
 5847SOL    HW218441   2.668   2.130   2.205
 5848SOL     OW18442   1.383   5.207   3.410
 5848SOL    HW118443   1.434   5.170   3.488
 5848SOL    HW218444   1.288   5.180   3.417
 5849SOL     OW18445   1.926   0.198   5.268
 5849SOL    HW118446   1.895   0.170   5.178
 5849SOL    HW218447   1.863   0.267   5.306
 5850SOL     OW18448   6.756   3.809   1.814
 5850SOL    HW118449   6.841   3.829   1.765
 5850SOL    HW218450   6.777   3.755   1.895
 5851SOL     OW18451   5.291   2.903   3.409
 5851SOL    HW118452   5.247   2.943   3.328
 5851SOL    HW218453   5.351   2.828   3.380
 5852SOL     OW18454   5.758   6.234   3.075
 5852SOL    HW118455   5.817   6.207   2.999
 5852SOL    HW218456   5.692   6.161   3.094
 5853SOL     OW18457   3.685   5.223   5.012
 5853SOL    HW118458   3.669   5.179   5.100
 5853SOL    HW218459   3.631   5.307   5.006
 5854SOL     OW18460   4.277   4.224   5.969
 5854SOL    HW118461   4.198   4.181   6.013
 5854SOL    HW218462   4.250   4.257   5.878
 5855SOL     OW18463   1.625   0.844   4.434
 5855SOL    HW118464   1.594   0.797   4.516
 5855SOL    HW218465   1.717   0.812   4.410
 5856SOL     OW18466   1.940   5.506   3.434
 5856SOL    HW118467   1.976   5.575   3.372
 5856SOL    HW218468   1.859   5.464   3.394
 5857SOL     OW18469   6.306   2.953   5.787
 5857SOL    HW118470   6.280   2.912   5.874
 5857SOL    HW218471   6.389   3.007   5.799
 5858SOL     OW18472   2.754   2.293   2.446
 5858SOL    HW118473   2.719   2.273   2.354
 5858SOL    HW218474   2.814   2.373   2.441
 5859SOL     OW18475   6.428   6.288   1.839
 5859SOL    HW118476   6.517   6.298   1.883
 5859SOL    HW218477   6.418   6.195   1.804
 5860SOL     OW18478   0.065   4.441   3.441
 5860SOL    HW118479   0.038   4.362   3.495
 5860SOL    HW218480   0.162   4.434   3.417
 5861SOL     OW18481   5.488   1.466   4.271
 5861SOL    HW118482   5.555   1.396   4.245
 5861SOL    HW218483   5.396   1.428   4.267
 5862SOL     OW18484   5.950   5.658   1.070
 5862SOL    HW118485   5.934   5.569   1.028
 5862SOL    HW218486   5.963   5.646   1.169
 5863SOL     OW18487   2.979   2.045   5.049
 5863SOL    HW118488   3.044   1.971   5.063
 5863SOL    HW218489   3.027   2.132   5.042
 5864SOL     OW18490   3.371   4.133   2.837
 5864SOL    HW118491   3.284   4.180   2.823
 5864SOL    HW218492   3.406   4.102   2.749
 5865SOL     OW18493   6.243   6.890   6.085
 5865SOL    HW118494   6.145   6.885   6.066
 5865SOL    HW218495   6.292   6.827   6.024
 5866SOL     OW18496   3.673   4.054   0.759
 5866SOL    HW118497   3.646   3.963   0.789
 5866SOL    HW218498   3.596   4.099   0.713
 5867SOL     OW18499   2.251   3.501   1.079
 5867SOL    HW118500   2.184   3.456   1.020
 5867SOL    HW218501   2.249   3.599   1.064
 5868SOL     OW18502   1.531   1.677   5.368
 5868SOL    HW118503   1.571   1.712   5.284
 5868SOL    HW218504   1.462   1.741   5.402
 5869SOL     OW18505   2.155   6.537   3.502
 5869SOL    HW118506   2.187   6.631   3.510
 5869SOL    HW218507   2.057   6.536   3.482
 5870SOL     OW18508   4.562   6.849   4.702
 5870SOL    HW118509   4.662   6.852   4.699
 5870SOL    HW218510   4.529   6.911   4.773
 5871SOL     OW18511   3.195   3.149   1.459
 5871SOL    HW118512   3.274   3.193   1.502
 5871SOL    HW218513   3.221   3.057   1.427
 5872SOL     OW18514   4.636   6.887   0.860
 5872SOL    HW118515   4.582   6.809   0.829
 5872SOL    HW218516   4.654   6.877   0.958
 5873SOL     OW18517   3.518   1.059   2.250
 5873SOL    HW118518   3.607   1.012   2.252
 5873SOL    HW218519   3.462   1.026   2.326
 5874SOL     OW18520   2.343   4.908   5.677
 5874SOL    HW118521   2.335   4.815   5.714
 5874SOL    HW218522   2.345   4.904   5.577
 5875SOL     OW18523   4.169   1.503   0.195
 5875SOL    HW118524   4.267   1.523   0.185
 5875SOL    HW218525   4.158   1.410   0.229
 5876SOL     OW18526   3.571   3.242   1.284
 5876SOL    HW118527   3.661   3.268   1.319
 5876SOL    HW218528   3.522   3.324   1.254
 5877SOL     OW18529   0.796   6.933   1.766
 5877SOL    HW118530   0.779   6.974   1.856
 5877SOL    HW218531   0.894   6.915   1.756
 5878SOL     OW18532   0.082   5.671   4.203
 5878SOL    HW118533   0.006   5.614   4.234
 5878SOL    HW218534   0.103   5.650   4.108
 5879SOL     OW18535   1.399   4.233   6.511
 5879SOL    HW118536   1.453   4.178   6.447
 5879SOL    HW218537   1.329   4.175   6.553
 5880SOL     OW18538   4.350   4.316   6.216
 5880SOL    HW118539   4.317   4.286   6.127
 5880SOL    HW218540   4.436   4.366   6.205
 5881SOL     OW18541   1.107   6.707   2.735
 5881SOL    HW118542   1.184   6.771   2.735
 5881SOL    HW218543   1.029   6.749   2.689
 5882SOL     OW18544   0.281   5.471   1.299
 5882SOL    HW118545   0.339   5.524   1.362
 5882SOL    HW218546   0.333   5.393   1.264
 5883SOL     OW18547   0.745   1.178   6.825
 5883SOL    HW118548   0.786   1.265   6.798
 5883SOL    HW218549   0.792   1.103   6.779
 5884SOL     OW18550   3.456   1.391   4.720
 5884SOL    HW118551   3.413   1.316   4.771
 5884SOL    HW218552   3.498   1.355   4.637
 5885SOL     OW18553   0.853   6.843   2.637
 5885SOL    HW118554   0.851   6.859   2.735
 5885SOL    HW218555   0.853   6.745   2.618
 5886SOL     OW18556   0.814   2.003   4.789
 5886SOL    HW118557   0.756   2.063   4.734
 5886SOL    HW218558   0.803   1.908   4.759
 5887SOL     OW18559   2.590   2.086   2.613
 5887SOL    HW118560   2.549   2.142   2.541
 5887SOL    HW218561   2.582   1.989   2.589
 5888SOL     OW18562   3.223   0.813   1.573
 5888SOL    HW118563   3.179   0.763   1.498
 5888SOL    HW218564   3.219   0.911   1.554
 5889SOL     OW18565   0.937   6.836   0.794
 5889SOL    HW118566   0.877   6.825   0.874
 5889SOL    HW218567   0.989   6.751   0.780
 5890SOL     OW18568   1.962   1.075   3.565
 5890SOL    HW118569   1.936   0.980   3.544
 5890SOL    HW218570   2.027   1.108   3.497
 5891SOL     OW18571   3.564   2.827   6.685
 5891SOL    HW118572   3.532   2.871   6.769
 5891SOL    HW218573   3.501   2.754   6.660
 5892SOL     OW18574   0.804   5.396   1.474
 5892SOL    HW118575   0.892   5.361   1.442
 5892SOL    HW218576   0.814   5.432   1.567
 5893SOL     OW18577   2.189   4.117   4.321
 5893SOL    HW118578   2.184   4.039   4.259
 5893SOL    HW218579   2.177   4.086   4.415
 5894SOL     OW18580   6.593   5.103   4.178
 5894SOL    HW118581   6.629   5.194   4.197
 5894SOL    HW218582   6.584   5.053   4.264
 5895SOL     OW18583   5.395   4.032   3.999
 5895SOL    HW118584   5.470   3.992   3.947
 5895SOL    HW218585   5.327   3.961   4.018
 5896SOL     OW18586   3.871   0.631   0.299
 5896SOL    HW118587   3.808   0.630   0.376
 5896SOL    HW218588   3.867   0.720   0.253
 5897SOL     OW18589   4.175   0.792   1.550
 5897SOL    HW118590   4.229   0.711   1.572
 5897SOL    HW218591   4.165   0.849   1.632
 5898SOL     OW18592   2.119   6.544   3.868
 5898SOL    HW118593   2.068   6.623   3.903
 5898SOL    HW218594   2.188   6.575   3.803
 5899SOL     OW18595   5.789   5.678   6.823
 5899SOL    HW118596   5.838   5.752   6.778
 5899SOL    HW218597   5.818   5.590   6.785
 5900SOL     OW18598   6.202   5.604   3.896
 5900SOL    HW118599   6.265   5.643   3.829
 5900SOL    HW218600   6.245   5.526   3.941
 5901SOL     OW18601   2.318   0.772   0.052
 5901SOL    HW118602   2.260   0.759   6.993
 5901SOL    HW218603   2.306   0.695   0.115
 5902SOL     OW18604   6.331   2.235   5.410
 5902SOL    HW118605   6.409   2.293   5.385
 5902SOL    HW218606   6.247   2.277   5.376
 5903SOL     OW18607   4.863   5.160   0.096
 5903SOL    HW118608   4.847   5.075   0.145
 5903SOL    HW218609   4.846   5.237   0.157
 5904SOL     OW18610   0.996   4.457   1.801
 5904SOL    HW118611   0.920   4.425   1.856
 5904SOL    HW218612   0.994   4.412   1.711
 5905SOL     OW18613   6.338   6.465   3.253
 5905SOL    HW118614   6.398   6.410   3.312
 5905SOL    HW218615   6.243   6.455   3.283
 5906SOL     OW18616   3.539   2.157   3.901
 5906SOL    HW118617   3.482   2.185   3.824
 5906SOL    HW218618   3.485   2.161   3.986
 5907SOL     OW18619   1.607   4.934   0.657
 5907SOL    HW118620   1.634   5.030   0.652
 5907SOL    HW218621   1.677   4.882   0.706
 5908SOL     OW18622   0.235   2.764   0.101
 5908SOL    HW118623   0.142   2.796   0.080
 5908SOL    HW218624   0.234   2.714   0.187
 5909SOL     OW18625   6.171   5.444   0.789
 5909SOL    HW118626   6.239   5.397   0.734
 5909SOL    HW218627   6.112   5.378   0.834
 5910SOL     OW18628   0.089   3.942   4.005
 5910SOL    HW118629   0.126   4.030   4.035
 5910SOL    HW218630   0.048   3.894   4.082
 5911SOL     OW18631   6.956   6.309   6.464
 5911SOL    HW118632   6.972   6.262   6.551
 5911SOL    HW218633   7.002   6.398   6.466
 5912SOL     OW18634   6.167   1.572   6.092
 5912SOL    HW118635   6.122   1.521   6.166
 5912SOL    HW218636   6.128   1.544   6.005
 5913SOL     OW18637   5.173   2.876   6.381
 5913SOL    HW118638   5.239   2.878   6.306
 5913SOL    HW218639   5.080   2.868   6.344
 5914SOL     OW18640   1.346   4.525   5.666
 5914SOL    HW118641   1.376   4.619   5.681
 5914SOL    HW218642   1.305   4.489   5.749
 5915SOL     OW18643   4.554   5.694   1.064
 5915SOL    HW118644   4.536   5.682   0.967
 5915SOL    HW218645   4.651   5.676   1.083
 5916SOL     OW18646   5.081   6.922   3.846
 5916SOL    HW118647   5.132   7.000   3.810
 5916SOL    HW218648   5.115   6.838   3.804
 5917SOL     OW18649   2.894   3.545   4.318
 5917SOL    HW118650   2.881   3.491   4.402
 5917SOL    HW218651   2.917   3.639   4.343
 5918SOL     OW18652   1.843   3.586   6.473
 5918SOL    HW118653   1.818   3.498   6.433
 5918SOL    HW218654   1.942   3.588   6.491
 5919SOL     OW18655   3.498   3.444   3.121
 5919SOL    HW118656   3.481   3.348   3.145
 5919SOL    HW218657   3.590   3.470   3.153
 5920SOL     OW18658   4.816   1.132   6.924
 5920SOL    HW118659   4.895   1.071   6.917
 5920SOL    HW218660   4.740   1.082   6.965
 5921SOL     OW18661   3.823   5.665   6.668
 5921SOL    HW118662   3.858   5.643   6.759
 5921SOL    HW218663   3.827   5.583   6.611
 5922SOL     OW18664   5.595   4.847   2.650
 5922SOL    HW118665   5.677   4.852   2.707
 5922SOL    HW218666   5.515   4.831   2.709
 5923SOL     OW18667   6.377   1.470   1.315
 5923SOL    HW118668   6.283   1.455   1.284
 5923SOL    HW218669   6.425   1.529   1.249
 5924SOL     OW18670   6.223   0.360   2.680
 5924SOL    HW118671   6.177   0.329   2.597
 5924SOL    HW218672   6.223   0.286   2.747
 5925SOL     OW18673   4.097   7.000   2.306
 5925SOL    HW118674   4.053   6.914   2.281
 5925SOL    HW218675   4.081   7.019   2.403
 5926SOL     OW18676   4.106   5.568   1.311
 5926SOL    HW118677   4.092   5.505   1.235
 5926SOL    HW218678   4.069   5.658   1.286
 5927SOL     OW18679   1.612   3.956   2.224
 5927SOL    HW118680   1.587   4.050   2.247
 5927SOL    HW218681   1.701   3.956   2.177
 5928SOL     OW18682   4.162   0.383   0.993
 5928SOL    HW118683   4.086   0.446   1.007
 5928SOL    HW218684   4.227   0.422   0.927
 5929SOL     OW18685   0.134   6.913   6.603
 5929SOL    HW118686   0.076   6.840   6.639
 5929SOL    HW218687   0.077   6.978   6.551
 5930SOL     OW18688   6.567   3.496   2.914
 5930SOL    HW118689   6.662   3.510   2.941
 5930SOL    HW218690   6.561   3.493   2.814
 5931SOL     OW18691   0.128   5.367   2.627
 5931SOL    HW118692   0.064   5.322   2.564
 5931SOL    HW218693   0.204   5.404   2.574
 5932SOL     OW18694   3.492   0.331   0.323
 5932SOL    HW118695   3.400   0.365   0.343
 5932SOL    HW218696   3.514   0.349   0.228
 5933SOL     OW18697   6.960   5.529   2.817
 5933SOL    HW118698   0.016   5.548   2.757
 5933SOL    HW218699   6.886   5.593   2.797
 5934SOL     OW18700   3.514   2.923   4.875
 5934SOL    HW118701   3.533   2.825   4.868
 5934SOL    HW218702   3.465   2.942   4.959
 5935SOL     OW18703   5.278   5.205   6.417
 5935SOL    HW118704   5.314   5.143   6.347
 5935SOL    HW218705   5.353   5.240   6.472
 5936SOL     OW18706   3.601   2.678   1.411
 5936SOL    HW118707   3.541   2.613   1.457
 5936SOL    HW218708   3.694   2.668   1.447
 5937SOL     OW18709   6.857   4.241   2.301
 5937SOL    HW118710   6.837   4.277   2.210
 5937SOL    HW218711   6.870   4.142   2.296
 5938SOL     OW18712   0.214   5.658   2.776
 5938SOL    HW118713   0.241   5.737   2.830
 5938SOL    HW218714   0.281   5.642   2.703
 5939SOL     OW18715   2.651   6.418   3.137
 5939SOL    HW118716   2.743   6.397   3.170
 5939SOL    HW218717   2.589   6.429   3.215
 5940SOL     OW18718   4.536   5.538   1.547
 5940SOL    HW118719   4.558   5.477   1.623
 5940SOL    HW218720   4.619   5.581   1.513
 5941SOL     OW18721   6.304   3.004   2.123
 5941SOL    HW118722   6.251   3.052   2.194
 5941SOL    HW218723   6.244   2.985   2.045
 5942SOL     OW18724   5.122   4.034   0.461
 5942SOL    HW118725   5.210   4.047   0.414
 5942SOL    HW218726   5.049   4.073   0.405
 5943SOL     OW18727   3.129   4.579   6.031
 5943SOL    HW118728   3.215   4.620   6.059
 5943SOL    HW218729   3.121   4.585   5.931
 5944SOL     OW18730   6.673   2.850   1.047
 5944SOL    HW118731   6.679   2.762   1.094
 5944SOL    HW218732   6.638   2.835   0.954
 5945SOL     OW18733   6.509   5.040   4.562
 5945SOL    HW118734   6.431   5.101   4.552
 5945SOL    HW218735   6.479   4.953   4.601
 5946SOL     OW18736   3.896   3.308   6.229
 5946SOL    HW118737   3.925   3.215   6.250
 5946SOL    HW218738   3.973   3.370   6.240
 5947SOL     OW18739   3.145   3.435   2.574
 5947SOL    HW118740   3.232   3.386   2.570
 5947SOL    HW218741   3.121   3.469   2.483
 5948SOL     OW18742   4.224   4.642   3.197
 5948SOL    HW118743   4.290   4.712   3.169
 5948SOL    HW218744   4.141   4.685   3.231
 5949SOL     OW18745   5.145   3.685   1.819
 5949SOL    HW118746   5.200   3.748   1.765
 5949SOL    HW218747   5.050   3.687   1.787
 5950SOL     OW18748   4.772   1.006   5.460
 5950SOL    HW118749   4.771   1.063   5.542
 5950SOL    HW218750   4.830   0.926   5.475
 5951SOL     OW18751   1.512   5.826   3.988
 5951SOL    HW118752   1.465   5.766   4.053
 5951SOL    HW218753   1.487   5.801   3.894
 5952SOL     OW18754   5.620   4.889   3.571
 5952SOL    HW118755   5.570   4.860   3.489
 5952SOL    HW218756   5.708   4.841   3.575
 5953SOL     OW18757   6.843   3.292   5.688
 5953SOL    HW118758   6.765   3.271   5.629
 5953SOL    HW218759   6.927   3.264   5.642
 5954SOL     OW18760   6.448   4.593   5.264
 5954SOL    HW118761   6.515   4.585   5.191
 5954SOL    HW218762   6.416   4.503   5.291
 5955SOL     OW18763   4.902   5.593   2.385
 5955SOL    HW118764   4.882   5.524   2.316
 5955SOL    HW218765   4.817   5.637   2.415
 5956SOL     OW18766   4.472   2.003   4.528
 5956SOL    HW118767   4.500   2.023   4.434
 5956SOL    HW218768   4.542   1.946   4.571
 5957SOL     OW18769   3.972   0.934   5.551
 5957SOL    HW118770   3.988   0.970   5.459
 5957SOL    HW218771   4.050   0.956   5.609
 5958SOL     OW18772   5.845   6.332   2.741
 5958SOL    HW118773   5.774   6.386   2.786
 5958SOL    HW218774   5.839   6.345   2.642
 5959SOL     OW18775   4.389   2.779   5.466
 5959SOL    HW118776   4.343   2.855   5.513
 5959SOL    HW218777   4.325   2.704   5.452
 5960SOL     OW18778   3.980   5.628   4.936
 5960SOL    HW118779   3.976   5.529   4.946
 5960SOL    HW218780   4.035   5.651   4.855
 5961SOL     OW18781   5.097   1.785   2.763
 5961SOL    HW118782   5.103   1.856   2.833
 5961SOL    HW218783   5.076   1.697   2.806
 5962SOL     OW18784   5.852   6.513   0.435
 5962SOL    HW118785   5.923   6.466   0.382
 5962SOL    HW218786   5.893   6.590   0.484
 5963SOL     OW18787   3.942   3.760   6.199
 5963SOL    HW118788   3.887   3.808   6.267
 5963SOL    HW218789   3.883   3.718   6.131
 5964SOL     OW18790   0.338   5.449   5.555
 5964SOL    HW118791   0.258   5.507   5.572
 5964SOL    HW218792   0.407   5.466   5.625
 5965SOL     OW18793   2.011   1.826   6.557
 5965SOL    HW118794   1.971   1.755   6.498
 5965SOL    HW218795   1.971   1.819   6.648
 5966SOL     OW18796   2.129   5.915   4.920
 5966SOL    HW118797   2.072   5.884   4.997
 5966SOL    HW218798   2.148   6.013   4.930
 5967SOL     OW18799   3.919   6.943   6.248
 5967SOL    HW118800   3.909   0.021   6.256
 5967SOL    HW218801   3.840   6.898   6.290
 5968SOL     OW18802   4.790   2.399   0.816
 5968SOL    HW118803   4.809   2.302   0.829
 5968SOL    HW218804   4.710   2.410   0.756
 5969SOL     OW18805   6.717   6.953   6.878
 5969SOL    HW118806   6.758   6.985   6.793
 5969SOL    HW218807   6.621   6.979   6.881
 5970SOL     OW18808   0.363   3.992   2.396
 5970SOL    HW118809   0.284   3.996   2.457
 5970SOL    HW218810   0.443   4.027   2.445
 5971SOL     OW18811   0.356   0.883   2.668
 5971SOL    HW118812   0.391   0.823   2.741
 5971SOL    HW218813   0.330   0.827   2.589
 5972SOL     OW18814   5.846   5.546   5.980
 5972SOL    HW118815   5.823   5.451   5.959
 5972SOL    HW218816   5.791   5.578   6.057
 5973SOL     OW18817   1.442   3.629   2.603
 5973SOL    HW118818   1.456   3.720   2.565
 5973SOL    HW218819   1.428   3.636   2.702
 5974SOL     OW18820   5.905   5.899   6.689
 5974SOL    HW118821   5.947   5.941   6.769
 5974SOL    HW218822   5.965   5.910   6.610
 5975SOL     OW18823   4.810   0.025   0.493
 5975SOL    HW118824   4.866   0.108   0.482
 5975SOL    HW218825   4.723   0.048   0.536
 5976SOL     OW18826   3.759   2.763   5.841
 5976SOL    HW118827   3.711   2.684   5.879
 5976SOL    HW218828   3.710   2.847   5.864
 5977SOL     OW18829   1.590   5.975   6.602
 5977SOL    HW118830   1.561   5.942   6.692
 5977SOL    HW218831   1.650   5.906   6.560
 5978SOL     OW18832   4.561   5.351   1.727
 5978SOL    HW118833   4.563   5.325   1.823
 5978SOL    HW218834   4.618   5.288   1.674
 5979SOL     OW18835   5.442   0.887   2.865
 5979SOL    HW118836   5.522   0.931   2.906
 5979SOL    HW218837   5.437   0.792   2.896
 5980SOL     OW18838   3.580   3.760   1.275
 5980SOL    HW118839   3.562   3.849   1.316
 5980SOL    HW218840   3.570   3.766   1.176
 5981SOL     OW18841   5.111   2.176   1.385
 5981SOL    HW118842   5.122   2.191   1.484
 5981SOL    HW218843   5.099   2.264   1.339
 5982SOL     OW18844   6.015   3.551   2.056
 5982SOL    HW118845   5.949   3.624   2.039
 5982SOL    HW218846   6.053   3.560   2.148
 5983SOL     OW18847   1.371   1.779   3.963
 5983SOL    HW118848   1.434   1.775   3.886
 5983SOL    HW218849   1.336   1.687   3.982
 5984SOL     OW18850   6.744   5.632   3.565
 5984SOL    HW118851   6.645   5.644   3.560
 5984SOL    HW218852   6.766   5.560   3.630
 5985SOL     OW18853   6.836   2.384   4.341
 5985SOL    HW118854   6.897   2.396   4.263
 5985SOL    HW218855   6.762   2.452   4.336
 5986SOL     OW18856   3.353   3.694   4.609
 5986SOL    HW118857   3.395   3.709   4.520
 5986SOL    HW218858   3.310   3.779   4.640
 5987SOL     OW18859   5.494   0.060   3.781
 5987SOL    HW118860   5.403   0.099   3.789
 5987SOL    HW218861   5.514   0.042   3.685
 5988SOL     OW18862   4.711   0.177   5.779
 5988SOL    HW118863   4.757   0.089   5.768
 5988SOL    HW218864   4.778   0.248   5.798
 5989SOL     OW18865   2.395   6.091   6.663
 5989SOL    HW118866   2.380   5.993   6.670
 5989SOL    HW218867   2.490   6.112   6.683
 5990SOL     OW18868   3.800   3.753   0.724
 5990SOL    HW118869   3.874   3.689   0.744
 5990SOL    HW218870   3.757   3.729   0.637
 5991SOL     OW18871   3.576   5.049   6.574
 5991SOL    HW118872   3.541   5.009   6.659
 5991SOL    HW218873   3.643   5.120   6.596
 5992SOL     OW18874   3.348   0.619   1.961
 5992SOL    HW118875   3.422   0.662   1.908
 5992SOL    HW218876   3.387   0.567   2.036
 5993SOL     OW18877   3.533   5.132   5.862
 5993SOL    HW118878   3.455   5.143   5.923
 5993SOL    HW218879   3.595   5.210   5.871
 5994SOL     OW18880   5.848   2.770   2.153
 5994SOL    HW118881   5.889   2.828   2.083
 5994SOL    HW218882   5.791   2.825   2.213
 5995SOL     OW18883   4.827   3.867   2.525
 5995SOL    HW118884   4.831   3.767   2.525
 5995SOL    HW218885   4.806   3.900   2.617
 5996SOL     OW18886   1.256   5.979   1.509
 5996SOL    HW118887   1.276   6.052   1.444
 5996SOL    HW218888   1.315   5.989   1.589
 5997SOL     OW18889   0.292   5.903   2.849
 5997SOL    HW118890   0.344   5.934   2.769
 5997SOL    HW218891   0.322   5.954   2.930
 5998SOL     OW18892   6.028   1.126   3.262
 5998SOL    HW118893   5.938   1.133   3.219
 5998SOL    HW218894   6.041   1.203   3.325
 5999SOL     OW18895   2.067   1.928   2.165
 5999SOL    HW118896   2.019   1.919   2.078
 5999SOL    HW218897   2.147   1.988   2.152
 6000SOL     OW18898   3.542   6.972   0.787
 6000SOL    HW118899   3.521   0.039   0.746
 6000SOL    HW218900   3.494   6.963   0.874
 6001SOL     OW18901   0.594   4.102   6.850
 6001SOL    HW118902   0.651   4.091   6.931
 6001SOL    HW218903   0.498   4.086   6.873
 6002SOL     OW18904   5.807   1.317   0.674
 6002SOL    HW118905   5.906   1.316   0.681
 6002SOL    HW218906   5.768   1.349   0.760
 6003SOL     OW18907   5.859   1.943   4.775
 6003SOL    HW118908   5.873   1.878   4.850
 6003SOL    HW218909   5.772   1.924   4.729
 6004SOL     OW18910   6.733   3.903   2.828
 6004SOL    HW118911   6.791   3.965   2.880
 6004SOL    HW218912   6.788   3.826   2.795
 6005SOL     OW18913   4.583   5.776   4.097
 6005SOL    HW118914   4.488   5.798   4.120
 6005SOL    HW218915   4.585   5.696   4.037
 6006SOL     OW18916   2.671   1.196   5.534
 6006SOL    HW118917   2.640   1.236   5.620
 6006SOL    HW218918   2.675   1.266   5.463
 6007SOL     OW18919   5.360   4.131   5.383
 6007SOL    HW118920   5.355   4.032   5.369
 6007SOL    HW218921   5.357   4.152   5.481
 6008SOL     OW18922   2.402   4.467   5.196
 6008SOL    HW118923   2.490   4.489   5.237
 6008SOL    HW218924   2.331   4.468   5.267
 6009SOL     OW18925   2.007   0.954   2.993
 6009SOL    HW118926   1.935   1.022   2.980
 6009SOL    HW218927   2.003   0.918   3.086
 6010SOL     OW18928   1.117   4.984   4.104
 6010SOL    HW118929   1.146   5.077   4.085
 6010SOL    HW218930   1.154   4.954   4.192
 6011SOL     OW18931   4.713   2.912   3.571
 6011SOL    HW118932   4.766   2.942   3.491
 6011SOL    HW218933   4.618   2.895   3.543
 6012SOL     OW18934   5.022   0.826   0.290
 6012SOL    HW118935   4.928   0.844   0.316
 6012SOL    HW218936   5.079   0.904   0.313
 6013SOL     OW18937   4.746   2.130   2.683
 6013SOL    HW118938   4.736   2.091   2.774
 6013SOL    HW218939   4.703   2.069   2.616
 6014SOL     OW18940   4.080   3.391   2.761
 6014SOL    HW118941   4.157   3.431   2.710
 6014SOL    HW218942   4.021   3.465   2.794
 6015SOL     OW18943   5.729   3.934   3.754
 6015SOL    HW118944   5.669   4.014   3.757
 6015SOL    HW218945   5.767   3.925   3.662
 6016SOL     OW18946   6.532   1.975   5.374
 6016SOL    HW118947   6.557   2.005   5.466
 6016SOL    HW218948   6.507   1.878   5.376
 6017SOL     OW18949   6.564   4.276   3.318
 6017SOL    HW118950   6.477   4.323   3.331
 6017SOL    HW218951   6.622   4.291   3.398
 6018SOL     OW18952   4.174   0.609   6.737
 6018SOL    HW118953   4.231   0.689   6.722
 6018SOL    HW218954   4.157   0.598   6.835
 6019SOL     OW18955   6.799   1.854   4.383
 6019SOL    HW118956   6.820   1.780   4.447
 6019SOL    HW218957   6.781   1.938   4.434
 6020SOL     OW18958   1.058   5.038   0.468
 6020SOL    HW118959   0.970   5.010   0.430
 6020SOL    HW218960   1.070   4.994   0.557
 6021SOL     OW18961   4.609   0.277   3.375
 6021SOL    HW118962   4.646   0.244   3.462
 6021SOL    HW218963   4.510   0.284   3.382
 6022SOL     OW18964   5.497   2.450   4.074
 6022SOL    HW118965   5.478   2.353   4.058
 6022SOL    HW218966   5.585   2.473   4.032
 6023SOL     OW18967   5.945   0.737   1.832
 6023SOL    HW118968   5.850   0.750   1.862
 6023SOL    HW218969   6.003   0.802   1.880
 6024SOL     OW18970   1.302   4.721   2.910
 6024SOL    HW118971   1.203   4.712   2.904
 6024SOL    HW218972   1.330   4.810   2.874
 6025SOL     OW18973   3.403   1.727   3.118
 6025SOL    HW118974   3.328   1.706   3.054
 6025SOL    HW218975   3.380   1.808   3.171
 6026SOL     OW18976   0.350   4.147   5.270
 6026SOL    HW118977   0.382   4.066   5.221
 6026SOL    HW218978   0.345   4.224   5.208
 6027SOL     OW18979   0.633   3.177   5.881
 6027SOL    HW118980   0.624   3.142   5.974
 6027SOL    HW218981   0.730   3.190   5.860
 6028SOL     OW18982   6.468   5.597   0.237
 6028SOL    HW118983   6.412   5.551   0.168
 6028SOL    HW218984   6.512   5.678   0.197
 6029SOL     OW18985   2.345   6.893   4.904
 6029SOL    HW118986   2.418   6.929   4.847
 6029SOL    HW218987   2.259   6.892   4.851
 6030SOL     OW18988   3.927   5.121   2.301
 6030SOL    HW118989   3.901   5.026   2.323
 6030SOL    HW218990   4.025   5.126   2.288
 6031SOL     OW18991   3.010   5.143   3.878
 6031SOL    HW118992   3.019   5.216   3.810
 6031SOL    HW218993   3.030   5.179   3.969
 6032SOL     OW18994   1.913   4.345   2.626
 6032SOL    HW118995   1.881   4.261   2.670
 6032SOL    HW218996   1.893   4.341   2.528
 6033SOL     OW18997   2.804   2.278   2.713
 6033SOL    HW118998   2.785   2.243   2.621
 6033SOL    HW218999   2.734   2.346   2.737
 6034SOL     OW19000   1.250   6.627   4.844
 6034SOL    HW119001   1.224   6.723   4.853
 6034SOL    HW219002   1.188   6.582   4.779
 6035SOL     OW19003   0.338   0.619   2.392
 6035SOL    HW119004   0.239   0.628   2.383
 6035SOL    HW219005   0.380   0.709   2.392
 6036SOL     OW19006   5.275   4.563   3.432
 6036SOL    HW119007   5.193   4.575   3.376
 6036SOL    HW219008   5.281   4.637   3.499
 6037SOL     OW19009   4.452   5.709   0.108
 6037SOL    HW119010   4.508   5.777   0.156
 6037SOL    HW219011   4.357   5.717   0.139
 6038SOL     OW19012   1.823   2.293   5.494
 6038SOL    HW119013   1.796   2.214   5.548
 6038SOL    HW219014   1.863   2.362   5.555
 6039SOL     OW19015   2.882   3.538   2.455
 6039SOL    HW119016   2.856   3.467   2.521
 6039SOL    HW219017   2.845   3.516   2.365
 6040SOL     OW19018   1.170   1.318   0.432
 6040SOL    HW119019   1.083   1.357   0.400
 6040SOL    HW219020   1.241   1.389   0.427
 6041SOL     OW19021   2.950   0.697   5.100
 6041SOL    HW119022   3.024   0.718   5.165
 6041SOL    HW219023   2.878   0.765   5.109
 6042SOL     OW19024   4.687   6.367   2.490
 6042SOL    HW119025   4.690   6.467   2.484
 6042SOL    HW219026   4.598   6.337   2.523
 6043SOL     OW19027   0.945   4.800   5.760
 6043SOL    HW119028   0.972   4.803   5.664
 6043SOL    HW219029   0.846   4.816   5.768
 6044SOL     OW19030   1.248   2.564   1.230
 6044SOL    HW119031   1.328   2.513   1.259
 6044SOL    HW219032   1.259   2.593   1.135
 6045SOL     OW19033   5.715   3.995   2.543
 6045SOL    HW119034   5.744   4.067   2.605
 6045SOL    HW219035   5.775   3.916   2.553
 6046SOL     OW19036   3.377   2.264   0.414
 6046SOL    HW119037   3.383   2.308   0.324
 6046SOL    HW219038   3.466   2.225   0.438
 6047SOL     OW19039   4.535   1.974   2.169
 6047SOL    HW119040   4.445   1.950   2.133
 6047SOL    HW219041   4.570   2.055   2.120
 6048SOL     OW19042   4.760   5.820   5.112
 6048SOL    HW119043   4.671   5.807   5.068
 6048SOL    HW219044   4.750   5.807   5.211
 6049SOL     OW19045   4.882   3.139   6.889
 6049SOL    HW119046   4.790   3.100   6.879
 6049SOL    HW219047   4.894   3.214   6.823
 6050SOL     OW19048   4.023   5.762   5.175
 6050SOL    HW119049   3.970   5.727   5.253
 6050SOL    HW219050   3.997   5.712   5.093
 6051SOL     OW19051   2.294   0.202   3.635
 6051SOL    HW119052   2.257   0.110   3.646
 6051SOL    HW219053   2.237   0.267   3.686
 6052SOL     OW19054   6.684   0.859   6.926
 6052SOL    HW119055   6.654   0.932   6.865
 6052SOL    HW219056   6.736   0.791   6.874
 6053SOL     OW19057   3.936   2.043   6.816
 6053SOL    HW119058   4.011   2.103   6.844
 6053SOL    HW219059   3.946   2.021   6.719
 6054SOL     OW19060   2.314   3.218   0.251
 6054SOL    HW119061   2.393   3.164   0.283
 6054SOL    HW219062   2.233   3.191   0.302
 6055SOL     OW19063   4.874   0.715   5.211
 6055SOL    HW119064   4.822   0.782   5.159
 6055SOL    HW219065   4.847   0.718   5.307
 6056SOL     OW19066   4.983   3.002   4.577
 6056SOL    HW119067   5.019   3.039   4.491
 6056SOL    HW219068   5.021   2.911   4.593
 6057SOL     OW19069   6.042   2.550   3.771
 6057SOL    HW119070   6.023   2.576   3.677
 6057SOL    HW219071   6.134   2.510   3.778
 6058SOL     OW19072   5.068   3.366   1.672
 6058SOL    HW119073   5.050   3.273   1.639
 6058SOL    HW219074   5.018   3.432   1.616
 6059SOL     OW19075   5.177   5.005   5.029
 6059SOL    HW119076   5.137   4.914   5.042
 6059SOL    HW219077   5.119   5.059   4.968
 6060SOL     OW19078   3.149   3.835   0.300
 6060SOL    HW119079   3.195   3.751   0.330
 6060SOL    HW219080   3.095   3.816   0.218
 6061SOL     OW19081   3.515   2.501   1.169
 6061SOL    HW119082   3.531   2.553   1.085
 6061SOL    HW219083   3.538   2.558   1.248
 6062SOL     OW19084   2.073   0.783   4.911
 6062SOL    HW119085   2.144   0.723   4.875
 6062SOL    HW219086   2.085   0.875   4.874
 6063SOL     OW19087   4.177   2.739   6.096
 6063SOL    HW119088   4.204   2.821   6.147
 6063SOL    HW219089   4.229   2.733   6.011
 6064SOL     OW19090   1.773   6.426   0.792
 6064SOL    HW119091   1.693   6.396   0.741
 6064SOL    HW219092   1.854   6.376   0.760
 6065SOL     OW19093   0.020   6.649   2.169
 6065SOL    HW119094   0.030   6.628   2.072
 6065SOL    HW219095   0.108   6.636   2.216
 6066SOL     OW19096   4.661   1.222   6.212
 6066SOL    HW119097   4.676   1.320   6.195
 6066SOL    HW219098   4.694   1.199   6.304
 6067SOL     OW19099   5.914   0.883   5.301
 6067SOL    HW119100   5.861   0.964   5.324
 6067SOL    HW219101   5.922   0.824   5.382
 6068SOL     OW19102   5.584   3.513   4.318
 6068SOL    HW119103   5.586   3.424   4.274
 6068SOL    HW219104   5.538   3.505   4.407
 6069SOL     OW19105   6.098   3.361   5.817
 6069SOL    HW119106   6.100   3.316   5.728
 6069SOL    HW219107   6.124   3.295   5.888
 6070SOL     OW19108   2.759   2.337   0.656
 6070SOL    HW119109   2.673   2.388   0.645
 6070SOL    HW219110   2.755   2.254   0.601
 6071SOL     OW19111   5.559   5.428   3.766
 6071SOL    HW119112   5.586   5.417   3.861
 6071SOL    HW219113   5.506   5.512   3.755
 6072SOL     OW19114   6.804   0.231   1.702
 6072SOL    HW119115   6.812   0.142   1.657
 6072SOL    HW219116   6.755   0.220   1.788
 6073SOL     OW19117   5.867   3.262   0.012
 6073SOL    HW119118   5.792   3.231   0.070
 6073SOL    HW219119   5.937   3.306   0.067
 6074SOL     OW19120   1.144   6.677   3.183
 6074SOL    HW119121   1.131   6.578   3.189
 6074SOL    HW219122   1.075   6.723   3.239
 6075SOL     OW19123   6.575   1.274   6.249
 6075SOL    HW119124   6.646   1.251   6.315
 6075SOL    HW219125   6.565   1.199   6.184
 6076SOL     OW19126   3.031   5.683   3.920
 6076SOL    HW119127   3.110   5.742   3.934
 6076SOL    HW219128   2.951   5.738   3.898
 6077SOL     OW19129   6.214   5.882   0.998
 6077SOL    HW119130   6.219   5.877   1.098
 6077SOL    HW219131   6.282   5.947   0.964
 6078SOL     OW19132   4.419   5.130   0.431
 6078SOL    HW119133   4.434   5.214   0.379
 6078SOL    HW219134   4.385   5.152   0.522
 6079SOL     OW19135   4.435   3.807   6.195
 6079SOL    HW119136   4.414   3.812   6.097
 6079SOL    HW219137   4.352   3.827   6.247
 6080SOL     OW19138   0.239   0.320   1.305
 6080SOL    HW119139   0.289   0.285   1.385
 6080SOL    HW219140   0.262   0.417   1.292
 6081SOL     OW19141   6.928   3.592   5.598
 6081SOL    HW119142   6.912   3.563   5.693
 6081SOL    HW219143   6.966   3.685   5.598
 6082SOL     OW19144   2.357   1.853   4.078
 6082SOL    HW119145   2.383   1.949   4.072
 6082SOL    HW219146   2.431   1.795   4.044
 6083SOL     OW19147   6.643   5.539   6.899
 6083SOL    HW119148   6.593   5.618   6.933
 6083SOL    HW219149   6.683   5.489   6.975
 6084SOL     OW19150   0.755   0.225   4.030
 6084SOL    HW119151   0.799   0.217   3.941
 6084SOL    HW219152   0.664   0.265   4.019
 6085SOL     OW19153   0.754   5.192   0.555
 6085SOL    HW119154   0.778   5.282   0.519
 6085SOL    HW219155   0.831   5.154   0.606
 6086SOL     OW19156   4.132   0.256   6.101
 6086SOL    HW119157   4.133   0.178   6.164
 6086SOL    HW219158   4.068   0.325   6.135
 6087SOL     OW19159   3.858   5.344   0.849
 6087SOL    HW119160   3.877   5.301   0.937
 6087SOL    HW219161   3.789   5.415   0.861
 6088SOL     OW19162   5.441   5.673   3.763
 6088SOL    HW119163   5.371   5.679   3.693
 6088SOL    HW219164   5.508   5.747   3.751
 6089SOL     OW19165   4.949   3.632   1.608
 6089SOL    HW119166   4.926   3.678   1.694
 6089SOL    HW219167   4.914   3.685   1.531
 6090SOL     OW19168   2.333   5.827   5.094
 6090SOL    HW119169   2.247   5.838   5.044
 6090SOL    HW219170   2.322   5.864   5.186
 6091SOL     OW19171   1.652   1.392   0.398
 6091SOL    HW119172   1.593   1.403   0.318
 6091SOL    HW219173   1.623   1.311   0.449
 6092SOL     OW19174   4.163   6.876   2.948
 6092SOL    HW119175   4.194   6.946   3.012
 6092SOL    HW219176   4.076   6.838   2.979
 6093SOL     OW19177   1.788   3.503   1.764
 6093SOL    HW119178   1.757   3.422   1.814
 6093SOL    HW219179   1.886   3.515   1.776
 6094SOL     OW19180   2.552   6.757   1.558
 6094SOL    HW119181   2.499   6.728   1.478
 6094SOL    HW219182   2.490   6.794   1.627
 6095SOL     OW19183   4.880   4.140   0.343
 6095SOL    HW119184   4.824   4.103   0.418
 6095SOL    HW219185   4.874   4.239   0.342
 6096SOL     OW19186   6.794   6.691   3.407
 6096SOL    HW119187   6.700   6.673   3.435
 6096SOL    HW219188   6.847   6.607   3.412
 6097SOL     OW19189   2.542   6.480   2.427
 6097SOL    HW119190   2.473   6.453   2.495
 6097SOL    HW219191   2.625   6.512   2.474
 6098SOL     OW19192   2.009   1.896   4.893
 6098SOL    HW119193   1.966   1.899   4.803
 6098SOL    HW219194   2.056   1.809   4.905
 6099SOL     OW19195   6.338   6.388   6.996
 6099SOL    HW119196   6.427   6.374   0.018
 6099SOL    HW219197   6.273   6.426   0.042
 6100SOL     OW19198   5.034   5.756   0.238
 6100SOL    HW119199   5.133   5.772   0.249
 6100SOL    HW219200   4.998   5.714   0.321
 6101SOL     OW19201   6.683   2.612   4.351
 6101SOL    HW119202   6.746   2.687   4.328
 6101SOL    HW219203   6.626   2.639   4.429
 6102SOL     OW19204   3.388   6.544   3.677
 6102SOL    HW119205   3.442   6.572   3.756
 6102SOL    HW219206   3.403   6.446   3.659
 6103SOL     OW19207   6.547   2.343   2.395
 6103SOL    HW119208   6.608   2.291   2.455
 6103SOL    HW219209   6.509   2.420   2.446
 6104SOL     OW19210   6.082   0.477   5.250
 6104SOL    HW119211   5.999   0.533   5.252
 6104SOL    HW219212   6.146   0.511   5.319
 6105SOL     OW19213   2.857   6.352   5.933
 6105SOL    HW119214   2.861   6.335   6.031
 6105SOL    HW219215   2.895   6.274   5.884
 6106SOL     OW19216   2.435   4.115   6.209
 6106SOL    HW119217   2.466   4.085   6.119
 6106SOL    HW219218   2.401   4.209   6.203
 6107SOL     OW19219   3.056   5.175   4.141
 6107SOL    HW119220   3.146   5.134   4.125
 6107SOL    HW219221   3.065   5.253   4.202
 6108SOL     OW19222   1.543   2.872   1.924
 6108SOL    HW119223   1.458   2.918   1.896
 6108SOL    HW219224   1.617   2.899   1.863
 6109SOL     OW19225   5.377   2.460   5.144
 6109SOL    HW119226   5.470   2.423   5.142
 6109SOL    HW219227   5.328   2.422   5.222
 6110SOL     OW19228   4.017   4.222   0.871
 6110SOL    HW119229   3.998   4.163   0.792
 6110SOL    HW219230   4.116   4.230   0.883
 6111SOL     OW19231   2.244   4.135   2.320
 6111SOL    HW119232   2.172   4.065   2.319
 6111SOL    HW219233   2.270   4.154   2.414
 6112SOL     OW19234   4.230   0.371   2.648
 6112SOL    HW119235   4.235   0.316   2.732
 6112SOL    HW219236   4.318   0.414   2.631
 6113SOL     OW19237   2.539   1.329   6.194
 6113SOL    HW119238   2.477   1.361   6.266
 6113SOL    HW219239   2.552   1.402   6.127
 6114SOL     OW19240   5.166   5.936   1.105
 6114SOL    HW119241   5.108   5.897   1.176
 6114SOL    HW219242   5.257   5.896   1.111
 6115SOL     OW19243   5.209   0.183   4.241
 6115SOL    HW119244   5.180   0.247   4.170
 6115SOL    HW219245   5.307   0.192   4.257
 6116SOL     OW19246   3.805   0.936   6.137
 6116SOL    HW119247   3.797   1.011   6.202
 6116SOL    HW219248   3.818   0.974   6.045
 6117SOL     OW19249   1.528   1.183   4.253
 6117SOL    HW119250   1.606   1.137   4.209
 6117SOL    HW219251   1.532   1.167   4.352
 6118SOL     OW19252   6.830   1.060   2.249
 6118SOL    HW119253   6.923   1.064   2.213
 6118SOL    HW219254   6.779   0.987   2.204
 6119SOL     OW19255   1.424   3.886   6.634
 6119SOL    HW119256   1.514   3.848   6.611
 6119SOL    HW219257   1.355   3.853   6.570
 6120SOL     OW19258   3.772   6.409   4.640
 6120SOL    HW119259   3.835   6.420   4.717
 6120SOL    HW219260   3.808   6.457   4.560
 6121SOL     OW19261   1.107   3.295   5.332
 6121SOL    HW119262   1.193   3.286   5.382
 6121SOL    HW219263   1.068   3.386   5.349
 6122SOL     OW19264   4.400   5.603   1.257
 6122SOL    HW119265   4.449   5.659   1.190
 6122SOL    HW219266   4.313   5.647   1.279
 6123SOL     OW19267   6.016   0.112   6.648
 6123SOL    HW119268   6.066   0.112   6.735
 6123SOL    HW219269   5.919   0.124   6.666
 6124SOL     OW19270   2.561   6.998   5.912
 6124SOL    HW119271   2.478   6.970   5.961
 6124SOL    HW219272   2.622   6.920   5.902
 6125SOL     OW19273   1.679   5.232   0.740
 6125SOL    HW119274   1.686   5.272   0.831
 6125SOL    HW219275   1.684   5.305   0.672
 6126SOL     OW19276   1.216   0.092   4.156
 6126SOL    HW119277   1.314   0.106   4.174
 6126SOL    HW219278   1.175   0.179   4.128
 6127SOL     OW19279   3.812   6.958   0.787
 6127SOL    HW119280   3.715   6.935   0.795
 6127SOL    HW219281   3.824   0.036   0.795
 6128SOL     OW19282   5.997   3.809   0.710
 6128SOL    HW119283   5.930   3.791   0.638
 6128SOL    HW219284   6.088   3.786   0.677
 6129SOL     OW19285   6.597   3.248   3.523
 6129SOL    HW119286   6.576   3.166   3.577
 6129SOL    HW219287   6.694   3.270   3.530
 6130SOL     OW19288   6.459   2.505   3.929
 6130SOL    HW119289   6.483   2.460   4.015
 6130SOL    HW219290   6.433   2.600   3.947
 6131SOL     OW19291   0.160   1.084   5.149
 6131SOL    HW119292   0.098   1.140   5.095
 6131SOL    HW219293   0.227   1.040   5.089
 6132SOL     OW19294   4.747   2.376   6.975
 6132SOL    HW119295   4.751   2.279   6.997
 6132SOL    HW219296   4.755   2.388   6.876
 6133SOL     OW19297   1.552   2.601   1.746
 6133SOL    HW119298   1.569   2.503   1.756
 6133SOL    HW219299   1.537   2.641   1.836
 6134SOL     OW19300   3.629   4.253   6.223
 6134SOL    HW119301   3.605   4.159   6.199
 6134SOL    HW219302   3.728   4.262   6.231
 6135SOL     OW19303   0.464   0.669   1.854
 6135SOL    HW119304   0.495   0.763   1.868
 6135SOL    HW219305   0.386   0.651   1.913
 6136SOL     OW19306   0.923   2.564   2.253
 6136SOL    HW119307   0.899   2.601   2.163
 6136SOL    HW219308   1.022   2.560   2.262
 6137SOL     OW19309   6.682   2.560   3.262
 6137SOL    HW119310   6.738   2.479   3.280
 6137SOL    HW219311   6.648   2.557   3.168
 6138SOL     OW19312   3.721   6.583   3.199
 6138SOL    HW119313   3.756   6.609   3.289
 6138SOL    HW219314   3.744   6.487   3.181
 6139SOL     OW19315   0.838   0.394   6.282
 6139SOL    HW119316   0.890   0.330   6.338
 6139SOL    HW219317   0.896   0.470   6.255
 6140SOL     OW19318   0.956   6.298   1.509
 6140SOL    HW119319   0.962   6.387   1.463
 6140SOL    HW219320   0.860   6.268   1.511
 6141SOL     OW19321   6.479   6.538   6.356
 6141SOL    HW119322   6.566   6.496   6.329
 6141SOL    HW219323   6.409   6.517   6.287
 6142SOL     OW19324   1.341   6.198   0.318
 6142SOL    HW119325   1.326   6.292   0.287
 6142SOL    HW219326   1.382   6.145   0.243
 6143SOL     OW19327   6.559   3.731   1.067
 6143SOL    HW119328   6.472   3.733   1.116
 6143SOL    HW219329   6.548   3.772   0.977
 6144SOL     OW19330   5.485   4.576   2.934
 6144SOL    HW119331   5.389   4.555   2.921
 6144SOL    HW219332   5.504   4.668   2.902
 6145SOL     OW19333   5.232   5.122   3.186
 6145SOL    HW119334   5.137   5.096   3.170
 6145SOL    HW219335   5.293   5.054   3.146
 6146SOL     OW19336   2.843   5.893   3.364
 6146SOL    HW119337   2.787   5.974   3.345
 6146SOL    HW219338   2.822   5.823   3.296
 6147SOL     OW19339   1.654   2.498   4.509
 6147SOL    HW119340   1.569   2.542   4.478
 6147SOL    HW219341   1.729   2.564   4.505
 6148SOL     OW19342   5.700   6.804   4.139
 6148SOL    HW119343   5.634   6.841   4.074
 6148SOL    HW219344   5.668   6.716   4.173
 6149SOL     OW19345   3.036   6.010   0.801
 6149SOL    HW119346   2.948   6.056   0.814
 6149SOL    HW219347   3.042   5.932   0.863
 6150SOL     OW19348   4.547   5.616   6.890
 6150SOL    HW119349   4.591   5.538   6.935
 6150SOL    HW219350   4.499   5.671   6.959
 6151SOL     OW19351   5.766   4.319   6.632
 6151SOL    HW119352   5.773   4.403   6.578
 6151SOL    HW219353   5.844   4.260   6.613
 6152SOL     OW19354   5.869   5.094   4.710
 6152SOL    HW119355   5.949   5.077   4.652
 6152SOL    HW219356   5.843   5.190   4.704
 6153SOL     OW19357   5.195   4.623   1.242
 6153SOL    HW119358   5.201   4.687   1.318
 6153SOL    HW219359   5.122   4.557   1.258
 6154SOL     OW19360   6.207   2.100   2.367
 6154SOL    HW119361   6.110   2.075   2.367
 6154SOL    HW219362   6.261   2.022   2.400
 6155SOL     OW19363   1.499   1.961   4.352
 6155SOL    HW119364   1.504   2.059   4.372
 6155SOL    HW219365   1.423   1.920   4.402
 6156SOL     OW19366   4.035   4.536   1.508
 6156SOL    HW119367   4.096   4.491   1.443
 6156SOL    HW219368   3.989   4.467   1.563
 6157SOL     OW19369   0.177   0.387   5.045
 6157SOL    HW119370   0.088   0.351   5.074
 6157SOL    HW219371   0.179   0.392   4.945
 6158SOL     OW19372   3.744   1.717   5.713
 6158SOL    HW119373   3.831   1.670   5.731
 6158SOL    HW219374   3.670   1.670   5.763
 6159SOL     OW19375   4.972   2.867   2.337
 6159SOL    HW119376   5.045   2.934   2.320
 6159SOL    HW219377   5.011   2.783   2.374
 6160SOL     OW19378   5.180   1.353   6.571
 6160SOL    HW119379   5.159   1.273   6.514
 6160SOL    HW219380   5.202   1.322   6.664
 6161SOL     OW19381   4.826   1.273   5.038
 6161SOL    HW119382   4.762   1.206   5.076
 6161SOL    HW219383   4.775   1.350   5.000
 6162SOL     OW19384   1.011   6.099   3.516
 6162SOL    HW119385   0.989   6.054   3.602
 6162SOL    HW219386   1.017   6.198   3.531
 6163SOL     OW19387   6.085   6.670   0.988
 6163SOL    HW119388   6.094   6.762   1.028
 6163SOL    HW219389   6.010   6.621   1.033
 6164SOL     OW19390   4.123   3.223   2.006
 6164SOL    HW119391   4.201   3.198   2.064
 6164SOL    HW219392   4.060   3.145   1.999
 6165SOL     OW19393   4.743   1.166   0.284
 6165SOL    HW119394   4.753   1.156   0.185
 6165SOL    HW219395   4.681   1.095   0.318
 6166SOL     OW19396   5.543   1.334   6.024
 6166SOL    HW119397   5.637   1.336   5.991
 6166SOL    HW219398   5.533   1.398   6.101
 6167SOL     OW19399   1.150   5.038   3.465
 6167SOL    HW119400   1.063   5.086   3.453
 6167SOL    HW219401   1.142   4.972   3.540
 6168SOL     OW19402   0.927   4.122   1.653
 6168SOL    HW119403   1.010   4.147   1.603
 6168SOL    HW219404   0.847   4.139   1.596
 6169SOL     OW19405   1.434   2.209   1.048
 6169SOL    HW119406   1.515   2.154   1.028
 6169SOL    HW219407   1.393   2.241   0.963
 6170SOL     OW19408   0.943   4.172   6.235
 6170SOL    HW119409   0.943   4.133   6.143
 6170SOL    HW219410   0.938   4.272   6.229
 6171SOL     OW19411   0.901   3.032   0.767
 6171SOL    HW119412   0.877   2.995   0.678
 6171SOL    HW219413   0.980   2.983   0.803
 6172SOL     OW19414   1.639   2.974   2.563
 6172SOL    HW119415   1.572   2.934   2.501
 6172SOL    HW219416   1.638   3.073   2.554
 6173SOL     OW19417   6.689   5.516   1.532
 6173SOL    HW119418   6.620   5.546   1.598
 6173SOL    HW219419   6.677   5.418   1.514
 6174SOL     OW19420   5.390   5.369   3.166
 6174SOL    HW119421   5.320   5.314   3.120
 6174SOL    HW219422   5.474   5.316   3.177
 6175SOL     OW19423   3.967   0.553   3.734
 6175SOL    HW119424   3.995   0.462   3.702
 6175SOL    HW219425   4.041   0.593   3.790
 6176SOL     OW19426   5.363   4.004   6.270
 6176SOL    HW119427   5.273   4.038   6.244
 6176SOL    HW219428   5.354   3.926   6.332
 6177SOL     OW19429   5.627   1.247   0.957
 6177SOL    HW119430   5.537   1.235   0.998
 6177SOL    HW219431   5.635   1.341   0.922
 6178SOL     OW19432   4.737   4.787   2.375
 6178SOL    HW119433   4.819   4.811   2.323
 6178SOL    HW219434   4.682   4.723   2.323
 6179SOL     OW19435   6.482   4.676   2.620
 6179SOL    HW119436   6.458   4.581   2.639
 6179SOL    HW219437   6.428   4.737   2.679
 6180SOL     OW19438   3.515   4.492   0.913
 6180SOL    HW119439   3.509   4.584   0.876
 6180SOL    HW219440   3.435   4.439   0.883
 6181SOL     OW19441   4.497   6.703   0.594
 6181SOL    HW119442   4.413   6.701   0.540
 6181SOL    HW219443   4.503   6.791   0.643
 6182SOL     OW19444   5.182   3.396   5.519
 6182SOL    HW119445   5.214   3.451   5.441
 6182SOL    HW219446   5.190   3.450   5.602
 6183SOL     OW19447   1.092   2.560   3.665
 6183SOL    HW119448   1.007   2.596   3.626
 6183SOL    HW219449   1.137   2.500   3.599
 6184SOL     OW19450   2.602   6.977   6.237
 6184SOL    HW119451   2.652   6.899   6.198
 6184SOL    HW219452   2.661   0.036   6.238
 6185SOL     OW19453   0.610   3.644   6.061
 6185SOL    HW119454   0.515   3.623   6.038
 6185SOL    HW219455   0.661   3.662   5.977
 6186SOL     OW19456   0.735   0.540   0.559
 6186SOL    HW119457   0.796   0.492   0.496
 6186SOL    HW219458   0.640   0.517   0.538
 6187SOL     OW19459   4.951   4.378   3.934
 6187SOL    HW119460   4.887   4.331   3.993
 6187SOL    HW219461   5.002   4.446   3.986
 6188SOL     OW19462   2.385   1.619   6.806
 6188SOL    HW119463   2.328   1.661   6.736
 6188SOL    HW219464   2.366   1.521   6.811
 6189SOL     OW19465   4.534   4.593   2.629
 6189SOL    HW119466   4.569   4.682   2.660
 6189SOL    HW219467   4.479   4.606   2.546
 6190SOL     OW19468   1.056   4.159   5.592
 6190SOL    HW119469   1.035   4.230   5.660
 6190SOL    HW219470   1.097   4.203   5.512
 6191SOL     OW19471   2.791   1.970   6.717
 6191SOL    HW119472   2.713   1.952   6.657
 6191SOL    HW219473   2.782   1.918   6.802
 6192SOL     OW19474   3.331   2.411   5.841
 6192SOL    HW119475   3.257   2.399   5.907
 6192SOL    HW219476   3.297   2.461   5.761
 6193SOL     OW19477   4.624   0.293   1.717
 6193SOL    HW119478   4.722   0.298   1.738
 6193SOL    HW219479   4.612   0.256   1.625
 6194SOL     OW19480   1.559   0.385   1.430
 6194SOL    HW119481   1.466   0.423   1.422
 6194SOL    HW219482   1.561   0.295   1.387
 6195SOL     OW19483   4.229   5.886   5.326
 6195SOL    HW119484   4.258   5.968   5.277
 6195SOL    HW219485   4.148   5.847   5.283
 6196SOL     OW19486   5.413   3.172   1.926
 6196SOL    HW119487   5.358   3.248   1.961
 6196SOL    HW219488   5.393   3.159   1.829
 6197SOL     OW19489   3.898   5.037   0.743
 6197SOL    HW119490   3.938   5.001   0.827
 6197SOL    HW219491   3.853   5.124   0.762
 6198SOL     OW19492   4.005   6.834   1.650
 6198SOL    HW119493   4.013   6.896   1.572
 6198SOL    HW219494   3.908   6.818   1.670
 6199SOL     OW19495   0.901   1.475   0.369
 6199SOL    HW119496   0.919   1.458   0.273
 6199SOL    HW219497   0.896   1.573   0.386
 6200SOL     OW19498   0.888   1.351   5.498
 6200SOL    HW119499   0.891   1.328   5.595
 6200SOL    HW219500   0.968   1.313   5.452
 6201SOL     OW19501   0.530   3.900   5.629
 6201SOL    HW119502   0.544   3.807   5.594
 6201SOL    HW219503   0.565   3.966   5.563
 6202SOL     OW19504   4.185   1.381   2.088
 6202SOL    HW119505   4.109   1.392   2.023
 6202SOL    HW219506   4.201   1.284   2.104
 6203SOL     OW19507   6.766   5.512   1.917
 6203SOL    HW119508   6.679   5.561   1.921
 6203SOL    HW219509   6.771   5.447   1.993
 6204SOL     OW19510   6.923   5.226   3.996
 6204SOL    HW119511   7.008   5.236   4.049
 6204SOL    HW219512   6.932   5.279   3.911
 6205SOL     OW19513   6.323   5.665   0.868
 6205SOL    HW119514   6.262   5.588   0.852
 6205SOL    HW219515   6.280   5.730   0.931
 6206SOL     OW19516   5.476   2.217   2.978
 6206SOL    HW119517   5.546   2.146   2.992
 6206SOL    HW219518   5.387   2.181   3.006
 6207SOL     OW19519   1.255   5.292   5.437
 6207SOL    HW119520   1.199   5.338   5.506
 6207SOL    HW219521   1.350   5.322   5.446
 6208SOL     OW19522   5.474   2.906   5.842
 6208SOL    HW119523   5.414   2.983   5.820
 6208SOL    HW219524   5.558   2.941   5.884
 6209SOL     OW19525   3.814   6.170   6.787
 6209SOL    HW119526   3.810   6.098   6.856
 6209SOL    HW219527   3.747   6.152   6.715
 6210SOL     OW19528   5.171   3.552   4.185
 6210SOL    HW119529   5.086   3.590   4.148
 6210SOL    HW219530   5.150   3.490   4.260
 6211SOL     OW19531   2.827   6.064   6.007
 6211SOL    HW119532   2.863   6.026   5.923
 6211SOL    HW219533   2.897   6.061   6.078
 6212SOL     OW19534   2.601   4.816   4.401
 6212SOL    HW119535   2.654   4.791   4.320
 6212SOL    HW219536   2.568   4.733   4.446
 6213SOL     OW19537   6.137   0.633   0.347
 6213SOL    HW119538   6.190   0.674   0.421
 6213SOL    HW219539   6.127   0.699   0.272
 6214SOL     OW19540   4.616   5.524   3.960
 6214SOL    HW119541   4.699   5.520   3.904
 6214SOL    HW219542   4.624   5.461   4.037
 6215SOL     OW19543   4.252   2.164   6.685
 6215SOL    HW119544   4.214   2.210   6.765
 6215SOL    HW219545   4.295   2.232   6.625
 6216SOL     OW19546   6.826   1.353   2.629
 6216SOL    HW119547   6.833   1.343   2.529
 6216SOL    HW219548   6.917   1.343   2.669
 6217SOL     OW19549   0.761   3.520   2.281
 6217SOL    HW119550   0.789   3.616   2.279
 6217SOL    HW219551   0.842   3.462   2.281
 6218SOL     OW19552   4.104   6.601   6.446
 6218SOL    HW119553   4.147   6.587   6.357
 6218SOL    HW219554   4.098   6.699   6.466
 6219SOL     OW19555   1.497   1.902   4.711
 6219SOL    HW119556   1.446   1.933   4.792
 6219SOL    HW219557   1.586   1.946   4.709
 6220SOL     OW19558   2.608   0.847   4.742
 6220SOL    HW119559   2.521   0.869   4.698
 6220SOL    HW219560   2.648   0.930   4.780
 6221SOL     OW19561   5.746   6.984   0.322
 6221SOL    HW119562   5.708   6.895   0.349
 6221SOL    HW219563   5.844   6.985   0.342
 6222SOL     OW19564   1.644   6.469   1.777
 6222SOL    HW119565   1.647   6.436   1.871
 6222SOL    HW219566   1.661   6.392   1.714
 6223SOL     OW19567   1.610   4.549   3.918
 6223SOL    HW119568   1.551   4.469   3.934
 6223SOL    HW219569   1.603   4.577   3.822
 6224SOL     OW19570   3.444   1.322   5.775
 6224SOL    HW119571   3.465   1.296   5.869
 6224SOL    HW219572   3.528   1.352   5.730
 6225SOL     OW19573   4.263   3.128   6.518
 6225SOL    HW119574   4.226   3.188   6.447
 6225SOL    HW219575   4.350   3.164   6.550
 6226SOL     OW19576   0.517   1.815   5.278
 6226SOL    HW119577   0.615   1.824   5.296
 6226SOL    HW219578   0.502   1.741   5.213
 6227SOL     OW19579   3.639   5.118   5.260
 6227SOL    HW119580   3.618   5.044   5.196
 6227SOL    HW219581   3.640   5.083   5.353
 6228SOL     OW19582   0.722   3.442   1.983
 6228SOL    HW119583   0.650   3.455   2.052
 6228SOL    HW219584   0.743   3.345   1.975
 6229SOL     OW19585   0.871   1.686   4.102
 6229SOL    HW119586   0.836   1.762   4.156
 6229SOL    HW219587   0.946   1.717   4.044
 6230SOL     OW19588   0.756   1.859   4.268
 6230SOL    HW119589   0.804   1.941   4.300
 6230SOL    HW219590   0.724   1.806   4.346
 6231SOL     OW19591   6.365   6.504   0.334
 6231SOL    HW119592   6.298   6.507   0.260
 6231SOL    HW219593   6.383   6.409   0.358
 6232SOL     OW19594   6.098   1.302   0.679
 6232SOL    HW119595   6.092   1.328   0.775
 6232SOL    HW219596   6.186   1.332   0.641
 6233SOL     OW19597   6.718   1.950   1.457
 6233SOL    HW119598   6.780   1.973   1.532
 6233SOL    HW219599   6.762   1.886   1.395
 6234SOL     OW19600   6.983   0.433   5.679
 6234SOL    HW119601   0.022   0.357   5.704
 6234SOL    HW219602   7.003   0.463   5.586
 6235SOL     OW19603   0.184   6.990   0.954
 6235SOL    HW119604   0.087   7.006   0.971
 6235SOL    HW219605   0.197   6.896   0.923
 6236SOL     OW19606   0.927   4.348   1.264
 6236SOL    HW119607   0.943   4.274   1.199
 6236SOL    HW219608   0.832   4.345   1.295
 6237SOL     OW19609   4.057   0.441   6.440
 6237SOL    HW119610   4.043   0.495   6.523
 6237SOL    HW219611   4.010   0.485   6.364
 6238SOL     OW19612   4.441   5.311   2.387
 6238SOL    HW119613   4.514   5.351   2.331
 6238SOL    HW219614   4.460   5.328   2.483
 6239SOL     OW19615   3.600   0.746   1.361
 6239SOL    HW119616   3.567   0.755   1.455
 6239SOL    HW219617   3.571   0.826   1.308
 6240SOL     OW19618   2.103   3.797   5.479
 6240SOL    HW119619   2.201   3.803   5.459
 6240SOL    HW219620   2.075   3.701   5.478
 6241SOL     OW19621   3.177   0.515   1.770
 6241SOL    HW119622   3.227   0.557   1.846
 6241SOL    HW219623   3.079   0.534   1.780
 6242SOL     OW19624   3.790   0.614   4.234
 6242SOL    HW119625   3.749   0.655   4.153
 6242SOL    HW219626   3.871   0.561   4.207
 6243SOL     OW19627   6.810   6.621   5.553
 6243SOL    HW119628   6.765   6.536   5.527
 6243SOL    HW219629   6.783   6.694   5.490
 6244SOL     OW19630   5.651   2.860   3.028
 6244SOL    HW119631   5.559   2.899   3.027
 6244SOL    HW219632   5.715   2.924   2.987
 6245SOL     OW19633   1.474   3.602   0.774
 6245SOL    HW119634   1.400   3.550   0.732
 6245SOL    HW219635   1.442   3.641   0.861
 6246SOL     OW19636   1.284   2.240   5.643
 6246SOL    HW119637   1.244   2.328   5.668
 6246SOL    HW219638   1.310   2.241   5.546
 6247SOL     OW19639   0.261   5.973   3.855
 6247SOL    HW119640   0.226   5.994   3.764
 6247SOL    HW219641   0.191   5.923   3.907
 6248SOL     OW19642   3.612   3.894   6.852
 6248SOL    HW119643   3.568   3.983   6.866
 6248SOL    HW219644   3.628   3.851   6.941
 6249SOL     OW19645   7.008   3.643   0.504
 6249SOL    HW119646   0.071   3.690   0.478
 6249SOL    HW219647   6.951   3.705   0.558
 6250SOL     OW19648   6.689   0.375   0.876
 6250SOL    HW119649   6.707   0.463   0.832
 6250SOL    HW219650   6.669   0.390   0.973
 6251SOL     OW19651   4.182   5.925   5.591
 6251SOL    HW119652   4.186   5.925   5.491
 6251SOL    HW219653   4.274   5.910   5.628
 6252SOL     OW19654   2.078   6.379   5.580
 6252SOL    HW119655   2.004   6.433   5.621
 6252SOL    HW219656   2.145   6.440   5.538
 6253SOL     OW19657   2.396   4.929   4.075
 6253SOL    HW119658   2.382   4.991   3.998
 6253SOL    HW219659   2.493   4.907   4.083
 6254SOL     OW19660   5.710   1.290   1.464
 6254SOL    HW119661   5.669   1.316   1.377
 6254SOL    HW219662   5.783   1.224   1.448
 6255SOL     OW19663   2.793   0.640   0.761
 6255SOL    HW119664   2.832   0.583   0.833
 6255SOL    HW219665   2.864   0.664   0.695
 6256SOL     OW19666   3.382   5.266   1.785
 6256SOL    HW119667   3.317   5.322   1.838
 6256SOL    HW219668   3.475   5.300   1.801
 6257SOL     OW19669   4.599   2.402   0.644
 6257SOL    HW119670   4.617   2.460   0.564
 6257SOL    HW219671   4.572   2.311   0.614
 6258SOL     OW19672   2.721   0.784   3.215
 6258SOL    HW119673   2.807   0.736   3.196
 6258SOL    HW219674   2.720   0.872   3.168
 6259SOL     OW19675   1.618   2.237   6.764
 6259SOL    HW119676   1.553   2.284   6.704
 6259SOL    HW219677   1.589   2.143   6.778
 6260SOL     OW19678   3.067   5.642   0.530
 6260SOL    HW119679   3.142   5.579   0.552
 6260SOL    HW219680   3.020   5.610   0.448
 6261SOL     OW19681   4.079   1.383   6.926
 6261SOL    HW119682   4.006   1.323   6.959
 6261SOL    HW219683   4.126   1.424   7.004
 6262SOL     OW19684   2.328   6.199   1.834
 6262SOL    HW119685   2.367   6.291   1.832
 6262SOL    HW219686   2.231   6.203   1.813
 6263SOL     OW19687   6.888   6.972   4.209
 6263SOL    HW119688   6.865   6.983   4.112
 6263SOL    HW219689   6.982   7.003   4.224
 6264SOL     OW19690   2.309   0.372   1.562
 6264SOL    HW119691   2.261   0.392   1.648
 6264SOL    HW219692   2.380   0.440   1.546
 6265SOL     OW19693   3.576   3.758   0.058
 6265SOL    HW119694   3.637   3.684   0.085
 6265SOL    HW219695   3.545   3.808   0.139
 6266SOL     OW19696   4.363   0.439   3.940
 6266SOL    HW119697   4.447   0.493   3.942
 6266SOL    HW219698   4.383   0.346   3.910
 6267SOL     OW19699   2.589   0.038   5.341
 6267SOL    HW119700   2.535   0.053   5.259
 6267SOL    HW219701   2.594   0.122   5.394
 6268SOL     OW19702   2.606   0.698   2.411
 6268SOL    HW119703   2.508   0.700   2.392
 6268SOL    HW219704   2.626   0.757   2.489
 6269SOL     OW19705   0.087   6.615   1.901
 6269SOL    HW119706   0.177   6.590   1.938
 6269SOL    HW219707   0.099   6.687   1.833
 6270SOL     OW19708   0.986   0.727   6.281
 6270SOL    HW119709   0.942   0.701   6.367
 6270SOL    HW219710   1.025   0.818   6.291
 6271SOL     OW19711   5.746   2.372   5.975
 6271SOL    HW119712   5.764   2.320   6.059
 6271SOL    HW219713   5.707   2.461   6.000
 6272SOL     OW19714   0.427   2.278   0.180
 6272SOL    HW119715   0.421   2.375   0.206
 6272SOL    HW219716   0.423   2.222   0.263
 6273SOL     OW19717   0.664   6.138   2.344
 6273SOL    HW119718   0.676   6.236   2.327
 6273SOL    HW219719   0.752   6.092   2.338
 6274SOL     OW19720   3.248   6.543   5.517
 6274SOL    HW119721   3.190   6.585   5.588
 6274SOL    HW219722   3.194   6.477   5.465
 6275SOL     OW19723   2.307   6.514   6.789
 6275SOL    HW119724   2.307   6.613   6.804
 6275SOL    HW219725   2.361   6.493   6.707
 6276SOL     OW19726   1.916   4.701   3.662
 6276SOL    HW119727   1.973   4.643   3.719
 6276SOL    HW219728   1.880   4.776   3.717
 6277SOL     OW19729   4.715   3.430   0.888
 6277SOL    HW119730   4.750   3.352   0.939
 6277SOL    HW219731   4.776   3.448   0.810
 6278SOL     OW19732   4.704   0.190   4.698
 6278SOL    HW119733   4.791   0.237   4.712
 6278SOL    HW219734   4.635   0.228   4.760
 6279SOL     OW19735   3.453   6.244   6.732
 6279SOL    HW119736   3.495   6.329   6.763
 6279SOL    HW219737   3.522   6.187   6.687
 6280SOL     OW19738   0.395   1.205   6.591
 6280SOL    HW119739   0.314   1.247   6.631
 6280SOL    HW219740   0.407   1.113   6.630
 6281SOL     OW19741   0.134   5.041   4.129
 6281SOL    HW119742   0.034   5.041   4.129
 6281SOL    HW219743   0.166   5.130   4.164
 6282SOL     OW19744   6.697   5.115   6.123
 6282SOL    HW119745   6.663   5.106   6.030
 6282SOL    HW219746   6.715   5.024   6.161
 6283SOL     OW19747   0.103   3.732   4.510
 6283SOL    HW119748   0.179   3.707   4.570
 6283SOL    HW219749   0.017   3.725   4.561
 6284SOL     OW19750   1.384   4.829   5.002
 6284SOL    HW119751   1.426   4.913   5.037
 6284SOL    HW219752   1.300   4.851   4.954
 6285SOL     OW19753   0.030   3.359   4.191
 6285SOL    HW119754   0.036   3.457   4.212
 6285SOL    HW219755   7.002   3.346   4.105
 6286SOL     OW19756   6.225   2.345   4.190
 6286SOL    HW119757   6.134   2.345   4.147
 6286SOL    HW219758   6.291   2.386   4.127
 6287SOL     OW19759   3.392   5.187   5.000
 6287SOL    HW119760   3.426   5.249   4.930
 6287SOL    HW219761   3.319   5.130   4.962
 6288SOL     OW19762   4.997   4.520   2.347
 6288SOL    HW119763   5.041   4.431   2.360
 6288SOL    HW219764   4.987   4.538   2.249
 6289SOL     OW19765   2.666   4.761   0.144
 6289SOL    HW119766   2.731   4.713   0.203
 6289SOL    HW219767   2.629   4.696   0.076
 6290SOL     OW19768   6.033   5.118   6.076
 6290SOL    HW119769   6.112   5.178   6.090
 6290SOL    HW219770   6.039   5.077   5.985
 6291SOL     OW19771   4.111   3.709   4.216
 6291SOL    HW119772   4.063   3.656   4.147
 6291SOL    HW219773   4.064   3.796   4.230
 6292SOL     OW19774   1.720   2.107   4.900
 6292SOL    HW119775   1.730   2.037   4.830
 6292SOL    HW219776   1.801   2.166   4.899
 6293SOL     OW19777   4.109   1.808   1.311
 6293SOL    HW119778   4.155   1.837   1.395
 6293SOL    HW219779   4.022   1.763   1.334
 6294SOL     OW19780   3.848   0.064   4.135
 6294SOL    HW119781   3.845   0.128   4.058
 6294SOL    HW219782   3.944   0.048   4.160
 6295SOL     OW19783   5.306   4.755   4.454
 6295SOL    HW119784   5.311   4.671   4.508
 6295SOL    HW219785   5.391   4.767   4.402
 6296SOL     OW19786   6.936   5.457   5.927
 6296SOL    HW119787   6.984   5.450   6.014
 6296SOL    HW219788   6.870   5.532   5.931
 6297SOL     OW19789   5.502   0.324   5.029
 6297SOL    HW119790   5.457   0.237   5.049
 6297SOL    HW219791   5.445   0.377   4.966
 6298SOL     OW19792   1.402   3.658   0.084
 6298SOL    HW119793   1.442   3.722   0.150
 6298SOL    HW219794   1.403   3.699   7.014
 6299SOL     OW19795   6.244   2.505   2.087
 6299SOL    HW119796   6.212   2.440   2.019
 6299SOL    HW219797   6.335   2.478   2.119
 6300SOL     OW19798   6.779   1.541   6.784
 6300SOL    HW119799   6.799   1.480   6.860
 6300SOL    HW219800   6.818   1.631   6.802
 6301SOL     OW19801   3.298   0.046   0.020
 6301SOL    HW119802   3.200   0.059   0.006
 6301SOL    HW219803   3.342   0.135   0.031
 6302SOL     OW19804   1.535   1.423   4.109
 6302SOL    HW119805   1.535   1.332   4.150
 6302SOL    HW219806   1.442   1.446   4.080
 6303SOL     OW19807   0.762   0.953   4.625
 6303SOL    HW119808   0.780   0.860   4.593
 6303SOL    HW219809   0.709   0.949   4.710
 6304SOL     OW19810   3.155   0.708   1.335
 6304SOL    HW119811   3.057   0.726   1.326
 6304SOL    HW219812   3.201   0.731   1.249
 6305SOL     OW19813   6.219   6.595   0.757
 6305SOL    HW119814   6.300   6.640   0.720
 6305SOL    HW219815   6.186   6.646   0.837
 6306SOL     OW19816   0.137   4.051   4.545
 6306SOL    HW119817   0.125   3.957   4.578
 6306SOL    HW219818   0.234   4.069   4.529
 6307SOL     OW19819   3.605   4.110   4.669
 6307SOL    HW119820   3.610   4.123   4.768
 6307SOL    HW219821   3.693   4.076   4.636
 6308SOL     OW19822   2.096   2.485   4.358
 6308SOL    HW119823   2.006   2.513   4.325
 6308SOL    HW219824   2.165   2.551   4.327
 6309SOL     OW19825   6.193   5.636   4.419
 6309SOL    HW119826   6.257   5.628   4.342
 6309SOL    HW219827   6.243   5.665   4.501
 6310SOL     OW19828   1.985   5.787   2.784
 6310SOL    HW119829   2.013   5.693   2.765
 6310SOL    HW219830   1.965   5.834   2.698
 6311SOL     OW19831   5.172   1.855   5.900
 6311SOL    HW119832   5.132   1.915   5.831
 6311SOL    HW219833   5.199   1.768   5.858
 6312SOL     OW19834   0.146   6.422   5.215
 6312SOL    HW119835   0.163   6.424   5.314
 6312SOL    HW219836   0.124   6.514   5.184
 6313SOL     OW19837   6.933   6.042   3.706
 6313SOL    HW119838   0.006   6.061   3.678
 6313SOL    HW219839   6.933   5.998   3.796
 6314SOL     OW19840   4.196   6.747   1.821
 6314SOL    HW119841   4.115   6.769   1.765
 6314SOL    HW219842   4.197   6.805   1.902
 6315SOL     OW19843   2.813   1.832   5.514
 6315SOL    HW119844   2.788   1.881   5.597
 6315SOL    HW219845   2.857   1.894   5.450
 6316SOL     OW19846   5.286   2.335   6.607
 6316SOL    HW119847   5.317   2.250   6.565
 6316SOL    HW219848   5.213   2.375   6.552
 6317SOL     OW19849   5.159   4.919   1.610
 6317SOL    HW119850   5.139   5.015   1.630
 6317SOL    HW219851   5.126   4.863   1.686
 6318SOL     OW19852   4.492   0.251   5.654
 6318SOL    HW119853   4.453   0.179   5.596
 6318SOL    HW219854   4.572   0.215   5.702
 6319SOL     OW19855   6.332   1.416   5.013
 6319SOL    HW119856   6.406   1.427   5.080
 6319SOL    HW219857   6.349   1.476   4.935
 6320SOL     OW19858   6.479   6.431   5.099
 6320SOL    HW119859   6.474   6.332   5.091
 6320SOL    HW219860   6.396   6.472   5.059
 6321SOL     OW19861   4.389   3.752   0.921
 6321SOL    HW119862   4.459   3.708   0.976
 6321SOL    HW219863   4.379   3.704   0.834
 6322SOL     OW19864   1.856   2.308   0.716
 6322SOL    HW119865   1.892   2.395   0.682
 6322SOL    HW219866   1.786   2.274   0.654
 6323SOL     OW19867   1.979   1.984   1.659
 6323SOL    HW119868   2.063   1.944   1.625
 6323SOL    HW219869   1.988   2.084   1.662
 6324SOL     OW19870   5.069   1.109   0.929
 6324SOL    HW119871   5.028   1.193   0.894
 6324SOL    HW219872   5.168   1.112   0.917
 6325SOL     OW19873   1.708   3.247   2.472
 6325SOL    HW119874   1.692   3.334   2.517
 6325SOL    HW219875   1.793   3.207   2.507
 6326SOL     OW19876   5.323   4.952   1.241
 6326SOL    HW119877   5.417   4.979   1.219
 6326SOL    HW219878   5.323   4.899   1.326
 6327SOL     OW19879   6.983   1.222   4.967
 6327SOL    HW119880   0.024   1.268   4.904
 6327SOL    HW219881   6.921   1.289   5.007
 6328SOL     OW19882   3.970   3.871   0.178
 6328SOL    HW119883   3.967   3.914   0.088
 6328SOL    HW219884   3.976   3.942   0.249
 6329SOL     OW19885   1.732   2.805   3.549
 6329SOL    HW119886   1.650   2.777   3.600
 6329SOL    HW219887   1.790   2.861   3.607
 6330SOL     OW19888   5.594   0.026   1.867
 6330SOL    HW119889   5.571   0.095   1.936
 6330SOL    HW219890   5.672   0.058   1.813
 6331SOL     OW19891   6.309   2.987   5.063
 6331SOL    HW119892   6.211   2.969   5.070
 6331SOL    HW219893   6.325   3.058   4.995
 6332SOL     OW19894   0.407   2.691   0.808
 6332SOL    HW119895   0.373   2.761   0.870
 6332SOL    HW219896   0.465   2.627   0.859
 6333SOL     OW19897   4.455   6.923   5.684
 6333SOL    HW119898   4.413   6.940   5.773
 6333SOL    HW219899   4.398   6.964   5.612
 6334SOL     OW19900   2.882   1.149   2.312
 6334SOL    HW119901   2.966   1.105   2.344
 6334SOL    HW219902   2.899   1.248   2.303
 6335SOL     OW19903   4.358   1.272   1.061
 6335SOL    HW119904   4.269   1.234   1.087
 6335SOL    HW219905   4.417   1.198   1.028
 6336SOL     OW19906   1.536   2.431   6.968
 6336SOL    HW119907   1.561   2.376   0.026
 6336SOL    HW219908   1.572   2.389   6.885
 6337SOL     OW19909   4.694   5.209   5.450
 6337SOL    HW119910   4.619   5.154   5.413
 6337SOL    HW219911   4.769   5.149   5.476
 6338SOL     OW19912   3.085   2.043   3.808
 6338SOL    HW119913   3.026   1.988   3.749
 6338SOL    HW219914   3.034   2.074   3.887
 6339SOL     OW19915   0.676   4.025   3.709
 6339SOL    HW119916   0.736   3.995   3.782
 6339SOL    HW219917   0.669   3.952   3.640
 6340SOL     OW19918   1.424   5.046   1.658
 6340SOL    HW119919   1.435   5.124   1.720
 6340SOL    HW219920   1.346   4.992   1.688
 6341SOL     OW19921   6.428   4.118   4.313
 6341SOL    HW119922   6.340   4.070   4.306
 6341SOL    HW219923   6.428   4.175   4.395
 6342SOL     OW19924   2.417   1.059   1.229
 6342SOL    HW119925   2.391   0.974   1.276
 6342SOL    HW219926   2.383   1.057   1.136
 6343SOL     OW19927   4.402   1.229   6.481
 6343SOL    HW119928   4.335   1.212   6.409
 6343SOL    HW219929   4.460   1.148   6.492
 6344SOL     OW19930   4.908   1.969   4.350
 6344SOL    HW119931   4.951   1.904   4.412
 6344SOL    HW219932   4.939   2.062   4.373
 6345SOL     OW19933   6.051   2.675   2.684
 6345SOL    HW119934   6.031   2.623   2.601
 6345SOL    HW219935   5.975   2.737   2.703
 6346SOL     OW19936   6.746   5.551   3.964
 6346SOL    HW119937   6.696   5.632   3.935
 6346SOL    HW219938   6.813   5.527   3.894
 6347SOL     OW19939   2.138   0.595   0.835
 6347SOL    HW119940   2.208   0.662   0.813
 6347SOL    HW219941   2.176   0.503   0.825
 6348SOL     OW19942   1.723   2.767   6.062
 6348SOL    HW119943   1.779   2.684   6.057
 6348SOL    HW219944   1.730   2.818   5.976
 6349SOL     OW19945   1.933   0.327   1.016
 6349SOL    HW119946   2.005   0.350   1.082
 6349SOL    HW219947   1.846   0.315   1.064
 6350SOL     OW19948   0.521   5.459   4.011
 6350SOL    HW119949   0.490   5.366   3.991
 6350SOL    HW219950   0.511   5.477   4.109
 6351SOL     OW19951   6.021   3.026   3.825
 6351SOL    HW119952   5.930   3.064   3.810
 6351SOL    HW219953   6.067   3.078   3.897
 6352SOL     OW19954   3.081   6.968   4.970
 6352SOL    HW119955   3.032   7.004   4.890
 6352SOL    HW219956   3.021   6.974   5.050
 6353SOL     OW19957   0.820   6.452   6.097
 6353SOL    HW119958   0.866   6.438   6.184
 6353SOL    HW219959   0.839   6.544   6.063
 6354SOL     OW19960   2.727   5.013   3.583
 6354SOL    HW119961   2.731   5.110   3.559
 6354SOL    HW219962   2.818   4.973   3.573
 6355SOL     OW19963   2.407   5.121   6.730
 6355SOL    HW119964   2.467   5.200   6.716
 6355SOL    HW219965   2.331   5.147   6.790
 6356SOL     OW19966   4.742   6.036   1.741
 6356SOL    HW119967   4.836   6.052   1.770
 6356SOL    HW219968   4.685   6.115   1.766
 6357SOL     OW19969   6.209   3.388   2.816
 6357SOL    HW119970   6.137   3.370   2.749
 6357SOL    HW219971   6.269   3.460   2.782
 6358SOL     OW19972   6.571   2.412   6.806
 6358SOL    HW119973   6.476   2.405   6.836
 6358SOL    HW219974   6.574   2.451   6.714
 6359SOL     OW19975   6.265   0.743   0.590
 6359SOL    HW119976   6.365   0.754   0.588
 6359SOL    HW219977   6.225   0.824   0.633
 6360SOL     OW19978   1.161   4.046   5.254
 6360SOL    HW119979   1.216   3.988   5.314
 6360SOL    HW219980   1.144   4.134   5.299
 6361SOL     OW19981   1.466   6.946   0.962
 6361SOL    HW119982   1.450   6.910   0.870
 6361SOL    HW219983   1.562   6.967   0.974
 6362SOL     OW19984   0.649   5.584   7.021
 6362SOL    HW119985   0.680   5.501   6.976
 6362SOL    HW219986   0.720   5.616   0.063
 6363SOL     OW19987   2.160   5.412   3.571
 6363SOL    HW119988   2.204   5.485   3.623
 6363SOL    HW219989   2.080   5.448   3.524
 6364SOL     OW19990   2.571   1.427   5.694
 6364SOL    HW119991   2.643   1.489   5.663
 6364SOL    HW219992   2.496   1.427   5.627
 6365SOL     OW19993   5.202   0.481   4.419
 6365SOL    HW119994   5.205   0.580   4.406
 6365SOL    HW219995   5.295   0.447   4.434
 6366SOL     OW19996   0.707   5.429   5.270
 6366SOL    HW119997   0.608   5.436   5.278
 6366SOL    HW219998   0.737   5.342   5.311
 6367SOL     OW19999   4.052   1.473   3.935
 6367SOL    HW120000   4.055   1.541   4.008
 6367SOL    HW220001   4.145   1.454   3.903
 6368SOL     OW20002   3.619   4.944   3.654
 6368SOL    HW120003   3.656   5.032   3.626
 6368SOL    HW220004   3.562   4.907   3.581
 6369SOL     OW20005   2.781   0.426   4.701
 6369SOL    HW120006   2.784   0.438   4.602
 6369SOL    HW220007   2.717   0.353   4.724
 6370SOL     OW20008   0.058   3.120   3.395
 6370SOL    HW120009   0.025   3.214   3.390
 6370SOL    HW220010   0.004   3.069   3.461
 6371SOL     OW20011   5.614   5.178   3.073
 6371SOL    HW120012   5.627   5.161   2.976
 6371SOL    HW220013   5.660   5.263   3.098
 6372SOL     OW20014   1.979   1.392   1.271
 6372SOL    HW120015   1.909   1.463   1.279
 6372SOL    HW220016   2.039   1.396   1.351
 6373SOL     OW20017   4.516   4.651   2.247
 6373SOL    HW120018   4.477   4.633   2.156
 6373SOL    HW220019   4.443   4.652   2.315
 6374SOL     OW20020   4.077   3.204   2.955
 6374SOL    HW120021   4.162   3.152   2.965
 6374SOL    HW220022   4.076   3.249   2.866
 6375SOL     OW20023   0.088   1.870   3.041
 6375SOL    HW120024   0.159   1.808   3.074
 6375SOL    HW220025   0.119   1.917   2.958
 6376SOL     OW20026   5.088   1.956   5.645
 6376SOL    HW120027   5.032   2.038   5.658
 6376SOL    HW220028   5.060   1.910   5.561
 6377SOL     OW20029   0.501   1.167   5.218
 6377SOL    HW120030   0.497   1.071   5.247
 6377SOL    HW220031   0.479   1.226   5.295
 6378SOL     OW20032   4.669   4.370   3.541
 6378SOL    HW120033   4.670   4.340   3.445
 6378SOL    HW220034   4.583   4.418   3.560
 6379SOL     OW20035   1.519   4.468   5.279
 6379SOL    HW120036   1.599   4.511   5.319
 6379SOL    HW220037   1.483   4.399   5.343
 6380SOL     OW20038   0.332   1.356   5.069
 6380SOL    HW120039   0.352   1.344   4.972
 6380SOL    HW220040   0.368   1.279   5.121
 6381SOL     OW20041   3.835   3.082   1.160
 6381SOL    HW120042   3.924   3.036   1.165
 6381SOL    HW220043   3.849   3.178   1.138
 6382SOL     OW20044   3.003   1.819   0.799
 6382SOL    HW120045   3.063   1.899   0.790
 6382SOL    HW220046   3.026   1.770   0.883
 6383SOL     OW20047   2.210   2.815   3.165
 6383SOL    HW120048   2.206   2.908   3.128
 6383SOL    HW220049   2.234   2.820   3.262
 6384SOL     OW20050   6.295   3.858   2.964
 6384SOL    HW120051   6.354   3.939   2.959
 6384SOL    HW220052   6.342   3.786   3.014
 6385SOL     OW20053   6.953   3.713   3.732
 6385SOL    HW120054   6.953   3.811   3.751
 6385SOL    HW220055   6.983   3.697   3.637
 6386SOL     OW20056   2.352   3.447   6.408
 6386SOL    HW120057   2.261   3.437   6.368
 6386SOL    HW220058   2.420   3.448   6.334
 6387SOL     OW20059   6.761   2.367   6.219
 6387SOL    HW120060   6.715   2.402   6.138
 6387SOL    HW220061   6.702   2.299   6.264
 6388SOL     OW20062   4.449   6.588   1.751
 6388SOL    HW120063   4.375   6.648   1.781
 6388SOL    HW220064   4.507   6.566   1.830
 6389SOL     OW20065   0.038   6.012   1.399
 6389SOL    HW120066   6.976   5.983   1.351
 6389SOL    HW220067   0.107   6.040   1.332
 6390SOL     OW20068   0.723   0.648   5.860
 6390SOL    HW120069   0.755   0.723   5.918
 6390SOL    HW220070   0.625   0.657   5.844
 6391SOL     OW20071   1.516   6.814   6.035
 6391SOL    HW120072   1.595   6.809   5.975
 6391SOL    HW220073   1.538   6.867   6.116
 6392SOL     OW20074   3.080   5.409   2.644
 6392SOL    HW120075   3.101   5.502   2.614
 6392SOL    HW220076   2.981   5.393   2.636
 6393SOL     OW20077   0.528   6.014   1.863
 6393SOL    HW120078   0.566   5.922   1.857
 6393SOL    HW220079   0.493   6.042   1.774
 6394SOL     OW20080   2.256   5.097   0.856
 6394SOL    HW120081   2.176   5.156   0.868
 6394SOL    HW220082   2.228   5.001   0.863
 6395SOL     OW20083   0.016   2.538   1.465
 6395SOL    HW120084   0.022   2.612   1.398
 6395SOL    HW220085   6.978   2.567   1.541
 6396SOL     OW20086   5.502   3.277   6.779
 6396SOL    HW120087   5.445   3.198   6.801
 6396SOL    HW220088   5.446   3.346   6.732
 6397SOL     OW20089   5.759   1.602   1.384
 6397SOL    HW120090   5.728   1.697   1.379
 6397SOL    HW220091   5.740   1.566   1.476
 6398SOL     OW20092   3.125   6.707   1.744
 6398SOL    HW120093   3.203   6.766   1.723
 6398SOL    HW220094   3.094   6.662   1.660
 6399SOL     OW20095   1.966   0.116   0.005
 6399SOL    HW120096   1.994   0.211   0.017
 6399SOL    HW220097   2.043   0.061   6.993
 6400SOL     OW20098   2.583   5.240   2.586
 6400SOL    HW120099   2.516   5.313   2.577
 6400SOL    HW220100   2.594   5.194   2.497
 6401SOL     OW20101   5.446   6.227   3.479
 6401SOL    HW120102   5.493   6.153   3.526
 6401SOL    HW220103   5.376   6.189   3.419
 6402SOL     OW20104   2.529   2.532   3.170
 6402SOL    HW120105   2.472   2.586   3.108
 6402SOL    HW220106   2.535   2.578   3.259
 6403SOL     OW20107   6.859   5.212   6.494
 6403SOL    HW120108   6.780   5.151   6.501
 6403SOL    HW220109   6.838   5.286   6.431
 6404SOL     OW20110   4.119   0.617   2.553
 6404SOL    HW120111   4.137   0.522   2.581
 6404SOL    HW220112   4.127   0.624   2.454
 6405SOL     OW20113   3.639   0.411   3.868
 6405SOL    HW120114   3.556   0.397   3.814
 6405SOL    HW220115   3.637   0.502   3.908
 6406SOL     OW20116   0.538   2.654   2.823
 6406SOL    HW120117   0.593   2.615   2.749
 6406SOL    HW220118   0.597   2.707   2.884
 6407SOL     OW20119   2.194   6.977   3.693
 6407SOL    HW120120   2.203   7.008   3.788
 6407SOL    HW220121   2.115   6.916   3.685
 6408SOL     OW20122   5.339   1.382   0.781
 6408SOL    HW120123   5.288   1.428   0.853
 6408SOL    HW220124   5.351   1.285   0.805
 6409SOL     OW20125   6.202   4.446   3.797
 6409SOL    HW120126   6.289   4.475   3.755
 6409SOL    HW220127   6.201   4.474   3.893
 6410SOL     OW20128   1.960   1.592   6.403
 6410SOL    HW120129   1.870   1.631   6.422
 6410SOL    HW220130   1.980   1.602   6.305
 6411SOL     OW20131   0.797   2.926   3.239
 6411SOL    HW120132   0.858   3.003   3.223
 6411SOL    HW220133   0.756   2.932   3.330
 6412SOL     OW20134   1.249   2.204   4.753
 6412SOL    HW120135   1.226   2.107   4.766
 6412SOL    HW220136   1.341   2.211   4.714
 6413SOL     OW20137   3.945   4.842   3.493
 6413SOL    HW120138   4.006   4.809   3.564
 6413SOL    HW220139   3.861   4.876   3.534
 6414SOL     OW20140   5.951   0.724   6.880
 6414SOL    HW120141   5.982   0.662   6.809
 6414SOL    HW220142   5.851   0.724   6.882
 6415SOL     OW20143   1.988   3.349   3.093
 6415SOL    HW120144   1.985   3.431   3.035
 6415SOL    HW220145   1.913   3.351   3.158
 6416SOL     OW20146   1.328   0.704   6.579
 6416SOL    HW120147   1.266   0.780   6.560
 6416SOL    HW220148   1.401   0.736   6.640
 6417SOL     OW20149   5.624   4.882   0.865
 6417SOL    HW120150   5.590   4.969   0.829
 6417SOL    HW220151   5.623   4.813   0.792
 6418SOL     OW20152   5.182   3.421   2.221
 6418SOL    HW120153   5.132   3.505   2.203
 6418SOL    HW220154   5.189   3.368   2.136
 6419SOL     OW20155   1.284   4.828   3.333
 6419SOL    HW120156   1.255   4.892   3.405
 6419SOL    HW220157   1.308   4.879   3.251
 6420SOL     OW20158   2.512   6.239   4.046
 6420SOL    HW120159   2.467   6.165   3.995
 6420SOL    HW220160   2.507   6.323   3.992
 6421SOL     OW20161   4.768   0.043   2.735
 6421SOL    HW120162   4.843   0.068   2.795
 6421SOL    HW220163   4.803   0.018   2.645
 6422SOL     OW20164   6.715   0.604   5.322
 6422SOL    HW120165   6.742   0.510   5.302
 6422SOL    HW220166   6.785   0.667   5.288
 6423SOL     OW20167   5.176   5.332   3.406
 6423SOL    HW120168   5.095   5.292   3.448
 6423SOL    HW220169   5.218   5.265   3.345
 6424SOL     OW20170   0.186   4.720   5.286
 6424SOL    HW120171   0.142   4.705   5.375
 6424SOL    HW220172   0.283   4.697   5.292
 6425SOL     OW20173   6.734   6.185   2.874
 6425SOL    HW120174   6.756   6.247   2.949
 6425SOL    HW220175   6.652   6.217   2.828
 6426SOL     OW20176   1.051   5.159   3.155
 6426SOL    HW120177   1.009   5.143   3.244
 6426SOL    HW220178   1.023   5.087   3.091
 6427SOL     OW20179   3.318   4.156   4.315
 6427SOL    HW120180   3.361   4.225   4.257
 6427SOL    HW220181   3.231   4.129   4.274
 6428SOL     OW20182   5.888   3.254   6.504
 6428SOL    HW120183   5.926   3.230   6.593
 6428SOL    HW220184   5.788   3.253   6.509
 6429SOL     OW20185   0.682   1.796   5.585
 6429SOL    HW120186   0.597   1.814   5.635
 6429SOL    HW220187   0.706   1.699   5.596
 6430SOL     OW20188   5.998   1.193   3.612
 6430SOL    HW120189   6.077   1.214   3.555
 6430SOL    HW220190   5.948   1.115   3.572
 6431SOL     OW20191   4.449   6.527   3.822
 6431SOL    HW120192   4.508   6.589   3.770
 6431SOL    HW220193   4.368   6.577   3.853
 6432SOL     OW20194   4.537   4.509   6.174
 6432SOL    HW120195   4.537   4.545   6.268
 6432SOL    HW220196   4.576   4.578   6.113
 6433SOL     OW20197   1.434   5.508   5.780
 6433SOL    HW120198   1.461   5.604   5.773
 6433SOL    HW220199   1.477   5.467   5.861
 6434SOL     OW20200   2.369   5.644   6.222
 6434SOL    HW120201   2.418   5.731   6.222
 6434SOL    HW220202   2.387   5.596   6.308
 6435SOL     OW20203   5.162   6.506   0.975
 6435SOL    HW120204   5.198   6.432   0.918
 6435SOL    HW220205   5.087   6.551   0.926
 6436SOL     OW20206   1.401   2.875   2.719
 6436SOL    HW120207   1.380   2.908   2.627
 6436SOL    HW220208   1.466   2.800   2.713
 6437SOL     OW20209   2.241   1.355   0.419
 6437SOL    HW120210   2.221   1.340   0.516
 6437SOL    HW220211   2.295   1.439   0.409
 6438SOL     OW20212   6.789   3.734   5.240
 6438SOL    HW120213   6.831   3.651   5.204
 6438SOL    HW220214   6.705   3.711   5.289
 6439SOL     OW20215   5.716   1.669   1.827
 6439SOL    HW120216   5.762   1.626   1.904
 6439SOL    HW220217   5.707   1.604   1.752
 6440SOL     OW20218   2.317   1.700   6.261
 6440SOL    HW120219   2.379   1.631   6.299
 6440SOL    HW220220   2.311   1.778   6.324
 6441SOL     OW20221   6.874   6.979   2.005
 6441SOL    HW120222   6.847   6.900   1.949
 6441SOL    HW220223   6.826   0.039   1.974
 6442SOL     OW20224   2.487   1.432   4.496
 6442SOL    HW120225   2.416   1.424   4.566
 6442SOL    HW220226   2.465   1.508   4.434
 6443SOL     OW20227   3.684   2.217   5.189
 6443SOL    HW120228   3.713   2.122   5.200
 6443SOL    HW220229   3.588   2.219   5.161
 6444SOL     OW20230   5.232   3.473   4.627
 6444SOL    HW120231   5.205   3.412   4.701
 6444SOL    HW220232   5.235   3.421   4.541
 6445SOL     OW20233   3.818   2.962   4.855
 6445SOL    HW120234   3.722   2.938   4.842
 6445SOL    HW220235   3.862   2.975   4.766
 6446SOL     OW20236   1.081   1.336   7.019
 6446SOL    HW120237   1.179   1.337   6.998
 6446SOL    HW220238   1.051   1.429   0.018
 6447SOL     OW20239   5.455   4.960   3.778
 6447SOL    HW120240   5.512   4.913   3.711
 6447SOL    HW220241   5.365   4.917   3.781
 6448SOL     OW20242   4.628   5.783   1.814
 6448SOL    HW120243   4.656   5.877   1.791
 6448SOL    HW220244   4.528   5.776   1.811
 6449SOL     OW20245   3.702   6.149   0.997
 6449SOL    HW120246   3.794   6.180   1.020
 6449SOL    HW220247   3.699   6.049   0.997
 6450SOL     OW20248   1.165   3.946   1.137
 6450SOL    HW120249   1.242   3.899   1.179
 6450SOL    HW220250   1.183   4.045   1.137
 6451SOL     OW20251   1.933   0.492   5.150
 6451SOL    HW120252   1.979   0.430   5.213
 6451SOL    HW220253   1.847   0.451   5.119
 6452SOL     OW20254   4.595   5.188   2.997
 6452SOL    HW120255   4.551   5.113   2.948
 6452SOL    HW220256   4.527   5.234   3.055
 6453SOL     OW20257   2.452   6.200   2.149
 6453SOL    HW120258   2.505   6.242   2.223
 6453SOL    HW220259   2.514   6.152   2.087
 6454SOL     OW20260   0.816   2.322   3.085
 6454SOL    HW120261   0.817   2.392   3.014
 6454SOL    HW220262   0.906   2.280   3.092
 6455SOL     OW20263   0.343   3.341   4.044
 6455SOL    HW120264   0.338   3.261   4.103
 6455SOL    HW220265   0.262   3.346   3.986
 6456SOL     OW20266   1.267   1.443   3.496
 6456SOL    HW120267   1.219   1.530   3.497
 6456SOL    HW220268   1.318   1.434   3.410
 6457SOL     OW20269   5.043   1.592   1.339
 6457SOL    HW120270   5.076   1.498   1.341
 6457SOL    HW220271   5.072   1.636   1.254
 6458SOL     OW20272   1.181   5.728   4.622
 6458SOL    HW120273   1.158   5.704   4.717
 6458SOL    HW220274   1.132   5.811   4.596
 6459SOL     OW20275   6.275   2.968   1.336
 6459SOL    HW120276   6.228   3.046   1.377
 6459SOL    HW220277   6.342   3.001   1.269
 6460SOL     OW20278   5.839   6.223   6.647
 6460SOL    HW120279   5.784   6.150   6.607
 6460SOL    HW220280   5.925   6.231   6.597
 6461SOL     OW20281   2.240   4.381   6.539
 6461SOL    HW120282   2.273   4.293   6.573
 6461SOL    HW220283   2.146   4.372   6.508
 6462SOL     OW20284   2.167   3.176   4.367
 6462SOL    HW120285   2.220   3.118   4.305
 6462SOL    HW220286   2.227   3.245   4.408
 6463SOL     OW20287   6.042   2.547   0.159
 6463SOL    HW120288   6.010   2.521   0.250
 6463SOL    HW220289   6.001   2.486   0.091
 6464SOL     OW20290   1.421   4.842   4.557
 6464SOL    HW120291   1.343   4.875   4.611
 6464SOL    HW220292   1.399   4.849   4.460
 6465SOL     OW20293   0.092   2.861   2.662
 6465SOL    HW120294   7.015   2.877   2.659
 6465SOL    HW220295   0.134   2.924   2.727
 6466SOL     OW20296   0.642   1.000   6.037
 6466SOL    HW120297   0.563   1.002   6.099
 6466SOL    HW220298   0.682   0.909   6.038
 6467SOL     OW20299   4.067   1.256   0.271
 6467SOL    HW120300   3.976   1.220   0.292
 6467SOL    HW220301   4.110   1.199   0.200
 6468SOL     OW20302   3.050   6.880   0.738
 6468SOL    HW120303   3.104   6.796   0.744
 6468SOL    HW220304   3.103   6.950   0.690
 6469SOL     OW20305   4.168   2.066   3.557
 6469SOL    HW120306   4.160   2.128   3.478
 6469SOL    HW220307   4.191   2.120   3.638
 6470SOL     OW20308   5.836   2.657   1.176
 6470SOL    HW120309   5.854   2.608   1.261
 6470SOL    HW220310   5.886   2.615   1.101
 6471SOL     OW20311   0.101   6.302   5.917
 6471SOL    HW120312   0.164   6.380   5.914
 6471SOL    HW220313   0.012   6.333   5.951
 6472SOL     OW20314   0.213   5.916   1.629
 6472SOL    HW120315   0.142   5.924   1.559
 6472SOL    HW220316   0.209   5.825   1.671
 6473SOL     OW20317   2.747   1.828   4.659
 6473SOL    HW120318   2.681   1.865   4.594
 6473SOL    HW220319   2.803   1.758   4.614
 6474SOL     OW20320   2.937   4.918   6.380
 6474SOL    HW120321   2.863   4.966   6.428
 6474SOL    HW220322   3.008   4.984   6.355
 6475SOL     OW20323   6.396   5.356   3.543
 6475SOL    HW120324   6.463   5.372   3.470
 6475SOL    HW220325   6.311   5.404   3.521
 6476SOL     OW20326   4.508   4.011   0.838
 6476SOL    HW120327   4.585   4.018   0.902
 6476SOL    HW220328   4.474   3.917   0.838
 6477SOL     OW20329   5.880   4.726   0.445
 6477SOL    HW120330   5.828   4.655   0.493
 6477SOL    HW220331   5.883   4.809   0.501
 6478SOL     OW20332   3.131   0.586   2.200
 6478SOL    HW120333   3.138   0.648   2.121
 6478SOL    HW220334   3.067   0.624   2.266
 6479SOL     OW20335   4.167   5.082   3.457
 6479SOL    HW120336   4.266   5.095   3.472
 6479SOL    HW220337   4.151   5.059   3.361
 6480SOL     OW20338   3.081   1.063   6.766
 6480SOL    HW120339   3.098   1.126   6.691
 6480SOL    HW220340   2.983   1.062   6.787
 6481SOL     OW20341   3.533   1.970   2.121
 6481SOL    HW120342   3.434   1.953   2.126
 6481SOL    HW220343   3.548   2.058   2.076
 6482SOL     OW20344   6.270   0.761   5.671
 6482SOL    HW120345   6.296   0.702   5.748
 6482SOL    HW220346   6.347   0.770   5.608
 6483SOL     OW20347   1.185   0.155   2.877
 6483SOL    HW120348   1.111   0.139   2.812
 6483SOL    HW220349   1.264   0.194   2.829
 6484SOL     OW20350   3.639   0.088   1.474
 6484SOL    HW120351   3.650   0.019   1.403
 6484SOL    HW220352   3.544   0.088   1.506
 6485SOL     OW20353   1.957   5.207   3.873
 6485SOL    HW120354   1.984   5.111   3.867
 6485SOL    HW220355   1.866   5.214   3.914
 6486SOL     OW20356   1.137   4.033   3.074
 6486SOL    HW120357   1.142   4.029   2.974
 6486SOL    HW220358   1.178   4.119   3.105
 6487SOL     OW20359   0.429   6.512   5.056
 6487SOL    HW120360   0.500   6.490   4.989
 6487SOL    HW220361   0.383   6.428   5.084
 6488SOL     OW20362   3.590   5.835   4.659
 6488SOL    HW120363   3.680   5.864   4.692
 6488SOL    HW220364   3.600   5.781   4.576
 6489SOL     OW20365   3.027   3.082   5.971
 6489SOL    HW120366   2.969   3.143   5.916
 6489SOL    HW220367   3.099   3.136   6.015
 6490SOL     OW20368   3.659   1.367   6.397
 6490SOL    HW120369   3.734   1.414   6.350
 6490SOL    HW220370   3.654   1.399   6.491
 6491SOL     OW20371   3.852   0.857   1.075
 6491SOL    HW120372   3.862   0.758   1.075
 6491SOL    HW220373   3.939   0.900   1.051
 6492SOL     OW20374   4.328   4.680   6.583
 6492SOL    HW120375   4.354   4.775   6.600
 6492SOL    HW220376   4.314   4.634   6.671
 6493SOL     OW20377   1.733   4.276   5.570
 6493SOL    HW120378   1.786   4.346   5.524
 6493SOL    HW220379   1.638   4.308   5.581
 6494SOL     OW20380   6.772   0.628   3.478
 6494SOL    HW120381   6.826   0.698   3.524
 6494SOL    HW220382   6.680   0.625   3.518
 6495SOL     OW20383   6.078   0.327   4.316
 6495SOL    HW120384   6.174   0.328   4.342
 6495SOL    HW220385   6.032   0.250   4.361
 6496SOL     OW20386   6.347   1.472   3.389
 6496SOL    HW120387   6.280   1.528   3.340
 6496SOL    HW220388   6.385   1.525   3.465
 6497SOL     OW20389   0.447   1.574   0.943
 6497SOL    HW120390   0.509   1.633   0.995
 6497SOL    HW220391   0.416   1.623   0.861
 6498SOL     OW20392   1.613   3.536   3.686
 6498SOL    HW120393   1.692   3.496   3.733
 6498SOL    HW220394   1.553   3.578   3.754
 6499SOL     OW20395   5.624   3.186   5.552
 6499SOL    HW120396   5.541   3.148   5.511
 6499SOL    HW220397   5.689   3.111   5.571
 6500SOL     OW20398   6.777   3.716   4.767
 6500SOL    HW120399   6.774   3.711   4.667
 6500SOL    HW220400   6.684   3.727   4.802
 6501SOL     OW20401   0.044   1.659   6.503
 6501SOL    HW120402   0.066   1.621   6.593
 6501SOL    HW220403   0.032   1.585   6.438
 6502SOL     OW20404   6.837   2.600   2.380
 6502SOL    HW120405   6.845   2.571   2.284
 6502SOL    HW220406   6.868   2.526   2.440
 6503SOL     OW20407   5.449   1.141   3.136
 6503SOL    HW120408   5.494   1.107   3.053
 6503SOL    HW220409   5.492   1.226   3.165
 6504SOL     OW20410   4.370   6.395   5.361
 6504SOL    HW120411   4.458   6.358   5.391
 6504SOL    HW220412   4.303   6.322   5.355
 6505SOL     OW20413   5.337   5.790   6.821
 6505SOL    HW120414   5.261   5.829   6.874
 6505SOL    HW220415   5.322   5.808   6.724
 6506SOL     OW20416   6.818   2.611   2.675
 6506SOL    HW120417   6.851   2.626   2.582
 6506SOL    HW220418   6.896   2.608   2.738
 6507SOL     OW20419   1.293   5.362   6.189
 6507SOL    HW120420   1.340   5.390   6.106
 6507SOL    HW220421   1.340   5.283   6.229
 6508SOL     OW20422   1.894   1.072   2.454
 6508SOL    HW120423   1.905   1.097   2.550
 6508SOL    HW220424   1.953   0.993   2.434
 6509SOL     OW20425   3.356   1.129   4.815
 6509SOL    HW120426   3.289   1.075   4.764
 6509SOL    HW220427   3.447   1.089   4.803
 6510SOL     OW20428   6.236   5.774   0.391
 6510SOL    HW120429   6.285   5.806   0.472
 6510SOL    HW220430   6.263   5.680   0.371
 6511SOL     OW20431   3.965   1.330   5.145
 6511SOL    HW120432   3.963   1.424   5.113
 6511SOL    HW220433   3.918   1.324   5.234
 6512SOL     OW20434   4.218   6.926   2.050
 6512SOL    HW120435   4.194   7.004   1.991
 6512SOL    HW220436   4.208   6.953   2.146
 6513SOL     OW20437   2.450   4.862   3.030
 6513SOL    HW120438   2.366   4.914   3.016
 6513SOL    HW220439   2.509   4.910   3.095
 6514SOL     OW20440   6.030   1.042   3.823
 6514SOL    HW120441   6.017   1.126   3.769
 6514SOL    HW220442   6.064   1.066   3.914
 6515SOL     OW20443   0.224   5.319   4.131
 6515SOL    HW120444   0.310   5.344   4.176
 6515SOL    HW220445   0.237   5.316   4.032
 6516SOL     OW20446   0.935   3.633   2.069
 6516SOL    HW120447   0.909   3.701   2.138
 6516SOL    HW220448   0.888   3.547   2.086
 6517SOL     OW20449   6.473   1.324   1.530
 6517SOL    HW120450   6.426   1.389   1.471
 6517SOL    HW220451   6.467   1.355   1.625
 6518SOL     OW20452   0.606   0.924   6.967
 6518SOL    HW120453   0.540   0.851   6.950
 6518SOL    HW220454   0.631   0.924   0.042
 6519SOL     OW20455   1.009   2.751   3.294
 6519SOL    HW120456   1.013   2.824   3.362
 6519SOL    HW220457   0.935   2.770   3.229
 6520SOL     OW20458   5.939   5.301   1.352
 6520SOL    HW120459   5.995   5.227   1.314
 6520SOL    HW220460   5.941   5.296   1.452
 6521SOL     OW20461   2.110   2.708   4.110
 6521SOL    HW120462   2.186   2.652   4.144
 6521SOL    HW220463   2.033   2.703   4.174
 6522SOL     OW20464   3.467   5.111   5.587
 6522SOL    HW120465   3.374   5.083   5.568
 6522SOL    HW220466   3.482   5.113   5.686
 6523SOL     OW20467   3.193   1.883   0.033
 6523SOL    HW120468   3.182   1.982   0.025
 6523SOL    HW220469   3.279   1.863   0.081
 6524SOL     OW20470   3.833   3.501   1.725
 6524SOL    HW120471   3.925   3.506   1.764
 6524SOL    HW220472   3.768   3.544   1.788
 6525SOL     OW20473   2.445   5.288   3.064
 6525SOL    HW120474   2.368   5.241   3.108
 6525SOL    HW220475   2.478   5.232   2.987
 6526SOL     OW20476   2.238   0.310   6.825
 6526SOL    HW120477   2.269   0.306   6.730
 6526SOL    HW220478   2.236   0.217   6.862
 6527SOL     OW20479   0.939   1.882   5.481
 6527SOL    HW120480   0.912   1.909   5.389
 6527SOL    HW220481   0.859   1.851   5.533
 6528SOL     OW20482   6.566   0.690   5.758
 6528SOL    HW120483   6.641   0.625   5.745
 6528SOL    HW220484   6.557   0.748   5.676
 6529SOL     OW20485   1.981   0.708   2.826
 6529SOL    HW120486   2.075   0.697   2.796
 6529SOL    HW220487   1.974   0.787   2.888
 6530SOL     OW20488   7.000   2.767   0.698
 6530SOL    HW120489   6.967   2.730   0.785
 6530SOL    HW220490   6.961   2.714   0.623
 6531SOL     OW20491   4.944   2.543   5.325
 6531SOL    HW120492   4.997   2.588   5.254
 6531SOL    HW220493   4.855   2.516   5.288
 6532SOL     OW20494   6.480   0.708   1.275
 6532SOL    HW120495   6.403   0.700   1.338
 6532SOL    HW220496   6.478   0.797   1.229
 6533SOL     OW20497   4.396   6.984   0.736
 6533SOL    HW120498   4.396   0.025   0.658
 6533SOL    HW220499   4.486   6.984   0.780
 6534SOL     OW20500   4.263   4.815   1.521
 6534SOL    HW120501   4.273   4.750   1.446
 6534SOL    HW220502   4.240   4.766   1.605
 6535SOL     OW20503   6.291   3.811   4.379
 6535SOL    HW120504   6.242   3.809   4.466
 6535SOL    HW220505   6.389   3.815   4.396
 6536SOL     OW20506   0.760   1.098   5.810
 6536SOL    HW120507   0.724   1.069   5.899
 6536SOL    HW220508   0.803   1.188   5.819
 6537SOL     OW20509   6.946   5.354   6.951
 6537SOL    HW120510   6.954   5.277   6.887
 6537SOL    HW220511   6.858   5.349   6.998
 6538SOL     OW20512   2.091   3.767   6.262
 6538SOL    HW120513   2.060   3.726   6.348
 6538SOL    HW220514   2.142   3.700   6.209
 6539SOL     OW20515   4.340   0.810   6.645
 6539SOL    HW120516   4.438   0.795   6.646
 6539SOL    HW220517   4.310   0.831   6.552
 6540SOL     OW20518   4.663   1.917   5.558
 6540SOL    HW120519   4.564   1.907   5.559
 6540SOL    HW220520   4.695   1.945   5.648
 6541SOL     OW20521   4.182   1.872   4.834
 6541SOL    HW120522   4.090   1.881   4.870
 6541SOL    HW220523   4.198   1.941   4.764
 6542SOL     OW20524   6.406   3.038   4.533
 6542SOL    HW120525   6.377   2.994   4.619
 6542SOL    HW220526   6.401   2.972   4.459
 6543SOL     OW20527   5.115   2.611   5.981
 6543SOL    HW120528   5.056   2.599   5.901
 6543SOL    HW220529   5.076   2.563   6.059
 6544SOL     OW20530   0.991   5.942   3.011
 6544SOL    HW120531   1.040   6.028   2.997
 6544SOL    HW220532   0.893   5.961   3.018
 6545SOL     OW20533   3.968   1.668   0.359
 6545SOL    HW120534   3.965   1.756   0.312
 6545SOL    HW220535   4.019   1.602   0.304
 6546SOL     OW20536   3.420   4.352   0.208
 6546SOL    HW120537   3.511   4.368   0.170
 6546SOL    HW220538   3.427   4.305   0.295
 6547SOL     OW20539   4.693   0.988   5.994
 6547SOL    HW120540   4.616   0.937   6.032
 6547SOL    HW220541   4.701   1.077   6.041
 6548SOL     OW20542   0.613   4.320   0.761
 6548SOL    HW120543   0.628   4.232   0.806
 6548SOL    HW220544   0.653   4.318   0.669
 6549SOL     OW20545   4.872   0.844   1.663
 6549SOL    HW120546   4.947   0.816   1.724
 6549SOL    HW220547   4.891   0.935   1.626
 6550SOL     OW20548   0.214   6.411   3.363
 6550SOL    HW120549   0.180   6.504   3.350
 6550SOL    HW220550   0.243   6.374   3.275
 6551SOL     OW20551   1.965   4.603   2.423
 6551SOL    HW120552   1.969   4.537   2.498
 6551SOL    HW220553   2.049   4.658   2.423
 6552SOL     OW20554   1.856   0.037   0.266
 6552SOL    HW120555   1.918   0.036   0.344
 6552SOL    HW220556   1.904   0.068   0.185
 6553SOL     OW20557   0.041   1.894   3.691
 6553SOL    HW120558   0.123   1.923   3.642
 6553SOL    HW220559   0.028   1.950   3.773
 6554SOL     OW20560   0.711   0.469   4.572
 6554SOL    HW120561   0.755   0.475   4.662
 6554SOL    HW220562   0.673   0.377   4.560
 6555SOL     OW20563   6.178   1.586   3.241
 6555SOL    HW120564   6.217   1.618   3.155
 6555SOL    HW220565   6.078   1.590   3.236
 6556SOL     OW20566   5.005   4.662   4.152
 6556SOL    HW120567   4.930   4.692   4.092
 6556SOL    HW220568   4.978   4.580   4.202
 6557SOL     OW20569   3.419   6.835   2.751
 6557SOL    HW120570   3.399   6.933   2.757
 6557SOL    HW220571   3.499   6.814   2.807
 6558SOL     OW20572   0.058   5.120   0.033
 6558SOL    HW120573   7.013   5.048   0.012
 6558SOL    HW220574   0.009   5.204   0.057
 6559SOL     OW20575   0.356   3.237   6.554
 6559SOL    HW120576   0.450   3.264   6.577
 6559SOL    HW220577   0.335   3.150   6.598
 6560SOL     OW20578   4.494   5.034   1.557
 6560SOL    HW120579   4.436   4.954   1.548
 6560SOL    HW220580   4.473   5.099   1.485
 6561SOL     OW20581   3.506   3.992   1.416
 6561SOL    HW120582   3.527   4.072   1.360
 6561SOL    HW220583   3.511   4.015   1.513
 6562SOL     OW20584   6.020   3.422   0.858
 6562SOL    HW120585   5.973   3.410   0.771
 6562SOL    HW220586   5.964   3.478   0.919
 6563SOL     OW20587   5.462   6.122   6.912
 6563SOL    HW120588   5.480   6.029   6.880
 6563SOL    HW220589   5.489   6.187   6.841
 6564SOL     OW20590   6.912   4.070   2.964
 6564SOL    HW120591   6.872   4.110   3.046
 6564SOL    HW220592   6.955   3.982   2.988
 6565SOL     OW20593   5.374   1.914   3.314
 6565SOL    HW120594   5.346   1.973   3.239
 6565SOL    HW220595   5.453   1.859   3.286
 6566SOL     OW20596   3.960   6.372   2.398
 6566SOL    HW120597   3.894   6.319   2.344
 6566SOL    HW220598   3.995   6.448   2.343
 6567SOL     OW20599   4.284   1.143   2.942
 6567SOL    HW120600   4.337   1.217   2.899
 6567SOL    HW220601   4.347   1.078   2.983
 6568SOL     OW20602   3.021   0.818   3.137
 6568SOL    HW120603   3.099   0.819   3.075
 6568SOL    HW220604   3.018   0.904   3.189
 6569SOL     OW20605   2.845   3.595   0.137
 6569SOL    HW120606   2.811   3.573   0.046
 6569SOL    HW220607   2.785   3.554   0.206
 6570SOL     OW20608   3.943   0.336   2.372
 6570SOL    HW120609   3.872   0.378   2.427
 6570SOL    HW220610   3.975   0.401   2.303
 6571SOL     OW20611   3.429   5.383   1.442
 6571SOL    HW120612   3.352   5.443   1.461
 6571SOL    HW220613   3.415   5.294   1.486
 6572SOL     OW20614   6.428   4.980   5.668
 6572SOL    HW120615   6.363   4.908   5.691
 6572SOL    HW220616   6.385   5.044   5.604
 6573SOL     OW20617   1.651   2.069   2.236
 6573SOL    HW120618   1.622   2.065   2.140
 6573SOL    HW220619   1.574   2.043   2.295
 6574SOL     OW20620   3.275   5.578   2.301
 6574SOL    HW120621   3.222   5.542   2.378
 6574SOL    HW220622   3.323   5.503   2.256
 6575SOL     OW20623   0.675   7.012   2.994
 6575SOL    HW120624   0.688   0.090   2.993
 6575SOL    HW220625   0.584   6.990   2.958
 6576SOL     OW20626   2.294   6.266   6.883
 6576SOL    HW120627   2.286   6.357   6.840
 6576SOL    HW220628   2.354   6.208   6.828
 6577SOL     OW20629   0.976   1.459   4.231
 6577SOL    HW120630   1.013   1.400   4.160
 6577SOL    HW220631   0.925   1.534   4.190
 6578SOL     OW20632   0.912   5.514   3.664
 6578SOL    HW120633   0.922   5.525   3.565
 6578SOL    HW220634   0.856   5.589   3.700
 6579SOL     OW20635   6.741   3.305   4.594
 6579SOL    HW120636   6.735   3.216   4.640
 6579SOL    HW220637   6.651   3.329   4.559
 6580SOL     OW20638   0.911   2.425   0.978
 6580SOL    HW120639   0.867   2.357   0.920
 6580SOL    HW220640   0.843   2.470   1.035
 6581SOL     OW20641   3.324   0.836   6.625
 6581SOL    HW120642   3.270   0.878   6.553
 6581SOL    HW220643   3.314   0.889   6.710
 6582SOL     OW20644   1.129   1.192   2.500
 6582SOL    HW120645   1.135   1.177   2.599
 6582SOL    HW220646   1.045   1.244   2.480
 6583SOL     OW20647   4.065   1.131   5.308
 6583SOL    HW120648   4.053   1.200   5.379
 6583SOL    HW220649   4.031   1.166   5.221
 6584SOL     OW20650   4.407   2.872   1.204
 6584SOL    HW120651   4.378   2.791   1.153
 6584SOL    HW220652   4.415   2.849   1.301
 6585SOL     OW20653   5.991   6.745   6.988
 6585SOL    HW120654   5.989   6.755   6.888
 6585SOL    HW220655   5.898   6.749   0.002
 6586SOL     OW20656   6.445   0.935   5.225
 6586SOL    HW120657   6.441   1.019   5.172
 6586SOL    HW220658   6.474   0.859   5.166
 6587SOL     OW20659   1.780   5.797   5.363
 6587SOL    HW120660   1.878   5.808   5.380
 6587SOL    HW220661   1.736   5.886   5.361
 6588SOL     OW20662   0.964   3.150   1.347
 6588SOL    HW120663   0.972   3.241   1.387
 6588SOL    HW220664   0.979   3.081   1.417
 6589SOL     OW20665   4.966   0.814   0.722
 6589SOL    HW120666   5.016   0.900   0.708
 6589SOL    HW220667   4.868   0.832   0.725
 6590SOL     OW20668   1.038   1.322   6.155
 6590SOL    HW120669   0.958   1.264   6.173
 6590SOL    HW220670   1.121   1.271   6.175
 6591SOL     OW20671   5.794   5.484   2.811
 6591SOL    HW120672   5.818   5.581   2.810
 6591SOL    HW220673   5.715   5.468   2.752
 6592SOL     OW20674   5.464   0.280   3.459
 6592SOL    HW120675   5.370   0.312   3.443
 6592SOL    HW220676   5.462   0.183   3.482
 6593SOL     OW20677   2.074   2.197   2.594
 6593SOL    HW120678   2.022   2.257   2.656
 6593SOL    HW220679   2.021   2.113   2.577
 6594SOL     OW20680   3.875   1.770   0.011
 6594SOL    HW120681   3.810   1.804   6.964
 6594SOL    HW220682   3.866   1.671   0.020
 6595SOL     OW20683   0.782   3.867   6.648
 6595SOL    HW120684   0.873   3.880   6.687
 6595SOL    HW220685   0.773   3.924   6.566
 6596SOL     OW20686   3.223   6.028   4.497
 6596SOL    HW120687   3.194   6.110   4.547
 6596SOL    HW220688   3.321   6.034   4.478
 6597SOL     OW20689   1.466   5.278   1.824
 6597SOL    HW120690   1.510   5.361   1.791
 6597SOL    HW220691   1.505   5.252   1.912
 6598SOL     OW20692   1.451   5.825   4.419
 6598SOL    HW120693   1.371   5.769   4.441
 6598SOL    HW220694   1.473   5.816   4.322
 6599SOL     OW20695   4.796   6.405   6.453
 6599SOL    HW120696   4.743   6.476   6.500
 6599SOL    HW220697   4.764   6.315   6.481
 6600SOL     OW20698   4.785   5.007   5.167
 6600SOL    HW120699   4.750   5.093   5.130
 6600SOL    HW220700   4.884   5.003   5.152
 6601SOL     OW20701   1.357   2.222   5.077
 6601SOL    HW120702   1.438   2.280   5.076
 6601SOL    HW220703   1.308   2.231   4.991
 6602SOL     OW20704   1.422   1.241   1.787
 6602SOL    HW120705   1.509   1.287   1.768
 6602SOL    HW220706   1.439   1.151   1.826
 6603SOL     OW20707   6.924   2.683   3.942
 6603SOL    HW120708   6.952   2.675   4.037
 6603SOL    HW220709   6.912   2.779   3.917
 6604SOL     OW20710   2.133   0.439   0.577
 6604SOL    HW120711   2.059   0.408   0.637
 6604SOL    HW220712   2.116   0.405   0.484
 6605SOL     OW20713   5.264   4.279   1.898
 6605SOL    HW120714   5.173   4.298   1.933
 6605SOL    HW220715   5.301   4.198   1.943
 6606SOL     OW20716   0.438   6.342   1.826
 6606SOL    HW120717   0.378   6.268   1.856
 6606SOL    HW220718   0.440   6.346   1.726
 6607SOL     OW20719   1.844   3.628   2.281
 6607SOL    HW120720   1.761   3.659   2.236
 6607SOL    HW220721   1.900   3.576   2.217
 6608SOL     OW20722   6.206   6.464   1.286
 6608SOL    HW120723   6.170   6.423   1.202
 6608SOL    HW220724   6.131   6.509   1.336
 6609SOL     OW20725   4.802   0.841   6.282
 6609SOL    HW120726   4.706   0.858   6.302
 6609SOL    HW220727   4.840   0.778   6.350
 6610SOL     OW20728   2.587   6.753   6.710
 6610SOL    HW120729   2.513   6.784   6.771
 6610SOL    HW220730   2.557   6.763   6.615
 6611SOL     OW20731   4.926   2.682   3.958
 6611SOL    HW120732   4.935   2.736   3.875
 6611SOL    HW220733   4.878   2.597   3.938
 6612SOL     OW20734   5.699   2.154   5.787
 6612SOL    HW120735   5.714   2.236   5.842
 6612SOL    HW220736   5.613   2.163   5.736
 6613SOL     OW20737   6.211   6.782   5.364
 6613SOL    HW120738   6.235   6.808   5.458
 6613SOL    HW220739   6.280   6.718   5.329
 6614SOL     OW20740   4.852   5.983   0.438
 6614SOL    HW120741   4.796   6.040   0.499
 6614SOL    HW220742   4.866   6.032   0.351
 6615SOL     OW20743   1.658   5.638   2.087
 6615SOL    HW120744   1.559   5.628   2.093
 6615SOL    HW220745   1.700   5.547   2.082
 6616SOL     OW20746   5.005   1.035   6.237
 6616SOL    HW120747   4.926   0.976   6.250
 6616SOL    HW220748   4.974   1.127   6.213
 6617SOL     OW20749   4.421   4.864   3.172
 6617SOL    HW120750   4.468   4.882   3.258
 6617SOL    HW220751   4.483   4.817   3.110
 6618SOL     OW20752   0.862   2.425   2.492
 6618SOL    HW120753   0.921   2.469   2.425
 6618SOL    HW220754   0.800   2.493   2.531
 6619SOL     OW20755   6.148   6.939   3.730
 6619SOL    HW120756   6.175   6.931   3.826
 6619SOL    HW220757   6.225   6.910   3.672
 6620SOL     OW20758   1.967   2.550   5.445
 6620SOL    HW120759   1.923   2.510   5.364
 6620SOL    HW220760   2.012   2.635   5.419
 6621SOL     OW20761   3.202   3.019   6.266
 6621SOL    HW120762   3.121   3.056   6.220
 6621SOL    HW220763   3.239   3.088   6.329
 6622SOL     OW20764   5.917   6.563   1.185
 6622SOL    HW120765   5.833   6.531   1.142
 6622SOL    HW220766   5.927   6.521   1.275
 6623SOL     OW20767   2.923   3.344   5.491
 6623SOL    HW120768   2.995   3.390   5.541
 6623SOL    HW220769   2.890   3.402   5.417
 6624SOL     OW20770   0.071   5.051   6.073
 6624SOL    HW120771   0.036   5.060   6.166
 6624SOL    HW220772   0.018   5.110   6.012
 6625SOL     OW20773   5.347   1.768   5.339
 6625SOL    HW120774   5.301   1.705   5.402
 6625SOL    HW220775   5.435   1.795   5.379
 6626SOL     OW20776   4.387   4.992   4.917
 6626SOL    HW120777   4.332   4.920   4.960
 6626SOL    HW220778   4.450   4.952   4.851
 6627SOL     OW20779   2.108   6.487   4.981
 6627SOL    HW120780   2.026   6.451   5.024
 6627SOL    HW220781   2.166   6.529   5.051
 6628SOL     OW20782   4.741   5.063   4.774
 6628SOL    HW120783   4.678   4.987   4.789
 6628SOL    HW220784   4.697   5.149   4.797
 6629SOL     OW20785   4.604   5.891   6.823
 6629SOL    HW120786   4.604   5.795   6.851
 6629SOL    HW220787   4.615   5.949   6.904
 6630SOL     OW20788   4.209   1.718   1.595
 6630SOL    HW120789   4.229   1.690   1.689
 6630SOL    HW220790   4.295   1.732   1.546
 6631SOL     OW20791   2.181   4.983   3.532
 6631SOL    HW120792   2.140   4.900   3.493
 6631SOL    HW220793   2.110   5.038   3.575
 6632SOL     OW20794   0.400   7.014   1.141
 6632SOL    HW120795   0.330   0.003   1.070
 6632SOL    HW220796   0.381   6.932   1.194
 6633SOL     OW20797   1.574   4.667   6.398
 6633SOL    HW120798   1.612   4.646   6.488
 6633SOL    HW220799   1.648   4.675   6.332
 6634SOL     OW20800   5.284   2.100   4.632
 6634SOL    HW120801   5.270   2.195   4.604
 6634SOL    HW220802   5.216   2.076   4.701
 6635SOL     OW20803   4.860   4.972   2.755
 6635SOL    HW120804   4.876   5.047   2.819
 6635SOL    HW220805   4.871   5.005   2.662
 6636SOL     OW20806   4.699   1.758   6.038
 6636SOL    HW120807   4.776   1.729   5.981
 6636SOL    HW220808   4.726   1.837   6.092
 6637SOL     OW20809   1.269   0.043   0.007
 6637SOL    HW120810   1.184   0.038   0.059
 6637SOL    HW220811   1.300   6.972   7.005
 6638SOL     OW20812   3.061   3.935   3.614
 6638SOL    HW120813   3.010   3.917   3.529
 6638SOL    HW220814   3.137   3.996   3.594
 6639SOL     OW20815   5.363   5.059   6.198
 6639SOL    HW120816   5.447   5.011   6.219
 6639SOL    HW220817   5.362   5.085   6.101
 6640SOL     OW20818   1.301   1.817   4.914
 6640SOL    HW120819   1.251   1.887   4.864
 6640SOL    HW220820   1.253   1.730   4.907
 6641SOL     OW20821   2.014   2.210   6.037
 6641SOL    HW120822   2.073   2.284   6.069
 6641SOL    HW220823   2.069   2.128   6.023
 6642SOL     OW20824   2.035   5.537   6.740
 6642SOL    HW120825   2.059   5.508   6.833
 6642SOL    HW220826   2.098   5.495   6.675
 6643SOL     OW20827   6.104   5.063   6.991
 6643SOL    HW120828   6.062   5.020   6.912
 6643SOL    HW220829   6.122   5.160   6.972
 6644SOL     OW20830   2.538   5.606   1.653
 6644SOL    HW120831   2.490   5.680   1.606
 6644SOL    HW220832   2.487   5.580   1.735
 6645SOL     OW20833   6.284   4.929   0.142
 6645SOL    HW120834   6.227   4.996   0.094
 6645SOL    HW220835   6.274   4.941   0.241
 6646SOL     OW20836   3.907   0.626   4.777
 6646SOL    HW120837   3.998   0.658   4.805
 6646SOL    HW220838   3.897   0.639   4.678
 6647SOL     OW20839   4.951   0.977   1.333
 6647SOL    HW120840   4.996   1.012   1.415
 6647SOL    HW220841   4.925   1.053   1.274
 6648SOL     OW20842   4.270   6.313   3.543
 6648SOL    HW120843   4.292   6.225   3.502
 6648SOL    HW220844   4.354   6.360   3.570
 6649SOL     OW20845   5.318   0.991   6.823
 6649SOL    HW120846   5.380   1.031   6.756
 6649SOL    HW220847   5.370   0.933   6.886
 6650SOL     OW20848   4.142   1.607   5.319
 6650SOL    HW120849   4.060   1.624   5.373
 6650SOL    HW220850   4.137   1.658   5.233
 6651SOL     OW20851   2.353   1.631   5.658
 6651SOL    HW120852   2.401   1.719   5.659
 6651SOL    HW220853   2.282   1.632   5.588
 6652SOL     OW20854   1.218   4.295   0.781
 6652SOL    HW120855   1.264   4.342   0.706
 6652SOL    HW220856   1.187   4.363   0.848
 6653SOL     OW20857   3.609   3.697   2.519
 6653SOL    HW120858   3.536   3.651   2.469
 6653SOL    HW220859   3.635   3.780   2.471
 6654SOL     OW20860   1.163   5.211   1.817
 6654SOL    HW120861   1.156   5.145   1.742
 6654SOL    HW220862   1.256   5.248   1.820
 6655SOL     OW20863   0.903   0.520   3.832
 6655SOL    HW120864   0.970   0.589   3.860
 6655SOL    HW220865   0.934   0.430   3.862
 6656SOL     OW20866   5.811   2.080   4.140
 6656SOL    HW120867   5.903   2.041   4.134
 6656SOL    HW220868   5.797   2.144   4.065
 6657SOL     OW20869   6.430   4.942   6.340
 6657SOL    HW120870   6.473   4.889   6.268
 6657SOL    HW220871   6.414   4.884   6.420
 6658SOL     OW20872   6.702   1.280   4.668
 6658SOL    HW120873   6.650   1.281   4.753
 6658SOL    HW220874   6.653   1.228   4.598
 6659SOL     OW20875   1.989   3.061   0.654
 6659SOL    HW120876   1.985   2.984   0.718
 6659SOL    HW220877   2.081   3.100   0.654
 6660SOL     OW20878   1.048   5.272   1.383
 6660SOL    HW120879   1.051   5.255   1.284
 6660SOL    HW220880   1.077   5.365   1.401
 6661SOL     OW20881   1.668   6.348   5.242
 6661SOL    HW120882   1.666   6.410   5.321
 6661SOL    HW220883   1.682   6.401   5.158
 6662SOL     OW20884   1.644   0.465   0.150
 6662SOL    HW120885   1.592   0.460   0.236
 6662SOL    HW220886   1.589   0.513   0.081
 6663SOL     OW20887   6.336   5.184   4.077
 6663SOL    HW120888   6.416   5.133   4.108
 6663SOL    HW220889   6.280   5.125   4.019
 6664SOL     OW20890   1.969   6.308   0.640
 6664SOL    HW120891   1.970   6.208   0.643
 6664SOL    HW220892   1.984   6.339   0.546
 6665SOL     OW20893   2.149   5.807   4.651
 6665SOL    HW120894   2.070   5.753   4.620
 6665SOL    HW220895   2.131   5.842   4.743
 6666SOL     OW20896   6.220   0.135   6.066
 6666SOL    HW120897   6.268   0.048   6.069
 6666SOL    HW220898   6.138   0.131   6.124
 6667SOL     OW20899   6.569   6.203   6.701
 6667SOL    HW120900   6.573   6.303   6.705
 6667SOL    HW220901   6.538   6.175   6.611
 6668SOL     OW20902   6.591   5.057   1.096
 6668SOL    HW120903   6.639   5.005   1.166
 6668SOL    HW220904   6.656   5.090   1.027
 6669SOL     OW20905   1.539   2.519   2.638
 6669SOL    HW120906   1.500   2.465   2.713
 6669SOL    HW220907   1.637   2.500   2.631
 6670SOL     OW20908   3.694   1.456   5.529
 6670SOL    HW120909   3.670   1.392   5.457
 6670SOL    HW220910   3.723   1.406   5.610
 6671SOL     OW20911   5.341   6.292   0.750
 6671SOL    HW120912   5.406   6.276   0.676
 6671SOL    HW220913   5.270   6.356   0.720
 6672SOL     OW20914   6.308   2.462   6.810
 6672SOL    HW120915   6.309   2.524   6.731
 6672SOL    HW220916   6.222   2.412   6.812
 6673SOL     OW20917   4.920   5.265   4.087
 6673SOL    HW120918   4.905   5.168   4.105
 6673SOL    HW220919   4.837   5.316   4.110
 6674SOL     OW20920   0.608   4.148   6.167
 6674SOL    HW120921   0.628   4.194   6.081
 6674SOL    HW220922   0.576   4.055   6.148
 6675SOL     OW20923   4.836   3.787   1.436
 6675SOL    HW120924   4.885   3.801   1.351
 6675SOL    HW220925   4.737   3.789   1.419
 6676SOL     OW20926   0.683   3.727   5.823
 6676SOL    HW120927   0.665   3.823   5.799
 6676SOL    HW220928   0.730   3.683   5.747
 6677SOL     OW20929   1.486   1.763   6.289
 6677SOL    HW120930   1.551   1.761   6.212
 6677SOL    HW220931   1.509   1.839   6.349
 6678SOL     OW20932   3.077   3.161   0.061
 6678SOL    HW120933   3.121   3.096   0.123
 6678SOL    HW220934   3.038   3.111   7.005
 6679SOL     OW20935   3.164   1.228   3.891
 6679SOL    HW120936   3.106   1.158   3.933
 6679SOL    HW220937   3.131   1.319   3.917
 6680SOL     OW20938   5.303   6.515   0.037
 6680SOL    HW120939   5.392   6.498   7.016
 6680SOL    HW220940   5.235   6.536   6.987
 6681SOL     OW20941   3.447   5.996   1.316
 6681SOL    HW120942   3.493   6.079   1.349
 6681SOL    HW220943   3.379   6.021   1.248
 6682SOL     OW20944   0.450   4.395   2.401
 6682SOL    HW120945   0.526   4.345   2.359
 6682SOL    HW220946   0.365   4.346   2.384
 6683SOL     OW20947   5.867   3.087   5.031
 6683SOL    HW120948   5.839   3.109   5.124
 6683SOL    HW220949   5.792   3.043   4.982
 6684SOL     OW20950   2.813   0.082   1.520
 6684SOL    HW120951   2.899   0.097   1.568
 6684SOL    HW220952   2.743   0.051   1.584
 6685SOL     OW20953   6.458   3.332   5.922
 6685SOL    HW120954   6.387   3.306   5.987
 6685SOL    HW220955   6.415   3.363   5.837
 6686SOL     OW20956   5.293   5.741   4.603
 6686SOL    HW120957   5.240   5.664   4.638
 6686SOL    HW220958   5.355   5.775   4.674
 6687SOL     OW20959   1.140   3.630   0.153
 6687SOL    HW120960   1.108   3.725   0.153
 6687SOL    HW220961   1.230   3.625   0.110
 6688SOL     OW20962   6.783   4.008   2.516
 6688SOL    HW120963   6.780   3.939   2.444
 6688SOL    HW220964   6.698   4.006   2.569
 6689SOL     OW20965   4.395   3.026   0.210
 6689SOL    HW120966   4.425   3.114   0.173
 6689SOL    HW220967   4.307   3.038   0.255
 6690SOL     OW20968   1.563   1.509   0.747
 6690SOL    HW120969   1.560   1.469   0.838
 6690SOL    HW220970   1.623   1.590   0.748
 6691SOL     OW20971   2.903   6.544   2.222
 6691SOL    HW120972   2.958   6.574   2.300
 6691SOL    HW220973   2.964   6.528   2.144
 6692SOL     OW20974   3.597   3.744   5.539
 6692SOL    HW120975   3.648   3.659   5.525
 6692SOL    HW220976   3.567   3.780   5.451
 6693SOL     OW20977   4.424   3.289   5.328
 6693SOL    HW120978   4.517   3.280   5.363
 6693SOL    HW220979   4.408   3.383   5.299
 6694SOL     OW20980   3.383   5.727   0.755
 6694SOL    HW120981   3.310   5.785   0.719
 6694SOL    HW220982   3.472   5.766   0.730
 6695SOL     OW20983   2.783   1.970   0.352
 6695SOL    HW120984   2.755   2.056   0.395
 6695SOL    HW220985   2.764   1.894   0.414
 6696SOL     OW20986   2.795   3.257   5.864
 6696SOL    HW120987   2.701   3.224   5.851
 6696SOL    HW220988   2.818   3.319   5.789
 6697SOL     OW20989   4.606   2.499   3.020
 6697SOL    HW120990   4.669   2.559   2.972
 6697SOL    HW220991   4.657   2.423   3.061
 6698SOL     OW20992   2.490   2.571   1.663
 6698SOL    HW120993   2.402   2.610   1.689
 6698SOL    HW220994   2.503   2.581   1.564
 6699SOL     OW20995   2.644   5.836   5.731
 6699SOL    HW120996   2.580   5.899   5.777
 6699SOL    HW220997   2.596   5.790   5.656
 6700SOL     OW20998   0.708   6.581   1.501
 6700SOL    HW120999   0.721   6.597   1.599
 6700SOL    HW221000   0.796   6.589   1.454
 6701SOL     OW21001   5.431   4.115   2.107
 6701SOL    HW121002   5.491   4.098   2.029
 6701SOL    HW221003   5.483   4.162   2.179
 6702SOL     OW21004   2.958   1.918   1.609
 6702SOL    HW121005   3.015   1.990   1.649
 6702SOL    HW221006   3.015   1.856   1.556
 6703SOL     OW21007   6.101   2.286   6.855
 6703SOL    HW121008   6.040   2.353   6.897
 6703SOL    HW221009   6.048   2.207   6.825
 6704SOL     OW21010   3.093   1.711   3.352
 6704SOL    HW121011   3.028   1.772   3.308
 6704SOL    HW221012   3.170   1.763   3.387
 6705SOL     OW21013   6.827   2.972   1.774
 6705SOL    HW121014   6.919   2.935   1.787
 6705SOL    HW221015   6.770   2.903   1.728
 6706SOL     OW21016   1.897   4.074   2.697
 6706SOL    HW121017   1.889   4.037   2.790
 6706SOL    HW221018   1.988   4.054   2.660
 6707SOL     OW21019   6.729   6.205   3.260
 6707SOL    HW121020   6.752   6.109   3.243
 6707SOL    HW221021   6.714   6.252   3.173
 6708SOL     OW21022   6.956   5.538   1.533
 6708SOL    HW121023   6.992   5.445   1.546
 6708SOL    HW221024   6.859   5.539   1.556
 6709SOL     OW21025   3.134   6.219   3.570
 6709SOL    HW121026   3.094   6.169   3.647
 6709SOL    HW221027   3.116   6.317   3.581
 6710SOL     OW21028   4.010   0.532   6.175
 6710SOL    HW121029   3.949   0.539   6.097
 6710SOL    HW221030   4.035   0.624   6.206
 6711SOL     OW21031   4.570   5.263   6.106
 6711SOL    HW121032   4.655   5.224   6.070
 6711SOL    HW221033   4.583   5.360   6.125
 6712SOL     OW21034   5.373   4.040   0.357
 6712SOL    HW121035   5.391   4.062   0.261
 6712SOL    HW221036   5.426   4.100   0.416
 6713SOL     OW21037   2.292   0.018   2.383
 6713SOL    HW121038   2.296   0.077   2.303
 6713SOL    HW221039   2.379   6.992   2.393
 6714SOL     OW21040   6.185   0.581   6.117
 6714SOL    HW121041   6.166   0.620   6.207
 6714SOL    HW221042   6.253   0.509   6.125
 6715SOL     OW21043   0.513   0.353   0.261
 6715SOL    HW121044   0.536   0.271   0.313
 6715SOL    HW221045   0.465   0.418   0.320
 6716SOL     OW21046   0.556   5.798   1.348
 6716SOL    HW121047   0.533   5.891   1.317
 6716SOL    HW221048   0.577   5.741   1.269
 6717SOL     OW21049   3.904   3.224   0.028
 6717SOL    HW121050   3.907   3.232   6.950
 6717SOL    HW221051   3.811   3.201   0.057
 6718SOL     OW21052   5.360   0.462   0.905
 6718SOL    HW121053   5.347   0.418   0.993
 6718SOL    HW221054   5.338   0.559   0.912
 6719SOL     OW21055   2.498   0.309   6.458
 6719SOL    HW121056   2.570   0.354   6.405
 6719SOL    HW221057   2.533   0.287   6.549
 6720SOL     OW21058   1.288   6.878   3.859
 6720SOL    HW121059   1.362   6.911   3.799
 6720SOL    HW221060   1.312   6.788   3.895
 6721SOL     OW21061   6.952   0.293   0.094
 6721SOL    HW121062   6.988   0.375   0.049
 6721SOL    HW221063   6.943   0.310   0.192
 6722SOL     OW21064   6.655   3.157   1.901
 6722SOL    HW121065   6.627   3.127   1.992
 6722SOL    HW221066   6.726   3.095   1.866
 6723SOL     OW21067   2.690   5.985   2.985
 6723SOL    HW121068   2.741   6.049   2.928
 6723SOL    HW221069   2.592   5.999   2.970
 6724SOL     OW21070   1.639   3.209   5.838
 6724SOL    HW121071   1.610   3.238   5.746
 6724SOL    HW221072   1.593   3.266   5.906
 6725SOL     OW21073   0.448   3.424   1.369
 6725SOL    HW121074   0.528   3.482   1.352
 6725SOL    HW221075   0.450   3.346   1.306
 6726SOL     OW21076   0.781   2.245   5.383
 6726SOL    HW121077   0.698   2.254   5.328
 6726SOL    HW221078   0.774   2.305   5.463
 6727SOL     OW21079   6.986   3.978   5.239
 6727SOL    HW121080   6.948   4.039   5.169
 6727SOL    HW221081   6.926   3.898   5.250
 6728SOL     OW21082   3.667   1.806   3.037
 6728SOL    HW121083   3.691   1.895   2.999
 6728SOL    HW221084   3.589   1.815   3.098
 6729SOL     OW21085   6.701   1.104   2.757
 6729SOL    HW121086   6.767   1.078   2.686
 6729SOL    HW221087   6.670   1.197   2.741
 6730SOL     OW21088   2.838   6.779   0.542
 6730SOL    HW121089   2.847   6.857   0.480
 6730SOL    HW221090   2.921   6.768   0.596
 6731SOL     OW21091   0.753   5.808   1.531
 6731SOL    HW121092   0.672   5.801   1.473
 6731SOL    HW221093   0.830   5.841   1.477
 6732SOL     OW21094   5.293   4.565   4.853
 6732SOL    HW121095   5.287   4.660   4.824
 6732SOL    HW221096   5.276   4.505   4.775
 6733SOL     OW21097   4.232   5.980   0.562
 6733SOL    HW121098   4.324   5.984   0.522
 6733SOL    HW221099   4.190   5.892   0.540
 6734SOL     OW21100   6.211   2.380   4.826
 6734SOL    HW121101   6.169   2.313   4.764
 6734SOL    HW221102   6.223   2.338   4.916
 6735SOL     OW21103   6.493   4.220   4.776
 6735SOL    HW121104   6.536   4.309   4.792
 6735SOL    HW221105   6.418   4.231   4.711
 6736SOL     OW21106   3.048   3.750   0.047
 6736SOL    HW121107   2.971   3.697   0.083
 6736SOL    HW221108   3.119   3.687   0.014
 6737SOL     OW21109   1.958   2.568   0.585
 6737SOL    HW121110   1.947   2.572   0.486
 6737SOL    HW221111   1.876   2.604   0.630
 6738SOL     OW21112   1.667   5.649   2.850
 6738SOL    HW121113   1.695   5.733   2.898
 6738SOL    HW221114   1.568   5.649   2.838
 6739SOL     OW21115   3.567   6.288   5.217
 6739SOL    HW121116   3.551   6.320   5.310
 6739SOL    HW221117   3.481   6.258   5.177
 6740SOL     OW21118   1.588   0.285   4.376
 6740SOL    HW121119   1.672   0.259   4.328
 6740SOL    HW221120   1.513   0.295   4.311
 6741SOL     OW21121   4.548   1.355   5.366
 6741SOL    HW121122   4.490   1.434   5.345
 6741SOL    HW221123   4.560   1.348   5.465
 6742SOL     OW21124   6.660   5.919   2.313
 6742SOL    HW121125   6.599   5.994   2.289
 6742SOL    HW221126   6.615   5.859   2.379
 6743SOL     OW21127   3.655   5.119   0.492
 6743SOL    HW121128   3.732   5.055   0.499
 6743SOL    HW221129   3.640   5.143   0.396
 6744SOL     OW21130   5.972   4.129   6.518
 6744SOL    HW121131   5.923   4.091   6.439
 6744SOL    HW221132   5.970   4.063   6.593
 6745SOL     OW21133   0.302   0.162   2.745
 6745SOL    HW121134   0.284   0.140   2.841
 6745SOL    HW221135   0.230   0.122   2.688
 6746SOL     OW21136   0.989   1.004   3.457
 6746SOL    HW121137   0.941   0.963   3.380
 6746SOL    HW221138   1.012   1.099   3.435
 6747SOL     OW21139   5.661   0.852   4.767
 6747SOL    HW121140   5.714   0.909   4.829
 6747SOL    HW221141   5.633   0.906   4.688
 6748SOL     OW21142   1.899   1.233   3.802
 6748SOL    HW121143   1.936   1.325   3.792
 6748SOL    HW221144   1.911   1.184   3.715
 6749SOL     OW21145   2.912   6.495   0.421
 6749SOL    HW121146   2.917   6.568   0.489
 6749SOL    HW221147   2.996   6.494   0.366
 6750SOL     OW21148   4.051   2.183   5.110
 6750SOL    HW121149   4.010   2.092   5.104
 6750SOL    HW221150   4.055   2.224   5.019
 6751SOL     OW21151   3.985   0.284   3.659
 6751SOL    HW121152   3.929   0.289   3.576
 6751SOL    HW221153   4.068   0.232   3.641
 6752SOL     OW21154   0.567   2.244   2.673
 6752SOL    HW121155   0.563   2.330   2.621
 6752SOL    HW221156   0.555   2.167   2.611
 6753SOL     OW21157   4.209   0.883   6.407
 6753SOL    HW121158   4.117   0.865   6.373
 6753SOL    HW221159   4.255   0.948   6.347
 6754SOL     OW21160   0.356   1.755   0.229
 6754SOL    HW121161   0.289   1.814   0.275
 6754SOL    HW221162   0.319   1.663   0.221
 6755SOL     OW21163   3.858   0.795   3.066
 6755SOL    HW121164   3.876   0.892   3.054
 6755SOL    HW221165   3.762   0.776   3.044
 6756SOL     OW21166   3.948   5.005   5.210
 6756SOL    HW121167   3.932   5.099   5.240
 6756SOL    HW221168   3.918   4.942   5.281
 6757SOL     OW21169   4.206   1.154   2.488
 6757SOL    HW121170   4.262   1.236   2.505
 6757SOL    HW221171   4.196   1.102   2.573
 6758SOL     OW21172   6.348   2.343   1.796
 6758SOL    HW121173   6.270   2.356   1.857
 6758SOL    HW221174   6.432   2.337   1.850
 6759SOL     OW21175   0.722   4.530   4.590
 6759SOL    HW121176   0.716   4.476   4.674
 6759SOL    HW221177   0.814   4.522   4.551
 6760SOL     OW21178   6.219   4.141   3.398
 6760SOL    HW121179   6.214   4.087   3.314
 6760SOL    HW221180   6.131   4.187   3.413
 6761SOL     OW21181   6.395   2.248   6.027
 6761SOL    HW121182   6.299   2.267   6.005
 6761SOL    HW221183   6.400   2.182   6.102
 6762SOL     OW21184   0.525   5.374   3.708
 6762SOL    HW121185   0.528   5.359   3.609
 6762SOL    HW221186   0.601   5.325   3.752
 6763SOL     OW21187   0.305   4.882   2.932
 6763SOL    HW121188   0.295   4.864   3.030
 6763SOL    HW221189   0.315   4.795   2.884
 6764SOL     OW21190   2.327   4.794   0.041
 6764SOL    HW121191   2.401   4.735   0.006
 6764SOL    HW221192   2.347   4.889   0.019
 6765SOL     OW21193   5.360   3.935   3.701
 6765SOL    HW121194   5.264   3.928   3.728
 6765SOL    HW221195   5.416   3.882   3.763
 6766SOL     OW21196   5.289   6.710   6.289
 6766SOL    HW121197   5.264   6.704   6.385
 6766SOL    HW221198   5.215   6.671   6.234
 6767SOL     OW21199   1.080   1.865   0.807
 6767SOL    HW121200   1.099   1.831   0.715
 6767SOL    HW221201   1.028   1.796   0.858
 6768SOL     OW21202   0.721   6.284   3.849
 6768SOL    HW121203   0.664   6.321   3.776
 6768SOL    HW221204   0.687   6.315   3.938
 6769SOL     OW21205   2.484   0.064   5.621
 6769SOL    HW121206   2.576   0.040   5.589
 6769SOL    HW221207   2.467   0.024   5.711
 6770SOL     OW21208   4.621   2.035   3.737
 6770SOL    HW121209   4.634   2.032   3.836
 6770SOL    HW221210   4.690   2.094   3.696
 6771SOL     OW21211   4.086   0.867   2.188
 6771SOL    HW121212   3.997   0.853   2.145
 6771SOL    HW221213   4.123   0.779   2.219
 6772SOL     OW21214   4.643   2.405   2.649
 6772SOL    HW121215   4.546   2.400   2.671
 6772SOL    HW221216   4.686   2.316   2.667
 6773SOL     OW21217   0.674   6.424   1.951
 6773SOL    HW121218   0.600   6.369   1.911
 6773SOL    HW221219   0.730   6.366   2.010
 6774SOL     OW21220   1.865   3.495   4.649
 6774SOL    HW121221   1.780   3.490   4.597
 6774SOL    HW221222   1.902   3.588   4.645
 6775SOL     OW21223   1.237   2.407   3.485
 6775SOL    HW121224   1.306   2.334   3.480
 6775SOL    HW221225   1.211   2.434   3.392
 6776SOL     OW21226   4.017   4.095   0.357
 6776SOL    HW121227   4.108   4.134   0.346
 6776SOL    HW221228   4.007   4.060   0.450
 6777SOL     OW21229   5.033   5.141   0.842
 6777SOL    HW121230   4.996   5.125   0.933
 6777SOL    HW221231   4.958   5.153   0.777
 6778SOL     OW21232   6.486   3.952   1.775
 6778SOL    HW121233   6.564   3.976   1.717
 6778SOL    HW221234   6.486   4.011   1.856
 6779SOL     OW21235   5.618   4.623   6.169
 6779SOL    HW121236   5.710   4.585   6.183
 6779SOL    HW221237   5.578   4.583   6.087
 6780SOL     OW21238   0.810   2.843   2.794
 6780SOL    HW121239   0.763   2.928   2.769
 6780SOL    HW221240   0.867   2.859   2.875
 6781SOL     OW21241   6.701   1.687   4.948
 6781SOL    HW121242   6.636   1.639   4.889
 6781SOL    HW221243   6.654   1.760   4.997
 6782SOL     OW21244   0.771   1.031   3.011
 6782SOL    HW121245   0.771   0.976   2.927
 6782SOL    HW221246   0.821   1.116   2.995
 6783SOL     OW21247   0.982   2.258   5.955
 6783SOL    HW121248   1.022   2.346   5.979
 6783SOL    HW221249   0.981   2.247   5.856
 6784SOL     OW21250   2.705   3.647   0.569
 6784SOL    HW121251   2.673   3.592   0.492
 6784SOL    HW221252   2.804   3.658   0.563
 6785SOL     OW21253   5.447   5.006   4.950
 6785SOL    HW121254   5.449   5.036   4.855
 6785SOL    HW221255   5.352   4.998   4.980
 6786SOL     OW21256   0.866   2.616   0.207
 6786SOL    HW121257   0.834   2.632   0.114
 6786SOL    HW221258   0.908   2.699   0.244
 6787SOL     OW21259   3.306   2.715   0.782
 6787SOL    HW121260   3.260   2.798   0.750
 6787SOL    HW221261   3.259   2.635   0.745
 6788SOL     OW21262   0.653   4.449   2.118
 6788SOL    HW121263   0.639   4.374   2.182
 6788SOL    HW221264   0.745   4.487   2.131
 6789SOL     OW21265   0.230   4.386   3.823
 6789SOL    HW121266   0.202   4.446   3.898
 6789SOL    HW221267   0.276   4.305   3.859
 6790SOL     OW21268   1.101   4.151   6.638
 6790SOL    HW121269   1.040   4.221   6.674
 6790SOL    HW221270   1.113   4.079   6.707
 6791SOL     OW21271   3.981   2.202   2.550
 6791SOL    HW121272   3.895   2.169   2.588
 6791SOL    HW221273   3.972   2.213   2.451
 6792SOL     OW21274   5.178   0.389   5.237
 6792SOL    HW121275   5.120   0.326   5.287
 6792SOL    HW221276   5.186   0.475   5.288
 6793SOL     OW21277   3.206   0.987   6.433
 6793SOL    HW121278   3.117   0.999   6.388
 6793SOL    HW221279   3.255   1.074   6.431
 6794SOL     OW21280   5.556   1.334   5.173
 6794SOL    HW121281   5.641   1.322   5.123
 6794SOL    HW221282   5.480   1.341   5.108
 6795SOL     OW21283   1.413   5.920   0.952
 6795SOL    HW121284   1.335   5.977   0.978
 6795SOL    HW221285   1.482   5.978   0.908
 6796SOL     OW21286   6.167   0.494   2.389
 6796SOL    HW121287   6.082   0.507   2.337
 6796SOL    HW221288   6.203   0.402   2.372
 6797SOL     OW21289   6.896   2.336   1.699
 6797SOL    HW121290   6.810   2.301   1.661
 6797SOL    HW221291   6.903   2.310   1.795
 6798SOL     OW21292   6.670   6.746   1.515
 6798SOL    HW121293   6.614   6.663   1.516
 6798SOL    HW221294   6.630   6.814   1.576
 6799SOL     OW21295   6.130   0.206   2.477
 6799SOL    HW121296   6.163   0.116   2.448
 6799SOL    HW221297   6.043   0.225   2.433
 6800SOL     OW21298   2.481   2.418   2.163
 6800SOL    HW121299   2.561   2.372   2.200
 6800SOL    HW221300   2.486   2.418   2.063
 6801SOL     OW21301   1.147   0.084   3.808
 6801SOL    HW121302   1.218   0.154   3.794
 6801SOL    HW221303   1.191   7.017   3.827
 6802SOL     OW21304   3.210   6.111   1.778
 6802SOL    HW121305   3.251   6.123   1.688
 6802SOL    HW221306   3.205   6.014   1.800
 6803SOL     OW21307   4.388   4.140   6.417
 6803SOL    HW121308   4.369   4.203   6.342
 6803SOL    HW221309   4.414   4.192   6.499
 6804SOL     OW21310   4.290   5.478   2.778
 6804SOL    HW121311   4.223   5.423   2.729
 6804SOL    HW221312   4.257   5.497   2.870
 6805SOL     OW21313   0.677   5.008   6.281
 6805SOL    HW121314   0.589   5.049   6.256
 6805SOL    HW221315   0.662   4.916   6.317
 6806SOL     OW21316   6.817   1.003   4.037
 6806SOL    HW121317   6.876   1.027   4.113
 6806SOL    HW221318   6.817   0.903   4.024
 6807SOL     OW21319   3.870   3.463   2.444
 6807SOL    HW121320   3.817   3.378   2.447
 6807SOL    HW221321   3.820   3.532   2.391
 6808SOL     OW21322   0.073   1.740   5.459
 6808SOL    HW121323   6.996   1.749   5.478
 6808SOL    HW221324   0.098   1.803   5.385
 6809SOL     OW21325   6.419   3.346   1.119
 6809SOL    HW121326   6.426   3.247   1.107
 6809SOL    HW221327   6.369   3.387   1.043
 6810SOL     OW21328   3.214   1.086   2.172
 6810SOL    HW121329   3.266   1.095   2.257
 6810SOL    HW221330   3.172   0.995   2.167
 6811SOL     OW21331   6.429   3.658   2.227
 6811SOL    HW121332   6.475   3.577   2.189
 6811SOL    HW221333   6.443   3.661   2.326
 6812SOL     OW21334   3.667   4.125   5.307
 6812SOL    HW121335   3.601   4.049   5.302
 6812SOL    HW221336   3.618   4.212   5.300
 6813SOL     OW21337   5.917   3.125   2.472
 6813SOL    HW121338   5.882   3.191   2.405
 6813SOL    HW221339   5.990   3.071   2.430
 6814SOL     OW21340   4.446   2.035   6.392
 6814SOL    HW121341   4.424   1.991   6.304
 6814SOL    HW221342   4.447   1.965   6.464
 6815SOL     OW21343   2.254   6.653   6.403
 6815SOL    HW121344   2.308   6.736   6.413
 6815SOL    HW221345   2.308   6.574   6.431
 6816SOL     OW21346   6.883   0.738   5.653
 6816SOL    HW121347   6.805   0.676   5.660
 6816SOL    HW221348   6.948   0.703   5.586
 6817SOL     OW21349   2.224   2.859   3.500
 6817SOL    HW121350   2.184   2.849   3.591
 6817SOL    HW221351   2.238   2.956   3.481
 6818SOL     OW21352   1.877   6.664   0.686
 6818SOL    HW121353   1.965   6.617   0.675
 6818SOL    HW221354   1.806   6.596   0.702
 6819SOL     OW21355   4.332   1.489   3.342
 6819SOL    HW121356   4.356   1.444   3.428
 6819SOL    HW221357   4.251   1.546   3.356
 6820SOL     OW21358   1.636   6.157   1.574
 6820SOL    HW121359   1.716   6.191   1.625
 6820SOL    HW221360   1.570   6.119   1.638
 6821SOL     OW21361   4.231   2.568   5.398
 6821SOL    HW121362   4.182   2.537   5.316
 6821SOL    HW221363   4.231   2.495   5.466
 6822SOL     OW21364   5.852   2.530   5.788
 6822SOL    HW121365   5.788   2.606   5.781
 6822SOL    HW221366   5.821   2.467   5.860
 6823SOL     OW21367   6.059   4.038   6.090
 6823SOL    HW121368   6.086   3.997   6.003
 6823SOL    HW221369   6.097   4.131   6.096
 6824SOL     OW21370   1.152   1.469   0.764
 6824SOL    HW121371   1.172   1.522   0.681
 6824SOL    HW221372   1.066   1.419   0.752
 6825SOL     OW21373   5.526   0.820   0.242
 6825SOL    HW121374   5.616   0.796   0.206
 6825SOL    HW221375   5.478   0.738   0.272
 6826SOL     OW21376   1.853   3.477   3.851
 6826SOL    HW121377   1.941   3.430   3.847
 6826SOL    HW221378   1.864   3.563   3.902
 6827SOL     OW21379   5.712   5.678   6.389
 6827SOL    HW121380   5.747   5.586   6.375
 6827SOL    HW221381   5.612   5.677   6.387
 6828SOL     OW21382   3.697   1.429   1.870
 6828SOL    HW121383   3.613   1.443   1.922
 6828SOL    HW221384   3.684   1.465   1.777
 6829SOL     OW21385   5.008   6.192   5.478
 6829SOL    HW121386   5.029   6.284   5.446
 6829SOL    HW221387   4.941   6.150   5.416
 6830SOL     OW21388   4.936   0.682   3.495
 6830SOL    HW121389   4.974   0.767   3.531
 6830SOL    HW221390   4.920   0.618   3.570
 6831SOL     OW21391   1.946   1.404   5.924
 6831SOL    HW121392   2.021   1.384   5.987
 6831SOL    HW221393   1.908   1.494   5.946
 6832SOL     OW21394   2.825   4.156   0.872
 6832SOL    HW121395   2.790   4.238   0.827
 6832SOL    HW221396   2.799   4.075   0.818
 6833SOL     OW21397   2.371   4.800   6.676
 6833SOL    HW121398   2.299   4.742   6.713
 6833SOL    HW221399   2.398   4.867   6.744
 6834SOL     OW21400   6.304   0.025   0.774
 6834SOL    HW121401   6.301   0.060   0.868
 6834SOL    HW221402   6.254   0.088   0.714
 6835SOL     OW21403   3.628   1.069   4.756
 6835SOL    HW121404   3.727   1.085   4.761
 6835SOL    HW221405   3.604   0.990   4.811
 6836SOL     OW21406   2.787   4.612   6.485
 6836SOL    HW121407   2.762   4.533   6.430
 6836SOL    HW221408   2.884   4.632   6.475
 6837SOL     OW21409   0.482   2.336   3.491
 6837SOL    HW121410   0.518   2.323   3.399
 6837SOL    HW221411   0.537   2.285   3.556
 6838SOL     OW21412   2.916   5.328   6.446
 6838SOL    HW121413   3.004   5.363   6.414
 6838SOL    HW221414   2.847   5.400   6.439
 6839SOL     OW21415   5.501   1.026   5.002
 6839SOL    HW121416   5.434   1.058   5.069
 6839SOL    HW221417   5.471   1.055   4.910
 6840SOL     OW21418   2.890   6.687   5.130
 6840SOL    HW121419   2.860   6.779   5.105
 6840SOL    HW221420   2.981   6.670   5.091
 6841SOL     OW21421   4.116   4.730   0.745
 6841SOL    HW121422   4.028   4.734   0.698
 6841SOL    HW221423   4.116   4.795   0.821
 6842SOL     OW21424   2.485   2.906   0.178
 6842SOL    HW121425   2.526   2.826   0.133
 6842SOL    HW221426   2.395   2.923   0.139
 6843SOL     OW21427   5.553   6.797   1.896
 6843SOL    HW121428   5.563   6.894   1.875
 6843SOL    HW221429   5.574   6.742   1.815
 6844SOL     OW21430   5.522   0.000   3.499
 6844SOL    HW121431   5.480   6.944   3.453
 6844SOL    HW221432   5.621   7.007   3.505
 6845SOL     OW21433   5.615   4.458   2.711
 6845SOL    HW121434   5.588   4.510   2.792
 6845SOL    HW221435   5.540   4.398   2.683
 6846SOL     OW21436   4.240   3.533   1.042
 6846SOL    HW121437   4.261   3.594   1.119
 6846SOL    HW221438   4.280   3.569   0.958
 6847SOL     OW21439   6.607   4.639   2.948
 6847SOL    HW121440   6.663   4.636   3.031
 6847SOL    HW221441   6.517   4.601   2.968
 6848SOL     OW21442   3.461   6.288   3.550
 6848SOL    HW121443   3.438   6.220   3.619
 6848SOL    HW221444   3.409   6.270   3.466
 6849SOL     OW21445   3.466   5.387   4.817
 6849SOL    HW121446   3.409   5.455   4.771
 6849SOL    HW221447   3.526   5.432   4.882
 6850SOL     OW21448   5.815   3.764   2.113
 6850SOL    HW121449   5.831   3.863   2.104
 6850SOL    HW221450   5.755   3.748   2.192
 6851SOL     OW21451   1.332   3.012   3.746
 6851SOL    HW121452   1.243   3.048   3.720
 6851SOL    HW221453   1.330   2.912   3.742
 6852SOL     OW21454   1.804   4.594   0.987
 6852SOL    HW121455   1.845   4.608   0.896
 6852SOL    HW221456   1.855   4.524   1.036
 6853SOL     OW21457   6.763   3.983   0.162
 6853SOL    HW121458   6.862   3.978   0.171
 6853SOL    HW221459   6.739   3.997   0.066
 6854SOL     OW21460   5.392   1.949   5.678
 6854SOL    HW121461   5.297   1.930   5.701
 6854SOL    HW221462   5.403   2.046   5.659
 6855SOL     OW21463   3.468   5.672   3.354
 6855SOL    HW121464   3.523   5.655   3.272
 6855SOL    HW221465   3.381   5.622   3.347
 6856SOL     OW21466   4.980   4.529   5.208
 6856SOL    HW121467   5.023   4.463   5.270
 6856SOL    HW221468   5.033   4.614   5.208
 6857SOL     OW21469   2.892   1.645   6.808
 6857SOL    HW121470   2.855   1.712   6.873
 6857SOL    HW221471   2.975   1.683   6.766
 6858SOL     OW21472   3.660   3.485   4.264
 6858SOL    HW121473   3.626   3.393   4.285
 6858SOL    HW221474   3.756   3.480   4.236
 6859SOL     OW21475   1.241   0.338   1.186
 6859SOL    HW121476   1.251   0.260   1.248
 6859SOL    HW221477   1.294   0.415   1.222
 6860SOL     OW21478   5.990   5.613   1.330
 6860SOL    HW121479   6.037   5.667   1.400
 6860SOL    HW221480   6.014   5.517   1.341
 6861SOL     OW21481   5.546   4.090   0.834
 6861SOL    HW121482   5.517   3.995   0.817
 6861SOL    HW221483   5.625   4.090   0.894
 6862SOL     OW21484   1.773   4.670   5.125
 6862SOL    HW121485   1.855   4.623   5.157
 6862SOL    HW221486   1.787   4.700   5.030
 6863SOL     OW21487   6.034   1.314   5.823
 6863SOL    HW121488   6.093   1.392   5.803
 6863SOL    HW221489   6.073   1.231   5.784
 6864SOL     OW21490   3.176   5.928   4.189
 6864SOL    HW121491   3.274   5.951   4.195
 6864SOL    HW221492   3.122   6.012   4.193
 6865SOL     OW21493   0.176   5.856   3.204
 6865SOL    HW121494   0.156   5.946   3.163
 6865SOL    HW221495   0.105   5.791   3.177
 6866SOL     OW21496   6.564   4.566   2.396
 6866SOL    HW121497   6.617   4.490   2.434
 6866SOL    HW221498   6.516   4.613   2.470
 6867SOL     OW21499   1.855   5.160   1.644
 6867SOL    HW121500   1.918   5.237   1.637
 6867SOL    HW221501   1.834   5.143   1.741
 6868SOL     OW21502   1.228   5.189   6.483
 6868SOL    HW121503   1.266   5.239   6.561
 6868SOL    HW221504   1.300   5.176   6.415
 6869SOL     OW21505   5.312   0.485   4.907
 6869SOL    HW121506   5.214   0.500   4.896
 6869SOL    HW221507   5.362   0.546   4.845
 6870SOL     OW21508   0.026   4.697   2.295
 6870SOL    HW121509   6.982   4.770   2.316
 6870SOL    HW221510   7.005   4.630   2.234
 6871SOL     OW21511   6.132   4.350   2.853
 6871SOL    HW121512   6.057   4.391   2.801
 6871SOL    HW221513   6.128   4.250   2.843
 6872SOL     OW21514   0.693   2.744   1.272
 6872SOL    HW121515   0.640   2.828   1.256
 6872SOL    HW221516   0.727   2.744   1.366
 6873SOL     OW21517   6.675   3.927   5.082
 6873SOL    HW121518   6.718   3.855   5.137
 6873SOL    HW221519   6.633   3.994   5.143
 6874SOL     OW21520   0.869   5.578   2.315
 6874SOL    HW121521   0.884   5.569   2.217
 6874SOL    HW221522   0.926   5.652   2.351
 6875SOL     OW21523   1.534   2.497   3.116
 6875SOL    HW121524   1.568   2.578   3.164
 6875SOL    HW221525   1.461   2.524   3.054
 6876SOL     OW21526   4.021   6.257   4.199
 6876SOL    HW121527   4.030   6.223   4.293
 6876SOL    HW221528   4.105   6.236   4.149
 6877SOL     OW21529   2.704   4.091   0.107
 6877SOL    HW121530   2.795   4.133   0.113
 6877SOL    HW221531   2.700   4.014   0.171
 6878SOL     OW21532   3.002   2.010   5.408
 6878SOL    HW121533   3.102   2.009   5.407
 6878SOL    HW221534   2.968   2.088   5.355
 6879SOL     OW21535   1.038   2.228   0.263
 6879SOL    HW121536   1.031   2.306   0.200
 6879SOL    HW221537   1.087   2.153   0.219
 6880SOL     OW21538   2.160   3.865   5.155
 6880SOL    HW121539   2.219   3.936   5.117
 6880SOL    HW221540   2.187   3.847   5.250
 6881SOL     OW21541   0.883   3.839   2.255
 6881SOL    HW121542   0.843   3.913   2.201
 6881SOL    HW221543   0.976   3.863   2.282
 6882SOL     OW21544   3.854   0.883   6.522
 6882SOL    HW121545   3.919   0.951   6.557
 6882SOL    HW221546   3.767   0.893   6.571
 6883SOL     OW21547   3.684   1.861   0.411
 6883SOL    HW121548   3.619   1.811   0.468
 6883SOL    HW221549   3.777   1.846   0.445
 6884SOL     OW21550   1.801   3.835   4.559
 6884SOL    HW121551   1.895   3.829   4.595
 6884SOL    HW221552   1.737   3.847   4.635
 6885SOL     OW21553   3.557   6.222   4.666
 6885SOL    HW121554   3.636   6.283   4.659
 6885SOL    HW221555   3.548   6.169   4.582
 6886SOL     OW21556   6.934   0.638   3.999
 6886SOL    HW121557   6.843   0.602   3.976
 6886SOL    HW221558   6.937   0.659   4.096
 6887SOL     OW21559   5.105   6.438   5.113
 6887SOL    HW121560   5.027   6.489   5.077
 6887SOL    HW221561   5.091   6.420   5.210
 6888SOL     OW21562   5.236   6.322   6.332
 6888SOL    HW121563   5.164   6.375   6.288
 6888SOL    HW221564   5.257   6.242   6.276
 6889SOL     OW21565   1.580   2.343   5.077
 6889SOL    HW121566   1.638   2.384   5.007
 6889SOL    HW221567   1.613   2.251   5.099
 6890SOL     OW21568   3.563   6.966   1.242
 6890SOL    HW121569   3.653   6.923   1.253
 6890SOL    HW221570   3.492   6.900   1.267
 6891SOL     OW21571   1.962   4.652   4.116
 6891SOL    HW121572   2.061   4.668   4.111
 6891SOL    HW221573   1.943   4.555   4.100
 6892SOL     OW21574   3.523   1.870   3.620
 6892SOL    HW121575   3.618   1.890   3.642
 6892SOL    HW221576   3.509   1.771   3.615
 6893SOL     OW21577   4.970   5.051   6.730
 6893SOL    HW121578   5.028   5.120   6.773
 6893SOL    HW221579   4.902   5.096   6.672
 6894SOL     OW21580   6.044   4.575   0.260
 6894SOL    HW121581   6.023   4.584   0.163
 6894SOL    HW221582   5.990   4.642   0.312
 6895SOL     OW21583   2.747   5.751   6.580
 6895SOL    HW121584   2.774   5.708   6.666
 6895SOL    HW221585   2.804   5.714   6.506
 6896SOL     OW21586   1.397   6.731   3.292
 6896SOL    HW121587   1.388   6.804   3.360
 6896SOL    HW221588   1.312   6.726   3.238
 6897SOL     OW21589   2.863   2.723   6.958
 6897SOL    HW121590   2.906   2.633   6.970
 6897SOL    HW221591   2.852   2.767   0.026
 6898SOL     OW21592   4.017   1.120   2.319
 6898SOL    HW121593   4.085   1.147   2.386
 6898SOL    HW221594   4.046   1.036   2.274
 6899SOL     OW21595   5.339   6.689   1.081
 6899SOL    HW121596   5.292   6.616   1.032
 6899SOL    HW221597   5.277   6.765   1.096
 6900SOL     OW21598   6.442   0.009   5.865
 6900SOL    HW121599   6.343   7.019   5.868
 6900SOL    HW221600   6.486   6.962   5.924
 6901SOL     OW21601   0.551   6.724   6.298
 6901SOL    HW121602   0.601   6.801   6.258
 6901SOL    HW221603   0.469   6.758   6.345
 6902SOL     OW21604   5.615   6.751   0.316
 6902SOL    HW121605   5.588   6.656   0.308
 6902SOL    HW221606   5.538   6.810   0.291
 6903SOL     OW21607   3.988   5.411   4.475
 6903SOL    HW121608   3.997   5.368   4.385
 6903SOL    HW221609   3.948   5.345   4.540
 6904SOL     OW21610   5.774   1.811   4.313
 6904SOL    HW121611   5.773   1.876   4.238
 6904SOL    HW221612   5.837   1.843   4.385
 6905SOL     OW21613   6.335   6.650   6.851
 6905SOL    HW121614   6.313   6.555   6.870
 6905SOL    HW221615   6.281   6.681   6.772
 6906SOL     OW21616   4.623   1.514   4.051
 6906SOL    HW121617   4.721   1.517   4.067
 6906SOL    HW221618   4.604   1.515   3.953
 6907SOL     OW21619   4.737   2.129   1.470
 6907SOL    HW121620   4.837   2.136   1.459
 6907SOL    HW221621   4.716   2.104   1.564
 6908SOL     OW21622   1.089   6.217   6.492
 6908SOL    HW121623   1.004   6.165   6.481
 6908SOL    HW221624   1.154   6.191   6.421
 6909SOL     OW21625   6.527   4.157   1.387
 6909SOL    HW121626   6.448   4.187   1.440
 6909SOL    HW221627   6.497   4.134   1.294
 6910SOL     OW21628   0.414   2.516   3.884
 6910SOL    HW121629   0.452   2.427   3.909
 6910SOL    HW221630   0.315   2.510   3.880
 6911SOL     OW21631   4.586   6.202   3.804
 6911SOL    HW121632   4.636   6.186   3.889
 6911SOL    HW221633   4.560   6.298   3.799
 6912SOL     OW21634   3.473   5.004   0.682
 6912SOL    HW121635   3.529   5.041   0.607
 6912SOL    HW221636   3.467   5.071   0.755
 6913SOL     OW21637   5.107   4.729   5.049
 6913SOL    HW121638   5.029   4.711   4.988
 6913SOL    HW221639   5.176   4.657   5.036
 6914SOL     OW21640   5.443   4.593   6.608
 6914SOL    HW121641   5.478   4.509   6.651
 6914SOL    HW221642   5.389   4.568   6.527
 6915SOL     OW21643   6.059   4.149   1.408
 6915SOL    HW121644   6.085   4.076   1.345
 6915SOL    HW221645   5.973   4.125   1.454
 6916SOL     OW21646   6.443   3.425   0.125
 6916SOL    HW121647   6.511   3.405   0.054
 6916SOL    HW221648   6.363   3.467   0.083
 6917SOL     OW21649   3.085   5.887   1.072
 6917SOL    HW121650   3.168   5.939   1.092
 6917SOL    HW221651   3.027   5.882   1.153
 6918SOL     OW21652   0.112   3.099   4.272
 6918SOL    HW121653   0.142   3.099   4.367
 6918SOL    HW221654   0.071   3.187   4.250
 6919SOL     OW21655   0.293   6.397   2.511
 6919SOL    HW121656   0.224   6.420   2.442
 6919SOL    HW221657   0.351   6.323   2.477
 6920SOL     OW21658   4.840   5.444   5.489
 6920SOL    HW121659   4.876   5.490   5.408
 6920SOL    HW221660   4.786   5.365   5.460
 6921SOL     OW21661   5.563   6.044   3.101
 6921SOL    HW121662   5.554   6.019   3.197
 6921SOL    HW221663   5.509   5.982   3.045
 6922SOL     OW21664   2.109   5.848   6.419
 6922SOL    HW121665   2.058   5.811   6.497
 6922SOL    HW221666   2.099   5.947   6.417
 6923SOL     OW21667   4.941   5.043   3.125
 6923SOL    HW121668   4.898   5.070   3.211
 6923SOL    HW221669   4.914   5.106   3.053
 6924SOL     OW21670   1.652   4.196   6.718
 6924SOL    HW121671   1.691   4.242   6.638
 6924SOL    HW221672   1.723   4.139   6.761
 6925SOL     OW21673   4.002   6.138   4.717
 6925SOL    HW121674   4.008   6.199   4.796
 6925SOL    HW221675   3.913   6.148   4.673
 6926SOL     OW21676   3.100   3.480   1.985
 6926SOL    HW121677   3.096   3.554   1.917
 6926SOL    HW221678   3.007   3.452   2.008
 6927SOL     OW21679   5.619   3.178   6.538
 6927SOL    HW121680   5.569   3.091   6.534
 6927SOL    HW221681   5.636   3.202   6.634
 6928SOL     OW21682   6.059   6.104   0.809
 6928SOL    HW121683   6.134   6.167   0.786
 6928SOL    HW221684   6.010   6.139   0.889
 6929SOL     OW21685   5.326   5.287   0.854
 6929SOL    HW121686   5.365   5.349   0.921
 6929SOL    HW221687   5.288   5.339   0.778
 6930SOL     OW21688   0.278   6.612   2.248
 6930SOL    HW121689   0.344   6.643   2.316
 6930SOL    HW221690   0.322   6.609   2.158
 6931SOL     OW21691   2.015   0.844   2.388
 6931SOL    HW121692   2.096   0.857   2.332
 6931SOL    HW221693   1.999   0.746   2.401
 6932SOL     OW21694   3.668   6.986   0.419
 6932SOL    HW121695   3.756   6.966   0.462
 6932SOL    HW221696   3.684   0.008   0.330
 6933SOL     OW21697   2.984   6.115   5.096
 6933SOL    HW121698   2.985   6.100   4.997
 6933SOL    HW221699   2.898   6.159   5.122
 6934SOL     OW21700   5.147   3.680   6.095
 6934SOL    HW121701   5.128   3.703   6.191
 6934SOL    HW221702   5.183   3.586   6.090
 6935SOL     OW21703   4.473   5.592   3.087
 6935SOL    HW121704   4.541   5.663   3.105
 6935SOL    HW221705   4.489   5.514   3.146
 6936SOL     OW21706   6.656   2.304   3.814
 6936SOL    HW121707   6.749   2.329   3.786
 6936SOL    HW221708   6.607   2.386   3.844
 6937SOL     OW21709   0.207   6.089   0.415
 6937SOL    HW121710   0.218   6.151   0.493
 6937SOL    HW221711   0.275   6.111   0.345
 6938SOL     OW21712   5.216   3.458   5.843
 6938SOL    HW121713   5.234   3.556   5.850
 6938SOL    HW221714   5.121   3.440   5.868
 6939SOL     OW21715   0.748   4.345   1.880
 6939SOL    HW121716   0.771   4.248   1.894
 6939SOL    HW221717   0.695   4.378   1.957
 6940SOL     OW21718   4.678   0.972   0.655
 6940SOL    HW121719   4.588   0.954   0.694
 6940SOL    HW221720   4.680   1.064   0.616
 6941SOL     OW21721   2.914   3.277   2.557
 6941SOL    HW121722   2.934   3.239   2.467
 6941SOL    HW221723   2.999   3.313   2.598
 6942SOL     OW21724   5.940   2.295   1.134
 6942SOL    HW121725   5.845   2.280   1.105
 6942SOL    HW221726   5.944   2.379   1.188
 6943SOL     OW21727   4.725   6.187   6.912
 6943SOL    HW121728   4.754   6.185   6.816
 6943SOL    HW221729   4.666   6.267   6.927
 6944SOL     OW21730   1.071   3.560   6.452
 6944SOL    HW121731   0.973   3.566   6.474
 6944SOL    HW221732   1.113   3.650   6.467
 6945SOL     OW21733   6.715   2.905   6.432
 6945SOL    HW121734   6.737   3.002   6.446
 6945SOL    HW221735   6.793   2.858   6.391
 6946SOL     OW21736   6.296   6.187   1.388
 6946SOL    HW121737   6.283   6.098   1.345
 6946SOL    HW221738   6.243   6.256   1.337
 6947SOL     OW21739   3.436   6.316   5.785
 6947SOL    HW121740   3.473   6.407   5.766
 6947SOL    HW221741   3.339   6.325   5.809
 6948SOL     OW21742   6.796   0.260   6.791
 6948SOL    HW121743   6.891   0.265   6.822
 6948SOL    HW221744   6.745   0.337   6.827
 6949SOL     OW21745   5.421   6.808   3.315
 6949SOL    HW121746   5.340   6.754   3.294
 6949SOL    HW221747   5.422   6.889   3.256
 6950SOL     OW21748   2.480   0.829   3.981
 6950SOL    HW121749   2.409   0.812   4.050
 6950SOL    HW221750   2.474   0.924   3.950
 6951SOL     OW21751   6.643   6.145   5.824
 6951SOL    HW121752   6.573   6.074   5.815
 6951SOL    HW221753   6.696   6.150   5.739
 6952SOL     OW21754   0.218   5.568   3.649
 6952SOL    HW121755   0.257   5.506   3.581
 6952SOL    HW221756   0.293   5.614   3.698
 6953SOL     OW21757   5.088   6.621   6.887
 6953SOL    HW121758   5.081   6.673   6.972
 6953SOL    HW221759   5.004   6.633   6.834
 6954SOL     OW21760   0.488   3.466   3.822
 6954SOL    HW121761   0.441   3.426   3.901
 6954SOL    HW221762   0.422   3.515   3.765
 6955SOL     OW21763   6.443   0.918   1.917
 6955SOL    HW121764   6.490   0.973   1.986
 6955SOL    HW221765   6.443   0.968   1.830
 6956SOL     OW21766   4.865   6.572   3.645
 6956SOL    HW121767   4.889   6.477   3.623
 6956SOL    HW221768   4.771   6.590   3.618
 6957SOL     OW21769   5.986   5.503   0.590
 6957SOL    HW121770   6.056   5.465   0.650
 6957SOL    HW221771   6.025   5.521   0.500
 6958SOL     OW21772   3.242   4.139   4.881
 6958SOL    HW121773   3.272   4.207   4.947
 6958SOL    HW221774   3.253   4.175   4.788
 6959SOL     OW21775   1.903   1.688   4.548
 6959SOL    HW121776   1.945   1.773   4.515
 6959SOL    HW221777   1.822   1.667   4.494
 6960SOL     OW21778   2.115   5.399   1.694
 6960SOL    HW121779   2.207   5.397   1.734
 6960SOL    HW221780   2.122   5.400   1.595
 6961SOL     OW21781   6.025   2.153   4.472
 6961SOL    HW121782   5.948   2.215   4.457
 6961SOL    HW221783   6.102   2.181   4.415
 6962SOL     OW21784   5.485   6.075   1.984
 6962SOL    HW121785   5.439   6.158   1.952
 6962SOL    HW221786   5.426   6.028   2.050
 6963SOL     OW21787   6.054   5.786   1.635
 6963SOL    HW121788   6.005   5.817   1.716
 6963SOL    HW221789   6.009   5.821   1.553
 6964SOL     OW21790   3.471   6.850   5.078
 6964SOL    HW121791   3.473   6.906   4.996
 6964SOL    HW221792   3.495   6.905   5.158
 6965SOL     OW21793   0.646   3.258   0.714
 6965SOL    HW121794   0.606   3.263   0.623
 6965SOL    HW221795   0.743   3.281   0.710
 6966SOL     OW21796   0.072   2.323   3.681
 6966SOL    HW121797   0.046   2.415   3.649
 6966SOL    HW221798   0.133   2.281   3.614
 6967SOL     OW21799   1.312   6.916   5.581
 6967SOL    HW121800   1.292   6.820   5.563
 6967SOL    HW221801   1.352   6.925   5.672
 6968SOL     OW21802   4.457   6.577   2.849
 6968SOL    HW121803   4.382   6.615   2.796
 6968SOL    HW221804   4.539   6.633   2.838
 6969SOL     OW21805   2.667   2.202   1.349
 6969SOL    HW121806   2.646   2.104   1.353
 6969SOL    HW221807   2.753   2.220   1.397
 6970SOL     OW21808   3.015   4.176   6.149
 6970SOL    HW121809   3.102   4.194   6.104
 6970SOL    HW221810   3.031   4.144   6.242
 6971SOL     OW21811   6.301   4.208   1.559
 6971SOL    HW121812   6.207   4.197   1.526
 6971SOL    HW221813   6.298   4.236   1.655
 6972SOL     OW21814   5.770   4.727   3.167
 6972SOL    HW121815   5.750   4.822   3.193
 6972SOL    HW221816   5.762   4.669   3.248
 6973SOL     OW21817   0.480   3.051   5.316
 6973SOL    HW121818   0.462   3.150   5.321
 6973SOL    HW221819   0.518   3.020   5.402
 6974SOL     OW21820   3.104   3.031   2.569
 6974SOL    HW121821   3.006   3.039   2.589
 6974SOL    HW221822   3.156   3.045   2.653
 6975SOL     OW21823   2.004   5.831   6.150
 6975SOL    HW121824   1.946   5.889   6.206
 6975SOL    HW221825   2.043   5.758   6.206
 6976SOL     OW21826   4.647   6.192   4.895
 6976SOL    HW121827   4.737   6.153   4.914
 6976SOL    HW221828   4.644   6.227   4.801
 6977SOL     OW21829   4.339   2.483   1.842
 6977SOL    HW121830   4.400   2.437   1.778
 6977SOL    HW221831   4.384   2.491   1.931
 6978SOL     OW21832   3.957   1.739   2.595
 6978SOL    HW121833   3.882   1.800   2.570
 6978SOL    HW221834   3.945   1.651   2.549
 6979SOL     OW21835   1.482   4.457   1.244
 6979SOL    HW121836   1.550   4.386   1.224
 6979SOL    HW221837   1.462   4.508   1.160
 6980SOL     OW21838   0.918   1.238   3.843
 6980SOL    HW121839   0.913   1.139   3.831
 6980SOL    HW221840   0.832   1.280   3.812
 6981SOL     OW21841   3.988   2.753   5.691
 6981SOL    HW121842   4.035   2.666   5.707
 6981SOL    HW221843   3.895   2.748   5.728
 6982SOL     OW21844   1.542   0.351   4.958
 6982SOL    HW121845   1.470   0.406   4.915
 6982SOL    HW221846   1.531   0.255   4.931
 6983SOL     OW21847   4.186   2.156   3.814
 6983SOL    HW121848   4.135   2.186   3.894
 6983SOL    HW221849   4.277   2.196   3.815
 6984SOL     OW21850   2.418   1.525   4.157
 6984SOL    HW121851   2.482   1.560   4.089
 6984SOL    HW221852   2.412   1.425   4.151
 6985SOL     OW21853   4.462   5.208   1.353
 6985SOL    HW121854   4.519   5.205   1.271
 6985SOL    HW221855   4.387   5.273   1.339
 6986SOL     OW21856   1.893   6.566   6.451
 6986SOL    HW121857   1.830   6.629   6.406
 6986SOL    HW221858   1.975   6.616   6.480
 6987SOL     OW21859   0.064   1.239   5.997
 6987SOL    HW121860   0.057   1.161   5.935
 6987SOL    HW221861   0.149   1.232   6.049
 6988SOL     OW21862   0.215   0.574   5.752
 6988SOL    HW121863   0.185   0.567   5.847
 6988SOL    HW221864   0.197   0.487   5.705
 6989SOL     OW21865   0.372   4.242   2.835
 6989SOL    HW121866   0.410   4.153   2.860
 6989SOL    HW221867   0.289   4.229   2.781
 6990SOL     OW21868   4.836   2.559   1.118
 6990SOL    HW121869   4.817   2.512   1.032
 6990SOL    HW221870   4.765   2.535   1.185
 6991SOL     OW21871   3.542   4.957   3.945
 6991SOL    HW121872   3.452   4.968   3.987
 6991SOL    HW221873   3.532   4.944   3.847
 6992SOL     OW21874   5.157   5.840   5.800
 6992SOL    HW121875   5.085   5.831   5.869
 6992SOL    HW221876   5.170   5.937   5.778
 6993SOL     OW21877   6.371   0.656   3.259
 6993SOL    HW121878   6.369   0.703   3.170
 6993SOL    HW221879   6.341   0.719   3.330
 6994SOL     OW21880   0.222   1.821   4.659
 6994SOL    HW121881   0.162   1.744   4.642
 6994SOL    HW221882   0.282   1.836   4.580
 6995SOL     OW21883   6.839   4.603   5.860
 6995SOL    HW121884   6.768   4.659   5.818
 6995SOL    HW221885   6.926   4.652   5.856
 6996SOL     OW21886   1.489   0.361   6.568
 6996SOL    HW121887   1.480   0.433   6.637
 6996SOL    HW221888   1.462   0.274   6.608
 6997SOL     OW21889   5.979   6.033   5.468
 6997SOL    HW121890   6.046   5.977   5.515
 6997SOL    HW221891   5.899   5.978   5.445
 6998SOL     OW21892   1.694   1.390   1.474
 6998SOL    HW121893   1.662   1.301   1.441
 6998SOL    HW221894   1.708   1.452   1.396
 6999SOL     OW21895   2.511   3.211   5.850
 6999SOL    HW121896   2.479   3.139   5.910
 6999SOL    HW221897   2.502   3.300   5.895
 7000SOL     OW21898   6.514   6.180   1.584
 7000SOL    HW121899   6.595   6.177   1.527
 7000SOL    HW221900   6.432   6.187   1.527
 7001SOL     OW21901   2.081   2.805   5.421
 7001SOL    HW121902   2.145   2.880   5.403
 7001SOL    HW221903   1.987   2.839   5.420
 7002SOL     OW21904   2.017   5.191   3.613
 7002SOL    HW121905   2.074   5.273   3.602
 7002SOL    HW221906   1.985   5.185   3.708
 7003SOL     OW21907   3.738   5.545   0.211
 7003SOL    HW121908   3.701   5.578   0.125
 7003SOL    HW221909   3.740   5.445   0.212
 7004SOL     OW21910   1.203   4.421   2.485
 7004SOL    HW121911   1.234   4.425   2.390
 7004SOL    HW221912   1.148   4.339   2.498
 7005SOL     OW21913   1.480   0.026   0.325
 7005SOL    HW121914   1.480   0.081   0.242
 7005SOL    HW221915   1.475   6.950   0.300
 7006SOL     OW21916   4.660   4.862   3.899
 7006SOL    HW121917   4.651   4.942   3.957
 7006SOL    HW221918   4.745   4.868   3.846
 7007SOL     OW21919   4.800   0.361   3.869
 7007SOL    HW121920   4.730   0.425   3.901
 7007SOL    HW221921   4.833   0.306   3.945
 7008SOL     OW21922   1.118   4.234   4.674
 7008SOL    HW121923   1.110   4.151   4.729
 7008SOL    HW221924   1.145   4.311   4.733
 7009SOL     OW21925   6.091   6.066   1.889
 7009SOL    HW121926   6.044   5.993   1.939
 7009SOL    HW221927   6.182   6.035   1.863
 7010SOL     OW21928   5.262   4.812   4.717
 7010SOL    HW121929   5.271   4.802   4.618
 7010SOL    HW221930   5.166   4.823   4.741
 7011SOL     OW21931   4.152   6.904   6.488
 7011SOL    HW121932   4.094   6.967   6.437
 7011SOL    HW221933   4.237   6.889   6.438
 7012SOL     OW21934   1.986   1.862   1.921
 7012SOL    HW121935   1.977   1.897   1.828
 7012SOL    HW221936   1.995   1.762   1.918
 7013SOL     OW21937   0.759   0.476   0.856
 7013SOL    HW121938   0.709   0.390   0.858
 7013SOL    HW221939   0.791   0.494   0.763
 7014SOL     OW21940   3.850   3.360   1.107
 7014SOL    HW121941   3.849   3.459   1.121
 7014SOL    HW221942   3.768   3.333   1.057
 7015SOL     OW21943   6.155   4.151   2.040
 7015SOL    HW121944   6.119   4.067   2.080
 7015SOL    HW221945   6.101   4.229   2.070
 7016SOL     OW21946   3.640   4.950   1.395
 7016SOL    HW121947   3.735   4.966   1.367
 7016SOL    HW221948   3.637   4.932   1.493
 7017SOL     OW21949   3.144   5.858   3.014
 7017SOL    HW121950   3.139   5.884   2.918
 7017SOL    HW221951   3.115   5.935   3.071
 7018SOL     OW21952   5.746   4.058   4.227
 7018SOL    HW121953   5.782   4.028   4.139
 7018SOL    HW221954   5.655   4.017   4.242
 7019SOL     OW21955   2.872   4.376   6.816
 7019SOL    HW121956   2.962   4.416   6.834
 7019SOL    HW221957   2.837   4.334   6.899
 7020SOL     OW21958   6.090   6.213   6.525
 7020SOL    HW121959   6.109   6.132   6.470
 7020SOL    HW221960   6.171   6.272   6.528
 7021SOL     OW21961   1.710   1.402   6.117
 7021SOL    HW121962   1.675   1.390   6.024
 7021SOL    HW221963   1.760   1.319   6.145
 7022SOL     OW21964   4.326   6.610   6.980
 7022SOL    HW121965   4.239   6.624   6.933
 7022SOL    HW221966   4.350   6.693   0.009
 7023SOL     OW21967   0.221   1.594   3.815
 7023SOL    HW121968   0.132   1.620   3.850
 7023SOL    HW221969   0.221   1.496   3.792
 7024SOL     OW21970   2.357   3.781   5.391
 7024SOL    HW121971   2.373   3.849   5.319
 7024SOL    HW221972   2.445   3.745   5.422
 7025SOL     OW21973   2.390   0.987   6.923
 7025SOL    HW121974   2.460   0.975   6.852
 7025SOL    HW221975   2.372   0.899   6.968
 7026SOL     OW21976   3.388   2.281   1.757
 7026SOL    HW121977   3.476   2.274   1.805
 7026SOL    HW221978   3.320   2.227   1.806
 7027SOL     OW21979   2.558   5.091   4.485
 7027SOL    HW121980   2.466   5.073   4.520
 7027SOL    HW221981   2.591   5.010   4.436
 7028SOL     OW21982   4.101   1.058   4.058
 7028SOL    HW121983   4.037   1.131   4.033
 7028SOL    HW221984   4.061   0.969   4.037
 7029SOL     OW21985   5.204   4.602   5.490
 7029SOL    HW121986   5.258   4.666   5.545
 7029SOL    HW221987   5.236   4.605   5.395
 7030SOL     OW21988   1.181   1.552   5.495
 7030SOL    HW121989   1.215   1.636   5.537
 7030SOL    HW221990   1.084   1.541   5.517
 7031SOL     OW21991   2.408   6.232   5.190
 7031SOL    HW121992   2.441   6.245   5.283
 7031SOL    HW221993   2.417   6.318   5.139
 7032SOL     OW21994   3.277   0.853   2.855
 7032SOL    HW121995   3.246   0.822   2.765
 7032SOL    HW221996   3.314   0.776   2.907
 7033SOL     OW21997   1.697   2.327   3.268
 7033SOL    HW121998   1.725   2.385   3.345
 7033SOL    HW221999   1.649   2.382   3.200
 7034SOL     OW22000   5.759   0.434   3.123
 7034SOL    HW122001   5.689   0.365   3.141
 7034SOL    HW222002   5.849   0.399   3.150
 7035SOL     OW22003   2.040   6.746   1.767
 7035SOL    HW122004   2.075   6.684   1.697
 7035SOL    HW222005   1.975   6.698   1.826
 7036SOL     OW22006   0.487   0.849   2.328
 7036SOL    HW122007   0.560   0.886   2.385
 7036SOL    HW222008   0.510   0.863   2.231
 7037SOL     OW22009   2.014   1.080   6.375
 7037SOL    HW122010   1.980   1.017   6.445
 7037SOL    HW222011   2.059   1.027   6.303
 7038SOL     OW22012   1.925   3.439   5.209
 7038SOL    HW122013   1.931   3.340   5.200
 7038SOL    HW222014   2.016   3.479   5.199
 7039SOL     OW22015   2.645   4.651   1.421
 7039SOL    HW122016   2.650   4.750   1.428
 7039SOL    HW222017   2.691   4.610   1.499
 7040SOL     OW22018   6.317   2.070   4.802
 7040SOL    HW122019   6.234   2.124   4.794
 7040SOL    HW222020   6.294   1.976   4.828
 7041SOL     OW22021   0.030   1.841   2.174
 7041SOL    HW122022   0.092   1.803   2.106
 7041SOL    HW222023   0.078   1.910   2.229
 7042SOL     OW22024   5.342   4.575   5.226
 7042SOL    HW122025   5.407   4.638   5.269
 7042SOL    HW222026   5.390   4.519   5.158
 7043SOL     OW22027   2.114   3.389   2.576
 7043SOL    HW122028   2.127   3.337   2.491
 7043SOL    HW222029   2.126   3.486   2.558
 7044SOL     OW22030   4.469   4.519   3.297
 7044SOL    HW122031   4.548   4.548   3.242
 7044SOL    HW222032   4.385   4.550   3.253
 7045SOL     OW22033   5.318   5.076   3.432
 7045SOL    HW122034   5.327   5.107   3.337
 7045SOL    HW222035   5.374   5.133   3.492
 7046SOL     OW22036   3.235   1.740   2.922
 7046SOL    HW122037   3.230   1.830   2.965
 7046SOL    HW222038   3.198   1.745   2.830
 7047SOL     OW22039   0.075   2.367   2.162
 7047SOL    HW122040   0.113   2.415   2.241
 7047SOL    HW222041   0.107   2.272   2.163
 7048SOL     OW22042   5.837   5.915   2.627
 7048SOL    HW122043   5.928   5.951   2.649
 7048SOL    HW222044   5.767   5.978   2.660
 7049SOL     OW22045   3.604   1.234   1.103
 7049SOL    HW122046   3.518   1.265   1.062
 7049SOL    HW222047   3.679   1.252   1.040
 7050SOL     OW22048   3.896   3.879   1.931
 7050SOL    HW122049   3.939   3.789   1.940
 7050SOL    HW222050   3.889   3.921   2.021
 7051SOL     OW22051   0.104   0.126   2.072
 7051SOL    HW122052   0.129   0.082   2.158
 7051SOL    HW222053   0.029   0.075   2.029
 7052SOL     OW22054   5.640   2.476   3.634
 7052SOL    HW122055   5.605   2.565   3.605
 7052SOL    HW222056   5.728   2.459   3.589
 7053SOL     OW22057   0.630   3.333   5.078
 7053SOL    HW122058   0.662   3.253   5.129
 7053SOL    HW222059   0.568   3.386   5.135
 7054SOL     OW22060   0.589   0.105   0.402
 7054SOL    HW122061   0.677   0.064   0.375
 7054SOL    HW222062   0.514   0.046   0.372
 7055SOL     OW22063   2.969   6.693   5.377
 7055SOL    HW122064   2.902   6.738   5.436
 7055SOL    HW222065   2.948   6.714   5.281
 7056SOL     OW22066   0.023   5.565   1.960
 7056SOL    HW122067   0.066   5.627   1.894
 7056SOL    HW222068   6.946   5.561   1.942
 7057SOL     OW22069   0.964   5.731   3.958
 7057SOL    HW122070   0.871   5.704   3.984
 7057SOL    HW222071   1.025   5.721   4.037
 7058SOL     OW22072   6.370   5.187   6.280
 7058SOL    HW122073   6.360   5.091   6.304
 7058SOL    HW222074   6.398   5.239   6.360
 7059SOL     OW22075   0.041   0.733   4.241
 7059SOL    HW122076   7.003   0.813   4.234
 7059SOL    HW222077   0.130   0.754   4.200
 7060SOL     OW22078   4.230   0.308   2.072
 7060SOL    HW122079   4.318   0.287   2.030
 7060SOL    HW222080   4.230   0.278   2.167
 7061SOL     OW22081   0.873   2.919   3.722
 7061SOL    HW122082   0.959   2.906   3.771
 7061SOL    HW222083   0.800   2.940   3.787
 7062SOL     OW22084   4.386   1.431   5.034
 7062SOL    HW122085   4.355   1.337   5.048
 7062SOL    HW222086   4.410   1.472   5.121
 7063SOL     OW22087   1.222   0.247   1.906
 7063SOL    HW122088   1.266   0.158   1.892
 7063SOL    HW222089   1.123   0.237   1.896
 7064SOL     OW22090   3.708   2.182   1.479
 7064SOL    HW122091   3.708   2.215   1.384
 7064SOL    HW222092   3.769   2.240   1.534
 7065SOL     OW22093   3.779   3.945   5.984
 7065SOL    HW122094   3.850   4.015   5.974
 7065SOL    HW222095   3.724   3.941   5.900
 7066SOL     OW22096   4.718   0.558   0.351
 7066SOL    HW122097   4.649   0.539   0.281
 7066SOL    HW222098   4.754   0.471   0.386
 7067SOL     OW22099   2.237   2.116   4.865
 7067SOL    HW122100   2.206   2.129   4.959
 7067SOL    HW222101   2.195   2.034   4.827
 7068SOL     OW22102   0.347   4.162   3.977
 7068SOL    HW122103   0.299   4.093   3.922
 7068SOL    HW222104   0.374   4.121   4.065
 7069SOL     OW22105   5.773   1.132   4.564
 7069SOL    HW122106   5.782   1.205   4.633
 7069SOL    HW222107   5.680   1.095   4.566
 7070SOL     OW22108   6.781   6.107   4.805
 7070SOL    HW122109   6.723   6.187   4.789
 7070SOL    HW222110   6.827   6.116   4.893
 7071SOL     OW22111   2.498   5.798   6.646
 7071SOL    HW122112   2.591   5.794   6.609
 7071SOL    HW222113   2.487   5.728   6.717
 7072SOL     OW22114   1.404   6.202   6.953
 7072SOL    HW122115   1.317   6.193   7.001
 7072SOL    HW222116   1.388   6.237   6.861
 7073SOL     OW22117   4.604   0.056   4.481
 7073SOL    HW122118   4.533   7.007   4.488
 7073SOL    HW222119   4.629   0.086   4.573
 7074SOL     OW22120   4.863   2.556   2.560
 7074SOL    HW122121   4.802   2.487   2.597
 7074SOL    HW222122   4.830   2.586   2.470
 7075SOL     OW22123   1.449   4.304   5.006
 7075SOL    HW122124   1.458   4.351   5.094
 7075SOL    HW222125   1.380   4.233   5.014
 7076SOL     OW22126   5.778   1.892   6.378
 7076SOL    HW122127   5.852   1.826   6.365
 7076SOL    HW222128   5.757   1.937   6.292
 7077SOL     OW22129   2.385   4.389   3.900
 7077SOL    HW122130   2.381   4.464   3.834
 7077SOL    HW222131   2.473   4.392   3.949
 7078SOL     OW22132   0.241   6.666   1.567
 7078SOL    HW122133   0.245   6.727   1.646
 7078SOL    HW222134   0.156   6.682   1.517
 7079SOL     OW22135   6.767   6.206   3.989
 7079SOL    HW122136   6.744   6.287   3.934
 7079SOL    HW222137   6.829   6.233   4.063
 7080SOL     OW22138   3.100   1.447   4.746
 7080SOL    HW122139   3.195   1.422   4.724
 7080SOL    HW222140   3.096   1.543   4.772
 7081SOL     OW22141   3.381   6.615   6.719
 7081SOL    HW122142   3.379   6.714   6.736
 7081SOL    HW222143   3.362   6.566   6.803
 7082SOL     OW22144   6.718   4.038   6.881
 7082SOL    HW122145   6.620   4.032   6.902
 7082SOL    HW222146   6.730   4.079   6.790
 7083SOL     OW22147   2.961   0.179   0.547
 7083SOL    HW122148   2.924   0.189   0.639
 7083SOL    HW222149   2.989   0.269   0.513
 7084SOL     OW22150   0.288   6.121   6.004
 7084SOL    HW122151   0.219   6.188   5.978
 7084SOL    HW222152   0.377   6.166   6.015
 7085SOL     OW22153   0.909   1.622   1.960
 7085SOL    HW122154   0.872   1.532   1.979
 7085SOL    HW222155   0.992   1.613   1.905
 7086SOL     OW22156   5.214   0.633   5.353
 7086SOL    HW122157   5.238   0.662   5.260
 7086SOL    HW222158   5.298   0.615   5.405
 7087SOL     OW22159   6.098   3.463   4.484
 7087SOL    HW122160   6.171   3.400   4.512
 7087SOL    HW222161   6.021   3.456   4.547
 7088SOL     OW22162   5.768   2.760   3.574
 7088SOL    HW122163   5.796   2.789   3.483
 7088SOL    HW222164   5.679   2.800   3.596
 7089SOL     OW22165   2.814   2.248   4.594
 7089SOL    HW122166   2.818   2.337   4.640
 7089SOL    HW222167   2.843   2.177   4.657
 7090SOL     OW22168   2.119   0.596   6.637
 7090SOL    HW122169   2.097   0.506   6.600
 7090SOL    HW222170   2.095   0.666   6.570
 7091SOL     OW22171   0.578   1.538   6.956
 7091SOL    HW122172   0.554   1.465   6.891
 7091SOL    HW222173   0.601   1.497   0.023
 7092SOL     OW22174   4.420   3.149   5.915
 7092SOL    HW122175   4.478   3.069   5.930
 7092SOL    HW222176   4.326   3.119   5.896
 7093SOL     OW22177   2.994   3.792   3.147
 7093SOL    HW122178   3.032   3.869   3.095
 7093SOL    HW222179   3.042   3.708   3.120
 7094SOL     OW22180   6.836   6.361   5.958
 7094SOL    HW122181   6.811   6.453   5.927
 7094SOL    HW222182   6.758   6.299   5.943
 7095SOL     OW22183   3.803   4.243   5.992
 7095SOL    HW122184   3.705   4.220   6.000
 7095SOL    HW222185   3.813   4.341   5.977
 7096SOL     OW22186   6.239   0.377   3.506
 7096SOL    HW122187   6.255   0.294   3.560
 7096SOL    HW222188   6.305   0.447   3.533
 7097SOL     OW22189   5.903   2.143   1.415
 7097SOL    HW122190   5.960   2.089   1.476
 7097SOL    HW222191   5.961   2.187   1.346
 7098SOL     OW22192   1.367   6.032   5.294
 7098SOL    HW122193   1.440   5.990   5.240
 7098SOL    HW222194   1.297   5.964   5.314
 7099SOL     OW22195   3.652   1.321   5.306
 7099SOL    HW122196   3.559   1.329   5.272
 7099SOL    HW222197   3.684   1.226   5.296
 7100SOL     OW22198   5.306   3.097   1.087
 7100SOL    HW122199   5.271   3.032   1.019
 7100SOL    HW222200   5.243   3.103   1.164
 7101SOL     OW22201   1.922   0.632   4.757
 7101SOL    HW122202   1.983   0.695   4.807
 7101SOL    HW222203   1.930   0.650   4.659
 7102SOL     OW22204   5.544   6.482   0.627
 7102SOL    HW122205   5.521   6.556   0.564
 7102SOL    HW222206   5.640   6.488   0.653
 7103SOL     OW22207   4.987   4.608   1.602
 7103SOL    HW122208   4.922   4.648   1.667
 7103SOL    HW222209   4.981   4.508   1.607
 7104SOL     OW22210   7.013   2.684   4.203
 7104SOL    HW122211   0.006   2.690   4.301
 7104SOL    HW222212   0.026   2.768   4.159
 7105SOL     OW22213   2.842   2.866   5.683
 7105SOL    HW122214   2.856   2.952   5.634
 7105SOL    HW222215   2.801   2.799   5.622
 7106SOL     OW22216   4.079   3.431   3.122
 7106SOL    HW122217   4.112   3.500   3.057
 7106SOL    HW222218   4.097   3.340   3.085
 7107SOL     OW22219   4.332   1.145   0.679
 7107SOL    HW122220   4.388   1.157   0.760
 7107SOL    HW222221   4.369   1.071   0.622
 7108SOL     OW22222   4.237   5.840   2.866
 7108SOL    HW122223   4.170   5.785   2.917
 7108SOL    HW222224   4.294   5.892   2.930
 7109SOL     OW22225   2.868   0.342   5.962
 7109SOL    HW122226   2.786   0.313   5.913
 7109SOL    HW222227   2.903   0.427   5.922
 7110SOL     OW22228   2.991   5.762   4.321
 7110SOL    HW122229   2.997   5.819   4.403
 7110SOL    HW222230   3.031   5.811   4.244
 7111SOL     OW22231   1.161   2.884   4.861
 7111SOL    HW122232   1.072   2.921   4.836
 7111SOL    HW222233   1.166   2.874   4.960
 7112SOL     OW22234   1.646   4.953   4.672
 7112SOL    HW122235   1.572   4.888   4.656
 7112SOL    HW222236   1.609   5.045   4.679
 7113SOL     OW22237   4.081   3.578   4.822
 7113SOL    HW122238   4.059   3.630   4.905
 7113SOL    HW222239   4.059   3.482   4.837
 7114SOL     OW22240   4.778   6.306   1.480
 7114SOL    HW122241   4.844   6.330   1.550
 7114SOL    HW222242   4.685   6.326   1.512
 7115SOL     OW22243   5.273   3.338   1.435
 7115SOL    HW122244   5.219   3.421   1.428
 7115SOL    HW222245   5.221   3.261   1.398
 7116SOL     OW22246   6.296   3.844   3.432
 7116SOL    HW122247   6.381   3.893   3.456
 7116SOL    HW222248   6.260   3.881   3.347
 7117SOL     OW22249   0.447   6.226   5.136
 7117SOL    HW122250   0.532   6.177   5.120
 7117SOL    HW222251   0.372   6.181   5.087
 7118SOL     OW22252   3.059   4.741   0.624
 7118SOL    HW122253   3.069   4.662   0.563
 7118SOL    HW222254   3.132   4.807   0.606
 7119SOL     OW22255   4.932   2.526   3.704
 7119SOL    HW122256   4.866   2.466   3.748
 7119SOL    HW222257   5.025   2.494   3.724
 7120SOL     OW22258   3.695   1.518   2.344
 7120SOL    HW122259   3.698   1.441   2.280
 7120SOL    HW222260   3.600   1.540   2.365
 7121SOL     OW22261   0.878   0.206   3.210
 7121SOL    HW122262   0.918   0.142   3.276
 7121SOL    HW222263   0.934   0.208   3.128
 7122SOL     OW22264   0.949   0.358   5.457
 7122SOL    HW122265   1.048   0.355   5.463
 7122SOL    HW222266   0.911   0.401   5.539
 7123SOL     OW22267   1.686   4.010   3.171
 7123SOL    HW122268   1.746   4.064   3.112
 7123SOL    HW222269   1.600   3.993   3.123
 7124SOL     OW22270   6.893   1.997   1.051
 7124SOL    HW122271   6.802   2.028   1.026
 7124SOL    HW222272   6.888   1.906   1.092
 7125SOL     OW22273   0.150   6.673   1.068
 7125SOL    HW122274   0.147   6.597   1.132
 7125SOL    HW222275   0.184   6.642   0.979
 7126SOL     OW22276   3.613   5.163   0.212
 7126SOL    HW122277   3.632   5.065   0.211
 7126SOL    HW222278   3.518   5.179   0.185
 7127SOL     OW22279   1.533   5.012   5.593
 7127SOL    HW122280   1.630   5.005   5.618
 7127SOL    HW222281   1.487   5.072   5.658
 7128SOL     OW22282   2.660   5.035   0.127
 7128SOL    HW122283   2.663   4.935   0.135
 7128SOL    HW222284   2.705   5.075   0.206
 7129SOL     OW22285   2.131   1.817   6.955
 7129SOL    HW122286   2.076   1.738   6.981
 7129SOL    HW222287   2.227   1.791   6.951
 7130SOL     OW22288   4.258   5.680   5.030
 7130SOL    HW122289   4.305   5.602   4.989
 7130SOL    HW222290   4.174   5.699   4.978
 7131SOL     OW22291   2.811   0.204   0.817
 7131SOL    HW122292   2.828   0.105   0.823
 7131SOL    HW222293   2.837   0.248   0.903
 7132SOL     OW22294   4.380   4.485   6.857
 7132SOL    HW122295   4.284   4.499   6.880
 7132SOL    HW222296   4.433   4.564   6.885
 7133SOL     OW22297   4.996   5.831   6.008
 7133SOL    HW122298   5.019   5.856   6.102
 7133SOL    HW222299   4.963   5.736   6.005
 7134SOL     OW22300   5.031   6.962   1.932
 7134SOL    HW122301   5.116   6.973   1.983
 7134SOL    HW222302   4.998   0.031   1.903
 7135SOL     OW22303   1.555   3.004   3.180
 7135SOL    HW122304   1.622   3.006   3.106
 7135SOL    HW222305   1.468   3.040   3.148
 7136SOL     OW22306   2.379   2.891   1.116
 7136SOL    HW122307   2.424   2.803   1.100
 7136SOL    HW222308   2.395   2.920   1.210
 7137SOL     OW22309   4.172   0.179   6.365
 7137SOL    HW122310   4.135   0.271   6.375
 7137SOL    HW222311   4.257   0.171   6.418
 7138SOL     OW22312   2.177   2.669   0.194
 7138SOL    HW122313   2.096   2.652   0.250
 7138SOL    HW222314   2.194   2.768   0.188
 7139SOL     OW22315   5.828   4.376   1.553
 7139SOL    HW122316   5.864   4.427   1.475
 7139SOL    HW222317   5.903   4.330   1.601
 7140SOL     OW22318   6.171   3.999   3.174
 7140SOL    HW122319   6.232   3.992   3.095
 7140SOL    HW222320   6.110   4.077   3.162
 7141SOL     OW22321   3.697   5.888   0.992
 7141SOL    HW122322   3.781   5.834   0.993
 7141SOL    HW222323   3.618   5.826   0.992
 7142SOL     OW22324   4.323   0.291   3.387
 7142SOL    HW122325   4.281   0.335   3.467
 7142SOL    HW222326   4.291   0.336   3.304
 7143SOL     OW22327   1.152   2.475   5.962
 7143SOL    HW122328   1.250   2.456   5.971
 7143SOL    HW222329   1.139   2.557   5.906
 7144SOL     OW22330   1.922   2.593   2.048
 7144SOL    HW122331   1.971   2.681   2.043
 7144SOL    HW222332   1.828   2.606   2.018
 7145SOL     OW22333   4.668   0.193   0.250
 7145SOL    HW122334   4.616   0.263   0.200
 7145SOL    HW222335   4.759   0.228   0.272
 7146SOL     OW22336   2.144   0.124   0.753
 7146SOL    HW122337   2.054   0.158   0.724
 7146SOL    HW222338   2.148   0.123   0.853
 7147SOL     OW22339   7.016   6.858   2.995
 7147SOL    HW122340   6.920   6.847   3.020
 7147SOL    HW222341   0.001   6.898   2.904
 7148SOL     OW22342   0.507   5.949   0.902
 7148SOL    HW122343   0.443   5.880   0.935
 7148SOL    HW222344   0.543   5.922   0.813
 7149SOL     OW22345   6.202   6.164   3.275
 7149SOL    HW122346   6.160   6.253   3.293
 7149SOL    HW222347   6.131   6.099   3.248
 7150SOL     OW22348   3.167   2.486   1.735
 7150SOL    HW122349   3.093   2.491   1.802
 7150SOL    HW222350   3.212   2.397   1.740
 7151SOL     OW22351   2.653   5.979   0.515
 7151SOL    HW122352   2.721   6.051   0.526
 7151SOL    HW222353   2.668   5.908   0.585
 7152SOL     OW22354   0.729   0.700   5.231
 7152SOL    HW122355   0.803   0.707   5.297
 7152SOL    HW222356   0.667   0.778   5.241
 7153SOL     OW22357   3.812   5.465   1.625
 7153SOL    HW122358   3.735   5.524   1.601
 7153SOL    HW222359   3.816   5.388   1.561
 7154SOL     OW22360   4.497   0.202   3.850
 7154SOL    HW122361   4.551   0.179   3.931
 7154SOL    HW222362   4.500   0.126   3.785
 7155SOL     OW22363   2.006   3.510   1.334
 7155SOL    HW122364   2.084   3.570   1.318
 7155SOL    HW222365   2.026   3.419   1.298
 7156SOL     OW22366   6.830   3.348   3.972
 7156SOL    HW122367   6.766   3.406   3.923
 7156SOL    HW222368   6.839   3.260   3.924
 7157SOL     OW22369   0.470   3.819   1.437
 7157SOL    HW122370   0.509   3.730   1.462
 7157SOL    HW222371   0.371   3.815   1.443
 7158SOL     OW22372   1.566   0.081   4.008
 7158SOL    HW122373   1.495   0.101   3.941
 7158SOL    HW222374   1.611   7.016   3.984
 7159SOL     OW22375   0.404   5.128   2.522
 7159SOL    HW122376   0.465   5.115   2.444
 7159SOL    HW222377   0.370   5.040   2.553
 7160SOL     OW22378   5.517   0.318   2.578
 7160SOL    HW122379   5.615   0.326   2.561
 7160SOL    HW222380   5.502   0.272   2.665
 7161SOL     OW22381   3.100   4.046   4.167
 7161SOL    HW122382   3.058   4.020   4.081
 7161SOL    HW222383   3.037   4.028   4.243
 7162SOL     OW22384   1.019   5.231   6.304
 7162SOL    HW122385   1.074   5.223   6.388
 7162SOL    HW222386   1.026   5.324   6.269
 7163SOL     OW22387   3.062   6.718   2.369
 7163SOL    HW122388   3.157   6.746   2.352
 7163SOL    HW222389   3.055   6.674   2.458
 7164SOL     OW22390   2.037   0.530   3.988
 7164SOL    HW122391   2.083   0.530   4.077
 7164SOL    HW222392   2.095   0.573   3.920
 7165SOL     OW22393   6.362   1.086   2.644
 7165SOL    HW122394   6.287   1.082   2.578
 7165SOL    HW222395   6.427   1.157   2.617
 7166SOL     OW22396   5.632   2.056   1.122
 7166SOL    HW122397   5.549   2.052   1.178
 7166SOL    HW222398   5.645   2.150   1.090
 7167SOL     OW22399   5.417   3.628   4.128
 7167SOL    HW122400   5.478   3.598   4.201
 7167SOL    HW222401   5.324   3.598   4.148
 7168SOL     OW22402   1.349   3.073   2.908
 7168SOL    HW122403   1.374   3.009   2.836
 7168SOL    HW222404   1.295   3.026   2.978
 7169SOL     OW22405   0.541   2.750   5.230
 7169SOL    HW122406   0.461   2.696   5.257
 7169SOL    HW222407   0.541   2.837   5.279
 7170SOL     OW22408   4.864   0.254   4.120
 7170SOL    HW122409   4.912   0.307   4.191
 7170SOL    HW222410   4.913   0.168   4.104
 7171SOL     OW22411   5.860   3.774   0.454
 7171SOL    HW122412   5.868   3.691   0.400
 7171SOL    HW222413   5.763   3.797   0.465
 7172SOL     OW22414   1.183   6.815   4.555
 7172SOL    HW122415   1.272   6.801   4.511
 7172SOL    HW222416   1.127   6.876   4.498
 7173SOL     OW22417   6.814   4.313   6.428
 7173SOL    HW122418   6.809   4.409   6.401
 7173SOL    HW222419   6.820   4.256   6.346
 7174SOL     OW22420   1.509   4.083   0.062
 7174SOL    HW122421   1.465   4.064   6.995
 7174SOL    HW222422   1.521   4.182   0.073
 7175SOL     OW22423   5.600   2.726   6.661
 7175SOL    HW122424   5.605   2.644   6.604
 7175SOL    HW222425   5.549   2.797   6.612
 7176SOL     OW22426   0.053   0.237   3.210
 7176SOL    HW122427   6.979   0.210   3.224
 7176SOL    HW222428   0.060   0.336   3.208
 7177SOL     OW22429   1.472   5.183   4.717
 7177SOL    HW122430   1.389   5.238   4.710
 7177SOL    HW222431   1.525   5.214   4.796
 7178SOL     OW22432   1.412   2.005   6.003
 7178SOL    HW122433   1.389   1.972   5.911
 7178SOL    HW222434   1.328   2.016   6.056
 7179SOL     OW22435   1.956   3.761   4.774
 7179SOL    HW122436   1.916   3.704   4.846
 7179SOL    HW222437   2.028   3.817   4.814
 7180SOL     OW22438   1.966   5.264   0.745
 7180SOL    HW122439   1.977   5.358   0.711
 7180SOL    HW222440   1.872   5.234   0.730
 7181SOL     OW22441   2.074   6.738   0.199
 7181SOL    HW122442   2.129   6.786   0.130
 7181SOL    HW222443   2.046   6.802   0.270
 7182SOL     OW22444   0.567   2.651   4.906
 7182SOL    HW122445   0.625   2.588   4.854
 7182SOL    HW222446   0.491   2.601   4.946
 7183SOL     OW22447   2.202   6.030   0.208
 7183SOL    HW122448   2.287   6.002   0.252
 7183SOL    HW222449   2.186   5.972   0.128
 7184SOL     OW22450   0.077   0.983   3.738
 7184SOL    HW122451   0.068   0.982   3.838
 7184SOL    HW222452   0.075   1.077   3.705
 7185SOL     OW22453   5.668   7.004   5.016
 7185SOL    HW122454   5.724   0.066   5.017
 7185SOL    HW222455   5.615   6.999   5.100
 7186SOL     OW22456   6.701   1.819   0.523
 7186SOL    HW122457   6.668   1.831   0.617
 7186SOL    HW222458   6.633   1.768   0.470
 7187SOL     OW22459   4.223   4.744   6.306
 7187SOL    HW122460   4.269   4.697   6.382
 7187SOL    HW222461   4.205   4.679   6.232
 7188SOL     OW22462   6.058   0.826   0.155
 7188SOL    HW122463   6.058   0.844   0.056
 7188SOL    HW222464   6.135   0.873   0.197
 7189SOL     OW22465   0.072   1.040   5.800
 7189SOL    HW122466   0.066   0.950   5.844
 7189SOL    HW222467   0.002   1.048   5.730
 7190SOL     OW22468   0.551   3.297   2.661
 7190SOL    HW122469   0.459   3.262   2.676
 7190SOL    HW222470   0.557   3.338   2.570
 7191SOL     OW22471   0.771   4.428   2.885
 7191SOL    HW122472   0.693   4.400   2.942
 7191SOL    HW222473   0.738   4.487   2.811
 7192SOL     OW22474   2.655   4.394   5.883
 7192SOL    HW122475   2.573   4.449   5.897
 7192SOL    HW222476   2.734   4.442   5.921
 7193SOL     OW22477   0.685   2.363   2.246
 7193SOL    HW122478   0.759   2.430   2.243
 7193SOL    HW222479   0.723   2.272   2.262
 7194SOL     OW22480   2.702   2.043   0.112
 7194SOL    HW122481   2.748   2.019   0.198
 7194SOL    HW222482   2.603   2.041   0.126
 7195SOL     OW22483   0.285   3.962   6.643
 7195SOL    HW122484   0.285   3.999   6.736
 7195SOL    HW222485   0.192   3.964   6.606
 7196SOL     OW22486   3.112   4.155   1.395
 7196SOL    HW122487   3.061   4.086   1.446
 7196SOL    HW222488   3.090   4.148   1.298
 7197SOL     OW22489   0.394   2.419   6.343
 7197SOL    HW122490   0.351   2.471   6.269
 7197SOL    HW222491   0.488   2.397   6.317
 7198SOL     OW22492   6.760   0.667   0.595
 7198SOL    HW122493   6.841   0.673   0.537
 7198SOL    HW222494   6.787   0.657   0.691
 7199SOL     OW22495   1.918   0.724   2.097
 7199SOL    HW122496   1.954   0.677   2.178
 7199SOL    HW222497   1.856   0.663   2.048
 7200SOL     OW22498   2.451   2.559   6.562
 7200SOL    HW122499   2.390   2.508   6.623
 7200SOL    HW222500   2.415   2.651   6.549
 7201SOL     OW22501   0.940   5.498   5.067
 7201SOL    HW122502   0.865   5.479   5.131
 7201SOL    HW222503   0.919   5.455   4.979
 7202SOL     OW22504   5.043   0.021   6.990
 7202SOL    HW122505   4.983   0.025   6.911
 7202SOL    HW222506   5.041   6.950   0.008
 7203SOL     OW22507   0.633   1.770   1.051
 7203SOL    HW122508   0.606   1.723   1.135
 7203SOL    HW222509   0.557   1.825   1.017
 7204SOL     OW22510   0.532   7.007   5.482
 7204SOL    HW122511   0.444   6.982   5.444
 7204SOL    HW222512   0.600   7.015   5.409
 7205SOL     OW22513   0.875   4.988   3.995
 7205SOL    HW122514   0.818   5.055   4.043
 7205SOL    HW222515   0.960   4.974   4.045
 7206SOL     OW22516   1.244   0.519   1.782
 7206SOL    HW122517   1.158   0.569   1.788
 7206SOL    HW222518   1.235   0.433   1.833
 7207SOL     OW22519   3.719   0.199   2.723
 7207SOL    HW122520   3.774   0.261   2.779
 7207SOL    HW222521   3.691   0.245   2.639
 7208SOL     OW22522   4.217   0.038   3.139
 7208SOL    HW122523   4.287   0.108   3.127
 7208SOL    HW222524   4.132   0.081   3.171
 7209SOL     OW22525   3.178   3.487   1.421
 7209SOL    HW122526   3.230   3.438   1.492
 7209SOL    HW222527   3.092   3.441   1.404
 7210SOL     OW22528   4.491   1.019   3.933
 7210SOL    HW122529   4.500   1.062   3.843
 7210SOL    HW222530   4.453   1.085   3.998
 7211SOL     OW22531   3.110   6.333   4.280
 7211SOL    HW122532   3.043   6.350   4.352
 7211SOL    HW222533   3.165   6.415   4.266
 7212SOL     OW22534   0.423   5.964   4.790
 7212SOL    HW122535   0.356   5.895   4.763
 7212SOL    HW222536   0.414   6.045   4.732
 7213SOL     OW22537   5.295   6.121   0.303
 7213SOL    HW122538   5.380   6.088   0.344
 7213SOL    HW222539   5.297   6.221   0.298
 7214SOL     OW22540   6.465   5.920   5.751
 7214SOL    HW122541   6.533   5.848   5.738
 7214SOL    HW222542   6.427   5.947   5.662
 7215SOL     OW22543   0.203   3.865   5.179
 7215SOL    HW122544   0.120   3.914   5.205
 7215SOL    HW222545   0.192   3.768   5.200
 7216SOL     OW22546   3.206   6.284   6.857
 7216SOL    HW122547   3.194   6.371   6.906
 7216SOL    HW222548   3.297   6.283   6.815
 7217SOL     OW22549   2.287   4.191   3.241
 7217SOL    HW122550   2.371   4.241   3.218
 7217SOL    HW222551   2.208   4.250   3.221
 7218SOL     OW22552   5.401   2.752   5.222
 7218SOL    HW122553   5.401   2.656   5.194
 7218SOL    HW222554   5.307   2.788   5.217
 7219SOL     OW22555   4.528   0.419   3.688
 7219SOL    HW122556   4.569   0.477   3.758
 7219SOL    HW222557   4.522   0.325   3.721
 7220SOL     OW22558   1.092   5.087   5.371
 7220SOL    HW122559   1.029   5.091   5.293
 7220SOL    HW222560   1.144   5.171   5.376
 7221SOL     OW22561   3.436   6.077   4.881
 7221SOL    HW122562   3.421   5.980   4.902
 7221SOL    HW222563   3.454   6.088   4.783
 7222SOL     OW22564   5.958   0.122   3.100
 7222SOL    HW122565   6.007   0.160   3.178
 7222SOL    HW222566   5.866   0.096   3.127
 7223SOL     OW22567   2.862   1.120   1.142
 7223SOL    HW122568   2.936   1.146   1.204
 7223SOL    HW222569   2.792   1.192   1.142
 7224SOL     OW22570   5.695   1.633   3.579
 7224SOL    HW122571   5.698   1.700   3.505
 7224SOL    HW222572   5.708   1.679   3.667
 7225SOL     OW22573   1.092   5.484   0.307
 7225SOL    HW122574   1.130   5.413   0.366
 7225SOL    HW222575   1.155   5.561   0.303
 7226SOL     OW22576   6.645   1.234   0.924
 7226SOL    HW122577   6.547   1.250   0.916
 7226SOL    HW222578   6.680   1.281   1.005
 7227SOL     OW22579   1.445   1.350   1.078
 7227SOL    HW122580   1.518   1.380   1.018
 7227SOL    HW222581   1.428   1.421   1.147
 7228SOL     OW22582   1.073   1.966   2.813
 7228SOL    HW122583   1.135   2.026   2.863
 7228SOL    HW222584   0.978   1.995   2.829
 7229SOL     OW22585   1.371   6.013   5.869
 7229SOL    HW122586   1.461   6.021   5.826
 7229SOL    HW222587   1.364   5.926   5.917
 7230SOL     OW22588   3.905   5.323   4.223
 7230SOL    HW122589   3.806   5.313   4.213
 7230SOL    HW222590   3.937   5.400   4.168
 7231SOL     OW22591   4.241   0.903   6.994
 7231SOL    HW122592   4.294   0.905   6.909
 7231SOL    HW222593   4.235   0.809   0.006
 7232SOL     OW22594   5.309   5.870   3.131
 7232SOL    HW122595   5.358   5.784   3.147
 7232SOL    HW222596   5.219   5.851   3.093
 7233SOL     OW22597   0.244   1.522   4.172
 7233SOL    HW122598   0.291   1.590   4.116
 7233SOL    HW222599   0.146   1.527   4.154
 7234SOL     OW22600   5.711   3.182   3.520
 7234SOL    HW122601   5.771   3.121   3.468
 7234SOL    HW222602   5.755   3.205   3.607
 7235SOL     OW22603   6.790   4.339   2.049
 7235SOL    HW122604   6.841   4.322   1.964
 7235SOL    HW222605   6.692   4.334   2.031
 7236SOL     OW22606   2.285   1.955   1.240
 7236SOL    HW122607   2.252   1.872   1.285
 7236SOL    HW222608   2.318   2.020   1.309
 7237SOL     OW22609   4.060   0.936   4.546
 7237SOL    HW122610   4.138   0.953   4.606
 7237SOL    HW222611   4.083   0.968   4.453
 7238SOL     OW22612   3.712   1.903   1.156
 7238SOL    HW122613   3.626   1.882   1.109
 7238SOL    HW222614   3.789   1.866   1.103
 7239SOL     OW22615   1.269   2.474   2.592
 7239SOL    HW122616   1.273   2.379   2.560
 7239SOL    HW222617   1.359   2.517   2.580
 7240SOL     OW22618   1.579   5.817   6.054
 7240SOL    HW122619   1.646   5.746   6.030
 7240SOL    HW222620   1.628   5.902   6.073
 7241SOL     OW22621   1.710   1.031   0.292
 7241SOL    HW122622   1.797   1.026   0.243
 7241SOL    HW222623   1.721   0.992   0.384
 7242SOL     OW22624   6.545   5.880   0.496
 7242SOL    HW122625   6.454   5.865   0.536
 7242SOL    HW222626   6.603   5.929   0.560
 7243SOL     OW22627   6.532   4.669   6.209
 7243SOL    HW122628   6.477   4.712   6.138
 7243SOL    HW222629   6.475   4.605   6.261
 7244SOL     OW22630   6.099   1.845   1.982
 7244SOL    HW122631   6.096   1.832   1.883
 7244SOL    HW222632   6.163   1.919   2.004
 7245SOL     OW22633   1.131   1.708   4.491
 7245SOL    HW122634   1.157   1.622   4.535
 7245SOL    HW222635   1.033   1.724   4.505
 7246SOL     OW22636   6.314   0.307   4.479
 7246SOL    HW122637   6.300   0.223   4.532
 7246SOL    HW222638   6.300   0.386   4.538
 7247SOL     OW22639   2.857   0.033   4.438
 7247SOL    HW122640   2.793   6.989   4.478
 7247SOL    HW222641   2.829   0.053   4.344
 7248SOL     OW22642   2.420   1.318   3.471
 7248SOL    HW122643   2.451   1.413   3.479
 7248SOL    HW222644   2.322   1.316   3.455
 7249SOL     OW22645   6.739   4.398   2.494
 7249SOL    HW122646   6.799   4.464   2.539
 7249SOL    HW222647   6.791   4.346   2.426
 7250SOL     OW22648   4.539   0.154   6.370
 7250SOL    HW122649   4.510   0.203   6.288
 7250SOL    HW222650   4.638   0.162   6.381
 7251SOL     OW22651   0.358   6.612   5.616
 7251SOL    HW122652   0.280   6.668   5.587
 7251SOL    HW222653   0.435   6.630   5.555
 7252SOL     OW22654   3.457   3.530   2.815
 7252SOL    HW122655   3.494   3.495   2.901
 7252SOL    HW222656   3.444   3.454   2.751
 7253SOL     OW22657   2.711   6.720   5.863
 7253SOL    HW122658   2.611   6.724   5.865
 7253SOL    HW222659   2.740   6.632   5.827
 7254SOL     OW22660   4.430   5.055   3.501
 7254SOL    HW122661   4.397   5.033   3.593
 7254SOL    HW222662   4.510   5.115   3.507
 7255SOL     OW22663   3.311   3.321   0.710
 7255SOL    HW122664   3.309   3.339   0.808
 7255SOL    HW222665   3.218   3.303   0.677
 7256SOL     OW22666   4.110   4.825   4.180
 7256SOL    HW122667   4.174   4.887   4.226
 7256SOL    HW222668   4.096   4.744   4.237
 7257SOL     OW22669   5.586   3.187   3.907
 7257SOL    HW122670   5.545   3.097   3.921
 7257SOL    HW222671   5.521   3.246   3.858
 7258SOL     OW22672   4.117   1.523   3.614
 7258SOL    HW122673   4.064   1.598   3.574
 7258SOL    HW222674   4.061   1.440   3.615
 7259SOL     OW22675   2.781   3.366   0.867
 7259SOL    HW122676   2.685   3.388   0.887
 7259SOL    HW222677   2.793   3.267   0.868
 7260SOL     OW22678   3.524   1.851   1.817
 7260SOL    HW122679   3.561   1.788   1.885
 7260SOL    HW222680   3.581   1.933   1.812
 7261SOL     OW22681   1.303   2.713   1.638
 7261SOL    HW122682   1.398   2.716   1.670
 7261SOL    HW222683   1.249   2.656   1.699
 7262SOL     OW22684   5.185   1.626   5.729
 7262SOL    HW122685   5.106   1.567   5.713
 7262SOL    HW222686   5.269   1.579   5.703
 7263SOL     OW22687   1.006   6.583   1.148
 7263SOL    HW122688   1.006   6.654   1.077
 7263SOL    HW222689   0.922   6.530   1.142
 7264SOL     OW22690   5.493   1.114   6.308
 7264SOL    HW122691   5.582   1.091   6.349
 7264SOL    HW222692   5.507   1.146   6.214
 7265SOL     OW22693   5.503   5.400   5.836
 7265SOL    HW122694   5.592   5.385   5.879
 7265SOL    HW222695   5.488   5.498   5.824
 7266SOL     OW22696   5.794   0.135   1.370
 7266SOL    HW122697   5.742   0.055   1.399
 7266SOL    HW222698   5.730   0.207   1.340
 7267SOL     OW22699   6.506   5.965   5.318
 7267SOL    HW122700   6.456   5.878   5.313
 7267SOL    HW222701   6.482   6.012   5.403
 7268SOL     OW22702   5.440   4.964   3.122
 7268SOL    HW122703   5.473   4.905   3.196
 7268SOL    HW222704   5.513   5.027   3.095
 7269SOL     OW22705   0.081   6.040   0.763
 7269SOL    HW122706   0.148   6.007   0.829
 7269SOL    HW222707   0.122   6.110   0.705
 7270SOL     OW22708   0.763   3.567   5.171
 7270SOL    HW122709   0.850   3.551   5.215
 7270SOL    HW222710   0.760   3.520   5.083
 7271SOL     OW22711   0.142   6.031   3.590
 7271SOL    HW122712   0.088   6.097   3.536
 7271SOL    HW222713   0.160   5.950   3.535
 7272SOL     OW22714   5.484   5.311   2.230
 7272SOL    HW122715   5.492   5.213   2.208
 7272SOL    HW222716   5.441   5.358   2.153
 7273SOL     OW22717   5.457   4.059   1.556
 7273SOL    HW122718   5.554   4.079   1.543
 7273SOL    HW222719   5.404   4.144   1.556
 7274SOL     OW22720   0.948   5.733   6.869
 7274SOL    HW122721   0.961   5.647   6.919
 7274SOL    HW222722   0.904   5.714   6.781
 7275SOL     OW22723   6.962   0.225   2.896
 7275SOL    HW122724   7.010   0.311   2.912
 7275SOL    HW222725   6.913   0.198   2.979
 7276SOL     OW22726   3.662   1.655   2.791
 7276SOL    HW122727   3.567   1.670   2.764
 7276SOL    HW222728   3.681   1.708   2.874
 7277SOL     OW22729   4.353   1.182   4.097
 7277SOL    HW122730   4.274   1.135   4.058
 7277SOL    HW222731   4.329   1.217   4.188
 7278SOL     OW22732   3.437   2.182   1.501
 7278SOL    HW122733   3.420   2.245   1.577
 7278SOL    HW222734   3.536   2.179   1.483
 7279SOL     OW22735   4.374   3.431   6.399
 7279SOL    HW122736   4.429   3.368   6.454
 7279SOL    HW222737   4.300   3.469   6.455
 7280SOL     OW22738   6.957   1.513   3.938
 7280SOL    HW122739   6.986   1.426   3.897
 7280SOL    HW222740   6.914   1.495   4.026
 7281SOL     OW22741   1.802   0.640   0.392
 7281SOL    HW122742   1.762   0.597   0.473
 7281SOL    HW222743   1.729   0.677   0.334
 7282SOL     OW22744   5.927   6.756   1.615
 7282SOL    HW122745   5.915   6.758   1.516
 7282SOL    HW222746   6.016   6.718   1.638
 7283SOL     OW22747   3.545   0.491   1.584
 7283SOL    HW122748   3.508   0.579   1.614
 7283SOL    HW222749   3.480   0.447   1.522
 7284SOL     OW22750   6.977   2.088   5.330
 7284SOL    HW122751   7.003   2.025   5.257
 7284SOL    HW222752   6.909   2.153   5.296
 7285SOL     OW22753   5.385   3.575   1.659
 7285SOL    HW122754   5.441   3.498   1.629
 7285SOL    HW222755   5.290   3.562   1.629
 7286SOL     OW22756   1.188   0.774   1.084
 7286SOL    HW122757   1.201   0.802   0.989
 7286SOL    HW222758   1.178   0.675   1.088
 7287SOL     OW22759   6.752   2.719   4.873
 7287SOL    HW122760   6.697   2.763   4.944
 7287SOL    HW222761   6.692   2.667   4.812
 7288SOL     OW22762   1.329   2.043   1.501
 7288SOL    HW122763   1.396   2.111   1.473
 7288SOL    HW222764   1.238   2.083   1.501
 7289SOL     OW22765   5.979   1.939   3.449
 7289SOL    HW122766   6.013   1.912   3.539
 7289SOL    HW222767   6.008   2.032   3.429
 7290SOL     OW22768   2.393   1.176   4.997
 7290SOL    HW122769   2.464   1.196   4.930
 7290SOL    HW222770   2.366   1.261   5.042
 7291SOL     OW22771   2.028   6.836   0.471
 7291SOL    HW122772   2.020   6.820   0.569
 7291SOL    HW222773   2.083   6.918   0.455
 7292SOL     OW22774   3.090   7.013   2.826
 7292SOL    HW122775   3.151   0.048   2.770
 7292SOL    HW222776   3.061   0.044   2.906
 7293SOL     OW22777   1.274   1.990   5.771
 7293SOL    HW122778   1.307   2.081   5.744
 7293SOL    HW222779   1.287   1.926   5.695
 7294SOL     OW22780   3.198   4.733   0.854
 7294SOL    HW122781   3.206   4.832   0.866
 7294SOL    HW222782   3.146   4.713   0.771
 7295SOL     OW22783   6.821   4.372   0.602
 7295SOL    HW122784   6.846   4.466   0.577
 7295SOL    HW222785   6.871   4.307   0.545
 7296SOL     OW22786   4.279   5.449   1.486
 7296SOL    HW122787   4.246   5.488   1.400
 7296SOL    HW222788   4.371   5.485   1.504
 7297SOL     OW22789   2.733   6.890   1.077
 7297SOL    HW122790   2.718   6.868   1.173
 7297SOL    HW222791   2.646   6.903   1.031
 7298SOL     OW22792   4.896   5.020   6.332
 7298SOL    HW122793   4.924   5.031   6.237
 7298SOL    HW222794   4.966   4.969   6.382
 7299SOL     OW22795   1.143   2.080   1.172
 7299SOL    HW122796   1.237   2.057   1.197
 7299SOL    HW222797   1.081   2.014   1.213
 7300SOL     OW22798   0.754   6.644   2.271
 7300SOL    HW122799   0.734   6.742   2.269
 7300SOL    HW222800   0.839   6.628   2.221
 7301SOL     OW22801   6.093   2.374   5.296
 7301SOL    HW122802   5.994   2.374   5.288
 7301SOL    HW222803   6.123   2.454   5.348
 7302SOL     OW22804   0.093   2.224   6.259
 7302SOL    HW122805   0.019   2.245   6.323
 7302SOL    HW222806   0.054   2.193   6.172
 7303SOL     OW22807   3.770   1.108   6.346
 7303SOL    HW122808   3.716   1.191   6.361
 7303SOL    HW222809   3.758   1.046   6.423
 7304SOL     OW22810   2.948   5.393   1.500
 7304SOL    HW122811   2.951   5.381   1.600
 7304SOL    HW222812   3.020   5.457   1.472
 7305SOL     OW22813   5.044   2.435   1.342
 7305SOL    HW122814   5.010   2.471   1.429
 7305SOL    HW222815   4.984   2.465   1.268
 7306SOL     OW22816   3.707   1.500   1.556
 7306SOL    HW122817   3.689   1.422   1.496
 7306SOL    HW222818   3.629   1.562   1.555
 7307SOL     OW22819   3.941   6.780   2.250
 7307SOL    HW122820   3.866   6.782   2.317
 7307SOL    HW222821   3.903   6.779   2.158
 7308SOL     OW22822   6.361   1.603   4.369
 7308SOL    HW122823   6.393   1.588   4.275
 7308SOL    HW222824   6.264   1.625   4.367
 7309SOL     OW22825   3.901   6.282   1.328
 7309SOL    HW122826   3.918   6.235   1.241
 7309SOL    HW222827   3.923   6.220   1.403
 7310SOL     OW22828   2.196   3.360   0.621
 7310SOL    HW122829   2.187   3.275   0.673
 7310SOL    HW222830   2.158   3.435   0.674
 7311SOL     OW22831   1.755   0.881   0.533
 7311SOL    HW122832   1.772   0.938   0.614
 7311SOL    HW222833   1.779   0.786   0.554
 7312SOL     OW22834   1.035   2.568   5.061
 7312SOL    HW122835   1.020   2.622   4.978
 7312SOL    HW222836   0.962   2.586   5.126
 7313SOL     OW22837   2.049   1.134   0.539
 7313SOL    HW122838   2.070   1.057   0.478
 7313SOL    HW222839   2.110   1.132   0.617
 7314SOL     OW22840   6.942   4.219   5.662
 7314SOL    HW122841   6.993   4.208   5.576
 7314SOL    HW222842   6.977   4.154   5.729
 7315SOL     OW22843   5.085   5.943   1.894
 7315SOL    HW122844   5.048   6.035   1.884
 7315SOL    HW222845   5.109   5.907   1.804
 7316SOL     OW22846   3.119   2.817   6.678
 7316SOL    HW122847   3.183   2.808   6.602
 7316SOL    HW222848   3.035   2.766   6.656
 7317SOL     OW22849   3.964   1.426   1.920
 7317SOL    HW122850   3.869   1.401   1.902
 7317SOL    HW222851   3.994   1.492   1.851
 7318SOL     OW22852   3.008   0.340   2.151
 7318SOL    HW122853   3.061   0.421   2.175
 7318SOL    HW222854   3.065   0.258   2.161
 7319SOL     OW22855   5.541   3.113   0.335
 7319SOL    HW122856   5.454   3.110   0.286
 7319SOL    HW222857   5.594   3.030   0.313
 7320SOL     OW22858   0.459   3.833   1.143
 7320SOL    HW122859   0.543   3.874   1.108
 7320SOL    HW222860   0.460   3.835   1.243
 7321SOL     OW22861   2.227   6.881   5.500
 7321SOL    HW122862   2.262   6.974   5.497
 7321SOL    HW222863   2.160   6.868   5.427
 7322SOL     OW22864   0.087   2.272   3.283
 7322SOL    HW122865   0.128   2.244   3.370
 7322SOL    HW222866   7.010   2.286   3.296
 7323SOL     OW22867   2.081   3.098   1.610
 7323SOL    HW122868   2.009   3.029   1.623
 7323SOL    HW222869   2.139   3.102   1.691
 7324SOL     OW22870   5.691   4.592   2.022
 7324SOL    HW122871   5.740   4.555   1.944
 7324SOL    HW222872   5.750   4.592   2.102
 7325SOL     OW22873   2.959   0.475   5.487
 7325SOL    HW122874   2.936   0.380   5.468
 7325SOL    HW222875   2.923   0.501   5.576
 7326SOL     OW22876   3.729   6.236   5.631
 7326SOL    HW122877   3.818   6.263   5.594
 7326SOL    HW222878   3.657   6.258   5.566
 7327SOL     OW22879   6.149   3.317   4.862
 7327SOL    HW122880   6.103   3.285   4.945
 7327SOL    HW222881   6.081   3.335   4.791
 7328SOL     OW22882   4.350   6.901   5.935
 7328SOL    HW122883   4.298   6.823   5.968
 7328SOL    HW222884   4.439   6.903   5.980
 7329SOL     OW22885   0.836   4.044   0.523
 7329SOL    HW122886   0.816   3.951   0.555
 7329SOL    HW222887   0.877   4.097   0.597
 7330SOL     OW22888   2.571   3.251   0.437
 7330SOL    HW122889   2.531   3.273   0.526
 7330SOL    HW222890   2.634   3.174   0.446
 7331SOL     OW22891   5.699   6.341   1.525
 7331SOL    HW122892   5.764   6.304   1.592
 7331SOL    HW222893   5.606   6.318   1.553
 7332SOL     OW22894   2.935   4.161   6.589
 7332SOL    HW122895   2.915   4.234   6.654
 7332SOL    HW222896   2.857   4.100   6.581
 7333SOL     OW22897   6.305   3.028   3.152
 7333SOL    HW122898   6.331   2.936   3.121
 7333SOL    HW222899   6.385   3.075   3.187
 7334SOL     OW22900   2.373   6.192   6.422
 7334SOL    HW122901   2.348   6.110   6.370
 7334SOL    HW222902   2.406   6.165   6.512
 7335SOL     OW22903   0.163   2.920   2.948
 7335SOL    HW122904   0.071   2.918   2.988
 7335SOL    HW222905   0.182   2.832   2.904
 7336SOL     OW22906   2.256   6.391   2.157
 7336SOL    HW122907   2.306   6.478   2.157
 7336SOL    HW222908   2.321   6.316   2.146
 7337SOL     OW22909   1.747   2.962   1.796
 7337SOL    HW122910   1.837   2.970   1.839
 7337SOL    HW222911   1.749   3.006   1.706
 7338SOL     OW22912   5.254   1.976   1.906
 7338SOL    HW122913   5.279   2.069   1.934
 7338SOL    HW222914   5.323   1.911   1.940
 7339SOL     OW22915   6.170   0.149   5.384
 7339SOL    HW122916   6.107   0.122   5.458
 7339SOL    HW222917   6.154   0.091   5.304
 7340SOL     OW22918   3.854   1.198   6.988
 7340SOL    HW122919   3.844   1.136   6.911
 7340SOL    HW222920   3.765   1.215   0.009
 7341SOL     OW22921   0.683   4.779   4.716
 7341SOL    HW122922   0.697   4.723   4.635
 7341SOL    HW222923   0.680   4.721   4.797
 7342SOL     OW22924   7.016   6.630   0.133
 7342SOL    HW122925   6.941   6.696   0.139
 7342SOL    HW222926   0.045   6.629   0.219
 7343SOL     OW22927   5.015   4.435   1.317
 7343SOL    HW122928   5.041   4.346   1.281
 7343SOL    HW222929   4.993   4.426   1.414
 7344SOL     OW22930   1.647   0.615   5.703
 7344SOL    HW122931   1.630   0.541   5.638
 7344SOL    HW222932   1.663   0.700   5.653
 7345SOL     OW22933   4.635   6.333   5.402
 7345SOL    HW122934   4.701   6.274   5.449
 7345SOL    HW222935   4.649   6.325   5.303
 7346SOL     OW22936   3.860   4.184   1.398
 7346SOL    HW122937   3.897   4.203   1.307
 7346SOL    HW222938   3.792   4.111   1.392
 7347SOL     OW22939   0.469   2.868   1.093
 7347SOL    HW122940   0.567   2.865   1.072
 7347SOL    HW222941   0.457   2.884   1.191
 7348SOL     OW22942   1.306   3.256   3.503
 7348SOL    HW122943   1.386   3.199   3.485
 7348SOL    HW222944   1.311   3.293   3.596
 7349SOL     OW22945   4.479   2.143   0.878
 7349SOL    HW122946   4.517   2.161   0.787
 7349SOL    HW222947   4.383   2.170   0.880
 7350SOL     OW22948   1.554   3.213   5.114
 7350SOL    HW122949   1.618   3.175   5.048
 7350SOL    HW222950   1.580   3.307   5.136
 7351SOL     OW22951   4.664   6.383   5.129
 7351SOL    HW122952   4.660   6.317   5.054
 7351SOL    HW222953   4.664   6.476   5.091
 7352SOL     OW22954   1.769   3.259   2.783
 7352SOL    HW122955   1.669   3.254   2.787
 7352SOL    HW222956   1.798   3.354   2.794
 7353SOL     OW22957   0.436   0.001   6.168
 7353SOL    HW122958   0.458   0.027   6.261
 7353SOL    HW222959   0.520   7.017   6.113
 7354SOL     OW22960   1.158   1.992   0.135
 7354SOL    HW122961   1.076   1.944   0.102
 7354SOL    HW222962   1.221   1.925   0.175
 7355SOL     OW22963   1.377   1.471   0.568
 7355SOL    HW122964   1.453   1.492   0.629
 7355SOL    HW222965   1.352   1.375   0.577
 7356SOL     OW22966   4.458   3.430   5.870
 7356SOL    HW122967   4.453   3.473   5.960
 7356SOL    HW222968   4.435   3.333   5.879
 7357SOL     OW22969   4.471   0.475   1.975
 7357SOL    HW122970   4.468   0.375   1.979
 7357SOL    HW222971   4.495   0.503   1.882
 7358SOL     OW22972   0.581   2.796   2.380
 7358SOL    HW122973   0.550   2.730   2.312
 7358SOL    HW222974   0.643   2.750   2.444
 7359SOL     OW22975   2.611   3.199   6.251
 7359SOL    HW122976   2.528   3.178   6.302
 7359SOL    HW222977   2.659   3.114   6.229
 7360SOL     OW22978   3.300   3.926   6.022
 7360SOL    HW122979   3.226   3.896   6.083
 7360SOL    HW222980   3.276   3.904   5.927
 7361SOL     OW22981   4.413   0.675   2.167
 7361SOL    HW122982   4.426   0.601   2.101
 7361SOL    HW222983   4.490   0.677   2.230
 7362SOL     OW22984   1.053   5.693   4.880
 7362SOL    HW122985   1.016   5.630   4.948
 7362SOL    HW222986   1.068   5.782   4.923
 7363SOL     OW22987   3.886   1.623   1.363
 7363SOL    HW122988   3.857   1.608   1.268
 7363SOL    HW222989   3.809   1.606   1.424
 7364SOL     OW22990   4.646   0.615   1.114
 7364SOL    HW122991   4.553   0.633   1.147
 7364SOL    HW222992   4.700   0.699   1.120
 7365SOL     OW22993   1.683   6.836   1.675
 7365SOL    HW122994   1.747   6.777   1.624
 7365SOL    HW222995   1.620   6.878   1.611
 7366SOL     OW22996   2.303   5.742   6.862
 7366SOL    HW122997   2.387   5.740   6.917
 7366SOL    HW222998   2.261   5.832   6.868
 7367SOL     OW22999   4.574   3.778   1.453
 7367SOL    HW123000   4.515   3.705   1.419
 7367SOL    HW223001   4.531   3.822   1.532
 7368SOL     OW23002   3.835   2.989   3.598
 7368SOL    HW123003   3.752   2.976   3.652
 7368SOL    HW223004   3.915   2.985   3.659
 7369SOL     OW23005   4.340   2.738   0.188
 7369SOL    HW123006   4.335   2.838   0.191
 7369SOL    HW223007   4.435   2.709   0.182
 7370SOL     OW23008   2.853   0.461   5.002
 7370SOL    HW123009   2.900   0.539   5.043
 7370SOL    HW223010   2.912   0.421   4.931
 7371SOL     OW23011   1.880   5.988   3.692
 7371SOL    HW123012   1.948   6.049   3.652
 7371SOL    HW223013   1.880   5.900   3.644
 7372SOL     OW23014   3.295   1.635   5.598
 7372SOL    HW123015   3.266   1.731   5.597
 7372SOL    HW223016   3.346   1.614   5.514
 7373SOL     OW23017   5.271   1.349   4.480
 7373SOL    HW123018   5.349   1.332   4.541
 7373SOL    HW223019   5.197   1.392   4.532
 7374SOL     OW23020   2.691   1.700   6.149
 7374SOL    HW123021   2.744   1.767   6.097
 7374SOL    HW223022   2.678   1.618   6.093
 7375SOL     OW23023   2.118   2.912   2.818
 7375SOL    HW123024   2.143   2.953   2.906
 7375SOL    HW223025   2.019   2.911   2.809
 7376SOL     OW23026   3.833   1.499   0.093
 7376SOL    HW123027   3.741   1.479   0.060
 7376SOL    HW223028   3.873   1.417   0.134
 7377SOL     OW23029   5.446   5.445   1.043
 7377SOL    HW123030   5.391   5.515   1.089
 7377SOL    HW223031   5.512   5.407   1.108
 7378SOL     OW23032   0.656   1.040   5.555
 7378SOL    HW123033   0.703   1.048   5.643
 7378SOL    HW223034   0.721   1.054   5.481
 7379SOL     OW23035   3.097   2.167   2.441
 7379SOL    HW123036   3.073   2.198   2.533
 7379SOL    HW223037   3.128   2.245   2.386
 7380SOL     OW23038   0.062   2.931   5.679
 7380SOL    HW123039   7.009   2.899   5.621
 7380SOL    HW223040   0.107   2.853   5.721
 7381SOL     OW23041   4.736   3.968   1.731
 7381SOL    HW123042   4.761   4.039   1.797
 7381SOL    HW223043   4.736   4.007   1.639
 7382SOL     OW23044   6.932   5.567   6.761
 7382SOL    HW123045   6.854   5.537   6.707
 7382SOL    HW223046   6.958   5.494   6.826
 7383SOL     OW23047   1.142   6.905   1.330
 7383SOL    HW123048   1.047   6.890   1.354
 7383SOL    HW223049   1.173   6.834   1.267
 7384SOL     OW23050   5.631   0.496   2.845
 7384SOL    HW123051   5.682   0.553   2.782
 7384SOL    HW223052   5.690   0.424   2.881
 7385SOL     OW23053   4.299   5.959   2.045
 7385SOL    HW123054   4.243   5.877   2.062
 7385SOL    HW223055   4.291   6.021   2.122
 7386SOL     OW23056   0.989   2.123   5.638
 7386SOL    HW123057   1.088   2.134   5.638
 7386SOL    HW223058   0.964   2.039   5.590
 7387SOL     OW23059   4.732   6.143   4.048
 7387SOL    HW123060   4.686   6.230   4.066
 7387SOL    HW223061   4.757   6.100   4.135
 7388SOL     OW23062   0.143   4.646   3.110
 7388SOL    HW123063   0.094   4.704   3.045
 7388SOL    HW223064   0.146   4.552   3.075
 7389SOL     OW23065   0.394   3.285   6.280
 7389SOL    HW123066   0.487   3.321   6.269
 7389SOL    HW223067   0.378   3.266   6.377
 7390SOL     OW23068   1.976   1.530   6.950
 7390SOL    HW123069   1.921   1.456   6.989
 7390SOL    HW223070   2.050   1.491   6.896
 7391SOL     OW23071   4.597   4.278   5.349
 7391SOL    HW123072   4.626   4.348   5.414
 7391SOL    HW223073   4.656   4.198   5.356
 7392SOL     OW23074   2.491   6.283   0.087
 7392SOL    HW123075   2.411   6.262   0.031
 7392SOL    HW223076   2.548   6.201   0.095
 7393SOL     OW23077   5.341   4.774   1.465
 7393SOL    HW123078   5.256   4.803   1.508
 7393SOL    HW223079   5.419   4.812   1.516
 7394SOL     OW23080   3.002   2.602   5.930
 7394SOL    HW123081   2.986   2.698   5.955
 7394SOL    HW223082   2.963   2.585   5.839
 7395SOL     OW23083   2.284   1.690   0.177
 7395SOL    HW123084   2.227   1.617   0.213
 7395SOL    HW223085   2.258   1.777   0.219
 7396SOL     OW23086   1.048   6.617   0.526
 7396SOL    HW123087   1.063   6.691   0.462
 7396SOL    HW223088   0.965   6.566   0.500
 7397SOL     OW23089   4.123   5.158   4.953
 7397SOL    HW123090   4.214   5.129   4.982
 7397SOL    HW223091   4.068   5.079   4.929
 7398SOL     OW23092   2.284   5.068   4.571
 7398SOL    HW123093   2.286   5.117   4.658
 7398SOL    HW223094   2.249   4.975   4.586
 7399SOL     OW23095   1.169   2.483   5.659
 7399SOL    HW123096   1.075   2.507   5.684
 7399SOL    HW223097   1.204   2.551   5.595
 7400SOL     OW23098   3.821   3.450   5.791
 7400SOL    HW123099   3.913   3.486   5.802
 7400SOL    HW223100   3.772   3.455   5.878
 7401SOL     OW23101   1.667   0.420   4.658
 7401SOL    HW123102   1.674   0.386   4.564
 7401SOL    HW223103   1.756   0.415   4.702
 7402SOL     OW23104   3.329   5.657   6.123
 7402SOL    HW123105   3.384   5.734   6.091
 7402SOL    HW223106   3.237   5.689   6.147
 7403SOL     OW23107   2.263   4.195   2.597
 7403SOL    HW123108   2.250   4.151   2.685
 7403SOL    HW223109   2.311   4.282   2.610
 7404SOL     OW23110   2.457   5.117   1.152
 7404SOL    HW123111   2.465   5.148   1.246
 7404SOL    HW223112   2.465   5.017   1.149
 7405SOL     OW23113   3.670   4.950   4.206
 7405SOL    HW123114   3.623   4.939   4.118
 7405SOL    HW223115   3.608   4.995   4.271
 7406SOL     OW23116   0.995   3.112   3.267
 7406SOL    HW123117   1.026   3.065   3.350
 7406SOL    HW223118   1.054   3.191   3.250
 7407SOL     OW23119   0.128   6.253   4.786
 7407SOL    HW123120   0.060   6.245   4.712
 7407SOL    HW223121   0.081   6.246   4.874
 7408SOL     OW23122   2.046   4.140   6.440
 7408SOL    HW123123   1.958   4.112   6.403
 7408SOL    HW223124   2.115   4.071   6.416
 7409SOL     OW23125   0.628   1.361   6.267
 7409SOL    HW123126   0.684   1.357   6.184
 7409SOL    HW223127   0.657   1.439   6.322
 7410SOL     OW23128   0.064   5.566   0.975
 7410SOL    HW123129   0.008   5.598   0.899
 7410SOL    HW223130   0.010   5.506   1.033
 7411SOL     OW23131   2.775   0.081   4.180
 7411SOL    HW123132   2.798   0.017   4.106
 7411SOL    HW223133   2.690   0.129   4.157
 7412SOL     OW23134   4.887   0.629   2.339
 7412SOL    HW123135   4.946   0.708   2.325
 7412SOL    HW223136   4.791   0.658   2.336
 7413SOL     OW23137   4.639   5.608   4.837
 7413SOL    HW123138   4.708   5.538   4.820
 7413SOL    HW223139   4.633   5.669   4.757
 7414SOL     OW23140   0.526   0.253   3.670
 7414SOL    HW123141   0.552   0.172   3.618
 7414SOL    HW223142   0.552   0.335   3.619
 7415SOL     OW23143   1.352   3.889   4.135
 7415SOL    HW123144   1.381   3.794   4.144
 7415SOL    HW223145   1.342   3.929   4.226
 7416SOL     OW23146   2.687   1.176   3.950
 7416SOL    HW123147   2.700   1.118   3.870
 7416SOL    HW223148   2.688   1.272   3.922
 7417SOL     OW23149   2.340   0.622   6.411
 7417SOL    HW123150   2.246   0.628   6.378
 7417SOL    HW223151   2.361   0.528   6.437
 7418SOL     OW23152   3.154   5.657   0.941
 7418SOL    HW123153   3.115   5.729   0.998
 7418SOL    HW223154   3.219   5.698   0.876
 7419SOL     OW23155   5.634   2.970   4.925
 7419SOL    HW123156   5.550   2.975   4.978
 7419SOL    HW223157   5.646   2.877   4.891
 7420SOL     OW23158   0.767   0.007   2.012
 7420SOL    HW123159   0.802   6.955   2.070
 7420SOL    HW223160   0.717   0.073   2.068
 7421SOL     OW23161   3.274   3.343   0.969
 7421SOL    HW123162   3.251   3.438   0.989
 7421SOL    HW223163   3.248   3.286   1.047
 7422SOL     OW23164   0.247   2.670   2.890
 7422SOL    HW123165   0.328   2.643   2.943
 7422SOL    HW223166   0.272   2.677   2.794
 7423SOL     OW23167   6.315   4.811   5.390
 7423SOL    HW123168   6.305   4.721   5.349
 7423SOL    HW223169   6.405   4.848   5.369
 7424SOL     OW23170   6.747   0.280   5.254
 7424SOL    HW123171   6.659   0.308   5.215
 7424SOL    HW223172   6.737   0.262   5.352
 7425SOL     OW23173   4.567   5.544   6.167
 7425SOL    HW123174   4.538   5.568   6.260
 7425SOL    HW223175   4.560   5.624   6.108
 7426SOL     OW23176   2.013   0.810   6.003
 7426SOL    HW123177   1.998   0.909   5.990
 7426SOL    HW223178   2.012   0.765   5.914
 7427SOL     OW23179   3.350   6.993   4.005
 7427SOL    HW123180   3.382   0.054   4.052
 7427SOL    HW223181   3.428   6.939   3.975
 7428SOL     OW23182   4.251   1.097   6.227
 7428SOL    HW123183   4.306   1.136   6.153
 7428SOL    HW223184   4.157   1.129   6.219
 7429SOL     OW23185   6.481   6.542   3.018
 7429SOL    HW123186   6.423   6.531   2.937
 7429SOL    HW223187   6.424   6.535   3.101
 7430SOL     OW23188   0.726   3.762   6.976
 7430SOL    HW123189   0.770   3.850   6.995
 7430SOL    HW223190   0.733   3.741   6.879
 7431SOL     OW23191   0.448   3.068   2.902
 7431SOL    HW123192   0.417   2.991   2.958
 7431SOL    HW223193   0.394   3.073   2.818
 7432SOL     OW23194   0.214   0.138   3.006
 7432SOL    HW123195   0.149   0.155   3.079
 7432SOL    HW223196   0.298   0.190   3.023
 7433SOL     OW23197   5.109   4.987   6.506
 7433SOL    HW123198   5.083   5.008   6.600
 7433SOL    HW223199   5.160   5.064   6.467
 7434SOL     OW23200   5.658   0.408   5.673
 7434SOL    HW123201   5.669   0.347   5.751
 7434SOL    HW223202   5.746   0.422   5.629
 7435SOL     OW23203   3.539   5.951   0.280
 7435SOL    HW123204   3.443   5.972   0.262
 7435SOL    HW223205   3.554   5.853   0.269
 7436SOL     OW23206   5.665   3.537   6.942
 7436SOL    HW123207   5.636   3.562   0.013
 7436SOL    HW223208   5.628   3.446   6.920
 7437SOL     OW23209   0.935   5.862   0.599
 7437SOL    HW123210   0.848   5.813   0.600
 7437SOL    HW223211   0.964   5.877   0.505
 7438SOL     OW23212   0.502   5.130   0.117
 7438SOL    HW123213   0.549   5.189   0.184
 7438SOL    HW223214   0.569   5.095   0.051
 7439SOL     OW23215   1.774   5.826   4.862
 7439SOL    HW123216   1.815   5.754   4.806
 7439SOL    HW223217   1.725   5.891   4.803
 7440SOL     OW23218   0.103   3.336   4.623
 7440SOL    HW123219   0.039   3.298   4.555
 7440SOL    HW223220   0.055   3.404   4.679
 7441SOL     OW23221   5.118   5.967   4.095
 7441SOL    HW123222   5.199   5.913   4.120
 7441SOL    HW223223   5.121   5.987   3.997
 7442SOL     OW23224   0.356   0.798   6.075
 7442SOL    HW123225   0.369   0.784   5.977
 7442SOL    HW223226   0.423   0.743   6.125
 7443SOL     OW23227   0.233   0.348   2.411
 7443SOL    HW123228   0.309   0.405   2.379
 7443SOL    HW223229   0.195   0.388   2.494
 7444SOL     OW23230   6.242   3.304   5.487
 7444SOL    HW123231   6.278   3.331   5.397
 7444SOL    HW223232   6.176   3.230   5.476
 7445SOL     OW23233   3.250   1.218   1.318
 7445SOL    HW123234   3.174   1.184   1.261
 7445SOL    HW223235   3.305   1.283   1.265
 7446SOL     OW23236   5.665   4.448   0.784
 7446SOL    HW123237   5.726   4.475   0.859
 7446SOL    HW223238   5.636   4.353   0.798
 7447SOL     OW23239   0.698   3.430   5.537
 7447SOL    HW123240   0.776   3.485   5.566
 7447SOL    HW223241   0.728   3.364   5.468
 7448SOL     OW23242   6.266   6.824   5.648
 7448SOL    HW123243   6.365   6.830   5.635
 7448SOL    HW223244   6.245   6.748   5.710
 7449SOL     OW23245   6.227   3.329   1.893
 7449SOL    HW123246   6.203   3.240   1.853
 7449SOL    HW223247   6.208   3.401   1.826
 7450SOL     OW23248   5.459   1.931   4.745
 7450SOL    HW123249   5.393   1.985   4.693
 7450SOL    HW223250   5.419   1.905   4.833
 7451SOL     OW23251   0.739   6.665   3.564
 7451SOL    HW123252   0.655   6.625   3.599
 7451SOL    HW223253   0.733   6.675   3.464
 7452SOL     OW23254   0.852   6.279   4.947
 7452SOL    HW123255   0.887   6.263   5.039
 7452SOL    HW223256   0.885   6.207   4.886
 7453SOL     OW23257   4.566   6.648   5.337
 7453SOL    HW123258   4.472   6.616   5.320
 7453SOL    HW223259   4.627   6.569   5.340
 7454SOL     OW23260   0.491   2.626   2.185
 7454SOL    HW123261   0.402   2.619   2.139
 7454SOL    HW223262   0.530   2.535   2.196
 7455SOL     OW23263   6.852   1.668   2.251
 7455SOL    HW123264   6.922   1.729   2.215
 7455SOL    HW223265   6.879   1.573   2.235
 7456SOL     OW23266   0.222   1.546   4.478
 7456SOL    HW123267   0.134   1.536   4.525
 7456SOL    HW223268   0.209   1.536   4.379
 7457SOL     OW23269   4.048   0.401   5.797
 7457SOL    HW123270   4.134   0.353   5.817
 7457SOL    HW223271   4.004   0.426   5.883
 7458SOL     OW23272   2.257   0.085   5.861
 7458SOL    HW123273   2.197   0.016   5.820
 7458SOL    HW223274   2.285   0.056   5.952
 7459SOL     OW23275   5.108   0.751   1.802
 7459SOL    HW123276   5.128   0.847   1.822
 7459SOL    HW223277   5.194   0.701   1.793
 7460SOL     OW23278   1.981   5.579   1.041
 7460SOL    HW123279   1.965   5.588   1.140
 7460SOL    HW223280   1.942   5.658   0.994
 7461SOL     OW23281   6.179   1.806   5.618
 7461SOL    HW123282   6.226   1.830   5.703
 7461SOL    HW223283   6.088   1.847   5.617
 7462SOL     OW23284   1.095   3.933   2.456
 7462SOL    HW123285   1.056   3.874   2.527
 7462SOL    HW223286   1.192   3.914   2.446
 7463SOL     OW23287   3.037   5.087   1.075
 7463SOL    HW123288   2.990   5.118   1.158
 7463SOL    HW223289   2.970   5.051   1.010
 7464SOL     OW23290   4.883   0.662   6.466
 7464SOL    HW123291   4.979   0.673   6.440
 7464SOL    HW223292   4.852   0.570   6.440
 7465SOL     OW23293   0.841   5.667   0.173
 7465SOL    HW123294   0.869   5.760   0.197
 7465SOL    HW223295   0.900   5.601   0.220
 7466SOL     OW23296   0.722   0.748   6.156
 7466SOL    HW123297   0.650   0.711   6.215
 7466SOL    HW223298   0.807   0.756   6.208
 7467SOL     OW23299   0.011   1.914   0.811
 7467SOL    HW123300   7.009   1.950   0.902
 7467SOL    HW223301   0.066   1.981   0.762
 7468SOL     OW23302   6.290   2.420   3.739
 7468SOL    HW123303   6.307   2.445   3.644
 7468SOL    HW223304   6.370   2.442   3.795
 7469SOL     OW23305   0.103   0.802   0.961
 7469SOL    HW123306   0.009   0.834   0.953
 7469SOL    HW223307   0.166   0.876   0.941
 7470SOL     OW23308   0.324   3.174   3.758
 7470SOL    HW123309   0.249   3.111   3.781
 7470SOL    HW223310   0.295   3.234   3.683
 7471SOL     OW23311   6.910   6.229   6.201
 7471SOL    HW123312   6.933   6.268   6.290
 7471SOL    HW223313   6.864   6.297   6.145
 7472SOL     OW23314   6.094   0.467   4.068
 7472SOL    HW123315   6.087   0.416   4.153
 7472SOL    HW223316   6.162   0.540   4.079
 7473SOL     OW23317   6.361   4.475   3.044
 7473SOL    HW123318   6.295   4.424   3.099
 7473SOL    HW223319   6.427   4.411   3.005
 7474SOL     OW23320   2.098   1.153   5.433
 7474SOL    HW123321   2.117   1.082   5.365
 7474SOL    HW223322   2.183   1.198   5.459
 7475SOL     OW23323   4.393   1.619   2.412
 7475SOL    HW123324   4.370   1.711   2.446
 7475SOL    HW223325   4.311   1.577   2.374
 7476SOL     OW23326   3.240   5.488   3.357
 7476SOL    HW123327   3.241   5.532   3.447
 7476SOL    HW223328   3.212   5.554   3.287
 7477SOL     OW23329   0.008   0.854   5.283
 7477SOL    HW123330   6.969   0.817   5.212
 7477SOL    HW223331   0.081   0.907   5.240
 7478SOL     OW23332   4.857   5.511   6.260
 7478SOL    HW123333   4.949   5.477   6.244
 7478SOL    HW223334   4.791   5.437   6.248
 7479SOL     OW23335   4.107   2.369   1.708
 7479SOL    HW123336   4.128   2.335   1.800
 7479SOL    HW223337   4.166   2.447   1.687
 7480SOL     OW23338   7.019   4.120   1.664
 7480SOL    HW123339   6.968   4.055   1.608
 7480SOL    HW223340   6.994   4.108   1.760
 7481SOL     OW23341   6.132   4.933   1.282
 7481SOL    HW123342   6.185   4.961   1.202
 7481SOL    HW223343   6.161   4.987   1.361
 7482SOL     OW23344   4.103   2.284   3.056
 7482SOL    HW123345   4.192   2.315   3.023
 7482SOL    HW223346   4.067   2.213   2.995
 7483SOL     OW23347   4.790   3.020   4.780
 7483SOL    HW123348   4.872   3.029   4.723
 7483SOL    HW223349   4.741   2.937   4.756
 7484SOL     OW23350   0.579   1.286   4.006
 7484SOL    HW123351   0.607   1.211   4.066
 7484SOL    HW223352   0.485   1.272   3.977
 7485SOL     OW23353   3.362   0.750   5.018
 7485SOL    HW123354   3.293   0.703   4.963
 7485SOL    HW223355   3.433   0.787   4.959
 7486SOL     OW23356   2.215   0.346   6.346
 7486SOL    HW123357   2.215   0.382   6.253
 7486SOL    HW223358   2.306   0.310   6.367
 7487SOL     OW23359   2.362   6.357   2.647
 7487SOL    HW123360   2.262   6.363   2.649
 7487SOL    HW223361   2.400   6.396   2.731
 7488SOL     OW23362   1.849   6.434   4.157
 7488SOL    HW123363   1.821   6.367   4.226
 7488SOL    HW223364   1.946   6.422   4.136
 7489SOL     OW23365   5.280   2.359   4.538
 7489SOL    HW123366   5.251   2.417   4.462
 7489SOL    HW223367   5.341   2.410   4.598
 7490SOL     OW23368   1.336   0.859   1.852
 7490SOL    HW123369   1.391   0.791   1.802
 7490SOL    HW223370   1.396   0.928   1.892
 7491SOL     OW23371   6.183   2.924   6.035
 7491SOL    HW123372   6.110   2.872   5.990
 7491SOL    HW223373   6.215   2.873   6.115
 7492SOL     OW23374   1.872   0.800   3.514
 7492SOL    HW123375   1.883   0.702   3.495
 7492SOL    HW223376   1.774   0.821   3.524
 7493SOL     OW23377   6.873   3.383   6.973
 7493SOL    HW123378   6.813   3.337   0.017
 7493SOL    HW223379   6.963   3.341   6.974
 7494SOL     OW23380   5.031   1.052   2.542
 7494SOL    HW123381   5.029   0.953   2.557
 7494SOL    HW223382   4.938   1.085   2.525
 7495SOL     OW23383   1.457   1.436   0.210
 7495SOL    HW123384   1.399   1.517   0.197
 7495SOL    HW223385   1.467   1.388   0.123
 7496SOL     OW23386   6.757   3.170   6.382
 7496SOL    HW123387   6.813   3.149   6.301
 7496SOL    HW223388   6.776   3.263   6.412
 7497SOL     OW23389   2.398   4.543   0.496
 7497SOL    HW123390   2.357   4.607   0.431
 7497SOL    HW223391   2.497   4.538   0.479
 7498SOL     OW23392   2.306   1.353   5.544
 7498SOL    HW123393   2.282   1.442   5.507
 7498SOL    HW223394   2.283   1.349   5.641
 7499SOL     OW23395   3.541   2.067   2.830
 7499SOL    HW123396   3.449   2.064   2.789
 7499SOL    HW223397   3.542   2.135   2.904
 7500SOL     OW23398   3.137   5.304   3.604
 7500SOL    HW123399   3.220   5.357   3.625
 7500SOL    HW223400   3.068   5.365   3.565
 7501SOL     OW23401   5.895   4.319   4.659
 7501SOL    HW123402   5.824   4.255   4.689
 7501SOL    HW223403   5.870   4.357   4.570
 7502SOL     OW23404   1.717   6.658   4.070
 7502SOL    HW123405   1.675   6.684   4.157
 7502SOL    HW223406   1.795   6.597   4.088
 7503SOL     OW23407   3.330   1.465   0.854
 7503SOL    HW123408   3.281   1.482   0.769
 7503SOL    HW223409   3.364   1.551   0.891
 7504SOL     OW23410   1.631   0.279   2.911
 7504SOL    HW123411   1.588   0.279   3.001
 7504SOL    HW223412   1.564   0.306   2.842
 7505SOL     OW23413   1.730   1.776   5.756
 7505SOL    HW123414   1.793   1.723   5.813
 7505SOL    HW223415   1.720   1.732   5.667
 7506SOL     OW23416   5.429   0.626   2.967
 7506SOL    HW123417   5.503   0.575   2.925
 7506SOL    HW223418   5.383   0.569   3.035
 7507SOL     OW23419   1.147   0.535   2.216
 7507SOL    HW123420   1.075   0.578   2.161
 7507SOL    HW223421   1.235   0.551   2.173
 7508SOL     OW23422   1.020   6.348   2.004
 7508SOL    HW123423   0.957   6.274   1.980
 7508SOL    HW223424   1.088   6.314   2.069
 7509SOL     OW23425   5.219   4.825   0.310
 7509SOL    HW123426   5.250   4.732   0.290
 7509SOL    HW223427   5.288   4.890   0.279
 7510SOL     OW23428   3.846   4.211   5.571
 7510SOL    HW123429   3.749   4.188   5.559
 7510SOL    HW223430   3.900   4.127   5.571
 7511SOL     OW23431   2.845   0.032   3.598
 7511SOL    HW123432   2.781   6.985   3.564
 7511SOL    HW223433   2.937   7.014   3.602
 7512SOL     OW23434   3.130   5.970   6.488
 7512SOL    HW123435   3.150   6.067   6.477
 7512SOL    HW223436   3.034   5.953   6.468
 7513SOL     OW23437   2.434   0.616   1.522
 7513SOL    HW123438   2.363   0.644   1.586
 7513SOL    HW223439   2.520   0.660   1.547
 7514SOL     OW23440   2.524   5.715   1.369
 7514SOL    HW123441   2.482   5.630   1.340
 7514SOL    HW223442   2.470   5.793   1.336
 7515SOL     OW23443   6.635   4.873   2.479
 7515SOL    HW123444   6.604   4.787   2.519
 7515SOL    HW223445   6.655   4.939   2.552
 7516SOL     OW23446   6.327   6.243   5.784
 7516SOL    HW123447   6.313   6.168   5.848
 7516SOL    HW223448   6.239   6.283   5.759
 7517SOL     OW23449   6.956   3.204   0.532
 7517SOL    HW123450   6.913   3.137   0.592
 7517SOL    HW223451   6.906   3.290   0.537
 7518SOL     OW23452   4.201   5.057   3.173
 7518SOL    HW123453   4.173   5.033   3.080
 7518SOL    HW223454   4.290   5.016   3.192
 7519SOL     OW23455   6.863   6.755   3.837
 7519SOL    HW123456   6.955   6.744   3.801
 7519SOL    HW223457   6.819   6.666   3.845
 7520SOL     OW23458   3.042   0.888   2.211
 7520SOL    HW123459   3.058   0.844   2.123
 7520SOL    HW223460   2.945   0.883   2.234
 7521SOL     OW23461   5.103   4.064   6.208
 7521SOL    HW123462   5.049   3.983   6.229
 7521SOL    HW223463   5.081   4.096   6.116
 7522SOL     OW23464   2.281   0.876   6.357
 7522SOL    HW123465   2.305   0.782   6.380
 7522SOL    HW223466   2.290   0.934   6.438
 7523SOL     OW23467   5.791   0.181   5.850
 7523SOL    HW123468   5.827   0.274   5.858
 7523SOL    HW223469   5.795   0.136   5.939
 7524SOL     OW23470   2.206   2.017   5.468
 7524SOL    HW123471   2.194   2.070   5.552
 7524SOL    HW223472   2.270   1.942   5.484
 7525SOL     OW23473   3.957   0.774   6.300
 7525SOL    HW123474   3.921   0.818   6.383
 7525SOL    HW223475   3.895   0.792   6.223
 7526SOL     OW23476   2.757   3.339   1.719
 7526SOL    HW123477   2.667   3.382   1.728
 7526SOL    HW223478   2.752   3.245   1.752
 7527SOL     OW23479   3.915   5.814   3.172
 7527SOL    HW123480   3.946   5.897   3.125
 7527SOL    HW223481   3.918   5.828   3.271
 7528SOL     OW23482   5.282   1.289   6.814
 7528SOL    HW123483   5.335   1.359   6.862
 7528SOL    HW223484   5.318   1.199   6.835
 7529SOL     OW23485   4.984   0.897   4.518
 7529SOL    HW123486   4.891   0.911   4.485
 7529SOL    HW223487   4.981   0.858   4.610
 7530SOL     OW23488   0.711   3.559   3.125
 7530SOL    HW123489   0.715   3.658   3.137
 7530SOL    HW223490   0.649   3.537   3.050
 7531SOL     OW23491   4.782   2.810   4.317
 7531SOL    HW123492   4.879   2.784   4.312
 7531SOL    HW223493   4.754   2.815   4.413
 7532SOL     OW23494   5.811   5.037   0.430
 7532SOL    HW123495   5.856   5.059   0.344
 7532SOL    HW223496   5.736   4.972   0.412
 7533SOL     OW23497   2.310   1.995   2.534
 7533SOL    HW123498   2.264   2.080   2.506
 7533SOL    HW223499   2.313   1.991   2.634
 7534SOL     OW23500   4.302   6.098   5.192
 7534SOL    HW123501   4.350   6.103   5.105
 7534SOL    HW223502   4.205   6.119   5.178
 7535SOL     OW23503   1.831   6.932   5.163
 7535SOL    HW123504   1.749   6.988   5.152
 7535SOL    HW223505   1.806   6.835   5.159
 7536SOL     OW23506   4.704   4.257   4.569
 7536SOL    HW123507   4.623   4.304   4.604
 7536SOL    HW223508   4.783   4.317   4.574
 7537SOL     OW23509   3.523   5.783   2.473
 7537SOL    HW123510   3.559   5.696   2.440
 7537SOL    HW223511   3.433   5.800   2.432
 7538SOL     OW23512   2.332   3.138   1.727
 7538SOL    HW123513   2.387   3.220   1.737
 7538SOL    HW223514   2.324   3.114   1.631
 7539SOL     OW23515   0.661   3.389   4.070
 7539SOL    HW123516   0.587   3.326   4.049
 7539SOL    HW223517   0.675   3.450   3.992
 7540SOL     OW23518   4.274   0.469   5.287
 7540SOL    HW123519   4.354   0.410   5.303
 7540SOL    HW223520   4.274   0.543   5.354
 7541SOL     OW23521   0.099   4.417   4.739
 7541SOL    HW123522   0.046   4.336   4.765
 7541SOL    HW223523   0.093   4.486   4.811
 7542SOL     OW23524   0.957   5.311   6.698
 7542SOL    HW123525   0.928   5.243   6.631
 7542SOL    HW223526   1.012   5.381   6.654
 7543SOL     OW23527   3.623   2.044   0.147
 7543SOL    HW123528   3.644   2.082   0.057
 7543SOL    HW223529   3.598   1.948   0.138
 7544SOL     OW23530   0.266   2.292   2.770
 7544SOL    HW123531   0.241   2.254   2.681
 7544SOL    HW223532   0.362   2.320   2.768
 7545SOL     OW23533   6.486   5.542   1.288
 7545SOL    HW123534   6.498   5.635   1.321
 7545SOL    HW223535   6.565   5.515   1.232
 7546SOL     OW23536   3.440   1.562   1.966
 7546SOL    HW123537   3.494   1.641   1.995
 7546SOL    HW223538   3.390   1.526   2.045
 7547SOL     OW23539   5.127   0.586   0.720
 7547SOL    HW123540   5.052   0.653   0.723
 7547SOL    HW223541   5.208   0.628   0.680
 7548SOL     OW23542   3.919   1.941   0.229
 7548SOL    HW123543   3.832   1.954   0.277
 7548SOL    HW223544   3.904   1.883   0.149
 7549SOL     OW23545   5.172   2.155   0.982
 7549SOL    HW123546   5.120   2.075   0.951
 7549SOL    HW223547   5.112   2.215   1.035
 7550SOL     OW23548   2.611   5.145   2.326
 7550SOL    HW123549   2.625   5.230   2.276
 7550SOL    HW223550   2.520   5.109   2.307
 7551SOL     OW23551   5.293   4.012   6.774
 7551SOL    HW123552   5.388   4.036   6.791
 7551SOL    HW223553   5.288   3.949   6.696
 7552SOL     OW23554   1.390   5.655   2.822
 7552SOL    HW123555   1.337   5.577   2.788
 7552SOL    HW223556   1.412   5.717   2.746
 7553SOL     OW23557   4.422   6.389   5.743
 7553SOL    HW123558   4.496   6.340   5.789
 7553SOL    HW223559   4.413   6.354   5.650
 7554SOL     OW23560   4.503   1.369   0.602
 7554SOL    HW123561   4.412   1.364   0.559
 7554SOL    HW223562   4.494   1.350   0.699
 7555SOL     OW23563   1.976   4.472   5.916
 7555SOL    HW123564   1.921   4.391   5.898
 7555SOL    HW223565   2.069   4.458   5.881
 7556SOL     OW23566   1.517   2.712   0.378
 7556SOL    HW123567   1.448   2.647   0.347
 7556SOL    HW223568   1.520   2.713   0.478
 7557SOL     OW23569   4.933   1.688   5.923
 7557SOL    HW123570   4.981   1.776   5.920
 7557SOL    HW223571   4.904   1.663   5.831
 7558SOL     OW23572   1.584   2.829   4.378
 7558SOL    HW123573   1.567   2.909   4.320
 7558SOL    HW223574   1.633   2.857   4.460
 7559SOL     OW23575   5.642   4.856   6.574
 7559SOL    HW123576   5.564   4.798   6.550
 7559SOL    HW223577   5.679   4.828   6.662
 7560SOL     OW23578   4.705   6.508   0.967
 7560SOL    HW123579   4.623   6.561   0.945
 7560SOL    HW223580   4.774   6.522   0.896
 7561SOL     OW23581   1.274   3.546   6.799
 7561SOL    HW123582   1.192   3.602   6.807
 7561SOL    HW223583   1.355   3.605   6.806
 7562SOL     OW23584   6.913   6.477   3.894
 7562SOL    HW123585   6.887   6.396   3.841
 7562SOL    HW223586   7.008   6.500   3.875
 7563SOL     OW23587   2.816   6.953   0.821
 7563SOL    HW123588   2.904   6.936   0.776
 7563SOL    HW223589   2.805   6.890   0.898
 7564SOL     OW23590   4.799   0.852   3.031
 7564SOL    HW123591   4.823   0.937   2.984
 7564SOL    HW223592   4.791   0.869   3.129
 7565SOL     OW23593   4.977   3.150   0.915
 7565SOL    HW123594   4.913   3.081   0.879
 7565SOL    HW223595   4.977   3.146   1.014
 7566SOL     OW23596   5.975   4.704   2.873
 7566SOL    HW123597   5.910   4.672   2.943
 7566SOL    HW223598   6.067   4.673   2.896
 7567SOL     OW23599   1.513   2.233   4.639
 7567SOL    HW123600   1.606   2.232   4.677
 7567SOL    HW223601   1.517   2.261   4.543
 7568SOL     OW23602   5.685   6.163   2.379
 7568SOL    HW123603   5.686   6.107   2.462
 7568SOL    HW223604   5.771   6.150   2.329
 7569SOL     OW23605   3.931   5.929   5.953
 7569SOL    HW123606   4.015   5.983   5.959
 7569SOL    HW223607   3.954   5.832   5.946
 7570SOL     OW23608   5.842   3.490   5.342
 7570SOL    HW123609   5.846   3.528   5.435
 7570SOL    HW223610   5.927   3.513   5.294
 7571SOL     OW23611   4.853   5.654   3.419
 7571SOL    HW123612   4.927   5.615   3.365
 7571SOL    HW223613   4.887   5.678   3.510
 7572SOL     OW23614   4.890   1.145   1.748
 7572SOL    HW123615   4.887   1.174   1.843
 7572SOL    HW223616   4.801   1.159   1.705
 7573SOL     OW23617   0.431   0.051   4.994
 7573SOL    HW123618   0.446   0.033   4.896
 7573SOL    HW223619   0.466   0.142   5.016
 7574SOL     OW23620   5.838   0.746   5.518
 7574SOL    HW123621   5.857   0.648   5.530
 7574SOL    HW223622   5.840   0.792   5.607
 7575SOL     OW23623   4.895   0.020   6.772
 7575SOL    HW123624   4.953   0.065   6.704
 7575SOL    HW223625   4.833   0.087   6.812
 7576SOL     OW23626   4.913   4.686   6.140
 7576SOL    HW123627   4.986   4.622   6.117
 7576SOL    HW223628   4.884   4.671   6.234
 7577SOL     OW23629   0.471   6.976   0.034
 7577SOL    HW123630   0.422   6.947   6.973
 7577SOL    HW223631   0.476   0.055   0.036
 7578SOL     OW23632   2.031   5.339   1.976
 7578SOL    HW123633   2.103   5.397   2.015
 7578SOL    HW223634   1.987   5.387   1.900
 7579SOL     OW23635   6.366   0.926   1.465
 7579SOL    HW123636   6.431   0.923   1.390
 7579SOL    HW223637   6.410   0.964   1.546
 7580SOL     OW23638   0.938   3.809   4.196
 7580SOL    HW123639   0.856   3.795   4.252
 7580SOL    HW223640   0.990   3.886   4.232
 7581SOL     OW23641   6.784   0.543   1.120
 7581SOL    HW123642   6.739   0.489   1.191
 7581SOL    HW223643   6.874   0.572   1.153
 7582SOL     OW23644   3.825   1.034   1.753
 7582SOL    HW123645   3.826   0.956   1.691
 7582SOL    HW223646   3.733   1.071   1.759
 7583SOL     OW23647   6.109   3.184   1.445
 7583SOL    HW123648   6.053   3.136   1.378
 7583SOL    HW223649   6.049   3.230   1.511
 7584SOL     OW23650   2.780   6.622   1.556
 7584SOL    HW123651   2.768   6.527   1.529
 7584SOL    HW223652   2.695   6.673   1.540
 7585SOL     OW23653   1.188   2.912   6.978
 7585SOL    HW123654   1.229   2.859   0.031
 7585SOL    HW223655   1.161   3.002   7.012
 7586SOL     OW23656   2.575   1.234   3.254
 7586SOL    HW123657   2.526   1.254   3.339
 7586SOL    HW223658   2.548   1.300   3.184
 7587SOL     OW23659   2.185   1.878   0.347
 7587SOL    HW123660   2.137   1.810   0.402
 7587SOL    HW223661   2.211   1.955   0.405
 7588SOL     OW23662   1.619   2.747   3.290
 7588SOL    HW123663   1.561   2.828   3.276
 7588SOL    HW223664   1.651   2.745   3.385
 7589SOL     OW23665   1.023   6.911   2.308
 7589SOL    HW123666   0.997   7.007   2.319
 7589SOL    HW223667   0.942   6.858   2.282
 7590SOL     OW23668   4.360   1.894   6.158
 7590SOL    HW123669   4.396   1.855   6.073
 7590SOL    HW223670   4.308   1.824   6.207
 7591SOL     OW23671   0.296   3.465   0.619
 7591SOL    HW123672   0.227   3.401   0.652
 7591SOL    HW223673   0.378   3.458   0.677
 7592SOL     OW23674   6.785   4.658   5.216
 7592SOL    HW123675   6.806   4.593   5.289
 7592SOL    HW223676   6.783   4.751   5.253
 7593SOL     OW23677   5.836   3.261   1.103
 7593SOL    HW123678   5.738   3.248   1.090
 7593SOL    HW223679   5.860   3.356   1.080
 7594SOL     OW23680   0.938   4.920   2.455
 7594SOL    HW123681   1.020   4.971   2.428
 7594SOL    HW223682   0.958   4.822   2.452
 7595SOL     OW23683   7.013   2.520   6.066
 7595SOL    HW123684   6.986   2.428   6.094
 7595SOL    HW223685   6.951   2.586   6.107
 7596SOL     OW23686   4.303   5.613   4.084
 7596SOL    HW123687   4.321   5.568   3.997
 7596SOL    HW223688   4.306   5.713   4.071
 7597SOL     OW23689   3.461   6.420   2.943
 7597SOL    HW123690   3.504   6.499   2.986
 7597SOL    HW223691   3.494   6.336   2.986
 7598SOL     OW23692   6.795   1.581   3.044
 7598SOL    HW123693   6.725   1.630   2.990
 7598SOL    HW223694   6.758   1.558   3.133
 7599SOL     OW23695   5.147   2.239   2.588
 7599SOL    HW123696   5.130   2.275   2.496
 7599SOL    HW223697   5.165   2.141   2.583
 7600SOL     OW23698   1.972   1.814   2.511
 7600SOL    HW123699   1.884   1.772   2.531
 7600SOL    HW223700   1.963   1.875   2.432
 7601SOL     OW23701   1.585   5.266   2.749
 7601SOL    HW123702   1.550   5.325   2.677
 7601SOL    HW223703   1.605   5.175   2.712
 7602SOL     OW23704   2.006   3.896   6.044
 7602SOL    HW123705   2.052   3.863   6.126
 7602SOL    HW223706   2.053   3.860   5.963
 7603SOL     OW23707   1.329   5.766   5.991
 7603SOL    HW123708   1.289   5.730   6.074
 7603SOL    HW223709   1.429   5.773   6.002
 7604SOL     OW23710   1.841   4.383   4.463
 7604SOL    HW123711   1.867   4.475   4.434
 7604SOL    HW223712   1.761   4.353   4.411
 7605SOL     OW23713   0.854   6.859   1.389
 7605SOL    HW123714   0.768   6.877   1.437
 7605SOL    HW223715   0.850   6.900   1.298
 7606SOL     OW23716   5.670   3.583   5.126
 7606SOL    HW123717   5.699   3.567   5.220
 7606SOL    HW223718   5.738   3.545   5.063
 7607SOL     OW23719   3.576   4.618   6.709
 7607SOL    HW123720   3.607   4.672   6.630
 7607SOL    HW223721   3.521   4.541   6.678
 7608SOL     OW23722   4.087   3.652   2.927
 7608SOL    HW123723   4.030   3.728   2.959
 7608SOL    HW223724   4.103   3.662   2.829
 7609SOL     OW23725   1.425   3.594   4.162
 7609SOL    HW123726   1.374   3.512   4.189
 7609SOL    HW223727   1.522   3.572   4.158
 7610SOL     OW23728   4.284   5.385   6.375
 7610SOL    HW123729   4.345   5.305   6.377
 7610SOL    HW223730   4.244   5.398   6.466
 7611SOL     OW23731   6.540   2.567   1.362
 7611SOL    HW123732   6.485   2.632   1.309
 7611SOL    HW223733   6.567   2.610   1.448
 7612SOL     OW23734   4.739   2.848   3.827
 7612SOL    HW123735   4.728   2.877   3.732
 7612SOL    HW223736   4.767   2.926   3.883
 7613SOL     OW23737   6.680   3.441   1.267
 7613SOL    HW123738   6.602   3.398   1.221
 7613SOL    HW223739   6.704   3.526   1.219
 7614SOL     OW23740   4.903   2.907   1.374
 7614SOL    HW123741   4.834   2.838   1.396
 7614SOL    HW223742   4.858   2.996   1.362
 7615SOL     OW23743   3.821   5.554   6.948
 7615SOL    HW123744   3.898   5.492   6.966
 7615SOL    HW223745   3.735   5.505   6.963
 7616SOL     OW23746   5.969   5.735   4.307
 7616SOL    HW123747   5.993   5.798   4.233
 7616SOL    HW223748   6.052   5.693   4.343
 7617SOL     OW23749   4.069   5.157   2.815
 7617SOL    HW123750   4.015   5.202   2.885
 7617SOL    HW223751   4.109   5.074   2.852
 7618SOL     OW23752   0.282   1.247   5.706
 7618SOL    HW123753   0.191   1.219   5.738
 7618SOL    HW223754   0.304   1.336   5.746
 7619SOL     OW23755   6.058   2.916   5.084
 7619SOL    HW123756   6.016   2.845   5.028
 7619SOL    HW223757   6.002   2.999   5.081
 7620SOL     OW23758   3.595   6.115   0.634
 7620SOL    HW123759   3.534   6.141   0.559
 7620SOL    HW223760   3.663   6.187   0.648
 7621SOL     OW23761   6.897   1.528   0.813
 7621SOL    HW123762   6.955   1.583   0.753
 7621SOL    HW223763   6.904   1.432   0.787
 7622SOL     OW23764   4.549   6.042   1.040
 7622SOL    HW123765   4.629   6.027   1.098
 7622SOL    HW223766   4.468   6.005   1.085
 7623SOL     OW23767   4.704   4.836   6.738
 7623SOL    HW123768   4.683   4.777   6.816
 7623SOL    HW223769   4.731   4.779   6.660
 7624SOL     OW23770   6.569   3.467   5.106
 7624SOL    HW123771   6.605   3.512   5.188
 7624SOL    HW223772   6.643   3.446   5.043
 7625SOL     OW23773   4.778   0.460   1.345
 7625SOL    HW123774   4.729   0.482   1.260
 7625SOL    HW223775   4.785   0.542   1.402
 7626SOL     OW23776   5.749   6.857   4.569
 7626SOL    HW123777   5.714   6.936   4.620
 7626SOL    HW223778   5.673   6.805   4.532
 7627SOL     OW23779   4.839   3.133   0.127
 7627SOL    HW123780   4.850   3.133   0.027
 7627SOL    HW223781   4.778   3.058   0.154
 7628SOL     OW23782   3.621   1.736   2.049
 7628SOL    HW123783   3.590   1.813   2.104
 7628SOL    HW223784   3.720   1.724   2.061
 7629SOL     OW23785   0.083   6.079   3.086
 7629SOL    HW123786   7.018   6.049   3.129
 7629SOL    HW223787   0.063   6.118   2.996
 7630SOL     OW23788   6.944   6.817   1.027
 7630SOL    HW123789   6.908   6.761   0.953
 7630SOL    HW223790   0.008   6.778   1.061
 7631SOL     OW23791   0.983   1.563   6.506
 7631SOL    HW123792   0.920   1.638   6.527
 7631SOL    HW223793   0.972   1.536   6.410
 7632SOL     OW23794   3.311   2.882   1.720
 7632SOL    HW123795   3.324   2.812   1.650
 7632SOL    HW223796   3.399   2.926   1.740
 7633SOL     OW23797   5.268   0.613   1.371
 7633SOL    HW123798   5.203   0.669   1.318
 7633SOL    HW223799   5.262   0.518   1.341
 7634SOL     OW23800   1.001   2.167   2.321
 7634SOL    HW123801   1.031   2.255   2.286
 7634SOL    HW223802   1.052   2.144   2.404
 7635SOL     OW23803   3.717   4.962   4.855
 7635SOL    HW123804   3.700   5.049   4.901
 7635SOL    HW223805   3.684   4.886   4.911
 7636SOL     OW23806   1.599   2.619   3.962
 7636SOL    HW123807   1.613   2.717   3.958
 7636SOL    HW223808   1.508   2.600   4.001
 7637SOL     OW23809   1.981   5.160   2.696
 7637SOL    HW123810   1.968   5.181   2.793
 7637SOL    HW223811   2.067   5.200   2.664
 7638SOL     OW23812   2.759   6.338   0.936
 7638SOL    HW123813   2.667   6.317   0.904
 7638SOL    HW223814   2.819   6.260   0.918
 7639SOL     OW23815   1.220   2.353   0.633
 7639SOL    HW123816   1.265   2.302   0.559
 7639SOL    HW223817   1.138   2.398   0.597
 7640SOL     OW23818   3.222   1.210   5.869
 7640SOL    HW123819   3.277   1.282   5.825
 7640SOL    HW223820   3.247   1.203   5.965
 7641SOL     OW23821   1.079   4.203   2.423
 7641SOL    HW123822   1.086   4.104   2.437
 7641SOL    HW223823   1.058   4.222   2.328
 7642SOL     OW23824   3.279   1.001   3.136
 7642SOL    HW123825   3.287   1.098   3.112
 7642SOL    HW223826   3.297   0.946   3.054
 7643SOL     OW23827   5.080   2.731   4.190
 7643SOL    HW123828   5.043   2.761   4.102
 7643SOL    HW223829   5.175   2.704   4.179
 7644SOL     OW23830   5.734   2.188   2.487
 7644SOL    HW123831   5.676   2.146   2.417
 7644SOL    HW223832   5.702   2.282   2.503
 7645SOL     OW23833   4.288   3.511   5.511
 7645SOL    HW123834   4.288   3.507   5.411
 7645SOL    HW223835   4.379   3.536   5.543
 7646SOL     OW23836   1.156   3.647   3.159
 7646SOL    HW123837   1.140   3.706   3.238
 7646SOL    HW223838   1.254   3.635   3.146
 7647SOL     OW23839   6.789   3.208   3.209
 7647SOL    HW123840   6.806   3.257   3.295
 7647SOL    HW223841   6.872   3.211   3.153
 7648SOL     OW23842   2.641   1.461   2.685
 7648SOL    HW123843   2.718   1.491   2.630
 7648SOL    HW223844   2.603   1.376   2.646
 7649SOL     OW23845   1.263   0.950   2.391
 7649SOL    HW123846   1.350   0.975   2.435
 7649SOL    HW223847   1.188   0.999   2.435
 7650SOL     OW23848   4.382   1.736   0.699
 7650SOL    HW123849   4.385   1.835   0.688
 7650SOL    HW223850   4.309   1.698   0.643
 7651SOL     OW23851   1.982   0.857   3.873
 7651SOL    HW123852   1.988   0.871   3.972
 7651SOL    HW223853   2.063   0.805   3.842
 7652SOL     OW23854   5.943   3.634   5.622
 7652SOL    HW123855   5.869   3.574   5.652
 7652SOL    HW223856   6.018   3.632   5.688
 7653SOL     OW23857   1.013   1.833   6.815
 7653SOL    HW123858   1.005   1.932   6.822
 7653SOL    HW223859   0.921   1.793   6.812
 7654SOL     OW23860   4.659   2.721   4.080
 7654SOL    HW123861   4.716   2.748   4.002
 7654SOL    HW223862   4.697   2.761   4.164
 7655SOL     OW23863   4.617   6.988   3.045
 7655SOL    HW123864   4.600   6.911   2.983
 7655SOL    HW223865   4.715   6.997   3.061
 7656SOL     OW23866   2.920   3.876   5.957
 7656SOL    HW123867   2.862   3.957   5.959
 7656SOL    HW223868   2.949   3.857   5.863
 7657SOL     OW23869   1.105   2.847   3.909
 7657SOL    HW123870   1.182   2.853   3.845
 7657SOL    HW223871   1.077   2.752   3.920
 7658SOL     OW23872   4.013   0.047   5.887
 7658SOL    HW123873   3.923   0.086   5.907
 7658SOL    HW223874   4.081   0.090   5.946
 7659SOL     OW23875   6.397   5.296   6.541
 7659SOL    HW123876   6.399   5.391   6.510
 7659SOL    HW223877   6.316   5.282   6.599
 7660SOL     OW23878   0.805   5.959   4.464
 7660SOL    HW123879   0.709   5.931   4.467
 7660SOL    HW223880   0.839   5.953   4.370
 7661SOL     OW23881   5.953   2.732   4.923
 7661SOL    HW123882   5.940   2.650   4.977
 7661SOL    HW223883   6.014   2.713   4.847
 7662SOL     OW23884   1.314   2.918   3.457
 7662SOL    HW123885   1.379   2.987   3.489
 7662SOL    HW223886   1.330   2.832   3.506
 7663SOL     OW23887   0.428   5.398   5.308
 7663SOL    HW123888   0.382   5.421   5.394
 7663SOL    HW223889   0.365   5.414   5.232
 7664SOL     OW23890   3.726   6.815   1.699
 7664SOL    HW123891   3.669   6.742   1.736
 7664SOL    HW223892   3.670   6.897   1.685
 7665SOL     OW23893   6.169   6.820   4.930
 7665SOL    HW123894   6.161   6.823   4.830
 7665SOL    HW223895   6.208   6.732   4.957
 7666SOL     OW23896   0.375   5.525   1.746
 7666SOL    HW123897   0.398   5.428   1.750
 7666SOL    HW223898   0.435   5.576   1.808
 7667SOL     OW23899   4.935   6.604   2.082
 7667SOL    HW123900   4.964   6.677   2.143
 7667SOL    HW223901   4.868   6.546   2.128
 7668SOL     OW23902   3.578   4.610   0.063
 7668SOL    HW123903   3.517   4.668   0.116
 7668SOL    HW223904   3.641   4.562   0.124
 7669SOL     OW23905   4.741   1.848   5.112
 7669SOL    HW123906   4.690   1.932   5.125
 7669SOL    HW223907   4.729   1.816   5.018
 7670SOL     OW23908   0.851   5.123   6.521
 7670SOL    HW123909   0.857   5.144   6.423
 7670SOL    HW223910   0.849   5.024   6.533
 7671SOL     OW23911   4.773   1.144   2.487
 7671SOL    HW123912   4.727   1.232   2.489
 7671SOL    HW223913   4.712   1.073   2.522
 7672SOL     OW23914   0.493   6.548   2.608
 7672SOL    HW123915   0.524   6.611   2.538
 7672SOL    HW223916   0.411   6.499   2.576
 7673SOL     OW23917   1.498   6.144   0.541
 7673SOL    HW123918   1.507   6.045   0.547
 7673SOL    HW223919   1.423   6.167   0.479
 7674SOL     OW23920   5.483   1.378   2.897
 7674SOL    HW123921   5.469   1.379   2.996
 7674SOL    HW223922   5.413   1.321   2.854
 7675SOL     OW23923   6.436   6.682   2.518
 7675SOL    HW123924   6.481   6.709   2.432
 7675SOL    HW223925   6.476   6.597   2.551
 7676SOL     OW23926   2.470   2.109   0.716
 7676SOL    HW123927   2.537   2.057   0.770
 7676SOL    HW223928   2.397   2.142   0.776
 7677SOL     OW23929   0.219   4.784   1.459
 7677SOL    HW123930   0.276   4.768   1.379
 7677SOL    HW223931   0.262   4.854   1.517
 7678SOL     OW23932   1.923   2.789   4.769
 7678SOL    HW123933   1.852   2.796   4.838
 7678SOL    HW223934   2.009   2.824   4.806
 7679SOL     OW23935   2.962   5.475   6.040
 7679SOL    HW123936   2.906   5.458   5.958
 7679SOL    HW223937   3.058   5.460   6.018
 7680SOL     OW23938   1.445   0.929   0.538
 7680SOL    HW123939   1.455   1.011   0.482
 7680SOL    HW223940   1.515   0.863   0.514
 7681SOL     OW23941   2.622   0.451   0.275
 7681SOL    HW123942   2.626   0.483   0.369
 7681SOL    HW223943   2.627   0.530   0.213
 7682SOL     OW23944   3.379   0.081   2.415
 7682SOL    HW123945   3.477   0.098   2.420
 7682SOL    HW223946   3.338   0.141   2.347
 7683SOL     OW23947   4.913   1.328   4.260
 7683SOL    HW123948   5.002   1.334   4.216
 7683SOL    HW223949   4.904   1.400   4.329
 7684SOL     OW23950   3.315   1.932   1.178
 7684SOL    HW123951   3.362   1.968   1.098
 7684SOL    HW223952   3.288   2.008   1.238
 7685SOL     OW23953   2.838   1.824   5.940
 7685SOL    HW123954   2.916   1.778   5.898
 7685SOL    HW223955   2.870   1.898   5.999
 7686SOL     OW23956   6.809   6.232   2.527
 7686SOL    HW123957   6.900   6.223   2.568
 7686SOL    HW223958   6.818   6.236   2.427
 7687SOL     OW23959   5.974   5.545   3.768
 7687SOL    HW123960   6.046   5.614   3.776
 7687SOL    HW223961   5.985   5.477   3.842
 7688SOL     OW23962   0.747   5.791   5.975
 7688SOL    HW123963   0.649   5.799   5.988
 7688SOL    HW223964   0.770   5.808   5.879
 7689SOL     OW23965   6.075   6.071   2.619
 7689SOL    HW123966   6.154   6.085   2.559
 7689SOL    HW223967   6.080   6.136   2.695
 7690SOL     OW23968   5.355   5.293   0.246
 7690SOL    HW123969   5.445   5.330   0.269
 7690SOL    HW223970   5.308   5.357   0.185
 7691SOL     OW23971   5.136   4.267   4.156
 7691SOL    HW123972   5.169   4.262   4.062
 7691SOL    HW223973   5.115   4.175   4.189
 7692SOL     OW23974   0.735   6.132   1.954
 7692SOL    HW123975   0.780   6.052   1.995
 7692SOL    HW223976   0.647   6.104   1.914
 7693SOL     OW23977   3.681   6.469   1.279
 7693SOL    HW123978   3.771   6.431   1.300
 7693SOL    HW223979   3.692   6.553   1.226
 7694SOL     OW23980   6.593   4.467   4.825
 7694SOL    HW123981   6.624   4.502   4.737
 7694SOL    HW223982   6.500   4.499   4.843
 7695SOL     OW23983   4.820   0.840   1.089
 7695SOL    HW123984   4.812   0.907   1.015
 7695SOL    HW223985   4.843   0.887   1.174
 7696SOL     OW23986   0.129   0.241   5.395
 7696SOL    HW123987   0.222   0.265   5.366
 7696SOL    HW223988   0.064   0.266   5.324
 7697SOL     OW23989   2.643   6.504   2.142
 7697SOL    HW123990   2.597   6.516   2.230
 7697SOL    HW223991   2.742   6.513   2.154
 7698SOL     OW23992   6.169   1.131   4.065
 7698SOL    HW123993   6.235   1.198   4.098
 7698SOL    HW223994   6.077   1.167   4.076
 7699SOL     OW23995   3.603   5.836   6.203
 7699SOL    HW123996   3.700   5.811   6.198
 7699SOL    HW223997   3.588   5.895   6.283
 7700SOL     OW23998   4.610   5.826   3.579
 7700SOL    HW123999   4.655   5.821   3.668
 7700SOL    HW224000   4.632   5.913   3.534
 7701SOL     OW24001   6.836   2.066   0.119
 7701SOL    HW124002   6.775   2.088   0.042
 7701SOL    HW224003   6.786   2.073   0.205
 7702SOL     OW24004   3.409   6.763   5.388
 7702SOL    HW124005   3.466   6.729   5.314
 7702SOL    HW224006   3.349   6.690   5.422
 7703SOL     OW24007   6.875   6.625   6.618
 7703SOL    HW124008   6.809   6.687   6.660
 7703SOL    HW224009   6.961   6.629   6.669
 7704SOL     OW24010   5.436   5.829   4.838
 7704SOL    HW124011   5.525   5.872   4.828
 7704SOL    HW224012   5.367   5.900   4.856
 7705SOL     OW24013   3.379   5.502   6.944
 7705SOL    HW124014   3.333   5.564   6.880
 7705SOL    HW224015   3.331   5.505   0.011
 7706SOL     OW24016   4.776   3.222   5.491
 7706SOL    HW124017   4.769   3.319   5.511
 7706SOL    HW224018   4.713   3.171   5.551
 7707SOL     OW24019   6.519   5.337   5.442
 7707SOL    HW124020   6.616   5.321   5.421
 7707SOL    HW224021   6.504   5.433   5.462
 7708SOL     OW24022   0.466   6.616   6.065
 7708SOL    HW124023   0.488   6.643   6.159
 7708SOL    HW224024   0.539   6.646   6.004
 7709SOL     OW24025   6.306   4.487   2.007
 7709SOL    HW124026   6.264   4.555   2.068
 7709SOL    HW224027   6.402   4.473   2.033
 7710SOL     OW24028   2.868   1.537   0.353
 7710SOL    HW124029   2.901   1.586   0.272
 7710SOL    HW224030   2.938   1.473   0.385
 7711SOL     OW24031   5.875   6.845   5.807
 7711SOL    HW124032   5.840   6.922   5.753
 7711SOL    HW224033   5.909   6.774   5.746
 7712SOL     OW24034   6.216   5.301   1.904
 7712SOL    HW124035   6.161   5.380   1.877
 7712SOL    HW224036   6.203   5.227   1.839
 7713SOL     OW24037   1.886   4.342   1.067
 7713SOL    HW124038   1.809   4.324   1.128
 7713SOL    HW224039   1.972   4.322   1.114
 7714SOL     OW24040   6.729   3.882   5.531
 7714SOL    HW124041   6.694   3.799   5.575
 7714SOL    HW224042   6.829   3.884   5.539
 7715SOL     OW24043   3.441   1.603   0.594
 7715SOL    HW124044   3.535   1.626   0.618
 7715SOL    HW224045   3.428   1.504   0.600
 7716SOL     OW24046   6.550   3.983   2.649
 7716SOL    HW124047   6.462   3.939   2.629
 7716SOL    HW224048   6.593   3.937   2.726
 7717SOL     OW24049   1.820   1.186   5.258
 7717SOL    HW124050   1.756   1.255   5.224
 7717SOL    HW224051   1.791   1.155   5.348
 7718SOL     OW24052   0.839   3.218   3.915
 7718SOL    HW124053   0.789   3.270   3.846
 7718SOL    HW224054   0.774   3.180   3.981
 7719SOL     OW24055   6.417   4.207   5.060
 7719SOL    HW124056   6.465   4.228   4.974
 7719SOL    HW224057   6.482   4.176   5.128
 7720SOL     OW24058   0.234   1.511   0.161
 7720SOL    HW124059   0.231   1.451   0.081
 7720SOL    HW224060   0.269   1.459   0.239
 7721SOL     OW24061   0.475   5.334   2.700
 7721SOL    HW124062   0.436   5.253   2.655
 7721SOL    HW224063   0.451   5.333   2.797
 7722SOL     OW24064   1.064   4.586   4.074
 7722SOL    HW124065   1.124   4.550   4.146
 7722SOL    HW224066   0.994   4.645   4.115
 7723SOL     OW24067   4.833   3.455   6.261
 7723SOL    HW124068   4.882   3.540   6.240
 7723SOL    HW224069   4.777   3.429   6.182
 7724SOL     OW24070   3.294   3.896   1.263
 7724SOL    HW124071   3.292   3.966   1.192
 7724SOL    HW224072   3.366   3.918   1.330
 7725SOL     OW24073   6.906   1.021   2.574
 7725SOL    HW124074   6.903   1.061   2.482
 7725SOL    HW224075   6.985   1.056   2.623
 7726SOL     OW24076   1.724   5.560   5.260
 7726SOL    HW124077   1.626   5.559   5.238
 7726SOL    HW224078   1.746   5.642   5.312
 7727SOL     OW24079   0.598   1.365   2.654
 7727SOL    HW124080   0.686   1.402   2.686
 7727SOL    HW224081   0.599   1.265   2.662
 7728SOL     OW24082   1.437   4.596   4.614
 7728SOL    HW124083   1.443   4.686   4.572
 7728SOL    HW224084   1.458   4.602   4.711
 7729SOL     OW24085   5.811   2.692   0.839
 7729SOL    HW124086   5.809   2.598   0.804
 7729SOL    HW224087   5.860   2.751   0.774
 7730SOL     OW24088   5.754   5.859   0.277
 7730SOL    HW124089   5.738   5.919   0.198
 7730SOL    HW224090   5.828   5.896   0.333
 7731SOL     OW24091   6.569   1.446   0.575
 7731SOL    HW124092   6.639   1.392   0.528
 7731SOL    HW224093   6.525   1.390   0.645
 7732SOL     OW24094   4.961   6.635   0.831
 7732SOL    HW124095   4.903   6.576   0.775
 7732SOL    HW224096   4.961   6.727   0.793
 7733SOL     OW24097   4.895   6.445   3.156
 7733SOL    HW124098   4.980   6.466   3.205
 7733SOL    HW224099   4.875   6.518   3.091
 7734SOL     OW24100   1.853   4.664   2.848
 7734SOL    HW124101   1.803   4.735   2.898
 7734SOL    HW224102   1.798   4.632   2.771
 7735SOL     OW24103   4.527   6.419   6.907
 7735SOL    HW124104   4.535   6.371   6.820
 7735SOL    HW224105   4.462   6.495   6.898
 7736SOL     OW24106   3.707   3.579   6.849
 7736SOL    HW124107   3.773   3.504   6.838
 7736SOL    HW224108   3.739   3.659   6.797
 7737SOL     OW24109   3.304   6.833   2.383
 7737SOL    HW124110   3.345   6.774   2.453
 7737SOL    HW224111   3.348   6.923   2.385
 7738SOL     OW24112   3.253   5.655   6.792
 7738SOL    HW124113   3.207   5.744   6.787
 7738SOL    HW224114   3.200   5.588   6.740
 7739SOL     OW24115   0.314   2.637   1.375
 7739SOL    HW124116   0.246   2.671   1.310
 7739SOL    HW224117   0.357   2.555   1.339
 7740SOL     OW24118   2.212   1.424   2.831
 7740SOL    HW124119   2.211   1.420   2.731
 7740SOL    HW224120   2.140   1.486   2.862
 7741SOL     OW24121   1.034   5.009   5.900
 7741SOL    HW124122   1.002   4.923   5.861
 7741SOL    HW224123   0.994   5.022   5.990
 7742SOL     OW24124   3.952   1.964   3.252
 7742SOL    HW124125   4.036   1.987   3.202
 7742SOL    HW224126   3.960   1.997   3.347
 7743SOL     OW24127   5.983   1.431   6.525
 7743SOL    HW124128   5.900   1.412   6.473
 7743SOL    HW224129   5.966   1.506   6.588
 7744SOL     OW24130   0.819   6.895   3.916
 7744SOL    HW124131   0.883   6.870   3.988
 7744SOL    HW224132   0.840   6.987   3.883
 7745SOL     OW24133   3.631   1.499   6.646
 7745SOL    HW124134   3.562   1.477   6.716
 7745SOL    HW224135   3.720   1.508   6.689
 7746SOL     OW24136   1.853   0.301   0.349
 7746SOL    HW124137   1.792   0.226   0.325
 7746SOL    HW224138   1.802   0.387   0.348
 7747SOL     OW24139   5.392   5.786   1.625
 7747SOL    HW124140   5.384   5.745   1.716
 7747SOL    HW224141   5.308   5.836   1.603
 7748SOL     OW24142   3.204   3.913   4.707
 7748SOL    HW124143   3.218   3.999   4.757
 7748SOL    HW224144   3.122   3.868   4.743
 7749SOL     OW24145   3.006   3.457   5.966
 7749SOL    HW124146   3.011   3.496   5.875
 7749SOL    HW224147   2.922   3.402   5.974
 7750SOL     OW24148   0.245   6.040   1.210
 7750SOL    HW124149   0.240   5.959   1.151
 7750SOL    HW224150   0.341   6.065   1.224
 7751SOL     OW24151   1.645   2.638   2.075
 7751SOL    HW124152   1.607   2.714   2.022
 7751SOL    HW224153   1.667   2.670   2.167
 7752SOL     OW24154   5.368   6.634   5.776
 7752SOL    HW124155   5.459   6.657   5.740
 7752SOL    HW224156   5.378   6.580   5.859
 7753SOL     OW24157   2.357   0.881   3.631
 7753SOL    HW124158   2.374   0.972   3.669
 7753SOL    HW224159   2.410   0.868   3.548
 7754SOL     OW24160   3.420   6.765   1.940
 7754SOL    HW124161   3.432   6.674   1.981
 7754SOL    HW224162   3.342   6.811   1.982
 7755SOL     OW24163   1.929   2.048   5.129
 7755SOL    HW124164   1.948   1.983   5.055
 7755SOL    HW224165   1.831   2.050   5.147
 7756SOL     OW24166   2.956   6.302   2.734
 7756SOL    HW124167   2.883   6.323   2.669
 7756SOL    HW224168   2.995   6.387   2.769
 7757SOL     OW24169   5.659   4.986   0.045
 7757SOL    HW124170   5.589   4.983   6.994
 7757SOL    HW224171   5.618   4.957   0.132
 7758SOL     OW24172   1.943   0.830   5.565
 7758SOL    HW124173   1.931   0.929   5.577
 7758SOL    HW224174   1.855   0.787   5.548
 7759SOL     OW24175   1.694   2.058   5.712
 7759SOL    HW124176   1.697   2.110   5.798
 7759SOL    HW224177   1.715   1.962   5.731
 7760SOL     OW24178   5.862   2.998   2.912
 7760SOL    HW124179   5.877   2.943   2.830
 7760SOL    HW224180   5.813   3.082   2.887
 7761SOL     OW24181   0.253   0.567   4.588
 7761SOL    HW124182   0.225   0.525   4.502
 7761SOL    HW224183   0.310   0.647   4.569
 7762SOL     OW24184   2.849   7.019   3.941
 7762SOL    HW124185   2.943   7.003   3.911
 7762SOL    HW224186   2.810   0.073   3.888
 7763SOL     OW24187   2.074   0.604   6.344
 7763SOL    HW124188   2.096   0.507   6.352
 7763SOL    HW224189   2.006   0.617   6.272
 7764SOL     OW24190   3.361   3.210   4.299
 7764SOL    HW124191   3.358   3.266   4.216
 7764SOL    HW224192   3.317   3.260   4.374
 7765SOL     OW24193   6.197   3.809   5.045
 7765SOL    HW124194   6.281   3.781   5.093
 7765SOL    HW224195   6.221   3.868   4.968
 7766SOL     OW24196   0.041   3.833   0.093
 7766SOL    HW124197   0.074   3.739   0.105
 7766SOL    HW224198   7.013   3.840   0.006
 7767SOL     OW24199   5.128   6.349   2.510
 7767SOL    HW124200   5.207   6.396   2.469
 7767SOL    HW224201   5.155   6.256   2.536
 7768SOL     OW24202   4.170   4.705   2.644
 7768SOL    HW124203   4.194   4.683   2.738
 7768SOL    HW224204   4.089   4.764   2.643
 7769SOL     OW24205   4.001   1.631   3.205
 7769SOL    HW124206   3.931   1.639   3.276
 7769SOL    HW224207   3.988   1.701   3.135
 7770SOL     OW24208   1.813   4.188   3.917
 7770SOL    HW124209   1.869   4.128   3.974
 7770SOL    HW224210   1.854   4.279   3.915
 7771SOL     OW24211   3.797   1.977   5.299
 7771SOL    HW124212   3.712   1.974   5.351
 7771SOL    HW224213   3.875   1.977   5.363
 7772SOL     OW24214   4.433   0.148   2.935
 7772SOL    HW124215   4.489   0.179   2.858
 7772SOL    HW224216   4.489   0.090   2.995
 7773SOL     OW24217   2.593   5.827   5.096
 7773SOL    HW124218   2.620   5.824   5.193
 7773SOL    HW224219   2.494   5.817   5.089
 7774SOL     OW24220   5.082   2.216   4.365
 7774SOL    HW124221   5.123   2.134   4.326
 7774SOL    HW224222   5.143   2.254   4.435
 7775SOL     OW24223   4.386   6.218   0.886
 7775SOL    HW124224   4.452   6.168   0.943
 7775SOL    HW224225   4.294   6.184   0.906
 7776SOL     OW24226   0.339   5.486   6.191
 7776SOL    HW124227   0.400   5.501   6.269
 7776SOL    HW224228   0.373   5.409   6.137
 7777SOL     OW24229   5.868   6.224   4.027
 7777SOL    HW124230   5.937   6.183   3.967
 7777SOL    HW224231   5.890   6.320   4.041
 7778SOL     OW24232   5.488   4.658   0.250
 7778SOL    HW124233   5.471   4.588   0.320
 7778SOL    HW224234   5.576   4.641   0.206
 7779SOL     OW24235   2.671   1.858   1.460
 7779SOL    HW124236   2.751   1.844   1.403
 7779SOL    HW224237   2.700   1.876   1.554
 7780SOL     OW24238   1.106   4.830   5.426
 7780SOL    HW124239   1.029   4.893   5.415
 7780SOL    HW224240   1.192   4.880   5.413
 7781SOL     OW24241   2.761   4.774   1.113
 7781SOL    HW124242   2.809   4.690   1.137
 7781SOL    HW224243   2.684   4.787   1.175
 7782SOL     OW24244   4.896   5.038   4.246
 7782SOL    HW124245   4.936   5.107   4.305
 7782SOL    HW224246   4.964   4.967   4.227
 7783SOL     OW24247   0.820   6.244   5.224
 7783SOL    HW124248   0.831   6.339   5.252
 7783SOL    HW224249   0.741   6.205   5.271
 7784SOL     OW24250   3.693   2.827   1.900
 7784SOL    HW124251   3.676   2.730   1.879
 7784SOL    HW224252   3.678   2.843   1.998
 7785SOL     OW24253   1.646   6.366   4.847
 7785SOL    HW124254   1.682   6.307   4.919
 7785SOL    HW224255   1.678   6.459   4.861
 7786SOL     OW24256   3.483   6.367   0.863
 7786SOL    HW124257   3.571   6.343   0.823
 7786SOL    HW224258   3.466   6.310   0.944
 7787SOL     OW24259   1.670   3.038   6.303
 7787SOL    HW124260   1.694   2.960   6.361
 7787SOL    HW224261   1.602   3.010   6.236
 7788SOL     OW24262   2.034   4.996   1.301
 7788SOL    HW124263   2.066   4.957   1.387
 7788SOL    HW224264   2.090   5.075   1.277
 7789SOL     OW24265   2.368   7.003   6.113
 7789SOL    HW124266   2.284   0.015   6.156
 7789SOL    HW224267   2.442   7.000   6.181
 7790SOL     OW24268   5.442   5.645   3.226
 7790SOL    HW124269   5.430   5.550   3.201
 7790SOL    HW224270   5.509   5.652   3.300
 7791SOL     OW24271   2.818   5.397   2.592
 7791SOL    HW124272   2.781   5.474   2.643
 7791SOL    HW224273   2.747   5.329   2.578
 7792SOL     OW24274   1.895   5.697   4.641
 7792SOL    HW124275   1.876   5.618   4.699
 7792SOL    HW224276   1.811   5.728   4.598
 7793SOL     OW24277   4.085   1.162   1.179
 7793SOL    HW124278   4.145   1.142   1.255
 7793SOL    HW224279   3.994   1.123   1.196
 7794SOL     OW24280   6.348   3.826   2.533
 7794SOL    HW124281   6.335   3.904   2.472
 7794SOL    HW224282   6.433   3.779   2.509
 7795SOL     OW24283   1.799   4.101   5.231
 7795SOL    HW124284   1.817   4.017   5.181
 7795SOL    HW224285   1.759   4.080   5.320
 7796SOL     OW24286   3.510   3.054   4.602
 7796SOL    HW124287   3.478   3.149   4.603
 7796SOL    HW224288   3.519   3.021   4.696
 7797SOL     OW24289   1.615   6.939   1.933
 7797SOL    HW124290   1.594   6.883   2.013
 7797SOL    HW224291   1.626   6.880   1.852
 7798SOL     OW24292   1.344   3.359   3.771
 7798SOL    HW124293   1.364   3.443   3.822
 7798SOL    HW224294   1.392   3.282   3.812
 7799SOL     OW24295   1.856   5.931   2.993
 7799SOL    HW124296   1.902   5.889   2.915
 7799SOL    HW224297   1.811   5.859   3.047
 7800SOL     OW24298   1.066   5.792   2.555
 7800SOL    HW124299   1.124   5.712   2.536
 7800SOL    HW224300   1.026   5.783   2.646
 7801SOL     OW24301   1.981   1.622   1.499
 7801SOL    HW124302   1.884   1.639   1.483
 7801SOL    HW224303   2.011   1.672   1.580
 7802SOL     OW24304   5.704   2.905   1.203
 7802SOL    HW124305   5.740   2.811   1.200
 7802SOL    HW224306   5.622   2.907   1.260
 7803SOL     OW24307   4.053   2.502   5.812
 7803SOL    HW124308   4.118   2.459   5.875
 7803SOL    HW224309   3.960   2.491   5.847
 7804SOL     OW24310   4.436   2.199   5.303
 7804SOL    HW124311   4.467   2.184   5.397
 7804SOL    HW224312   4.510   2.176   5.240
 7805SOL     OW24313   5.284   3.144   1.665
 7805SOL    HW124314   5.187   3.147   1.691
 7805SOL    HW224315   5.319   3.238   1.659
 7806SOL     OW24316   6.393   2.137   6.689
 7806SOL    HW124317   6.446   2.054   6.674
 7806SOL    HW224318   6.387   2.156   6.787
 7807SOL     OW24319   1.369   4.534   6.087
 7807SOL    HW124320   1.464   4.563   6.076
 7807SOL    HW224321   1.350   4.519   6.184
 7808SOL     OW24322   6.481   3.435   4.458
 7808SOL    HW124323   6.397   3.384   4.476
 7808SOL    HW224324   6.522   3.401   4.373
 7809SOL     OW24325   4.162   5.065   4.541
 7809SOL    HW124326   4.254   5.027   4.550
 7809SOL    HW224327   4.102   4.996   4.500
 7810SOL     OW24328   3.527   6.825   4.687
 7810SOL    HW124329   3.441   6.801   4.641
 7810SOL    HW224330   3.546   6.757   4.758
 7811SOL     OW24331   1.329   5.326   2.104
 7811SOL    HW124332   1.233   5.318   2.079
 7811SOL    HW224333   1.373   5.236   2.101
 7812SOL     OW24334   0.044   2.049   4.602
 7812SOL    HW124335   0.085   2.055   4.511
 7812SOL    HW224336   0.069   1.962   4.643
 7813SOL     OW24337   3.934   2.189   0.073
 7813SOL    HW124338   3.921   2.095   0.104
 7813SOL    HW224339   3.975   2.243   0.147
 7814SOL     OW24340   0.313   3.225   3.076
 7814SOL    HW124341   0.343   3.154   3.012
 7814SOL    HW224342   0.354   3.207   3.166
 7815SOL     OW24343   6.104   1.697   4.397
 7815SOL    HW124344   6.095   1.720   4.300
 7815SOL    HW224345   6.047   1.759   4.451
 7816SOL     OW24346   1.440   2.369   6.590
 7816SOL    HW124347   1.416   2.454   6.544
 7816SOL    HW224348   1.357   2.322   6.619
 7817SOL     OW24349   4.885   3.915   4.123
 7817SOL    HW124350   4.807   3.934   4.183
 7817SOL    HW224351   4.969   3.948   4.166
 7818SOL     OW24352   4.996   0.101   2.525
 7818SOL    HW124353   5.039   0.191   2.533
 7818SOL    HW224354   5.025   0.044   2.602
 7819SOL     OW24355   6.801   4.112   3.999
 7819SOL    HW124356   6.802   4.020   4.037
 7819SOL    HW224357   6.749   4.172   4.060
 7820SOL     OW24358   1.689   1.396   5.204
 7820SOL    HW124359   1.672   1.494   5.208
 7820SOL    HW224360   1.644   1.358   5.123
 7821SOL     OW24361   5.266   5.435   6.780
 7821SOL    HW124362   5.208   5.517   6.781
 7821SOL    HW224363   5.362   5.463   6.794
 7822SOL     OW24364   0.700   1.213   0.384
 7822SOL    HW124365   0.681   1.239   0.478
 7822SOL    HW224366   0.792   1.174   0.378
 7823SOL     OW24367   3.161   3.590   6.194
 7823SOL    HW124368   3.073   3.560   6.158
 7823SOL    HW224369   3.150   3.679   6.238
 7824SOL     OW24370   5.319   1.425   3.932
 7824SOL    HW124371   5.278   1.348   3.981
 7824SOL    HW224372   5.415   1.433   3.957
 7825SOL     OW24373   1.076   3.417   0.947
 7825SOL    HW124374   1.170   3.389   0.963
 7825SOL    HW224375   1.069   3.517   0.946
 7826SOL     OW24376   5.939   2.003   0.087
 7826SOL    HW124377   5.952   2.004   7.009
 7826SOL    HW224378   5.865   1.939   0.111
 7827SOL     OW24379   3.242   4.995   1.473
 7827SOL    HW124380   3.295   5.031   1.396
 7827SOL    HW224381   3.289   5.014   1.559
 7828SOL     OW24382   0.686   5.093   6.915
 7828SOL    HW124383   0.750   5.031   6.961
 7828SOL    HW224384   0.700   5.088   6.816
 7829SOL     OW24385   1.906   3.033   6.884
 7829SOL    HW124386   1.811   3.064   6.883
 7829SOL    HW224387   1.964   3.107   6.919
 7830SOL     OW24388   3.985   3.783   5.731
 7830SOL    HW124389   4.019   3.689   5.732
 7830SOL    HW224390   3.989   3.821   5.824
 7831SOL     OW24391   1.413   5.485   1.179
 7831SOL    HW124392   1.501   5.437   1.171
 7831SOL    HW224393   1.352   5.455   1.105
 7832SOL     OW24394   3.893   1.263   4.012
 7832SOL    HW124395   3.871   1.222   3.924
 7832SOL    HW224396   3.956   1.340   3.998
 7833SOL     OW24397   0.441   1.780   7.005
 7833SOL    HW124398   0.414   1.756   0.077
 7833SOL    HW224399   0.472   1.697   6.957
 7834SOL     OW24400   6.914   0.758   3.727
 7834SOL    HW124401   6.962   0.844   3.708
 7834SOL    HW224402   6.936   0.727   3.819
 7835SOL     OW24403   2.326   1.918   5.128
 7835SOL    HW124404   2.277   2.001   5.102
 7835SOL    HW224405   2.417   1.918   5.088
 7836SOL     OW24406   2.955   2.667   5.316
 7836SOL    HW124407   3.039   2.631   5.357
 7836SOL    HW224408   2.972   2.758   5.280
 7837SOL     OW24409   6.741   5.565   1.034
 7837SOL    HW124410   6.772   5.625   1.108
 7837SOL    HW224411   6.771   5.471   1.052
 7838SOL     OW24412   4.419   6.101   0.075
 7838SOL    HW124413   4.384   6.147   7.015
 7838SOL    HW224414   4.362   6.126   0.154
 7839SOL     OW24415   5.972   4.097   5.310
 7839SOL    HW124416   5.901   4.029   5.292
 7839SOL    HW224417   6.053   4.075   5.256
 7840SOL     OW24418   5.327   3.197   4.532
 7840SOL    HW124419   5.352   3.154   4.445
 7840SOL    HW224420   5.385   3.160   4.605
 7841SOL     OW24421   4.487   1.813   6.703
 7841SOL    HW124422   4.493   1.900   6.752
 7841SOL    HW224423   4.525   1.740   6.759
 7842SOL     OW24424   1.631   2.001   2.980
 7842SOL    HW124425   1.679   1.948   2.910
 7842SOL    HW224426   1.664   2.096   2.979
 7843SOL     OW24427   5.431   4.592   2.135
 7843SOL    HW124428   5.522   4.628   2.114
 7843SOL    HW224429   5.385   4.569   2.049
 7844SOL     OW24430   4.323   6.909   3.355
 7844SOL    HW124431   4.402   6.966   3.379
 7844SOL    HW224432   4.269   6.956   3.286
 7845SOL     OW24433   5.753   1.750   3.825
 7845SOL    HW124434   5.789   1.843   3.820
 7845SOL    HW224435   5.761   1.716   3.919
 7846SOL     OW24436   0.742   0.956   2.465
 7846SOL    HW124437   0.815   0.953   2.397
 7846SOL    HW224438   0.749   0.875   2.524
 7847SOL     OW24439   6.853   1.942   2.567
 7847SOL    HW124440   6.896   2.014   2.622
 7847SOL    HW224441   6.916   1.865   2.559
 7848SOL     OW24442   2.722   2.641   0.786
 7848SOL    HW124443   2.810   2.605   0.756
 7848SOL    HW224444   2.650   2.607   0.727
 7849SOL     OW24445   5.250   3.815   2.646
 7849SOL    HW124446   5.350   3.820   2.651
 7849SOL    HW224447   5.222   3.807   2.550
 7850SOL     OW24448   0.910   1.839   4.544
 7850SOL    HW124449   0.933   1.905   4.472
 7850SOL    HW224450   0.810   1.830   4.550
 7851SOL     OW24451   6.186   1.060   1.988
 7851SOL    HW124452   6.109   1.020   2.038
 7851SOL    HW224453   6.255   0.990   1.971
 7852SOL     OW24454   2.648   0.916   5.969
 7852SOL    HW124455   2.602   0.953   5.888
 7852SOL    HW224456   2.580   0.879   6.032
 7853SOL     OW24457   4.444   1.833   1.929
 7853SOL    HW124458   4.490   1.905   1.877
 7853SOL    HW224459   4.377   1.873   1.991
 7854SOL     OW24460   3.049   3.366   0.611
 7854SOL    HW124461   2.992   3.428   0.558
 7854SOL    HW224462   2.992   3.293   0.649
 7855SOL     OW24463   3.265   5.532   5.293
 7855SOL    HW124464   3.318   5.605   5.249
 7855SOL    HW224465   3.324   5.454   5.312
 7856SOL     OW24466   5.842   4.580   5.037
 7856SOL    HW124467   5.834   4.512   5.110
 7856SOL    HW224468   5.756   4.630   5.028
 7857SOL     OW24469   6.187   2.901   5.535
 7857SOL    HW124470   6.225   2.938   5.619
 7857SOL    HW224471   6.129   2.970   5.491
 7858SOL     OW24472   5.489   4.796   3.360
 7858SOL    HW124473   5.514   4.703   3.334
 7858SOL    HW224474   5.406   4.794   3.415
 7859SOL     OW24475   5.709   3.086   6.854
 7859SOL    HW124476   5.645   3.019   6.889
 7859SOL    HW224477   5.663   3.174   6.842
 7860SOL     OW24478   4.732   0.571   2.922
 7860SOL    HW124479   4.727   0.670   2.933
 7860SOL    HW224480   4.722   0.527   3.012
 7861SOL     OW24481   3.912   5.176   1.972
 7861SOL    HW124482   3.993   5.174   2.030
 7861SOL    HW224483   3.903   5.267   1.930
 7862SOL     OW24484   3.120   4.351   1.697
 7862SOL    HW124485   3.131   4.256   1.729
 7862SOL    HW224486   3.039   4.391   1.739
 7863SOL     OW24487   0.081   5.630   3.921
 7863SOL    HW124488   0.055   5.534   3.931
 7863SOL    HW224489   0.149   5.639   3.848
 7864SOL     OW24490   0.282   5.830   5.156
 7864SOL    HW124491   0.288   5.916   5.107
 7864SOL    HW224492   0.369   5.814   5.204
 7865SOL     OW24493   5.472   0.244   4.233
 7865SOL    HW124494   5.572   0.248   4.245
 7865SOL    HW224495   5.442   0.327   4.186
 7866SOL     OW24496   2.372   2.340   6.342
 7866SOL    HW124497   2.459   2.294   6.358
 7866SOL    HW224498   2.322   2.347   6.429
 7867SOL     OW24499   5.295   0.028   2.740
 7867SOL    HW124500   5.261   6.959   2.715
 7867SOL    HW224501   5.380   0.047   2.691
 7868SOL     OW24502   5.902   0.255   2.307
 7868SOL    HW124503   5.875   0.169   2.265
 7868SOL    HW224504   5.925   0.321   2.235
 7869SOL     OW24505   5.473   3.792   6.996
 7869SOL    HW124506   5.544   3.738   0.022
 7869SOL    HW224507   5.470   3.884   0.013
 7870SOL     OW24508   4.150   5.235   4.059
 7870SOL    HW124509   4.094   5.254   3.978
 7870SOL    HW224510   4.096   5.252   4.142
 7871SOL     OW24511   5.158   3.149   2.719
 7871SOL    HW124512   5.083   3.148   2.652
 7871SOL    HW224513   5.147   3.227   2.781
 7872SOL     OW24514   2.206   4.086   2.857
 7872SOL    HW124515   2.230   4.046   2.946
 7872SOL    HW224516   2.206   4.186   2.865
 7873SOL     OW24517   5.963   0.603   5.970
 7873SOL    HW124518   6.054   0.589   6.009
 7873SOL    HW224519   5.893   0.577   6.037
 7874SOL     OW24520   5.065   1.589   0.490
 7874SOL    HW124521   5.101   1.507   0.534
 7874SOL    HW224522   5.138   1.633   0.437
 7875SOL     OW24523   5.091   2.208   6.371
 7875SOL    HW124524   5.060   2.174   6.460
 7875SOL    HW224525   5.090   2.133   6.305
 7876SOL     OW24526   0.234   6.667   5.099
 7876SOL    HW124527   0.325   6.626   5.094
 7876SOL    HW224528   0.241   6.766   5.091
 7877SOL     OW24529   0.492   2.495   2.549
 7877SOL    HW124530   0.465   2.592   2.543
 7877SOL    HW224531   0.461   2.447   2.467
 7878SOL     OW24532   5.509   5.037   4.029
 7878SOL    HW124533   5.496   5.016   3.932
 7878SOL    HW224534   5.433   5.095   4.060
 7879SOL     OW24535   4.427   5.403   3.402
 7879SOL    HW124536   4.480   5.489   3.402
 7879SOL    HW224537   4.347   5.414   3.460
 7880SOL     OW24538   2.044   5.070   2.047
 7880SOL    HW124539   2.055   5.166   2.021
 7880SOL    HW224540   2.133   5.030   2.066
 7881SOL     OW24541   5.548   4.081   5.126
 7881SOL    HW124542   5.484   4.101   5.052
 7881SOL    HW224543   5.521   3.995   5.171
 7882SOL     OW24544   0.964   3.522   3.007
 7882SOL    HW124545   1.028   3.579   3.058
 7882SOL    HW224546   0.881   3.507   3.061
 7883SOL     OW24547   1.653   0.297   0.625
 7883SOL    HW124548   1.635   0.208   0.583
 7883SOL    HW224549   1.581   0.320   0.690
 7884SOL     OW24550   2.200   3.893   3.879
 7884SOL    HW124551   2.202   3.992   3.872
 7884SOL    HW224552   2.112   3.859   3.846
 7885SOL     OW24553   6.337   5.938   1.246
 7885SOL    HW124554   6.405   5.934   1.319
 7885SOL    HW224555   6.295   5.848   1.234
 7886SOL     OW24556   3.777   6.310   0.762
 7886SOL    HW124557   3.870   6.280   0.740
 7886SOL    HW224558   3.757   6.291   0.858
 7887SOL     OW24559   3.226   2.589   5.321
 7887SOL    HW124560   3.220   2.509   5.261
 7887SOL    HW224561   3.301   2.577   5.385
 7888SOL     OW24562   6.758   6.742   5.126
 7888SOL    HW124563   6.670   6.777   5.095
 7888SOL    HW224564   6.744   6.661   5.183
 7889SOL     OW24565   1.094   5.003   6.977
 7889SOL    HW124566   1.038   4.944   6.918
 7889SOL    HW224567   1.168   4.950   7.018
 7890SOL     OW24568   0.348   3.123   3.355
 7890SOL    HW124569   0.392   3.131   3.444
 7890SOL    HW224570   0.250   3.112   3.367
 7891SOL     OW24571   2.090   4.306   4.578
 7891SOL    HW124572   2.118   4.211   4.561
 7891SOL    HW224573   1.996   4.319   4.547
 7892SOL     OW24574   1.741   2.025   4.217
 7892SOL    HW124575   1.658   2.014   4.272
 7892SOL    HW224576   1.786   1.937   4.207
 7893SOL     OW24577   6.494   6.522   1.710
 7893SOL    HW124578   6.475   6.428   1.739
 7893SOL    HW224579   6.573   6.556   1.761
 7894SOL     OW24580   3.530   0.128   1.026
 7894SOL    HW124581   3.505   0.069   1.103
 7894SOL    HW224582   3.616   0.174   1.046
 7895SOL     OW24583   5.081   0.755   4.976
 7895SOL    HW124584   5.017   0.721   5.045
 7895SOL    HW224585   5.174   0.732   5.003
 7896SOL     OW24586   3.979   2.978   0.856
 7896SOL    HW124587   4.044   3.050   0.880
 7896SOL    HW224588   3.912   3.014   0.790
 7897SOL     OW24589   3.332   2.819   1.078
 7897SOL    HW124590   3.386   2.822   0.994
 7897SOL    HW224591   3.237   2.800   1.055
 7898SOL     OW24592   3.567   0.839   3.758
 7898SOL    HW124593   3.605   0.823   3.667
 7898SOL    HW224594   3.608   0.921   3.797
 7899SOL     OW24595   6.065   0.516   1.042
 7899SOL    HW124596   6.039   0.493   1.135
 7899SOL    HW224597   6.030   0.446   0.979
 7900SOL     OW24598   1.626   5.188   2.106
 7900SOL    HW124599   1.682   5.270   2.094
 7900SOL    HW224600   1.666   5.113   2.053
 7901SOL     OW24601   3.997   1.223   6.253
 7901SOL    HW124602   3.921   1.159   6.268
 7901SOL    HW224603   3.960   1.311   6.221
 7902SOL     OW24604   6.421   6.833   1.785
 7902SOL    HW124605   6.336   6.789   1.757
 7902SOL    HW224606   6.467   6.775   1.852
 7903SOL     OW24607   4.247   1.562   3.027
 7903SOL    HW124608   4.201   1.580   3.114
 7903SOL    HW224609   4.179   1.545   2.956
 7904SOL     OW24610   5.685   6.092   2.758
 7904SOL    HW124611   5.744   6.172   2.756
 7904SOL    HW224612   5.686   6.052   2.850
 7905SOL     OW24613   5.749   2.099   0.661
 7905SOL    HW124614   5.780   2.069   0.570
 7905SOL    HW224615   5.824   2.145   0.708
 7906SOL     OW24616   0.634   5.380   0.244
 7906SOL    HW124617   0.613   5.396   0.341
 7906SOL    HW224618   0.636   5.467   0.195
 7907SOL     OW24619   5.376   2.284   3.327
 7907SOL    HW124620   5.363   2.241   3.238
 7907SOL    HW224621   5.459   2.249   3.369
 7908SOL     OW24622   1.429   0.999   5.890
 7908SOL    HW124623   1.475   0.917   5.924
 7908SOL    HW224624   1.450   1.076   5.950
 7909SOL     OW24625   4.746   4.086   4.290
 7909SOL    HW124626   4.832   4.076   4.340
 7909SOL    HW224627   4.671   4.096   4.356
 7910SOL     OW24628   2.834   3.286   6.643
 7910SOL    HW124629   2.929   3.258   6.627
 7910SOL    HW224630   2.821   3.304   6.740
 7911SOL     OW24631   0.930   4.117   0.264
 7911SOL    HW124632   0.904   4.096   0.358
 7911SOL    HW224633   0.983   4.201   0.262
 7912SOL     OW24634   6.231   4.811   0.642
 7912SOL    HW124635   6.245   4.712   0.645
 7912SOL    HW224636   6.252   4.845   0.550
 7913SOL     OW24637   1.146   4.277   1.917
 7913SOL    HW124638   1.094   4.344   1.865
 7913SOL    HW224639   1.241   4.308   1.927
 7914SOL     OW24640   0.631   4.736   0.048
 7914SOL    HW124641   0.691   4.701   6.998
 7914SOL    HW224642   0.669   4.820   0.086
 7915SOL     OW24643   4.720   2.499   1.756
 7915SOL    HW124644   4.674   2.573   1.805
 7915SOL    HW224645   4.743   2.425   1.820
 7916SOL     OW24646   0.239   5.807   5.411
 7916SOL    HW124647   0.215   5.711   5.426
 7916SOL    HW224648   0.241   5.826   5.313
 7917SOL     OW24649   2.979   2.933   5.278
 7917SOL    HW124650   2.918   2.966   5.351
 7917SOL    HW224651   3.071   2.921   5.314
 7918SOL     OW24652   0.641   0.651   4.873
 7918SOL    HW124653   0.731   0.619   4.844
 7918SOL    HW224654   0.607   0.593   4.946
 7919SOL     OW24655   1.241   4.410   3.340
 7919SOL    HW124656   1.265   4.391   3.245
 7919SOL    HW224657   1.147   4.379   3.357
 7920SOL     OW24658   0.222   0.290   0.472
 7920SOL    HW124659   0.242   0.284   0.569
 7920SOL    HW224660   0.251   0.379   0.437
 7921SOL     OW24661   5.211   6.168   2.219
 7921SOL    HW124662   5.237   6.227   2.142
 7921SOL    HW224663   5.113   6.177   2.237
 7922SOL     OW24664   6.990   6.368   0.912
 7922SOL    HW124665   0.040   6.325   0.967
 7922SOL    HW224666   0.009   6.406   0.829
 7923SOL     OW24667   3.827   0.177   6.534
 7923SOL    HW124668   3.752   0.111   6.548
 7923SOL    HW224669   3.807   0.262   6.583
 7924SOL     OW24670   5.206   6.972   2.362
 7924SOL    HW124671   5.193   6.925   2.449
 7924SOL    HW224672   5.222   0.048   2.378
 7925SOL     OW24673   0.989   0.759   6.677
 7925SOL    HW124674   0.954   0.744   6.770
 7925SOL    HW224675   0.966   0.679   6.621
 7926SOL     OW24676   4.608   1.322   5.625
 7926SOL    HW124677   4.687   1.292   5.678
 7926SOL    HW224678   4.526   1.275   5.658
 7927SOL     OW24679   4.338   6.063   3.414
 7927SOL    HW124680   4.413   6.124   3.387
 7927SOL    HW224681   4.359   5.970   3.385
 7928SOL     OW24682   1.550   1.618   4.781
 7928SOL    HW124683   1.584   1.603   4.688
 7928SOL    HW224684   1.479   1.689   4.779
 7929SOL     OW24685   4.665   4.462   5.589
 7929SOL    HW124686   4.682   4.539   5.527
 7929SOL    HW224687   4.752   4.427   5.624
 7930SOL     OW24688   4.331   5.274   4.416
 7930SOL    HW124689   4.253   5.250   4.474
 7930SOL    HW224690   4.398   5.200   4.418
 7931SOL     OW24691   3.351   2.666   0.159
 7931SOL    HW124692   3.422   2.735   0.140
 7931SOL    HW224693   3.290   2.658   0.081
 7932SOL     OW24694   1.395   6.505   6.979
 7932SOL    HW124695   1.416   6.495   6.881
 7932SOL    HW224696   1.480   6.506   0.010
 7933SOL     OW24697   0.231   6.411   6.602
 7933SOL    HW124698   0.231   6.391   6.504
 7933SOL    HW224699   0.274   6.336   6.651
 7934SOL     OW24700   1.959   4.910   6.642
 7934SOL    HW124701   1.864   4.923   6.671
 7934SOL    HW224702   1.975   4.815   6.617
 7935SOL     OW24703   5.964   6.447   1.425
 7935SOL    HW124704   5.894   6.480   1.488
 7935SOL    HW224705   6.005   6.364   1.462
 7936SOL     OW24706   3.900   5.508   2.050
 7936SOL    HW124707   3.803   5.486   2.045
 7936SOL    HW224708   3.941   5.498   1.959
 7937SOL     OW24709   6.487   6.160   3.687
 7937SOL    HW124710   6.466   6.235   3.750
 7937SOL    HW224711   6.550   6.096   3.731
 7938SOL     OW24712   6.811   5.951   4.092
 7938SOL    HW124713   6.787   6.045   4.066
 7938SOL    HW224714   6.756   5.923   4.171
 7939SOL     OW24715   1.428   2.628   4.461
 7939SOL    HW124716   1.489   2.698   4.424
 7939SOL    HW224717   1.391   2.659   4.549
 7940SOL     OW24718   1.749   3.494   1.457
 7940SOL    HW124719   1.739   3.517   1.553
 7940SOL    HW224720   1.833   3.534   1.421
 7941SOL     OW24721   6.123   0.245   1.391
 7941SOL    HW124722   6.185   0.322   1.405
 7941SOL    HW224723   6.047   0.274   1.332
 7942SOL     OW24724   6.738   5.098   2.644
 7942SOL    HW124725   6.739   5.195   2.621
 7942SOL    HW224726   6.708   5.087   2.739
 7943SOL     OW24727   6.877   3.415   6.456
 7943SOL    HW124728   6.951   3.351   6.480
 7943SOL    HW224729   6.838   3.453   6.540
 7944SOL     OW24730   0.694   2.289   0.842
 7944SOL    HW124731   0.688   2.302   0.743
 7944SOL    HW224732   0.657   2.199   0.865
 7945SOL     OW24733   6.217   4.980   1.543
 7945SOL    HW124734   6.267   5.025   1.618
 7945SOL    HW224735   6.131   4.943   1.578
 7946SOL     OW24736   3.689   0.423   6.216
 7946SOL    HW124737   3.615   0.356   6.221
 7946SOL    HW224738   3.689   0.479   6.298
 7947SOL     OW24739   3.820   2.123   6.523
 7947SOL    HW124740   3.782   2.040   6.482
 7947SOL    HW224741   3.747   2.175   6.567
 7948SOL     OW24742   1.470   6.879   1.220
 7948SOL    HW124743   1.440   6.887   1.125
 7948SOL    HW224744   1.567   6.852   1.222
 7949SOL     OW24745   4.570   4.381   4.921
 7949SOL    HW124746   4.481   4.427   4.928
 7949SOL    HW224747   4.559   4.284   4.944
 7950SOL     OW24748   4.694   5.264   3.768
 7950SOL    HW124749   4.599   5.252   3.797
 7950SOL    HW224750   4.697   5.288   3.671
 7951SOL     OW24751   2.125   4.198   2.010
 7951SOL    HW124752   2.158   4.104   2.023
 7951SOL    HW224753   2.033   4.196   1.970
 7952SOL     OW24754   6.782   3.462   6.719
 7952SOL    HW124755   6.820   3.413   6.797
 7952SOL    HW224756   6.683   3.471   6.730
 7953SOL     OW24757   3.211   2.116   3.457
 7953SOL    HW124758   3.212   2.020   3.427
 7953SOL    HW224759   3.252   2.123   3.547
 7954SOL     OW24760   3.046   4.460   6.283
 7954SOL    HW124761   3.059   4.542   6.338
 7954SOL    HW224762   3.110   4.461   6.206
 7955SOL     OW24763   1.906   0.922   6.550
 7955SOL    HW124764   1.822   0.872   6.527
 7955SOL    HW224765   1.935   0.898   6.642
 7956SOL     OW24766   4.416   6.829   2.640
 7956SOL    HW124767   4.422   6.910   2.582
 7956SOL    HW224768   4.324   6.790   2.634
 7957SOL     OW24769   1.054   0.833   1.343
 7957SOL    HW124770   1.097   0.792   1.263
 7957SOL    HW224771   1.089   0.789   1.426
 7958SOL     OW24772   3.798   4.852   5.401
 7958SOL    HW124773   3.818   4.935   5.454
 7958SOL    HW224774   3.830   4.772   5.452
 7959SOL     OW24775   4.519   5.870   0.491
 7959SOL    HW124776   4.536   5.889   0.394
 7959SOL    HW224777   4.578   5.929   0.547
 7960SOL     OW24778   2.431   1.763   6.022
 7960SOL    HW124779   2.529   1.752   6.011
 7960SOL    HW224780   2.402   1.724   6.110
 7961SOL     OW24781   6.651   0.932   0.876
 7961SOL    HW124782   6.568   0.904   0.925
 7961SOL    HW224783   6.656   1.032   0.874
 7962SOL     OW24784   1.097   0.490   6.163
 7962SOL    HW124785   1.153   0.493   6.246
 7962SOL    HW224786   1.059   0.581   6.145
 7963SOL     OW24787   6.454   6.620   3.714
 7963SOL    HW124788   6.372   6.572   3.745
 7963SOL    HW224789   6.468   6.702   3.770
 7964SOL     OW24790   0.075   4.342   2.760
 7964SOL    HW124791   0.035   4.251   2.754
 7964SOL    HW224792   0.025   4.405   2.700
 7965SOL     OW24793   4.537   2.511   5.557
 7965SOL    HW124794   4.594   2.488   5.478
 7965SOL    HW224795   4.498   2.602   5.545
 7966SOL     OW24796   2.012   3.145   5.652
 7966SOL    HW124797   1.955   3.078   5.699
 7966SOL    HW224798   2.095   3.162   5.706
 7967SOL     OW24799   3.380   6.630   2.564
 7967SOL    HW124800   3.400   6.533   2.579
 7967SOL    HW224801   3.427   6.685   2.634
 7968SOL     OW24802   1.532   2.625   3.696
 7968SOL    HW124803   1.551   2.552   3.631
 7968SOL    HW224804   1.576   2.604   3.784
 7969SOL     OW24805   4.113   6.074   0.262
 7969SOL    HW124806   4.018   6.099   0.282
 7969SOL    HW224807   4.174   6.143   0.301
 7970SOL     OW24808   6.839   2.998   2.656
 7970SOL    HW124809   6.782   3.013   2.575
 7970SOL    HW224810   6.780   2.988   2.737
 7971SOL     OW24811   3.046   1.936   0.529
 7971SOL    HW124812   2.979   1.958   0.458
 7971SOL    HW224813   3.002   1.881   0.600
 7972SOL     OW24814   2.322   3.200   6.869
 7972SOL    HW124815   2.352   3.106   6.882
 7972SOL    HW224816   2.402   3.260   6.864
 7973SOL     OW24817   4.268   4.764   4.416
 7973SOL    HW124818   4.301   4.671   4.435
 7973SOL    HW224819   4.169   4.767   4.430
 7974SOL     OW24820   6.188   0.549   5.488
 7974SOL    HW124821   6.254   0.478   5.511
 7974SOL    HW224822   6.210   0.633   5.539
 7975SOL     OW24823   6.401   1.586   2.281
 7975SOL    HW124824   6.463   1.646   2.230
 7975SOL    HW224825   6.306   1.613   2.263
 7976SOL     OW24826   0.369   0.403   6.151
 7976SOL    HW124827   0.294   0.349   6.190
 7976SOL    HW224828   0.391   0.370   6.060
 7977SOL     OW24829   4.876   5.884   2.606
 7977SOL    HW124830   4.776   5.896   2.601
 7977SOL    HW224831   4.915   5.896   2.514
 7978SOL     OW24832   5.518   3.763   6.704
 7978SOL    HW124833   5.512   3.734   6.799
 7978SOL    HW224834   5.609   3.740   6.668
 7979SOL     OW24835   4.465   6.034   4.972
 7979SOL    HW124836   4.542   6.095   4.956
 7979SOL    HW224837   4.498   5.943   4.997
 7980SOL     OW24838   3.318   5.527   0.187
 7980SOL    HW124839   3.303   5.623   0.208
 7980SOL    HW224840   3.242   5.473   0.222
 7981SOL     OW24841   0.431   5.309   1.144
 7981SOL    HW124842   0.521   5.334   1.180
 7981SOL    HW224843   0.423   5.210   1.140
 7982SOL     OW24844   1.590   1.327   6.806
 7982SOL    HW124845   1.606   1.422   6.831
 7982SOL    HW224846   1.553   1.322   6.714
 7983SOL     OW24847   5.831   2.303   1.708
 7983SOL    HW124848   5.766   2.289   1.633
 7983SOL    HW224849   5.875   2.216   1.730
 7984SOL     OW24850   0.709   1.440   0.782
 7984SOL    HW124851   0.649   1.494   0.723
 7984SOL    HW224852   0.783   1.400   0.727
 7985SOL     OW24853   2.711   0.979   4.421
 7985SOL    HW124854   2.731   0.900   4.480
 7985SOL    HW224855   2.794   1.005   4.372
 7986SOL     OW24856   3.174   1.320   6.197
 7986SOL    HW124857   3.216   1.341   6.285
 7986SOL    HW224858   3.188   1.397   6.134
 7987SOL     OW24859   1.472   2.869   6.494
 7987SOL    HW124860   1.462   2.770   6.483
 7987SOL    HW224861   1.422   2.917   6.422
 7988SOL     OW24862   0.491   2.038   3.724
 7988SOL    HW124863   0.423   1.978   3.682
 7988SOL    HW224864   0.539   1.988   3.797
 7989SOL     OW24865   2.731   2.962   6.201
 7989SOL    HW124866   2.791   2.987   6.277
 7989SOL    HW224867   2.787   2.936   6.122
 7990SOL     OW24868   0.687   3.941   4.815
 7990SOL    HW124869   0.708   3.902   4.905
 7990SOL    HW224870   0.742   3.895   4.745
 7991SOL     OW24871   5.675   6.678   3.372
 7991SOL    HW124872   5.608   6.605   3.362
 7991SOL    HW224873   5.628   6.766   3.377
 7992SOL     OW24874   1.047   0.228   1.016
 7992SOL    HW124875   1.078   0.140   0.981
 7992SOL    HW224876   1.104   0.255   1.093
 7993SOL     OW24877   0.883   6.935   0.559
 7993SOL    HW124878   0.882   6.930   0.658
 7993SOL    HW224879   0.821   6.866   0.521
 7994SOL     OW24880   4.213   0.128   3.637
 7994SOL    HW124881   4.302   0.134   3.591
 7994SOL    HW224882   4.201   0.036   3.674
 7995SOL     OW24883   5.287   5.917   3.841
 7995SOL    HW124884   5.318   5.825   3.864
 7995SOL    HW224885   5.223   5.913   3.765
 7996SOL     OW24886   2.516   6.708   5.027
 7996SOL    HW124887   2.584   6.699   4.955
 7996SOL    HW224888   2.448   6.776   5.000
 7997SOL     OW24889   0.045   1.491   1.038
 7997SOL    HW124890   7.019   1.521   0.956
 7997SOL    HW224891   7.016   1.415   1.080
 7998SOL     OW24892   3.172   7.020   0.541
 7998SOL    HW124893   3.262   0.014   0.502
 7998SOL    HW224894   3.115   0.080   0.527
 7999SOL     OW24895   1.183   0.243   6.037
 7999SOL    HW124896   1.153   0.315   6.100
 7999SOL    HW224897   1.214   0.284   5.951
 8000SOL     OW24898   4.746   0.401   6.665
 8000SOL    HW124899   4.828   0.441   6.707
 8000SOL    HW224900   4.682   0.374   6.736
 8001SOL     OW24901   4.387   6.442   1.234
 8001SOL    HW124902   4.486   6.452   1.236
 8001SOL    HW224903   4.361   6.355   1.275
 8002SOL     OW24904   1.558   1.414   5.879
 8002SOL    HW124905   1.563   1.386   5.783
 8002SOL    HW224906   1.515   1.503   5.886
 8003SOL     OW24907   3.389   5.353   2.212
 8003SOL    HW124908   3.345   5.263   2.218
 8003SOL    HW224909   3.486   5.344   2.238
 8004SOL     OW24910   2.130   3.231   2.808
 8004SOL    HW124911   2.035   3.205   2.789
 8004SOL    HW224912   2.165   3.286   2.732
 8005SOL     OW24913   2.912   0.823   1.359
 8005SOL    HW124914   2.949   0.916   1.371
 8005SOL    HW224915   2.838   0.825   1.292
 8006SOL     OW24916   2.437   6.749   5.918
 8006SOL    HW124917   2.426   6.748   6.017
 8006SOL    HW224918   2.348   6.744   5.874
 8007SOL     OW24919   6.593   0.565   4.397
 8007SOL    HW124920   6.668   0.547   4.460
 8007SOL    HW224921   6.509   0.521   4.431
 8008SOL     OW24922   3.979   5.242   6.384
 8008SOL    HW124923   3.897   5.188   6.365
 8008SOL    HW224924   3.997   5.305   6.309
 8009SOL     OW24925   5.911   1.153   2.367
 8009SOL    HW124926   5.875   1.113   2.452
 8009SOL    HW224927   5.897   1.252   2.369
 8010SOL     OW24928   1.503   1.702   5.867
 8010SOL    HW124929   1.587   1.724   5.818
 8010SOL    HW224930   1.499   1.753   5.953
 8011SOL     OW24931   2.762   2.346   1.149
 8011SOL    HW124932   2.713   2.300   1.222
 8011SOL    HW224933   2.825   2.282   1.105
 8012SOL     OW24934   1.815   3.851   1.240
 8012SOL    HW124935   1.809   3.824   1.336
 8012SOL    HW224936   1.759   3.932   1.224
 8013SOL     OW24937   1.436   5.416   3.238
 8013SOL    HW124938   1.404   5.352   3.309
 8013SOL    HW224939   1.427   5.373   3.148
 8014SOL     OW24940   1.016   5.923   5.623
 8014SOL    HW124941   0.927   5.900   5.661
 8014SOL    HW224942   1.008   6.003   5.564
 8015SOL     OW24943   3.307   0.630   6.151
 8015SOL    HW124944   3.364   0.674   6.221
 8015SOL    HW224945   3.231   0.690   6.127
 8016SOL     OW24946   4.727   0.583   5.575
 8016SOL    HW124947   4.767   0.494   5.552
 8016SOL    HW224948   4.665   0.571   5.653
 8017SOL     OW24949   5.806   0.497   0.432
 8017SOL    HW124950   5.831   0.510   0.528
 8017SOL    HW224951   5.838   0.575   0.378
 8018SOL     OW24952   3.403   1.999   6.352
 8018SOL    HW124953   3.383   2.076   6.412
 8018SOL    HW224954   3.321   1.943   6.341
 8019SOL     OW24955   2.374   4.384   0.217
 8019SOL    HW124956   2.339   4.387   0.124
 8019SOL    HW224957   2.344   4.465   0.267
 8020SOL     OW24958   5.726   0.770   1.095
 8020SOL    HW124959   5.693   0.816   1.178
 8020SOL    HW224960   5.656   0.706   1.063
 8021SOL     OW24961   1.319   2.646   0.973
 8021SOL    HW124962   1.253   2.651   0.899
 8021SOL    HW224963   1.332   2.737   1.013
 8022SOL     OW24964   5.497   6.897   3.026
 8022SOL    HW124965   5.503   6.850   2.938
 8022SOL    HW224966   5.411   6.948   3.030
 8023SOL     OW24967   5.842   5.070   2.472
 8023SOL    HW124968   5.835   4.996   2.405
 8023SOL    HW224969   5.751   5.105   2.493
 8024SOL     OW24970   1.810   4.796   6.270
 8024SOL    HW124971   1.901   4.814   6.308
 8024SOL    HW224972   1.815   4.793   6.171
 8025SOL     OW24973   1.853   6.398   6.709
 8025SOL    HW124974   1.944   6.361   6.731
 8025SOL    HW224975   1.852   6.428   6.613
 8026SOL     OW24976   0.360   4.340   6.931
 8026SOL    HW124977   0.455   4.371   6.941
 8026SOL    HW224978   0.311   4.402   6.870
 8027SOL     OW24979   4.767   1.090   4.774
 8027SOL    HW124980   4.732   1.123   4.862
 8027SOL    HW224981   4.865   1.105   4.769
 8028SOL     OW24982   3.673   5.431   5.479
 8028SOL    HW124983   3.696   5.339   5.449
 8028SOL    HW224984   3.575   5.436   5.499
 8029SOL     OW24985   4.685   3.239   1.109
 8029SOL    HW124986   4.603   3.293   1.131
 8029SOL    HW224987   4.661   3.142   1.105
 8030SOL     OW24988   4.409   4.527   0.701
 8030SOL    HW124989   4.377   4.588   0.629
 8030SOL    HW224990   4.342   4.522   0.774
 8031SOL     OW24991   6.414   6.532   2.112
 8031SOL    HW124992   6.427   6.480   2.196
 8031SOL    HW224993   6.470   6.615   2.114
 8032SOL     OW24994   6.509   4.597   1.386
 8032SOL    HW124995   6.427   4.635   1.343
 8032SOL    HW224996   6.482   4.543   1.466
 8033SOL     OW24997   4.885   1.214   5.682
 8033SOL    HW124998   4.941   1.263   5.614
 8033SOL    HW224999   4.922   1.231   5.773
 8034SOL     OW25000   4.978   0.373   4.331
 8034SOL    HW125001   5.008   0.278   4.342
 8034SOL    HW225002   5.056   0.434   4.345
 8035SOL     OW25003   4.969   1.729   4.177
 8035SOL    HW125004   4.919   1.677   4.246
 8035SOL    HW225005   4.980   1.823   4.208
 8036SOL     OW25006   6.769   3.982   3.588
 8036SOL    HW125007   6.748   4.047   3.515
 8036SOL    HW225008   6.836   4.022   3.651
 8037SOL     OW25009   1.593   3.129   0.312
 8037SOL    HW125010   1.643   3.195   0.256
 8037SOL    HW225011   1.654   3.055   0.339
 8038SOL     OW25012   4.631   6.786   2.808
 8038SOL    HW125013   4.549   6.807   2.755
 8038SOL    HW225014   4.705   6.847   2.779
 8039SOL     OW25015   0.761   1.732   4.751
 8039SOL    HW125016   0.805   1.696   4.668
 8039SOL    HW225017   0.664   1.747   4.733
 8040SOL     OW25018   1.714   5.227   6.853
 8040SOL    HW125019   1.631   5.193   6.810
 8040SOL    HW225020   1.763   5.286   6.788
 8041SOL     OW25021   2.593   1.805   2.549
 8041SOL    HW125022   2.566   1.760   2.634
 8041SOL    HW225023   2.520   1.796   2.481
 8042SOL     OW25024   3.158   3.000   3.980
 8042SOL    HW125025   3.185   3.010   3.884
 8042SOL    HW225026   3.094   3.074   4.003
 8043SOL     OW25027   3.544   6.218   1.465
 8043SOL    HW125028   3.585   6.294   1.415
 8043SOL    HW225029   3.588   6.208   1.554
 8044SOL     OW25030   3.923   2.331   1.198
 8044SOL    HW125031   3.938   2.290   1.108
 8044SOL    HW225032   3.825   2.331   1.219
 8045SOL     OW25033   5.375   2.473   3.009
 8045SOL    HW125034   5.408   2.419   2.931
 8045SOL    HW225035   5.435   2.457   3.088
 8046SOL     OW25036   0.333   5.114   1.356
 8046SOL    HW125037   0.315   5.057   1.436
 8046SOL    HW225038   0.413   5.172   1.373
 8047SOL     OW25039   4.251   5.646   4.349
 8047SOL    HW125040   4.192   5.726   4.344
 8047SOL    HW225041   4.289   5.626   4.259
 8048SOL     OW25042   5.173   1.256   5.625
 8048SOL    HW125043   5.218   1.222   5.708
 8048SOL    HW225044   5.196   1.353   5.612
 8049SOL     OW25045   0.853   0.343   0.402
 8049SOL    HW125046   0.769   0.322   0.353
 8049SOL    HW225047   0.887   0.261   0.448
 8050SOL     OW25048   1.372   3.813   3.561
 8050SOL    HW125049   1.403   3.809   3.656
 8050SOL    HW225050   1.442   3.775   3.501
 8051SOL     OW25051   4.808   5.923   3.292
 8051SOL    HW125052   4.874   5.976   3.345
 8051SOL    HW225053   4.808   5.828   3.326
 8052SOL     OW25054   4.086   1.419   1.433
 8052SOL    HW125055   4.011   1.475   1.397
 8052SOL    HW225056   4.050   1.330   1.464
 8053SOL     OW25057   2.942   3.653   3.706
 8053SOL    HW125058   2.856   3.703   3.698
 8053SOL    HW225059   3.000   3.672   3.627
 8054SOL     OW25060   5.752   6.360   4.385
 8054SOL    HW125061   5.717   6.285   4.330
 8054SOL    HW225062   5.852   6.360   4.382
 8055SOL     OW25063   0.390   0.287   5.353
 8055SOL    HW125064   0.385   0.287   5.253
 8055SOL    HW225065   0.486   0.296   5.381
 8056SOL     OW25066   2.434   1.144   3.724
 8056SOL    HW125067   2.517   1.089   3.724
 8056SOL    HW225068   2.430   1.199   3.640
 8057SOL     OW25069   3.034   2.175   2.772
 8057SOL    HW125070   2.956   2.230   2.741
 8057SOL    HW225071   3.009   2.078   2.771
 8058SOL     OW25072   3.628   0.041   2.953
 8058SOL    HW125073   3.726   0.022   2.943
 8058SOL    HW225074   3.593   0.080   2.868
 8059SOL     OW25075   3.163   1.835   5.063
 8059SOL    HW125076   3.195   1.891   4.986
 8059SOL    HW225077   3.204   1.744   5.057
 8060SOL     OW25078   6.028   2.050   4.999
 8060SOL    HW125079   6.022   2.038   5.098
 8060SOL    HW225080   6.082   1.975   4.960
 8061SOL     OW25081   0.378   0.940   3.100
 8061SOL    HW125082   0.321   0.995   3.161
 8061SOL    HW225083   0.442   0.999   3.051
 8062SOL     OW25084   3.883   4.864   3.767
 8062SOL    HW125085   3.789   4.874   3.734
 8062SOL    HW225086   3.889   4.894   3.862
 8063SOL     OW25087   1.639   2.349   1.818
 8063SOL    HW125088   1.725   2.372   1.862
 8063SOL    HW225089   1.592   2.278   1.870
 8064SOL     OW25090   0.028   3.437   1.735
 8064SOL    HW125091   0.103   3.438   1.801
 8064SOL    HW225092   6.992   3.518   1.748
 8065SOL     OW25093   2.485   5.548   3.828
 8065SOL    HW125094   2.554   5.609   3.790
 8065SOL    HW225095   2.525   5.457   3.844
 8066SOL     OW25096   0.836   1.854   5.208
 8066SOL    HW125097   0.872   1.947   5.198
 8066SOL    HW225098   0.869   1.797   5.133
 8067SOL     OW25099   4.768   2.841   2.167
 8067SOL    HW125100   4.752   2.915   2.101
 8067SOL    HW225101   4.831   2.873   2.237
 8068SOL     OW25102   0.192   3.840   1.452
 8068SOL    HW125103   0.130   3.904   1.407
 8068SOL    HW225104   0.187   3.751   1.406
 8069SOL     OW25105   2.850   6.129   1.407
 8069SOL    HW125106   2.861   6.056   1.474
 8069SOL    HW225107   2.929   6.131   1.346
 8070SOL     OW25108   4.322   3.262   0.428
 8070SOL    HW125109   4.381   3.260   0.347
 8070SOL    HW225110   4.376   3.237   0.509
 8071SOL     OW25111   3.153   6.237   4.616
 8071SOL    HW125112   3.101   6.294   4.552
 8071SOL    HW225113   3.211   6.295   4.673
 8072SOL     OW25114   3.899   1.806   0.927
 8072SOL    HW125115   3.993   1.792   0.959
 8072SOL    HW225116   3.890   1.900   0.894
 8073SOL     OW25117   3.070   5.168   4.831
 8073SOL    HW125118   3.139   5.098   4.852
 8073SOL    HW225119   3.053   5.223   4.913
 8074SOL     OW25120   3.468   2.923   0.604
 8074SOL    HW125121   3.411   2.882   0.676
 8074SOL    HW225122   3.484   3.019   0.625
 8075SOL     OW25123   0.002   0.187   0.828
 8075SOL    HW125124   6.973   0.213   0.747
 8075SOL    HW225125   6.960   0.159   0.900
 8076SOL     OW25126   6.451   1.338   5.496
 8076SOL    HW125127   6.381   1.387   5.547
 8076SOL    HW225128   6.462   1.379   5.406
 8077SOL     OW25129   3.226   6.229   2.611
 8077SOL    HW125130   3.323   6.246   2.630
 8077SOL    HW225131   3.174   6.236   2.697
 8078SOL     OW25132   0.192   2.051   0.570
 8078SOL    HW125133   0.151   1.995   0.498
 8078SOL    HW225134   0.287   2.025   0.582
 8079SOL     OW25135   5.180   2.367   3.645
 8079SOL    HW125136   5.205   2.273   3.620
 8079SOL    HW225137   5.203   2.383   3.741
 8080SOL     OW25138   1.405   2.390   0.833
 8080SOL    HW125139   1.350   2.371   0.752
 8080SOL    HW225140   1.374   2.475   0.876
 8081SOL     OW25141   6.198   5.907   5.619
 8081SOL    HW125142   6.237   5.843   5.553
 8081SOL    HW225143   6.211   5.871   5.712
 8082SOL     OW25144   4.549   0.221   2.703
 8082SOL    HW125145   4.500   0.207   2.617
 8082SOL    HW225146   4.617   0.148   2.715
 8083SOL     OW25147   4.896   3.019   3.358
 8083SOL    HW125148   4.871   3.116   3.353
 8083SOL    HW225149   4.988   3.007   3.322
 8084SOL     OW25150   3.944   6.906   0.157
 8084SOL    HW125151   4.000   6.967   0.100
 8084SOL    HW225152   3.974   6.913   0.252
 8085SOL     OW25153   6.990   6.286   2.112
 8085SOL    HW125154   6.972   6.318   2.019
 8085SOL    HW225155   0.065   6.304   2.136
 8086SOL     OW25156   5.928   0.384   2.812
 8086SOL    HW125157   6.018   0.427   2.809
 8086SOL    HW225158   5.902   0.354   2.721
 8087SOL     OW25159   2.671   1.094   0.040
 8087SOL    HW125160   2.678   1.191   0.062
 8087SOL    HW225161   2.636   1.044   0.119
 8088SOL     OW25162   5.669   2.275   1.454
 8088SOL    HW125163   5.617   2.304   1.375
 8088SOL    HW225164   5.758   2.240   1.425
 8089SOL     OW25165   5.530   2.571   0.622
 8089SOL    HW125166   5.553   2.475   0.605
 8089SOL    HW225167   5.577   2.629   0.556
 8090SOL     OW25168   4.333   2.097   0.477
 8090SOL    HW125169   4.274   2.048   0.413
 8090SOL    HW225170   4.329   2.195   0.458
 8091SOL     OW25171   2.164   3.597   5.143
 8091SOL    HW125172   2.175   3.696   5.134
 8091SOL    HW225173   2.131   3.560   5.056
 8092SOL     OW25174   5.648   1.790   4.625
 8092SOL    HW125175   5.575   1.825   4.683
 8092SOL    HW225176   5.618   1.791   4.529
 8093SOL     OW25177   3.999   5.543   2.610
 8093SOL    HW125178   4.070   5.606   2.582
 8093SOL    HW225179   4.035   5.450   2.612
 8094SOL     OW25180   1.179   3.641   4.690
 8094SOL    HW125181   1.269   3.677   4.715
 8094SOL    HW225182   1.153   3.676   4.600
 8095SOL     OW25183   0.294   4.502   4.568
 8095SOL    HW125184   0.340   4.579   4.612
 8095SOL    HW225185   0.248   4.447   4.637
 8096SOL     OW25186   2.291   6.381   3.308
 8096SOL    HW125187   2.267   6.449   3.378
 8096SOL    HW225188   2.264   6.414   3.218
 8097SOL     OW25189   4.112   0.055   4.195
 8097SOL    HW125190   4.104   0.124   4.267
 8097SOL    HW225191   4.200   0.065   4.149
 8098SOL     OW25192   1.622   6.933   3.109
 8098SOL    HW125193   1.609   6.841   3.146
 8098SOL    HW225194   1.660   6.992   3.180
 8099SOL     OW25195   3.787   6.818   4.690
 8099SOL    HW125196   3.807   6.803   4.787
 8099SOL    HW225197   3.689   6.834   4.679
 8100SOL     OW25198   6.100   1.009   0.682
 8100SOL    HW125199   6.088   1.106   0.706
 8100SOL    HW225200   6.052   0.990   0.596
 8101SOL     OW25201   2.075   6.251   2.324
 8101SOL    HW125202   2.125   6.311   2.261
 8101SOL    HW225203   2.126   6.166   2.335
 8102SOL     OW25204   0.882   4.178   4.054
 8102SOL    HW125205   0.813   4.219   4.114
 8102SOL    HW225206   0.970   4.223   4.069
 8103SOL     OW25207   3.294   7.013   0.994
 8103SOL    HW125208   3.217   0.025   0.940
 8103SOL    HW225209   3.358   0.067   1.010
 8104SOL     OW25210   3.867   0.563   5.949
 8104SOL    HW125211   3.772   0.584   5.973
 8104SOL    HW225212   3.895   0.620   5.872
 8105SOL     OW25213   1.016   2.950   2.994
 8105SOL    HW125214   0.980   3.020   3.055
 8105SOL    HW225215   1.040   2.991   2.906
 8106SOL     OW25216   2.446   6.057   2.860
 8106SOL    HW125217   2.363   6.004   2.840
 8106SOL    HW225218   2.474   6.105   2.777
 8107SOL     OW25219   0.462   5.020   4.427
 8107SOL    HW125220   0.446   4.922   4.416
 8107SOL    HW225221   0.389   5.060   4.483
 8108SOL     OW25222   6.164   2.554   5.488
 8108SOL    HW125223   6.250   2.520   5.528
 8108SOL    HW225224   6.163   2.654   5.491
 8109SOL     OW25225   0.944   3.957   5.118
 8109SOL    HW125226   0.985   3.894   5.052
 8109SOL    HW225227   1.012   3.981   5.188
 8110SOL     OW25228   3.079   6.251   1.310
 8110SOL    HW125229   3.060   6.344   1.281
 8110SOL    HW225230   3.126   6.253   1.399
 8111SOL     OW25231   4.926   0.822   4.758
 8111SOL    HW125232   4.979   0.788   4.836
 8111SOL    HW225233   4.828   0.816   4.780
 8112SOL     OW25234   1.717   2.280   4.261
 8112SOL    HW125235   1.729   2.189   4.221
 8112SOL    HW225236   1.742   2.349   4.193
 8113SOL     OW25237   2.484   3.295   0.703
 8113SOL    HW125238   2.507   3.391   0.719
 8113SOL    HW225239   2.385   3.283   0.712
 8114SOL     OW25240   1.496   3.886   2.498
 8114SOL    HW125241   1.554   3.918   2.573
 8114SOL    HW225242   1.520   3.937   2.415
 8115SOL     OW25243   3.560   0.654   0.316
 8115SOL    HW125244   3.547   0.599   0.233
 8115SOL    HW225245   3.471   0.666   0.361
 8116SOL     OW25246   4.829   5.189   6.013
 8116SOL    HW125247   4.888   5.113   6.039
 8116SOL    HW225248   4.810   5.186   5.915
 8117SOL     OW25249   1.350   0.688   3.552
 8117SOL    HW125250   1.325   0.593   3.535
 8117SOL    HW225251   1.271   0.737   3.589
 8118SOL     OW25252   5.633   4.233   5.372
 8118SOL    HW125253   5.535   4.218   5.387
 8118SOL    HW225254   5.669   4.161   5.314
 8119SOL     OW25255   5.381   5.161   5.945
 8119SOL    HW125256   5.407   5.256   5.927
 8119SOL    HW225257   5.303   5.137   5.886
 8120SOL     OW25258   3.065   5.266   0.678
 8120SOL    HW125259   3.088   5.168   0.676
 8120SOL    HW225260   2.992   5.284   0.612
 8121SOL     OW25261   0.298   4.982   1.609
 8121SOL    HW125262   0.379   4.962   1.665
 8121SOL    HW225263   0.220   5.000   1.669
 8122SOL     OW25264   1.027   5.231   2.593
 8122SOL    HW125265   0.955   5.200   2.531
 8122SOL    HW225266   0.986   5.255   2.681
 8123SOL     OW25267   6.568   0.949   6.378
 8123SOL    HW125268   6.594   1.042   6.405
 8123SOL    HW225269   6.509   0.910   6.448
 8124SOL     OW25270   5.883   6.811   1.329
 8124SOL    HW125271   5.791   6.848   1.327
 8124SOL    HW225272   5.891   6.737   1.262
 8125SOL     OW25273   1.149   1.669   3.510
 8125SOL    HW125274   1.183   1.752   3.554
 8125SOL    HW225275   1.103   1.694   3.425
 8126SOL     OW25276   5.142   4.769   2.753
 8126SOL    HW125277   5.103   4.857   2.781
 8126SOL    HW225278   5.131   4.757   2.654
 8127SOL     OW25279   2.660   5.225   6.147
 8127SOL    HW125280   2.638   5.145   6.202
 8127SOL    HW225281   2.756   5.221   6.118
 8128SOL     OW25282   2.809   1.031   1.980
 8128SOL    HW125283   2.808   0.976   2.063
 8128SOL    HW225284   2.801   0.972   1.900
 8129SOL     OW25285   4.572   1.022   6.528
 8129SOL    HW125286   4.539   0.943   6.476
 8129SOL    HW225287   4.666   1.005   6.558
 8130SOL     OW25288   7.012   3.143   6.728
 8130SOL    HW125289   6.916   3.149   6.758
 8130SOL    HW225290   0.040   3.078   6.785
 8131SOL     OW25291   3.238   1.988   0.862
 8131SOL    HW125292   3.329   2.022   0.838
 8131SOL    HW225293   3.197   2.048   0.931
 8132SOL     OW25294   5.941   0.041   6.162
 8132SOL    HW125295   5.850   0.038   6.121
 8132SOL    HW225296   5.965   6.972   6.196
 8133SOL     OW25297   2.661   4.929   1.752
 8133SOL    HW125298   2.687   4.844   1.706
 8133SOL    HW225299   2.652   4.912   1.851
 8134SOL     OW25300   0.042   2.542   5.813
 8134SOL    HW125301   0.095   2.626   5.814
 8134SOL    HW225302   0.018   2.517   5.907
 8135SOL     OW25303   2.909   5.830   1.911
 8135SOL    HW125304   2.889   5.734   1.895
 8135SOL    HW225305   3.004   5.840   1.939
 8136SOL     OW25306   4.482   5.670   2.674
 8136SOL    HW125307   4.415   5.605   2.709
 8136SOL    HW225308   4.455   5.762   2.699
 8137SOL     OW25309   3.450   1.672   5.350
 8137SOL    HW125310   3.410   1.750   5.302
 8137SOL    HW225311   3.543   1.656   5.317
 8138SOL     OW25312   5.999   1.482   0.100
 8138SOL    HW125313   5.973   1.423   0.023
 8138SOL    HW225314   5.976   1.437   0.186
 8139SOL     OW25315   0.138   1.049   2.756
 8139SOL    HW125316   0.191   1.001   2.686
 8139SOL    HW225317   0.116   0.987   2.831
 8140SOL     OW25318   4.620   0.355   1.042
 8140SOL    HW125319   4.710   0.314   1.029
 8140SOL    HW225320   4.627   0.454   1.041
 8141SOL     OW25321   4.941   6.730   5.502
 8141SOL    HW125322   4.919   6.678   5.584
 8141SOL    HW225323   4.869   6.798   5.485
 8142SOL     OW25324   1.336   4.840   6.765
 8142SOL    HW125325   1.267   4.873   6.701
 8142SOL    HW225326   1.330   4.892   6.851
 8143SOL     OW25327   6.903   4.505   0.914
 8143SOL    HW125328   6.869   4.412   0.926
 8143SOL    HW225329   6.902   4.552   1.003
 8144SOL     OW25330   6.481   6.750   6.532
 8144SOL    HW125331   6.492   6.657   6.496
 8144SOL    HW225332   6.524   6.756   6.622
 8145SOL     OW25333   5.648   5.408   1.656
 8145SOL    HW125334   5.629   5.314   1.683
 8145SOL    HW225335   5.747   5.424   1.660
 8146SOL     OW25336   4.776   0.932   5.048
 8146SOL    HW125337   4.731   0.865   4.989
 8146SOL    HW225338   4.715   1.010   5.062
 8147SOL     OW25339   6.455   1.875   1.859
 8147SOL    HW125340   6.380   1.930   1.896
 8147SOL    HW225341   6.456   1.883   1.759
 8148SOL     OW25342   4.884   4.412   0.347
 8148SOL    HW125343   4.889   4.408   0.247
 8148SOL    HW225344   4.844   4.500   0.375
 8149SOL     OW25345   3.300   6.408   2.271
 8149SOL    HW125346   3.241   6.342   2.225
 8149SOL    HW225347   3.246   6.459   2.338
 8150SOL     OW25348   2.478   4.139   1.183
 8150SOL    HW125349   2.513   4.190   1.105
 8150SOL    HW225350   2.538   4.153   1.262
 8151SOL     OW25351   5.477   3.993   1.846
 8151SOL    HW125352   5.460   3.895   1.860
 8151SOL    HW225353   5.489   4.011   1.749
 8152SOL     OW25354   6.555   2.544   2.704
 8152SOL    HW125355   6.498   2.570   2.626
 8152SOL    HW225356   6.650   2.534   2.673
 8153SOL     OW25357   1.741   0.301   3.512
 8153SOL    HW125358   1.759   0.216   3.562
 8153SOL    HW225359   1.676   0.357   3.562
 8154SOL     OW25360   3.654   5.488   2.036
 8154SOL    HW125361   3.646   5.390   2.054
 8154SOL    HW225362   3.601   5.539   2.104
 8155SOL     OW25363   1.714   3.304   1.917
 8155SOL    HW125364   1.762   3.234   1.969
 8155SOL    HW225365   1.671   3.369   1.979
 8156SOL     OW25366   5.763   6.388   0.827
 8156SOL    HW125367   5.807   6.470   0.790
 8156SOL    HW225368   5.673   6.412   0.863
 8157SOL     OW25369   6.749   4.866   6.186
 8157SOL    HW125370   6.665   4.811   6.183
 8157SOL    HW225371   6.826   4.808   6.159
 8158SOL     OW25372   5.021   4.782   0.499
 8158SOL    HW125373   5.074   4.819   0.422
 8158SOL    HW225374   5.083   4.738   0.564
 8159SOL     OW25375   3.035   6.058   3.168
 8159SOL    HW125376   3.012   5.993   3.241
 8159SOL    HW225377   2.965   6.129   3.164
 8160SOL     OW25378   5.262   0.940   3.247
 8160SOL    HW125379   5.333   1.006   3.223
 8160SOL    HW225380   5.243   0.882   3.167
 8161SOL     OW25381   5.567   2.505   6.510
 8161SOL    HW125382   5.648   2.457   6.543
 8161SOL    HW225383   5.488   2.445   6.515
 8162SOL     OW25384   5.534   6.570   6.862
 8162SOL    HW125385   5.622   6.595   6.904
 8162SOL    HW225386   5.544   6.485   6.811
 8163SOL     OW25387   2.681   3.962   5.243
 8163SOL    HW125388   2.701   4.059   5.257
 8163SOL    HW225389   2.585   3.951   5.220
 8164SOL     OW25390   5.274   2.510   0.749
 8164SOL    HW125391   5.357   2.542   0.704
 8164SOL    HW225392   5.297   2.468   0.837
 8165SOL     OW25393   0.599   3.690   6.720
 8165SOL    HW125394   0.653   3.608   6.738
 8165SOL    HW225395   0.657   3.760   6.679
 8166SOL     OW25396   1.555   0.497   3.119
 8166SOL    HW125397   1.472   0.444   3.137
 8166SOL    HW225398   1.533   0.575   3.061
 8167SOL     OW25399   6.564   6.777   4.291
 8167SOL    HW125400   6.521   6.861   4.258
 8167SOL    HW225401   6.589   6.719   4.213
 8168SOL     OW25402   1.746   1.523   3.460
 8168SOL    HW125403   1.812   1.548   3.389
 8168SOL    HW225404   1.754   1.426   3.480
 8169SOL     OW25405   4.736   1.893   1.315
 8169SOL    HW125406   4.812   1.896   1.250
 8169SOL    HW225407   4.731   1.980   1.364
 8170SOL     OW25408   1.049   4.649   2.449
 8170SOL    HW125409   0.962   4.612   2.482
 8170SOL    HW225410   1.123   4.586   2.474
 8171SOL     OW25411   1.523   1.971   6.499
 8171SOL    HW125412   1.429   1.938   6.487
 8171SOL    HW225413   1.566   1.923   6.575
 8172SOL     OW25414   1.114   1.813   2.404
 8172SOL    HW125415   1.163   1.730   2.379
 8172SOL    HW225416   1.016   1.793   2.412
 8173SOL     OW25417   5.273   1.223   2.058
 8173SOL    HW125418   5.219   1.186   1.982
 8173SOL    HW225419   5.338   1.154   2.088
 8174SOL     OW25420   5.909   2.906   0.980
 8174SOL    HW125421   5.870   2.932   1.068
 8174SOL    HW225422   5.876   2.815   0.955
 8175SOL     OW25423   0.003   2.416   5.550
 8175SOL    HW125424   6.942   2.362   5.534
 8175SOL    HW225425   0.007   2.444   5.646
 8176SOL     OW25426   2.689   5.404   2.217
 8176SOL    HW125427   2.774   5.452   2.195
 8176SOL    HW225428   2.622   5.469   2.251
 8177SOL     OW25429   3.556   6.565   3.904
 8177SOL    HW125430   3.646   6.522   3.910
 8177SOL    HW225431   3.485   6.494   3.902
 8178SOL     OW25432   2.874   6.006   6.429
 8178SOL    HW125433   2.870   5.997   6.529
 8178SOL    HW225434   2.783   6.024   6.393
 8179SOL     OW25435   5.154   1.974   5.321
 8179SOL    HW125436   5.059   1.959   5.350
 8179SOL    HW225437   5.211   1.901   5.356
 8180SOL     OW25438   6.834   0.187   4.833
 8180SOL    HW125439   6.794   0.278   4.847
 8180SOL    HW225440   6.827   0.162   4.736
 8181SOL     OW25441   1.979   1.553   0.736
 8181SOL    HW125442   1.928   1.479   0.693
 8181SOL    HW225443   1.964   1.551   0.835
 8182SOL     OW25444   3.815   3.246   5.605
 8182SOL    HW125445   3.905   3.262   5.564
 8182SOL    HW225446   3.804   3.304   5.686
 8183SOL     OW25447   6.868   2.252   4.919
 8183SOL    HW125448   6.944   2.274   4.857
 8183SOL    HW225449   6.856   2.327   4.984
 8184SOL     OW25450   6.042   1.673   6.910
 8184SOL    HW125451   5.989   1.644   6.990
 8184SOL    HW225452   6.117   1.732   6.940
 8185SOL     OW25453   2.609   6.371   0.530
 8185SOL    HW125454   2.699   6.403   0.501
 8185SOL    HW225455   2.550   6.360   0.450
 8186SOL     OW25456   3.712   5.828   5.304
 8186SOL    HW125457   3.640   5.840   5.373
 8186SOL    HW225458   3.670   5.796   5.219
 8187SOL     OW25459   1.547   2.565   5.203
 8187SOL    HW125460   1.578   2.490   5.145
 8187SOL    HW225461   1.583   2.553   5.296
 8188SOL     OW25462   5.381   2.931   3.076
 8188SOL    HW125463   5.369   2.857   3.142
 8188SOL    HW225464   5.326   3.010   3.104
 8189SOL     OW25465   4.686   4.807   2.640
 8189SOL    HW125466   4.711   4.793   2.544
 8189SOL    HW225467   4.766   4.840   2.691
 8190SOL     OW25468   4.342   5.039   4.068
 8190SOL    HW125469   4.287   5.121   4.084
 8190SOL    HW225470   4.356   5.028   3.969
 8191SOL     OW25471   3.968   6.613   1.931
 8191SOL    HW125472   3.963   6.565   1.843
 8191SOL    HW225473   4.060   6.650   1.943
 8192SOL     OW25474   4.072   5.080   0.525
 8192SOL    HW125475   4.024   5.039   0.603
 8192SOL    HW225476   4.169   5.092   0.549
 8193SOL     OW25477   7.019   6.460   4.352
 8193SOL    HW125478   0.062   6.535   4.341
 8193SOL    HW225479   7.010   6.436   4.448
 8194SOL     OW25480   5.683   2.318   1.031
 8194SOL    HW125481   5.654   2.351   1.121
 8194SOL    HW225482   5.635   2.368   0.960
 8195SOL     OW25483   1.399   0.035   1.835
 8195SOL    HW125484   1.383   7.016   1.744
 8195SOL    HW225485   1.480   7.014   1.875
 8196SOL     OW25486   3.871   6.274   5.907
 8196SOL    HW125487   3.819   6.351   5.869
 8196SOL    HW225488   3.915   6.223   5.834
 8197SOL     OW25489   4.436   2.145   0.153
 8197SOL    HW125490   4.372   2.073   0.178
 8197SOL    HW225491   4.501   2.160   0.228
 8198SOL     OW25492   3.533   6.760   3.482
 8198SOL    HW125493   3.495   6.676   3.520
 8198SOL    HW225494   3.632   6.748   3.467
 8199SOL     OW25495   5.447   2.921   6.495
 8199SOL    HW125496   5.387   2.893   6.570
 8199SOL    HW225497   5.399   2.911   6.409
 8200SOL     OW25498   4.831   4.059   1.497
 8200SOL    HW125499   4.820   3.962   1.477
 8200SOL    HW225500   4.928   4.084   1.494
 8201SOL     OW25501   5.759   0.276   3.524
 8201SOL    HW125502   5.688   0.315   3.465
 8201SOL    HW225503   5.764   0.177   3.511
 8202SOL     OW25504   6.810   5.830   4.749
 8202SOL    HW125505   6.778   5.923   4.771
 8202SOL    HW225506   6.848   5.788   4.832
 8203SOL     OW25507   4.583   2.390   0.282
 8203SOL    HW125508   4.611   2.474   0.327
 8203SOL    HW225509   4.620   2.387   0.189
 8204SOL     OW25510   3.065   5.297   6.757
 8204SOL    HW125511   3.032   5.351   6.834
 8204SOL    HW225512   3.061   5.351   6.674
 8205SOL     OW25513   0.322   4.520   0.967
 8205SOL    HW125514   0.312   4.618   0.947
 8205SOL    HW225515   0.412   4.504   1.007
 8206SOL     OW25516   4.929   2.500   6.149
 8206SOL    HW125517   4.921   2.507   6.249
 8206SOL    HW225518   4.876   2.422   6.116
 8207SOL     OW25519   3.549   3.799   5.284
 8207SOL    HW125520   3.610   3.734   5.239
 8207SOL    HW225521   3.480   3.831   5.220
 8208SOL     OW25522   2.004   0.078   1.450
 8208SOL    HW125523   1.986   0.052   1.545
 8208SOL    HW225524   2.023   0.176   1.446
 8209SOL     OW25525   0.735   1.423   6.032
 8209SOL    HW125526   0.652   1.434   5.978
 8209SOL    HW225527   0.804   1.488   6.000
 8210SOL     OW25528   2.555   0.524   1.010
 8210SOL    HW125529   2.526   0.528   1.106
 8210SOL    HW225530   2.652   0.546   1.004
 8211SOL     OW25531   3.658   3.995   2.479
 8211SOL    HW125532   3.563   4.026   2.475
 8211SOL    HW225533   3.698   3.996   2.388
 8212SOL     OW25534   3.052   1.626   0.997
 8212SOL    HW125535   3.011   1.539   0.971
 8212SOL    HW225536   3.016   1.654   1.086
 8213SOL     OW25537   5.932   4.561   2.209
 8213SOL    HW125538   6.004   4.622   2.241
 8213SOL    HW225539   5.916   4.489   2.277
 8214SOL     OW25540   0.248   5.871   4.274
 8214SOL    HW125541   0.300   5.818   4.207
 8214SOL    HW225542   0.157   5.831   4.284
 8215SOL     OW25543   2.900   5.632   6.378
 8215SOL    HW125544   2.945   5.696   6.316
 8215SOL    HW225545   2.848   5.565   6.325
 8216SOL     OW25546   4.996   6.111   3.407
 8216SOL    HW125547   5.074   6.095   3.346
 8216SOL    HW225548   5.007   6.056   3.490
 8217SOL     OW25549   2.243   3.959   2.021
 8217SOL    HW125550   2.209   3.887   2.080
 8217SOL    HW225551   2.317   3.923   1.964
 8218SOL     OW25552   0.951   6.814   4.987
 8218SOL    HW125553   0.858   6.842   5.010
 8218SOL    HW225554   0.947   6.731   4.931
 8219SOL     OW25555   3.701   2.849   0.881
 8219SOL    HW125556   3.709   2.948   0.886
 8219SOL    HW225557   3.782   2.811   0.836
 8220SOL     OW25558   3.427   3.624   4.880
 8220SOL    HW125559   3.407   3.597   4.785
 8220SOL    HW225560   3.469   3.714   4.881
 8221SOL     OW25561   6.430   5.721   3.275
 8221SOL    HW125562   6.361   5.684   3.213
 8221SOL    HW225563   6.475   5.799   3.232
 8222SOL     OW25564   4.997   1.790   1.512
 8222SOL    HW125565   4.912   1.781   1.564
 8222SOL    HW225566   5.008   1.710   1.453
 8223SOL     OW25567   1.037   4.306   4.992
 8223SOL    HW125568   1.104   4.251   5.042
 8223SOL    HW225569   0.945   4.283   5.025
 8224SOL     OW25570   5.676   2.691   1.969
 8224SOL    HW125571   5.588   2.738   1.968
 8224SOL    HW225572   5.730   2.723   2.047
 8225SOL     OW25573   3.950   1.195   1.509
 8225SOL    HW125574   3.887   1.165   1.437
 8225SOL    HW225575   3.904   1.192   1.597
 8226SOL     OW25576   3.401   0.068   0.436
 8226SOL    HW125577   3.420   0.163   0.411
 8226SOL    HW225578   3.480   0.011   0.412
 8227SOL     OW25579   6.878   0.746   2.593
 8227SOL    HW125580   6.870   0.845   2.581
 8227SOL    HW225581   6.792   0.709   2.627
 8228SOL     OW25582   0.536   1.461   6.627
 8228SOL    HW125583   0.488   1.374   6.616
 8228SOL    HW225584   0.471   1.536   6.613
 8229SOL     OW25585   3.543   4.229   1.264
 8229SOL    HW125586   3.556   4.326   1.284
 8229SOL    HW225587   3.588   4.207   1.178
 8230SOL     OW25588   3.946   6.461   5.194
 8230SOL    HW125589   3.983   6.508   5.114
 8230SOL    HW225590   4.018   6.411   5.241
 8231SOL     OW25591   2.973   2.777   1.346
 8231SOL    HW125592   2.960   2.871   1.377
 8231SOL    HW225593   2.971   2.715   1.424
 8232SOL     OW25594   5.941   1.998   2.401
 8232SOL    HW125595   5.877   2.069   2.431
 8232SOL    HW225596   5.912   1.963   2.312
 8233SOL     OW25597   1.808   6.972   6.704
 8233SOL    HW125598   1.784   7.006   6.795
 8233SOL    HW225599   1.752   6.891   6.683
 8234SOL     OW25600   3.241   4.070   0.088
 8234SOL    HW125601   3.230   3.994   0.151
 8234SOL    HW225602   3.242   4.036   7.015
 8235SOL     OW25603   0.410   3.726   6.911
 8235SOL    HW125604   0.485   3.726   6.846
 8235SOL    HW225605   0.334   3.780   6.875
 8236SOL     OW25606   6.742   4.682   6.869
 8236SOL    HW125607   6.785   4.771   6.881
 8236SOL    HW225608   6.803   4.610   6.903
 8237SOL     OW25609   4.641   6.278   5.969
 8237SOL    HW125610   4.623   6.375   5.956
 8237SOL    HW225611   4.717   6.266   6.033
 8238SOL     OW25612   0.780   5.362   6.918
 8238SOL    HW125613   0.839   5.330   6.844
 8238SOL    HW225614   0.772   5.290   6.988
 8239SOL     OW25615   0.539   0.909   5.292
 8239SOL    HW125616   0.460   0.905   5.354
 8239SOL    HW225617   0.614   0.958   5.337
 8240SOL     OW25618   3.112   4.006   2.985
 8240SOL    HW125619   3.109   4.045   3.077
 8240SOL    HW225620   3.206   4.004   2.952
 8241SOL     OW25621   2.641   5.019   5.669
 8241SOL    HW125622   2.543   5.028   5.690
 8241SOL    HW225623   2.693   5.017   5.754
 8242SOL     OW25624   0.585   3.639   5.430
 8242SOL    HW125625   0.627   3.569   5.488
 8242SOL    HW225626   0.643   3.655   5.350
 8243SOL     OW25627   7.014   3.446   1.231
 8243SOL    HW125628   6.932   3.503   1.226
 8243SOL    HW225629   6.989   3.350   1.223
 8244SOL     OW25630   0.526   0.013   3.345
 8244SOL    HW125631   0.439   0.050   3.375
 8244SOL    HW225632   0.567   0.075   3.278
 8245SOL     OW25633   3.279   2.026   2.615
 8245SOL    HW125634   3.261   2.088   2.692
 8245SOL    HW225635   3.217   2.047   2.540
 8246SOL     OW25636   0.388   3.718   6.560
 8246SOL    HW125637   0.359   3.805   6.599
 8246SOL    HW225638   0.459   3.677   6.617
 8247SOL     OW25639   2.067   6.842   3.438
 8247SOL    HW125640   2.091   6.825   3.343
 8247SOL    HW225641   2.077   6.940   3.458
 8248SOL     OW25642   0.758   4.361   4.802
 8248SOL    HW125643   0.836   4.299   4.792
 8248SOL    HW225644   0.747   4.385   4.899
 8249SOL     OW25645   2.273   1.408   5.827
 8249SOL    HW125646   2.367   1.438   5.812
 8249SOL    HW225647   2.212   1.487   5.822
 8250SOL     OW25648   2.391   2.323   1.307
 8250SOL    HW125649   2.331   2.252   1.345
 8250SOL    HW225650   2.475   2.281   1.273
 8251SOL     OW25651   5.345   2.672   4.126
 8251SOL    HW125652   5.393   2.590   4.095
 8251SOL    HW225653   5.390   2.708   4.208
 8252SOL     OW25654   4.129   1.913   6.643
 8252SOL    HW125655   4.124   1.880   6.737
 8252SOL    HW225656   4.179   2.000   6.641
 8253SOL     OW25657   3.739   5.713   5.679
 8253SOL    HW125658   3.728   5.812   5.671
 8253SOL    HW225659   3.834   5.688   5.662
 8254SOL     OW25660   4.953   4.756   5.523
 8254SOL    HW125661   4.900   4.744   5.607
 8254SOL    HW225662   5.039   4.705   5.530
 8255SOL     OW25663   1.057   6.394   5.351
 8255SOL    HW125664   1.104   6.424   5.268
 8255SOL    HW225665   0.961   6.422   5.348
 8256SOL     OW25666   0.042   6.221   2.658
 8256SOL    HW125667   0.050   6.133   2.704
 8256SOL    HW225668   0.072   6.211   2.563
 8257SOL     OW25669   5.582   4.173   3.326
 8257SOL    HW125670   5.525   4.181   3.407
 8257SOL    HW225671   5.543   4.229   3.252
 8258SOL     OW25672   4.625   2.662   1.989
 8258SOL    HW125673   4.585   2.733   1.932
 8258SOL    HW225674   4.683   2.703   2.059
 8259SOL     OW25675   3.530   2.132   5.528
 8259SOL    HW125676   3.450   2.161   5.476
 8259SOL    HW225677   3.544   2.034   5.514
 8260SOL     OW25678   2.611   0.007   1.706
 8260SOL    HW125679   2.573   7.016   1.798
 8260SOL    HW225680   2.536   0.024   1.641
 8261SOL     OW25681   5.379   6.536   3.108
 8261SOL    HW125682   5.339   6.599   3.042
 8261SOL    HW225683   5.408   6.453   3.062
 8262SOL     OW25684   1.081   4.628   0.302
 8262SOL    HW125685   1.006   4.578   0.347
 8262SOL    HW225686   1.049   4.719   0.275
 8263SOL     OW25687   0.029   2.902   0.014
 8263SOL    HW125688   0.030   2.978   0.079
 8263SOL    HW225689   0.093   2.921   6.961
 8264SOL     OW25690   1.213   6.676   1.504
 8264SOL    HW125691   1.201   6.771   1.533
 8264SOL    HW225692   1.301   6.641   1.535
 8265SOL     OW25693   5.611   0.316   2.123
 8265SOL    HW125694   5.572   0.393   2.172
 8265SOL    HW225695   5.657   0.349   2.040
 8266SOL     OW25696   2.049   1.139   4.015
 8266SOL    HW125697   1.991   1.159   3.937
 8266SOL    HW225698   2.138   1.105   3.984
 8267SOL     OW25699   1.031   3.803   1.567
 8267SOL    HW125700   0.966   3.822   1.640
 8267SOL    HW225701   0.999   3.846   1.482
 8268SOL     OW25702   3.036   6.061   6.183
 8268SOL    HW125703   3.131   6.091   6.183
 8268SOL    HW225704   3.009   6.032   6.275
 8269SOL     OW25705   4.711   2.843   3.226
 8269SOL    HW125706   4.745   2.803   3.140
 8269SOL    HW225707   4.785   2.894   3.270
 8270SOL     OW25708   3.104   5.742   5.012
 8270SOL    HW125709   3.115   5.709   4.919
 8270SOL    HW225710   3.020   5.796   5.019
 8271SOL     OW25711   6.804   6.778   3.137
 8271SOL    HW125712   6.797   6.737   3.228
 8271SOL    HW225713   6.756   6.865   3.135
 8272SOL     OW25714   6.553   1.353   2.712
 8272SOL    HW125715   6.477   1.410   2.680
 8272SOL    HW225716   6.639   1.389   2.675
 8273SOL     OW25717   3.170   0.860   0.714
 8273SOL    HW125718   3.157   0.925   0.790
 8273SOL    HW225719   3.260   0.817   0.724
 8274SOL     OW25720   4.197   5.341   4.755
 8274SOL    HW125721   4.145   5.317   4.672
 8274SOL    HW225722   4.168   5.282   4.830
 8275SOL     OW25723   5.637   0.505   3.955
 8275SOL    HW125724   5.676   0.437   3.892
 8275SOL    HW225725   5.551   0.470   3.991
 8276SOL     OW25726   0.282   2.464   5.545
 8276SOL    HW125727   0.188   2.468   5.510
 8276SOL    HW225728   0.311   2.369   5.553
 8277SOL     OW25729   1.179   6.153   6.209
 8277SOL    HW125730   1.257   6.093   6.227
 8277SOL    HW225731   1.104   6.099   6.171
 8278SOL     OW25732   3.458   1.659   6.856
 8278SOL    HW125733   3.481   1.650   6.952
 8278SOL    HW225734   3.492   1.747   6.822
 8279SOL     OW25735   6.724   6.496   5.241
 8279SOL    HW125736   6.746   6.461   5.332
 8279SOL    HW225737   6.645   6.446   5.205
 8280SOL     OW25738   3.521   2.438   0.641
 8280SOL    HW125739   3.463   2.509   0.602
 8280SOL    HW225740   3.471   2.389   0.712
 8281SOL     OW25741   2.187   4.400   1.777
 8281SOL    HW125742   2.247   4.374   1.852
 8281SOL    HW225743   2.168   4.320   1.720
 8282SOL     OW25744   3.721   4.364   0.094
 8282SOL    HW125745   3.692   4.335   0.003
 8282SOL    HW225746   3.810   4.323   0.116
 8283SOL     OW25747   1.633   4.764   4.326
 8283SOL    HW125748   1.673   4.840   4.274
 8283SOL    HW225749   1.558   4.798   4.383
 8284SOL     OW25750   1.844   4.013   2.071
 8284SOL    HW125751   1.849   3.975   1.979
 8284SOL    HW225752   1.814   4.109   2.066
 8285SOL     OW25753   4.307   3.840   5.254
 8285SOL    HW125754   4.211   3.856   5.230
 8285SOL    HW225755   4.355   3.928   5.257
 8286SOL     OW25756   5.470   1.596   4.789
 8286SOL    HW125757   5.564   1.631   4.790
 8286SOL    HW225758   5.417   1.639   4.861
 8287SOL     OW25759   0.713   5.246   4.523
 8287SOL    HW125760   0.652   5.179   4.481
 8287SOL    HW225761   0.686   5.338   4.495
 8288SOL     OW25762   2.090   2.678   2.598
 8288SOL    HW125763   2.156   2.688   2.673
 8288SOL    HW225764   2.136   2.639   2.518
 8289SOL     OW25765   6.702   0.045   6.591
 8289SOL    HW125766   6.630   0.063   6.523
 8289SOL    HW225767   6.710   0.123   6.652
 8290SOL     OW25768   4.809   1.643   1.061
 8290SOL    HW125769   4.822   1.680   0.969
 8290SOL    HW225770   4.868   1.691   1.125
 8291SOL     OW25771   5.944   5.409   6.247
 8291SOL    HW125772   5.888   5.326   6.255
 8291SOL    HW225773   6.008   5.400   6.171
 8292SOL     OW25774   2.610   5.320   6.764
 8292SOL    HW125775   2.685   5.284   6.820
 8292SOL    HW225776   2.566   5.395   6.812
 8293SOL     OW25777   2.144   5.121   1.550
 8293SOL    HW125778   2.121   5.207   1.504
 8293SOL    HW225779   2.228   5.133   1.604
 8294SOL     OW25780   6.864   3.455   4.778
 8294SOL    HW125781   6.825   3.547   4.767
 8294SOL    HW225782   6.842   3.400   4.697
 8295SOL     OW25783   4.933   3.539   3.022
 8295SOL    HW125784   5.013   3.497   2.979
 8295SOL    HW225785   4.878   3.585   2.953
 8296SOL     OW25786   2.832   5.755   0.367
 8296SOL    HW125787   2.822   5.749   0.466
 8296SOL    HW225788   2.859   5.848   0.341
 8297SOL     OW25789   6.411   3.115   2.560
 8297SOL    HW125790   6.375   3.086   2.649
 8297SOL    HW225791   6.368   3.201   2.533
 8298SOL     OW25792   6.799   0.683   0.866
 8298SOL    HW125793   6.796   0.638   0.955
 8298SOL    HW225794   6.740   0.764   0.868
 8299SOL     OW25795   0.272   2.995   2.403
 8299SOL    HW125796   0.262   2.896   2.397
 8299SOL    HW225797   0.366   3.021   2.383
 8300SOL     OW25798   0.326   6.808   4.470
 8300SOL    HW125799   0.324   6.907   4.454
 8300SOL    HW225800   0.342   6.791   4.567
 8301SOL     OW25801   4.699   1.364   6.969
 8301SOL    HW125802   4.709   1.419   6.885
 8301SOL    HW225803   4.755   1.282   6.962
 8302SOL     OW25804   5.276   6.905   5.784
 8302SOL    HW125805   5.206   6.917   5.713
 8302SOL    HW225806   5.293   6.807   5.796
 8303SOL     OW25807   6.077   0.546   3.252
 8303SOL    HW125808   6.176   0.559   3.251
 8303SOL    HW225809   6.039   0.576   3.165
 8304SOL     OW25810   5.695   4.732   1.357
 8304SOL    HW125811   5.767   4.801   1.355
 8304SOL    HW225812   5.635   4.743   1.278
 8305SOL     OW25813   4.461   4.886   4.272
 8305SOL    HW125814   4.437   4.941   4.191
 8305SOL    HW225815   4.377   4.848   4.311
 8306SOL     OW25816   5.880   1.442   3.687
 8306SOL    HW125817   5.807   1.458   3.620
 8306SOL    HW225818   5.904   1.345   3.688
 8307SOL     OW25819   3.562   5.595   1.553
 8307SOL    HW125820   3.524   5.682   1.524
 8307SOL    HW225821   3.522   5.521   1.499
 8308SOL     OW25822   2.428   5.650   0.258
 8308SOL    HW125823   2.527   5.646   0.247
 8308SOL    HW225824   2.401   5.741   0.290
 8309SOL     OW25825   6.244   5.621   3.027
 8309SOL    HW125826   6.169   5.601   3.090
 8309SOL    HW225827   6.233   5.567   2.943
 8310SOL     OW25828   1.533   5.157   1.445
 8310SOL    HW125829   1.496   5.095   1.514
 8310SOL    HW225830   1.615   5.117   1.405
 8311SOL     OW25831   6.252   0.968   4.507
 8311SOL    HW125832   6.180   0.923   4.559
 8311SOL    HW225833   6.229   0.967   4.409
 8312SOL     OW25834   5.737   0.674   6.380
 8312SOL    HW125835   5.789   0.656   6.464
 8312SOL    HW225836   5.639   0.670   6.400
 8313SOL     OW25837   5.652   0.406   5.993
 8313SOL    HW125838   5.591   0.349   6.048
 8313SOL    HW225839   5.714   0.456   6.053
 8314SOL     OW25840   6.502   7.009   6.386
 8314SOL    HW125841   6.408   0.023   6.380
 8314SOL    HW225842   6.505   6.933   6.451
 8315SOL     OW25843   3.850   3.082   2.852
 8315SOL    HW125844   3.842   2.995   2.901
 8315SOL    HW225845   3.929   3.133   2.886
 8316SOL     OW25846   1.654   3.233   1.521
 8316SOL    HW125847   1.694   3.325   1.514
 8316SOL    HW225848   1.693   3.174   1.451
 8317SOL     OW25849   1.428   2.259   2.762
 8317SOL    HW125850   1.399   2.204   2.683
 8317SOL    HW225851   1.416   2.206   2.845
 8318SOL     OW25852   4.340   1.521   6.268
 8318SOL    HW125853   4.306   1.437   6.310
 8318SOL    HW225854   4.349   1.593   6.337
 8319SOL     OW25855   1.206   0.657   0.832
 8319SOL    HW125856   1.282   0.595   0.814
 8319SOL    HW225857   1.198   0.722   0.756
 8320SOL     OW25858   3.107   4.051   3.252
 8320SOL    HW125859   3.055   3.971   3.282
 8320SOL    HW225860   3.166   4.082   3.327
 8321SOL     OW25861   0.062   6.863   6.966
 8321SOL    HW125862   0.061   6.963   6.971
 8321SOL    HW225863   7.001   6.826   7.009
 8322SOL     OW25864   6.399   1.096   0.972
 8322SOL    HW125865   6.362   1.189   0.979
 8322SOL    HW225866   6.323   1.030   0.970
 8323SOL     OW25867   3.946   4.931   1.702
 8323SOL    HW125868   3.997   4.925   1.617
 8323SOL    HW225869   3.849   4.914   1.684
 8324SOL     OW25870   5.540   0.573   0.721
 8324SOL    HW125871   5.469   0.638   0.696
 8324SOL    HW225872   5.507   0.513   0.795
 8325SOL     OW25873   1.021   3.571   5.325
 8325SOL    HW125874   0.973   3.654   5.354
 8325SOL    HW225875   1.119   3.589   5.318
 8326SOL     OW25876   4.087   3.858   5.989
 8326SOL    HW125877   4.086   3.954   5.962
 8326SOL    HW225878   4.038   3.847   6.076
 8327SOL     OW25879   0.382   0.984   5.617
 8327SOL    HW125880   0.336   1.065   5.654
 8327SOL    HW225881   0.480   1.002   5.609
 8328SOL     OW25882   2.718   6.472   6.296
 8328SOL    HW125883   2.792   6.430   6.243
 8328SOL    HW225884   2.714   6.570   6.277
 8329SOL     OW25885   0.633   2.145   4.607
 8329SOL    HW125886   0.700   2.209   4.570
 8329SOL    HW225887   0.544   2.162   4.565
 8330SOL     OW25888   3.421   1.383   6.821
 8330SOL    HW125889   3.326   1.355   6.836
 8330SOL    HW225890   3.434   1.477   6.851
 8331SOL     OW25891   3.413   0.593   0.625
 8331SOL    HW125892   3.468   0.674   0.645
 8331SOL    HW225893   3.370   0.604   0.535
 8332SOL     OW25894   5.996   5.511   2.168
 8332SOL    HW125895   6.030   5.422   2.199
 8332SOL    HW225896   6.060   5.583   2.194
 8333SOL     OW25897   1.322   4.893   0.043
 8333SOL    HW125898   1.316   4.931   0.136
 8333SOL    HW225899   1.328   4.794   0.048
 8334SOL     OW25900   3.237   1.893   5.685
 8334SOL    HW125901   3.326   1.931   5.711
 8334SOL    HW225902   3.174   1.968   5.666
 8335SOL     OW25903   4.633   1.417   0.362
 8335SOL    HW125904   4.574   1.397   0.440
 8335SOL    HW225905   4.671   1.332   0.326
 8336SOL     OW25906   0.474   4.005   2.928
 8336SOL    HW125907   0.518   3.950   2.858
 8336SOL    HW225908   0.541   4.031   2.998
 8337SOL     OW25909   0.048   6.701   4.064
 8337SOL    HW125910   7.008   6.696   3.985
 8337SOL    HW225911   0.004   6.656   4.142
 8338SOL     OW25912   3.546   5.439   1.068
 8338SOL    HW125913   3.507   5.506   1.132
 8338SOL    HW225914   3.579   5.486   0.987
 8339SOL     OW25915   6.996   0.543   1.951
 8339SOL    HW125916   7.009   0.491   2.035
 8339SOL    HW225917   7.017   0.485   1.872
 8340SOL     OW25918   4.864   3.867   0.948
 8340SOL    HW125919   4.823   3.954   0.974
 8340SOL    HW225920   4.838   3.844   0.854
 8341SOL     OW25921   3.095   0.206   6.802
 8341SOL    HW125922   3.138   0.121   6.774
 8341SOL    HW225923   3.123   0.280   6.741
 8342SOL     OW25924   4.463   6.813   0.087
 8342SOL    HW125925   4.561   6.800   0.079
 8342SOL    HW225926   4.434   6.795   0.182
 8343SOL     OW25927   0.030   5.552   3.308
 8343SOL    HW125928   0.051   5.571   3.212
 8343SOL    HW225929   6.959   5.513   3.315
 8344SOL     OW25930   6.412   5.750   4.701
 8344SOL    HW125931   6.339   5.768   4.767
 8344SOL    HW225932   6.449   5.836   4.667
 8345SOL     OW25933   3.456   1.866   2.463
 8345SOL    HW125934   3.406   1.914   2.535
 8345SOL    HW225935   3.524   1.927   2.423
 8346SOL     OW25936   3.706   4.914   0.244
 8346SOL    HW125937   3.684   4.845   0.314
 8346SOL    HW225938   3.805   4.918   0.232
 8347SOL     OW25939   2.991   6.331   5.570
 8347SOL    HW125940   2.976   6.324   5.471
 8347SOL    HW225941   3.005   6.427   5.594
 8348SOL     OW25942   2.076   0.728   1.437
 8348SOL    HW125943   2.108   0.701   1.346
 8348SOL    HW225944   2.075   0.828   1.444
 8349SOL     OW25945   1.277   6.473   2.312
 8349SOL    HW125946   1.368   6.452   2.350
 8349SOL    HW225947   1.252   6.567   2.337
 8350SOL     OW25948   2.966   6.841   6.166
 8350SOL    HW125949   2.973   6.917   6.230
 8350SOL    HW225950   3.038   6.775   6.184
 8351SOL     OW25951   4.755   5.272   4.507
 8351SOL    HW125952   4.851   5.272   4.480
 8351SOL    HW225953   4.706   5.200   4.457
 8352SOL     OW25954   0.990   0.088   3.431
 8352SOL    HW125955   1.072   0.030   3.434
 8352SOL    HW225956   0.909   0.029   3.431
 8353SOL     OW25957   0.985   3.920   0.916
 8353SOL    HW125958   1.055   3.922   0.988
 8353SOL    HW225959   1.000   3.840   0.857
 8354SOL     OW25960   3.204   0.243   4.274
 8354SOL    HW125961   3.199   0.263   4.371
 8354SOL    HW225962   3.149   0.309   4.223
 8355SOL     OW25963   2.289   1.382   5.162
 8355SOL    HW125964   2.200   1.347   5.190
 8355SOL    HW225965   2.279   1.476   5.129
 8356SOL     OW25966   1.299   6.678   1.828
 8356SOL    HW125967   1.314   6.617   1.905
 8356SOL    HW225968   1.282   6.771   1.861
 8357SOL     OW25969   3.748   7.003   5.497
 8357SOL    HW125970   3.734   6.904   5.492
 8357SOL    HW225971   3.845   0.001   5.516
 8358SOL     OW25972   1.433   3.749   4.753
 8358SOL    HW125973   1.460   3.656   4.730
 8358SOL    HW225974   1.514   3.807   4.758
 8359SOL     OW25975   2.971   1.366   4.981
 8359SOL    HW125976   2.982   1.414   4.895
 8359SOL    HW225977   3.061   1.351   5.023
 8360SOL     OW25978   4.109   0.393   0.212
 8360SOL    HW125979   4.040   0.325   0.186
 8360SOL    HW225980   4.191   0.380   0.156
 8361SOL     OW25981   3.760   0.553   1.284
 8361SOL    HW125982   3.702   0.629   1.315
 8361SOL    HW225983   3.747   0.475   1.344
 8362SOL     OW25984   5.024   1.930   1.258
 8362SOL    HW125985   5.052   2.026   1.257
 8362SOL    HW225986   5.014   1.899   1.352
 8363SOL     OW25987   4.614   2.695   0.166
 8363SOL    HW125988   4.618   2.783   0.212
 8363SOL    HW225989   4.703   2.649   0.174
 8364SOL     OW25990   6.990   1.559   4.228
 8364SOL    HW125991   6.923   1.511   4.286
 8364SOL    HW225992   6.948   1.642   4.191
 8365SOL     OW25993   1.630   2.289   2.476
 8365SOL    HW125994   1.550   2.349   2.473
 8365SOL    HW225995   1.706   2.333   2.427
 8366SOL     OW25996   2.835   4.997   0.934
 8366SOL    HW125997   2.815   4.915   0.987
 8366SOL    HW225998   2.770   5.069   0.957
 8367SOL     OW25999   3.397   5.802   4.907
 8367SOL    HW126000   3.347   5.725   4.868
 8367SOL    HW226001   3.491   5.802   4.871
 8368SOL     OW26002   1.109   6.127   6.928
 8368SOL    HW126003   1.044   6.063   6.888
 8368SOL    HW226004   1.134   6.196   6.860
 8369SOL     OW26005   0.587   0.281   6.271
 8369SOL    HW126006   0.514   0.315   6.210
 8369SOL    HW226007   0.667   0.340   6.262
 8370SOL     OW26008   2.613   1.498   5.974
 8370SOL    HW126009   2.570   1.474   5.886
 8370SOL    HW226010   2.701   1.453   5.981
 8371SOL     OW26011   2.537   4.265   0.926
 8371SOL    HW126012   2.614   4.277   0.862
 8371SOL    HW226013   2.464   4.214   0.880
 8372SOL     OW26014   1.937   5.682   1.550
 8372SOL    HW126015   2.025   5.693   1.597
 8372SOL    HW226016   1.863   5.706   1.612
 8373SOL     OW26017   1.571   6.391   4.077
 8373SOL    HW126018   1.547   6.304   4.035
 8373SOL    HW226019   1.670   6.392   4.096
 8374SOL     OW26020   0.243   6.929   5.118
 8374SOL    HW126021   0.172   6.989   5.154
 8374SOL    HW226022   0.317   6.984   5.080
 8375SOL     OW26023   4.077   6.266   5.334
 8375SOL    HW126024   4.028   6.180   5.320
 8375SOL    HW226025   4.062   6.298   5.427
 8376SOL     OW26026   1.271   1.166   4.422
 8376SOL    HW126027   1.353   1.123   4.461
 8376SOL    HW226028   1.197   1.099   4.418
 8377SOL     OW26029   5.700   6.157   0.625
 8377SOL    HW126030   5.678   6.244   0.669
 8377SOL    HW226031   5.797   6.155   0.601
 8378SOL     OW26032   3.559   4.892   3.107
 8378SOL    HW126033   3.563   4.986   3.141
 8378SOL    HW226034   3.532   4.831   3.181
 8379SOL     OW26035   4.874   2.881   1.788
 8379SOL    HW126036   4.794   2.858   1.732
 8379SOL    HW226037   4.845   2.939   1.864
 8380SOL     OW26038   0.433   0.440   0.919
 8380SOL    HW126039   0.388   0.481   0.999
 8380SOL    HW226040   0.483   0.358   0.948
 8381SOL     OW26041   0.442   2.242   4.456
 8381SOL    HW126042   0.468   2.189   4.375
 8381SOL    HW226043   0.375   2.312   4.429
 8382SOL     OW26044   2.367   6.645   2.114
 8382SOL    HW126045   2.454   6.641   2.065
 8382SOL    HW226046   2.303   6.704   2.065
 8383SOL     OW26047   3.395   6.904   6.040
 8383SOL    HW126048   3.486   6.925   6.077
 8383SOL    HW226049   3.404   6.868   5.947
 8384SOL     OW26050   6.163   1.828   1.715
 8384SOL    HW126051   6.168   1.916   1.668
 8384SOL    HW226052   6.161   1.754   1.647
 8385SOL     OW26053   4.923   2.585   6.898
 8385SOL    HW126054   4.890   2.509   6.955
 8385SOL    HW226055   4.966   2.654   6.956
 8386SOL     OW26056   1.827   6.260   1.715
 8386SOL    HW126057   1.847   6.314   1.633
 8386SOL    HW226058   1.913   6.234   1.759
 8387SOL     OW26059   0.943   1.369   1.087
 8387SOL    HW126060   0.850   1.376   1.051
 8387SOL    HW226061   0.979   1.278   1.071
 8388SOL     OW26062   2.353   6.723   0.544
 8388SOL    HW126063   2.378   6.779   0.465
 8388SOL    HW226064   2.300   6.777   0.608
 8389SOL     OW26065   0.091   3.330   3.891
 8389SOL    HW126066   0.096   3.430   3.899
 8389SOL    HW226067   0.154   3.300   3.820
 8390SOL     OW26068   3.655   6.676   0.289
 8390SOL    HW126069   3.681   6.772   0.304
 8390SOL    HW226070   3.715   6.617   0.344
 8391SOL     OW26071   5.244   5.478   1.322
 8391SOL    HW126072   5.339   5.478   1.355
 8391SOL    HW226073   5.182   5.494   1.399
 8392SOL     OW26074   7.000   5.287   5.582
 8392SOL    HW126075   6.980   5.255   5.675
 8392SOL    HW226076   0.064   5.339   5.583
 8393SOL     OW26077   0.488   6.877   2.827
 8393SOL    HW126078   0.399   6.870   2.872
 8393SOL    HW226079   0.545   6.800   2.853
 8394SOL     OW26080   0.383   3.377   1.867
 8394SOL    HW126081   0.450   3.350   1.798
 8394SOL    HW226082   0.318   3.303   1.882
 8395SOL     OW26083   1.616   6.181   4.597
 8395SOL    HW126084   1.673   6.100   4.606
 8395SOL    HW226085   1.599   6.220   4.687
 8396SOL     OW26086   4.122   5.305   2.585
 8396SOL    HW126087   4.100   5.220   2.633
 8396SOL    HW226088   4.141   5.286   2.489
 8397SOL     OW26089   2.289   0.843   2.997
 8397SOL    HW126090   2.299   0.766   3.060
 8397SOL    HW226091   2.192   0.856   2.977
 8398SOL     OW26092   4.569   2.582   6.494
 8398SOL    HW126093   4.634   2.582   6.571
 8398SOL    HW226094   4.510   2.662   6.501
 8399SOL     OW26095   5.853   7.003   0.582
 8399SOL    HW126096   5.845   0.079   0.564
 8399SOL    HW226097   5.911   6.989   0.663
 8400SOL     OW26098   1.423   0.779   4.237
 8400SOL    HW126099   1.387   0.855   4.184
 8400SOL    HW226100   1.478   0.814   4.313
 8401SOL     OW26101   3.206   1.721   6.041
 8401SOL    HW126102   3.200   1.650   5.971
 8401SOL    HW226103   3.145   1.797   6.017
 8402SOL     OW26104   4.059   1.881   5.947
 8402SOL    HW126105   4.042   1.936   6.029
 8402SOL    HW226106   3.986   1.898   5.880
 8403SOL     OW26107   0.647   2.025   3.964
 8403SOL    HW126108   0.682   2.112   3.999
 8403SOL    HW226109   0.636   1.960   4.039
 8404SOL     OW26110   4.161   6.887   6.132
 8404SOL    HW126111   4.074   6.907   6.175
 8404SOL    HW226112   4.176   6.950   6.056
 8405SOL     OW26113   2.492   0.833   6.164
 8405SOL    HW126114   2.423   0.866   6.229
 8405SOL    HW226115   2.494   0.733   6.166
 8406SOL     OW26116   5.420   6.898   0.760
 8406SOL    HW126117   5.469   6.950   0.690
 8406SOL    HW226118   5.476   6.821   0.790
 8407SOL     OW26119   4.003   6.311   3.728
 8407SOL    HW126120   3.952   6.227   3.709
 8407SOL    HW226121   4.088   6.311   3.676
 8408SOL     OW26122   5.607   3.158   2.117
 8408SOL    HW126123   5.539   3.179   2.046
 8408SOL    HW226124   5.697   3.152   2.074
 8409SOL     OW26125   5.816   3.180   3.768
 8409SOL    HW126126   5.835   3.278   3.781
 8409SOL    HW226127   5.738   3.154   3.825
 8410SOL     OW26128   5.035   0.196   1.795
 8410SOL    HW126129   5.066   0.283   1.835
 8410SOL    HW226130   5.000   0.213   1.703
 8411SOL     OW26131   0.362   5.355   6.750
 8411SOL    HW126132   0.308   5.276   6.719
 8411SOL    HW226133   0.368   5.354   6.850
 8412SOL     OW26134   3.679   2.070   1.757
 8412SOL    HW126135   3.668   2.105   1.663
 8412SOL    HW226136   3.648   2.140   1.822
 8413SOL     OW26137   3.718   6.000   0.025
 8413SOL    HW126138   3.781   5.925   0.004
 8413SOL    HW226139   3.646   5.967   0.086
 8414SOL     OW26140   3.990   5.337   3.178
 8414SOL    HW126141   4.061   5.390   3.132
 8414SOL    HW226142   3.915   5.397   3.207
 8415SOL     OW26143   6.877   5.963   3.183
 8415SOL    HW126144   6.895   5.985   3.279
 8415SOL    HW226145   6.841   5.870   3.177
 8416SOL     OW26146   5.659   3.210   2.876
 8416SOL    HW126147   5.687   3.248   2.964
 8416SOL    HW226148   5.578   3.153   2.887
 8417SOL     OW26149   1.499   5.314   5.987
 8417SOL    HW126150   1.483   5.221   5.953
 8417SOL    HW226151   1.585   5.316   6.039
 8418SOL     OW26152   5.700   5.414   1.220
 8418SOL    HW126153   5.724   5.496   1.167
 8418SOL    HW226154   5.782   5.377   1.263
 8419SOL     OW26155   5.306   0.786   2.338
 8419SOL    HW126156   5.288   0.740   2.425
 8419SOL    HW226157   5.401   0.816   2.335
 8420SOL     OW26158   4.070   6.964   0.427
 8420SOL    HW126159   4.054   6.926   0.517
 8420SOL    HW226160   4.052   0.042   0.429
 8421SOL     OW26161   2.848   5.719   6.843
 8421SOL    HW126162   2.894   5.771   6.915
 8421SOL    HW226163   2.872   5.622   6.851
 8422SOL     OW26164   4.371   1.036   1.224
 8422SOL    HW126165   4.468   1.058   1.236
 8422SOL    HW226166   4.322   1.053   1.309
 8423SOL     OW26167   4.111   4.746   5.653
 8423SOL    HW126168   4.098   4.834   5.607
 8423SOL    HW226169   4.153   4.760   5.742
 8424SOL     OW26170   1.872   2.496   2.971
 8424SOL    HW126171   1.778   2.466   2.954
 8424SOL    HW226172   1.873   2.552   3.055
 8425SOL     OW26173   5.141   5.974   0.459
 8425SOL    HW126174   5.178   6.041   0.395
 8425SOL    HW226175   5.045   5.956   0.436
 8426SOL     OW26176   3.111   3.647   4.035
 8426SOL    HW126177   3.014   3.642   4.055
 8426SOL    HW226178   3.164   3.619   4.115
 8427SOL     OW26179   3.474   3.283   4.961
 8427SOL    HW126180   3.409   3.210   4.940
 8427SOL    HW226181   3.544   3.249   5.023
 8428SOL     OW26182   0.276   4.173   1.574
 8428SOL    HW126183   0.193   4.131   1.612
 8428SOL    HW226184   0.356   4.141   1.625
 8429SOL     OW26185   1.680   4.299   3.525
 8429SOL    HW126186   1.754   4.343   3.474
 8429SOL    HW226187   1.613   4.263   3.460
 8430SOL     OW26188   3.488   5.230   4.600
 8430SOL    HW126189   3.398   5.193   4.619
 8430SOL    HW226190   3.499   5.317   4.648
 8431SOL     OW26191   2.953   5.480   0.848
 8431SOL    HW126192   2.982   5.399   0.797
 8431SOL    HW226193   3.029   5.545   0.852
 8432SOL     OW26194   5.606   6.568   5.979
 8432SOL    HW126195   5.646   6.532   5.895
 8432SOL    HW226196   5.633   6.663   5.991
 8433SOL     OW26197   5.570   1.760   0.280
 8433SOL    HW126198   5.644   1.759   0.212
 8433SOL    HW226199   5.564   1.850   0.322
 8434SOL     OW26200   3.272   6.699   4.636
 8434SOL    HW126201   3.236   6.737   4.721
 8434SOL    HW226202   3.298   6.604   4.649
 8435SOL     OW26203   5.841   0.900   1.435
 8435SOL    HW126204   5.919   0.936   1.384
 8435SOL    HW226205   5.868   0.818   1.485
 8436SOL     OW26206   3.456   0.214   4.150
 8436SOL    HW126207   3.493   0.303   4.121
 8436SOL    HW226208   3.369   0.228   4.198
 8437SOL     OW26209   2.210   0.208   4.168
 8437SOL    HW126210   2.113   0.188   4.180
 8437SOL    HW226211   2.228   0.303   4.194
 8438SOL     OW26212   2.503   4.807   2.244
 8438SOL    HW126213   2.558   4.823   2.326
 8438SOL    HW226214   2.406   4.815   2.268
 8439SOL     OW26215   6.571   5.272   2.200
 8439SOL    HW126216   6.553   5.350   2.260
 8439SOL    HW226217   6.545   5.188   2.248
 8440SOL     OW26218   0.747   1.944   3.319
 8440SOL    HW126219   0.745   2.014   3.390
 8440SOL    HW226220   0.728   1.986   3.230
 8441SOL     OW26221   6.056   0.036   0.308
 8441SOL    HW126222   6.086   6.998   0.382
 8441SOL    HW226223   5.997   0.108   0.345
 8442SOL     OW26224   3.262   2.043   5.410
 8442SOL    HW126225   3.293   2.138   5.408
 8442SOL    HW226226   3.307   1.992   5.337
 8443SOL     OW26227   1.598   5.358   3.769
 8443SOL    HW126228   1.519   5.418   3.783
 8443SOL    HW226229   1.674   5.388   3.827
 8444SOL     OW26230   3.050   6.044   3.788
 8444SOL    HW126231   2.967   6.053   3.842
 8444SOL    HW226232   3.113   5.980   3.833
 8445SOL     OW26233   3.982   6.239   1.050
 8445SOL    HW126234   4.027   6.161   1.006
 8445SOL    HW226235   3.992   6.320   0.992
 8446SOL     OW26236   4.774   5.138   6.539
 8446SOL    HW126237   4.726   5.216   6.500
 8446SOL    HW226238   4.808   5.079   6.465
 8447SOL     OW26239   4.780   2.327   2.262
 8447SOL    HW126240   4.827   2.261   2.320
 8447SOL    HW226241   4.794   2.420   2.297
 8448SOL     OW26242   4.927   6.096   3.837
 8448SOL    HW126243   4.862   6.078   3.911
 8448SOL    HW226244   4.996   6.160   3.868
 8449SOL     OW26245   6.675   1.853   4.141
 8449SOL    HW126246   6.734   1.827   4.217
 8449SOL    HW226247   6.634   1.771   4.101
 8450SOL     OW26248   1.406   5.811   1.382
 8450SOL    HW126249   1.350   5.868   1.442
 8450SOL    HW226250   1.362   5.802   1.293
 8451SOL     OW26251   4.321   2.376   0.019
 8451SOL    HW126252   4.301   2.464   0.063
 8451SOL    HW226253   4.329   2.305   0.089
 8452SOL     OW26254   6.522   1.057   3.197
 8452SOL    HW126255   6.559   1.002   3.272
 8452SOL    HW226256   6.533   1.154   3.217
 8453SOL     OW26257   6.886   4.167   6.223
 8453SOL    HW126258   6.886   4.221   6.139
 8453SOL    HW226259   6.978   4.133   6.241
 8454SOL     OW26260   0.005   6.661   0.651
 8454SOL    HW126261   0.064   6.594   0.696
 8454SOL    HW226262   6.943   6.673   0.704
 8455SOL     OW26263   5.665   2.599   1.441
 8455SOL    HW126264   5.729   2.631   1.511
 8455SOL    HW226265   5.572   2.626   1.467
 8456SOL     OW26266   4.959   5.953   2.883
 8456SOL    HW126267   5.004   6.042   2.868
 8456SOL    HW226268   4.912   5.926   2.799
 8457SOL     OW26269   6.520   6.480   4.300
 8457SOL    HW126270   6.569   6.415   4.357
 8457SOL    HW226271   6.548   6.573   4.324
 8458SOL     OW26272   2.657   1.356   6.539
 8458SOL    HW126273   2.715   1.327   6.463
 8458SOL    HW226274   2.667   1.454   6.553
 8459SOL     OW26275   2.993   6.616   1.952
 8459SOL    HW126276   2.939   6.695   1.981
 8459SOL    HW226277   3.056   6.643   1.879
 8460SOL     OW26278   4.568   3.761   5.358
 8460SOL    HW126279   4.625   3.710   5.293
 8460SOL    HW226280   4.482   3.786   5.313
 8461SOL     OW26281   6.953   4.024   3.777
 8461SOL    HW126282   6.890   4.072   3.838
 8461SOL    HW226283   0.014   4.000   3.827
 8462SOL     OW26284   3.389   2.409   0.179
 8462SOL    HW126285   3.392   2.507   0.163
 8462SOL    HW226286   3.431   2.361   0.102
 8463SOL     OW26287   6.217   6.798   0.420
 8463SOL    HW126288   6.290   6.827   0.483
 8463SOL    HW226289   6.257   6.754   0.340
 8464SOL     OW26290   5.483   3.549   5.550
 8464SOL    HW126291   5.443   3.466   5.511
 8464SOL    HW226292   5.438   3.569   5.638
 8465SOL     OW26293   1.673   2.650   1.014
 8465SOL    HW126294   1.575   2.664   1.027
 8465SOL    HW226295   1.693   2.552   1.012
 8466SOL     OW26296   0.818   6.517   5.308
 8466SOL    HW126297   0.752   6.588   5.280
 8466SOL    HW226298   0.835   6.524   5.406
 8467SOL     OW26299   4.356   0.342   1.462
 8467SOL    HW126300   4.300   0.322   1.382
 8467SOL    HW226301   4.446   0.300   1.452
 8468SOL     OW26302   4.482   2.447   6.821
 8468SOL    HW126303   4.555   2.384   6.795
 8468SOL    HW226304   4.432   2.410   6.899
 8469SOL     OW26305   3.935   1.519   5.810
 8469SOL    HW126306   3.873   1.441   5.809
 8469SOL    HW226307   4.024   1.491   5.775
 8470SOL     OW26308   1.475   4.369   0.099
 8470SOL    HW126309   1.382   4.333   0.109
 8470SOL    HW226310   1.488   4.447   0.160
 8471SOL     OW26311   3.572   0.818   4.280
 8471SOL    HW126312   3.601   0.868   4.199
 8471SOL    HW226313   3.607   0.724   4.276
 8472SOL     OW26314   6.462   0.201   5.470
 8472SOL    HW126315   6.415   0.243   5.548
 8472SOL    HW226316   6.397   0.189   5.395
 8473SOL     OW26317   6.777   5.869   0.700
 8473SOL    HW126318   6.718   5.801   0.745
 8473SOL    HW226319   6.865   5.826   0.676
 8474SOL     OW26320   3.418   3.353   2.568
 8474SOL    HW126321   3.508   3.382   2.536
 8474SOL    HW226322   3.407   3.255   2.551
 8475SOL     OW26323   7.019   2.104   3.836
 8475SOL    HW126324   6.960   2.094   3.916
 8475SOL    HW226325   6.991   2.185   3.784
 8476SOL     OW26326   6.747   2.178   0.906
 8476SOL    HW126327   6.810   2.249   0.874
 8476SOL    HW226328   6.706   2.208   0.992
 8477SOL     OW26329   4.881   6.791   1.605
 8477SOL    HW126330   4.810   6.728   1.574
 8477SOL    HW226331   4.910   6.765   1.697
 8478SOL     OW26332   1.855   0.164   6.163
 8478SOL    HW126333   1.829   0.190   6.256
 8478SOL    HW226334   1.831   0.069   6.146
 8479SOL     OW26335   0.494   3.064   0.845
 8479SOL    HW126336   0.556   3.139   0.825
 8479SOL    HW226337   0.539   3.000   0.909
 8480SOL     OW26338   4.668   2.274   6.726
 8480SOL    HW126339   4.621   2.201   6.775
 8480SOL    HW226340   4.667   2.255   6.628
 8481SOL     OW26341   4.313   2.391   4.740
 8481SOL    HW126342   4.328   2.293   4.754
 8481SOL    HW226343   4.264   2.429   4.819
 8482SOL     OW26344   4.618   5.488   2.247
 8482SOL    HW126345   4.604   5.520   2.340
 8482SOL    HW226346   4.624   5.566   2.185
 8483SOL     OW26347   4.318   6.583   2.143
 8483SOL    HW126348   4.315   6.508   2.078
 8483SOL    HW226349   4.398   6.640   2.124
 8484SOL     OW26350   0.120   6.314   2.901
 8484SOL    HW126351   0.086   6.291   2.810
 8484SOL    HW226352   0.068   6.392   2.937
 8485SOL     OW26353   3.664   2.784   0.469
 8485SOL    HW126354   3.624   2.733   0.393
 8485SOL    HW226355   3.595   2.796   0.541
 8486SOL     OW26356   2.334   1.741   2.434
 8486SOL    HW126357   2.280   1.677   2.488
 8486SOL    HW226358   2.296   1.833   2.442
 8487SOL     OW26359   5.778   1.344   5.883
 8487SOL    HW126360   5.872   1.351   5.847
 8487SOL    HW226361   5.726   1.280   5.826
 8488SOL     OW26362   5.050   5.879   0.856
 8488SOL    HW126363   5.103   5.942   0.800
 8488SOL    HW226364   5.085   5.881   0.950
 8489SOL     OW26365   6.176   2.106   1.608
 8489SOL    HW126366   6.230   2.135   1.529
 8489SOL    HW226367   6.192   2.168   1.684
 8490SOL     OW26368   4.763   6.902   3.846
 8490SOL    HW126369   4.802   6.816   3.879
 8490SOL    HW226370   4.835   6.958   3.805
 8491SOL     OW26371   3.118   5.821   1.464
 8491SOL    HW126372   3.063   5.864   1.536
 8491SOL    HW226373   3.062   5.811   1.382
 8492SOL     OW26374   4.812   4.084   5.382
 8492SOL    HW126375   4.786   3.987   5.382
 8492SOL    HW226376   4.911   4.092   5.381
 8493SOL     OW26377   2.238   2.984   6.612
 8493SOL    HW126378   2.234   3.064   6.671
 8493SOL    HW226379   2.256   3.012   6.518
 8494SOL     OW26380   3.943   5.870   1.329
 8494SOL    HW126381   4.016   5.894   1.393
 8494SOL    HW226382   3.855   5.890   1.371
 8495SOL     OW26383   6.062   4.736   2.572
 8495SOL    HW126384   6.144   4.779   2.608
 8495SOL    HW226385   6.000   4.713   2.647
 8496SOL     OW26386   1.544   2.119   1.934
 8496SOL    HW126387   1.599   2.053   1.882
 8496SOL    HW226388   1.447   2.096   1.923
 8497SOL     OW26389   6.624   0.759   3.671
 8497SOL    HW126390   6.707   0.735   3.721
 8497SOL    HW226391   6.612   0.858   3.671
 8498SOL     OW26392   6.419   6.108   3.079
 8498SOL    HW126393   6.447   6.197   3.043
 8498SOL    HW226394   6.344   6.120   3.144
 8499SOL     OW26395   2.181   4.626   6.775
 8499SOL    HW126396   2.126   4.672   6.845
 8499SOL    HW226397   2.129   4.620   6.690
 8500SOL     OW26398   1.558   6.125   5.498
 8500SOL    HW126399   1.487   6.109   5.430
 8500SOL    HW226400   1.558   6.052   5.566
 8501SOL     OW26401   0.041   2.509   0.165
 8501SOL    HW126402   7.000   2.544   0.095
 8501SOL    HW226403   0.130   2.491   0.123
 8502SOL     OW26404   0.790   3.348   1.169
 8502SOL    HW126405   0.879   3.318   1.202
 8502SOL    HW226406   0.802   3.426   1.108
 8503SOL     OW26407   0.452   6.561   3.962
 8503SOL    HW126408   0.398   6.587   4.042
 8503SOL    HW226409   0.547   6.589   3.976
 8504SOL     OW26410   2.334   4.676   2.710
 8504SOL    HW126411   2.255   4.730   2.741
 8504SOL    HW226412   2.384   4.643   2.790
 8505SOL     OW26413   5.612   3.655   3.403
 8505SOL    HW126414   5.586   3.562   3.377
 8505SOL    HW226415   5.679   3.652   3.477
 8506SOL     OW26416   0.556   0.708   6.536
 8506SOL    HW126417   0.633   0.769   6.519
 8506SOL    HW226418   0.588   0.613   6.538
 8507SOL     OW26419   3.373   0.482   5.243
 8507SOL    HW126420   3.408   0.448   5.330
 8507SOL    HW226421   3.299   0.548   5.260
 8508SOL     OW26422   5.316   1.668   4.556
 8508SOL    HW126423   5.384   1.646   4.626
 8508SOL    HW226424   5.363   1.691   4.470
 8509SOL     OW26425   4.286   1.499   4.203
 8509SOL    HW126426   4.230   1.582   4.205
 8509SOL    HW226427   4.340   1.498   4.118
 8510SOL     OW26428   5.871   4.139   2.717
 8510SOL    HW126429   5.959   4.100   2.744
 8510SOL    HW226430   5.872   4.238   2.732
 8511SOL     OW26431   6.352   4.022   2.344
 8511SOL    HW126432   6.414   4.099   2.327
 8511SOL    HW226433   6.336   3.974   2.258
 8512SOL     OW26434   2.682   1.670   1.970
 8512SOL    HW126435   2.648   1.638   2.059
 8512SOL    HW226436   2.782   1.674   1.973
 8513SOL     OW26437   5.949   5.388   1.012
 8513SOL    HW126438   5.934   5.354   0.919
 8513SOL    HW226439   6.011   5.326   1.060
 8514SOL     OW26440   2.541   2.509   4.108
 8514SOL    HW126441   2.576   2.480   4.197
 8514SOL    HW226442   2.610   2.491   4.038
 8515SOL     OW26443   4.402   2.508   0.793
 8515SOL    HW126444   4.425   2.499   0.890
 8515SOL    HW226445   4.476   2.471   0.737
 8516SOL     OW26446   6.141   2.256   1.978
 8516SOL    HW126447   6.116   2.274   2.073
 8516SOL    HW226448   6.062   2.218   1.930
 8517SOL     OW26449   0.898   2.799   6.526
 8517SOL    HW126450   0.847   2.715   6.543
 8517SOL    HW226451   0.967   2.783   6.455
 8518SOL     OW26452   4.529   4.677   6.971
 8518SOL    HW126453   4.472   4.756   6.994
 8518SOL    HW226454   4.602   4.667   0.018
 8519SOL     OW26455   1.603   4.707   1.761
 8519SOL    HW126456   1.674   4.637   1.754
 8519SOL    HW226457   1.637   4.792   1.721
 8520SOL     OW26458   2.837   2.380   0.263
 8520SOL    HW126459   2.935   2.360   0.271
 8520SOL    HW226460   2.816   2.463   0.315
 8521SOL     OW26461   1.737   5.266   6.357
 8521SOL    HW126462   1.699   5.175   6.373
 8521SOL    HW226463   1.758   5.309   6.445
 8522SOL     OW26464   1.417   6.043   1.724
 8522SOL    HW126465   1.364   6.117   1.766
 8522SOL    HW226466   1.474   5.999   1.793
 8523SOL     OW26467   3.251   0.025   6.231
 8523SOL    HW126468   3.269   6.980   6.158
 8523SOL    HW226469   3.225   0.112   6.190
 8524SOL     OW26470   0.983   2.190   4.961
 8524SOL    HW126471   0.928   2.125   4.909
 8524SOL    HW226472   0.927   2.270   4.984
 8525SOL     OW26473   6.464   4.058   3.061
 8525SOL    HW126474   6.487   4.150   3.029
 8525SOL    HW226475   6.530   4.030   3.131
 8526SOL     OW26476   3.850   5.302   0.223
 8526SOL    HW126477   3.781   5.230   0.211
 8526SOL    HW226478   3.879   5.305   0.319
 8527SOL     OW26479   2.877   0.581   5.780
 8527SOL    HW126480   2.784   0.549   5.801
 8527SOL    HW226481   2.873   0.675   5.747
 8528SOL     OW26482   4.572   2.853   5.962
 8528SOL    HW126483   4.547   2.785   6.031
 8528SOL    HW226484   4.641   2.914   6.000
 8529SOL     OW26485   0.487   6.905   0.830
 8529SOL    HW126486   0.495   6.942   0.922
 8529SOL    HW226487   0.490   6.980   0.763
 8530SOL     OW26488   2.703   3.467   5.359
 8530SOL    HW126489   2.687   3.373   5.327
 8530SOL    HW226490   2.776   3.509   5.305
 8531SOL     OW26491   6.559   4.805   2.210
 8531SOL    HW126492   6.599   4.770   2.125
 8531SOL    HW226493   6.588   4.747   2.286
 8532SOL     OW26494   3.995   4.856   4.516
 8532SOL    HW126495   3.981   4.878   4.612
 8532SOL    HW226496   3.920   4.895   4.462
 8533SOL     OW26497   2.043   0.145   5.531
 8533SOL    HW126498   2.134   0.140   5.491
 8533SOL    HW226499   1.981   0.188   5.466
 8534SOL     OW26500   6.265   3.270   4.553
 8534SOL    HW126501   6.338   3.250   4.618
 8534SOL    HW226502   6.232   3.185   4.512
 8535SOL     OW26503   0.065   1.855   5.210
 8535SOL    HW126504   0.098   1.897   5.126
 8535SOL    HW226505   0.007   1.777   5.188
 8536SOL     OW26506   5.500   2.343   4.892
 8536SOL    HW126507   5.537   2.283   4.822
 8536SOL    HW226508   5.477   2.289   4.973
 8537SOL     OW26509   5.475   1.870   2.515
 8537SOL    HW126510   5.496   1.906   2.424
 8537SOL    HW226511   5.478   1.770   2.512
 8538SOL     OW26512   0.641   1.602   6.401
 8538SOL    HW126513   0.598   1.558   6.480
 8538SOL    HW226514   0.573   1.619   6.330
 8539SOL     OW26515   6.455   1.427   1.777
 8539SOL    HW126516   6.424   1.482   1.855
 8539SOL    HW226517   6.535   1.373   1.805
 8540SOL     OW26518   4.787   1.208   0.536
 8540SOL    HW126519   4.773   1.190   0.439
 8540SOL    HW226520   4.801   1.306   0.550
 8541SOL     OW26521   2.852   2.300   4.158
 8541SOL    HW126522   2.798   2.382   4.179
 8541SOL    HW226523   2.922   2.288   4.228
 8542SOL     OW26524   2.559   4.641   6.945
 8542SOL    HW126525   2.504   4.561   6.920
 8542SOL    HW226526   2.590   4.687   6.863
 8543SOL     OW26527   3.371   1.276   0.171
 8543SOL    HW126528   3.296   1.324   0.216
 8543SOL    HW226529   3.338   1.235   0.086
 8544SOL     OW26530   5.357   2.785   4.767
 8544SOL    HW126531   5.342   2.699   4.816
 8544SOL    HW226532   5.455   2.801   4.757
 8545SOL     OW26533   4.428   0.242   4.343
 8545SOL    HW126534   4.517   0.288   4.351
 8545SOL    HW226535   4.428   0.160   4.400
 8546SOL     OW26536   0.672   0.255   2.832
 8546SOL    HW126537   0.672   0.215   2.740
 8546SOL    HW226538   0.750   0.317   2.841
 8547SOL     OW26539   1.067   6.703   6.902
 8547SOL    HW126540   0.994   6.770   6.889
 8547SOL    HW226541   1.088   6.659   6.815
 8548SOL     OW26542   0.037   3.220   5.504
 8548SOL    HW126543   0.114   3.235   5.566
 8548SOL    HW226544   0.032   3.123   5.480
 8549SOL     OW26545   0.922   2.833   4.546
 8549SOL    HW126546   0.892   2.914   4.596
 8549SOL    HW226547   0.906   2.845   4.449
 8550SOL     OW26548   1.348   5.223   0.071
 8550SOL    HW126549   1.429   5.281   0.070
 8550SOL    HW226550   1.278   5.264   0.012
 8551SOL     OW26551   2.659   2.969   6.884
 8551SOL    HW126552   2.716   2.888   6.888
 8551SOL    HW226553   2.716   3.051   6.893
 8552SOL     OW26554   2.410   6.996   2.730
 8552SOL    HW126555   2.337   0.017   2.675
 8552SOL    HW226556   2.443   0.041   2.797
 8553SOL     OW26557   4.384   5.250   7.018
 8553SOL    HW126558   4.449   5.307   6.968
 8553SOL    HW226559   4.356   5.173   6.960
 8554SOL     OW26560   0.672   4.763   0.526
 8554SOL    HW126561   0.577   4.745   0.553
 8554SOL    HW226562   0.722   4.677   0.523
 8555SOL     OW26563   2.902   0.640   3.358
 8555SOL    HW126564   2.982   0.639   3.297
 8555SOL    HW226565   2.920   0.702   3.435
 8556SOL     OW26566   1.903   6.447   5.146
 8556SOL    HW126567   1.922   6.505   5.226
 8556SOL    HW226568   1.887   6.353   5.176
 8557SOL     OW26569   6.846   6.570   2.333
 8557SOL    HW126570   6.874   6.592   2.426
 8557SOL    HW226571   6.905   6.616   2.268
 8558SOL     OW26572   2.592   5.192   2.850
 8558SOL    HW126573   2.593   5.201   2.750
 8558SOL    HW226574   2.684   5.206   2.885
 8559SOL     OW26575   2.020   0.193   2.377
 8559SOL    HW126576   2.095   0.129   2.396
 8559SOL    HW226577   1.935   0.142   2.363
 8560SOL     OW26578   0.962   6.013   1.743
 8560SOL    HW126579   0.963   6.038   1.646
 8560SOL    HW226580   0.871   6.033   1.781
 8561SOL     OW26581   3.479   0.384   2.715
 8561SOL    HW126582   3.456   0.365   2.811
 8561SOL    HW226583   3.571   0.424   2.711
 8562SOL     OW26584   4.209   6.383   6.188
 8562SOL    HW126585   4.248   6.474   6.178
 8562SOL    HW226586   4.227   6.349   6.280
 8563SOL     OW26587   1.035   5.012   1.067
 8563SOL    HW126588   1.040   4.923   1.113
 8563SOL    HW226589   1.108   5.018   0.999
 8564SOL     OW26590   2.938   0.242   5.151
 8564SOL    HW126591   2.904   0.322   5.101
 8564SOL    HW226592   2.951   0.266   5.247
 8565SOL     OW26593   3.608   5.159   1.012
 8565SOL    HW126594   3.559   5.166   1.099
 8565SOL    HW226595   3.545   5.179   0.937
 8566SOL     OW26596   0.993   6.529   1.411
 8566SOL    HW126597   1.006   6.542   1.313
 8566SOL    HW226598   1.049   6.595   1.461
 8567SOL     OW26599   0.249   1.689   3.126
 8567SOL    HW126600   0.303   1.623   3.074
 8567SOL    HW226601   0.174   1.642   3.173
 8568SOL     OW26602   5.905   1.629   6.682
 8568SOL    HW126603   5.807   1.618   6.699
 8568SOL    HW226604   5.953   1.642   6.769
 8569SOL     OW26605   4.352   1.633   5.593
 8569SOL    HW126606   4.447   1.606   5.604
 8569SOL    HW226607   4.347   1.729   5.565
 8570SOL     OW26608   1.827   1.665   4.919
 8570SOL    HW126609   1.882   1.595   4.874
 8570SOL    HW226610   1.737   1.670   4.875
 8571SOL     OW26611   0.109   6.150   5.707
 8571SOL    HW126612   0.114   6.200   5.793
 8571SOL    HW226613   0.188   6.090   5.699
 8572SOL     OW26614   2.533   4.779   6.004
 8572SOL    HW126615   2.459   4.830   6.048
 8572SOL    HW226616   2.598   4.747   6.073
 8573SOL     OW26617   3.400   6.006   6.040
 8573SOL    HW126618   3.496   6.002   6.068
 8573SOL    HW226619   3.393   6.035   5.945
 8574SOL     OW26620   6.913   6.630   6.282
 8574SOL    HW126621   6.900   6.615   6.380
 8574SOL    HW226622   7.002   6.594   6.254
 8575SOL     OW26623   2.251   2.463   3.469
 8575SOL    HW126624   2.168   2.428   3.426
 8575SOL    HW226625   2.294   2.530   3.408
 8576SOL     OW26626   1.150   4.313   5.371
 8576SOL    HW126627   1.234   4.284   5.417
 8576SOL    HW226628   1.133   4.410   5.390
 8577SOL     OW26629   1.608   6.633   4.338
 8577SOL    HW126630   1.681   6.611   4.402
 8577SOL    HW226631   1.549   6.553   4.326
 8578SOL     OW26632   5.939   6.294   4.681
 8578SOL    HW126633   5.917   6.220   4.617
 8578SOL    HW226634   5.875   6.369   4.668
 8579SOL     OW26635   2.236   0.188   2.132
 8579SOL    HW126636   2.236   0.279   2.173
 8579SOL    HW226637   2.144   0.166   2.099
 8580SOL     OW26638   2.252   5.897   1.063
 8580SOL    HW126639   2.183   5.906   0.991
 8580SOL    HW226640   2.305   5.814   1.047
 8581SOL     OW26641   3.457   3.680   1.720
 8581SOL    HW126642   3.454   3.669   1.620
 8581SOL    HW226643   3.533   3.740   1.745
 8582SOL     OW26644   4.795   4.092   4.769
 8582SOL    HW126645   4.735   4.143   4.707
 8582SOL    HW226646   4.774   4.116   4.863
 8583SOL     OW26647   4.580   0.922   4.647
 8583SOL    HW126648   4.631   0.992   4.698
 8583SOL    HW226649   4.613   0.920   4.552
 8584SOL     OW26650   0.208   5.581   6.716
 8584SOL    HW126651   0.111   5.560   6.707
 8584SOL    HW226652   0.259   5.496   6.733
 8585SOL     OW26653   6.791   0.597   6.841
 8585SOL    HW126654   6.861   0.584   6.771
 8585SOL    HW226655   6.701   0.593   6.798
 8586SOL     OW26656   3.213   6.881   2.127
 8586SOL    HW126657   3.244   6.863   2.220
 8586SOL    HW226658   3.120   6.846   2.115
 8587SOL     OW26659   1.341   0.512   4.327
 8587SOL    HW126660   1.376   0.450   4.257
 8587SOL    HW226661   1.385   0.601   4.318
 8588SOL     OW26662   4.157   0.728   0.320
 8588SOL    HW126663   4.213   0.692   0.245
 8588SOL    HW226664   4.066   0.686   0.317
 8589SOL     OW26665   5.398   2.775   5.479
 8589SOL    HW126666   5.393   2.802   5.382
 8589SOL    HW226667   5.377   2.853   5.537
 8590SOL     OW26668   0.135   6.570   2.661
 8590SOL    HW126669   0.196   6.513   2.606
 8590SOL    HW226670   0.174   6.582   2.753
 8591SOL     OW26671   0.422   4.339   0.351
 8591SOL    HW126672   0.350   4.406   0.333
 8591SOL    HW226673   0.388   4.269   0.413
 8592SOL     OW26674   5.687   2.586   7.018
 8592SOL    HW126675   5.604   2.636   0.024
 8592SOL    HW226676   5.738   2.640   6.952
 8593SOL     OW26677   2.663   1.182   0.503
 8593SOL    HW126678   2.651   1.262   0.444
 8593SOL    HW226679   2.699   1.210   0.591
 8594SOL     OW26680   4.515   2.490   4.984
 8594SOL    HW126681   4.556   2.524   5.069
 8594SOL    HW226682   4.415   2.490   4.992
 8595SOL     OW26683   0.595   1.365   3.214
 8595SOL    HW126684   0.644   1.347   3.299
 8595SOL    HW226685   0.581   1.464   3.204
 8596SOL     OW26686   1.037   4.460   2.925
 8596SOL    HW126687   1.061   4.546   2.879
 8596SOL    HW226688   0.944   4.433   2.899
 8597SOL     OW26689   4.660   1.930   1.006
 8597SOL    HW126690   4.589   1.994   0.977
 8597SOL    HW226691   4.657   1.919   1.105
 8598SOL     OW26692   5.959   0.236   0.490
 8598SOL    HW126693   5.905   0.315   0.461
 8598SOL    HW226694   6.042   0.267   0.536
 8599SOL     OW26695   1.497   2.559   4.838
 8599SOL    HW126696   1.401   2.534   4.845
 8599SOL    HW226697   1.546   2.491   4.783
 8600SOL     OW26698   5.267   4.530   6.416
 8600SOL    HW126699   5.232   4.439   6.437
 8600SOL    HW226700   5.205   4.576   6.353
 8601SOL     OW26701   1.156   1.581   4.912
 8601SOL    HW126702   1.168   1.516   4.987
 8601SOL    HW226703   1.181   1.537   4.826
 8602SOL     OW26704   3.467   6.220   2.369
 8602SOL    HW126705   3.530   6.220   2.447
 8602SOL    HW226706   3.417   6.306   2.367
 8603SOL     OW26707   5.199   6.185   1.014
 8603SOL    HW126708   5.177   6.108   1.075
 8603SOL    HW226709   5.117   6.212   0.964
 8604SOL     OW26710   0.686   2.877   4.962
 8604SOL    HW126711   0.636   2.791   4.949
 8604SOL    HW226712   0.623   2.954   4.951
 8605SOL     OW26713   2.255   5.171   4.160
 8605SOL    HW126714   2.351   5.146   4.172
 8605SOL    HW226715   2.218   5.205   4.247
 8606SOL     OW26716   1.217   3.398   6.585
 8606SOL    HW126717   1.155   3.455   6.532
 8606SOL    HW226718   1.236   3.441   6.674
 8607SOL     OW26719   3.151   5.053   6.309
 8607SOL    HW126720   3.216   5.088   6.242
 8607SOL    HW226721   3.197   5.041   6.397
 8608SOL     OW26722   3.034   4.851   2.462
 8608SOL    HW126723   3.053   4.858   2.560
 8608SOL    HW226724   2.968   4.922   2.436
 8609SOL     OW26725   5.161   0.965   2.812
 8609SOL    HW126726   5.133   0.913   2.731
 8609SOL    HW226727   5.248   0.930   2.846
 8610SOL     OW26728   0.683   2.074   3.085
 8610SOL    HW126729   0.584   2.068   3.099
 8610SOL    HW226730   0.715   2.167   3.107
 8611SOL     OW26731   3.166   2.197   4.758
 8611SOL    HW126732   3.091   2.131   4.748
 8611SOL    HW226733   3.142   2.264   4.828
 8612SOL     OW26734   2.594   3.153   0.113
 8612SOL    HW126735   2.590   3.054   0.127
 8612SOL    HW226736   2.518   3.197   0.161
 8613SOL     OW26737   2.860   1.457   1.724
 8613SOL    HW126738   2.884   1.543   1.767
 8613SOL    HW226739   2.942   1.414   1.687
 8614SOL     OW26740   1.028   2.956   3.495
 8614SOL    HW126741   0.983   2.956   3.584
 8614SOL    HW226742   1.116   2.908   3.502
 8615SOL     OW26743   4.106   1.745   5.098
 8615SOL    HW126744   4.055   1.823   5.062
 8615SOL    HW226745   4.109   1.673   5.028
 8616SOL     OW26746   3.104   4.638   1.747
 8616SOL    HW126747   3.020   4.626   1.799
 8616SOL    HW226748   3.177   4.669   1.808
 8617SOL     OW26749   6.610   1.628   5.647
 8617SOL    HW126750   6.552   1.650   5.725
 8617SOL    HW226751   6.706   1.627   5.676
 8618SOL     OW26752   5.930   4.757   1.182
 8618SOL    HW126753   6.000   4.813   1.226
 8618SOL    HW226754   5.869   4.815   1.129
 8619SOL     OW26755   3.635   4.863   2.296
 8619SOL    HW126756   3.601   4.839   2.205
 8619SOL    HW226757   3.559   4.859   2.362
 8620SOL     OW26758   1.339   0.072   3.292
 8620SOL    HW126759   1.337   0.111   3.384
 8620SOL    HW226760   1.428   0.031   3.275
 8621SOL     OW26761   5.752   1.753   2.735
 8621SOL    HW126762   5.842   1.756   2.779
 8621SOL    HW226763   5.706   1.841   2.748
 8622SOL     OW26764   5.464   3.388   1.239
 8622SOL    HW126765   5.418   3.426   1.159
 8622SOL    HW226766   5.396   3.364   1.308
 8623SOL     OW26767   0.811   3.533   4.783
 8623SOL    HW126768   0.811   3.600   4.708
 8623SOL    HW226769   0.905   3.504   4.801
 8624SOL     OW26770   1.709   3.931   4.805
 8624SOL    HW126771   1.766   3.904   4.883
 8624SOL    HW226772   1.743   4.016   4.767
 8625SOL     OW26773   4.468   0.863   6.101
 8625SOL    HW126774   4.464   0.781   6.043
 8625SOL    HW226775   4.396   0.926   6.074
 8626SOL     OW26776   2.922   2.938   6.399
 8626SOL    HW126777   3.019   2.963   6.404
 8626SOL    HW226778   2.902   2.870   6.470
 8627SOL     OW26779   0.677   1.691   3.385
 8627SOL    HW126780   0.697   1.787   3.367
 8627SOL    HW226781   0.714   1.665   3.474
 8628SOL     OW26782   6.872   6.404   0.571
 8628SOL    HW126783   6.965   6.438   0.561
 8628SOL    HW226784   6.873   6.318   0.623
 8629SOL     OW26785   1.917   5.896   5.089
 8629SOL    HW126786   1.916   5.830   5.164
 8629SOL    HW226787   1.861   5.862   5.013
 8630SOL     OW26788   5.256   4.695   4.014
 8630SOL    HW126789   5.211   4.631   4.076
 8630SOL    HW226790   5.342   4.727   4.055
 8631SOL     OW26791   0.653   5.303   6.396
 8631SOL    HW126792   0.636   5.206   6.380
 8631SOL    HW226793   0.661   5.320   6.495
 8632SOL     OW26794   3.984   4.905   4.797
 8632SOL    HW126795   3.886   4.919   4.813
 8632SOL    HW226796   4.028   4.881   4.883
 8633SOL     OW26797   5.530   2.509   5.796
 8633SOL    HW126798   5.486   2.507   5.885
 8633SOL    HW226799   5.567   2.601   5.779
 8634SOL     OW26800   5.001   3.710   0.289
 8634SOL    HW126801   4.936   3.725   0.216
 8634SOL    HW226802   5.094   3.717   0.253
 8635SOL     OW26803   5.191   3.348   6.382
 8635SOL    HW126804   5.176   3.253   6.409
 8635SOL    HW226805   5.191   3.355   6.282
 8636SOL     OW26806   5.782   5.912   0.827
 8636SOL    HW126807   5.761   6.002   0.865
 8636SOL    HW226808   5.709   5.885   0.763
 8637SOL     OW26809   2.732   0.667   6.614
 8637SOL    HW126810   2.636   0.637   6.622
 8637SOL    HW226811   2.734   0.763   6.587
 8638SOL     OW26812   3.410   2.175   5.133
 8638SOL    HW126813   3.349   2.148   5.058
 8638SOL    HW226814   3.370   2.251   5.184
 8639SOL     OW26815   5.201   2.599   0.496
 8639SOL    HW126816   5.121   2.659   0.497
 8639SOL    HW226817   5.201   2.542   0.578
 8640SOL     OW26818   4.209   4.079   6.732
 8640SOL    HW126819   4.145   4.123   6.796
 8640SOL    HW226820   4.263   4.149   6.685
 8641SOL     OW26821   4.485   4.603   3.861
 8641SOL    HW126822   4.565   4.660   3.842
 8641SOL    HW226823   4.461   4.551   3.779
 8642SOL     OW26824   1.085   6.385   3.514
 8642SOL    HW126825   1.167   6.428   3.552
 8642SOL    HW226826   1.004   6.431   3.550
 8643SOL     OW26827   3.076   0.652   6.427
 8643SOL    HW126828   3.027   0.697   6.352
 8643SOL    HW226829   3.046   0.690   6.514
 8644SOL     OW26830   5.355   2.195   5.394
 8644SOL    HW126831   5.278   2.141   5.361
 8644SOL    HW226832   5.329   2.244   5.477
 8645SOL     OW26833   4.308   4.639   1.282
 8645SOL    HW126834   4.407   4.628   1.278
 8645SOL    HW226835   4.264   4.561   1.236
 8646SOL     OW26836   0.064   2.131   0.091
 8646SOL    HW126837   6.995   2.088   0.094
 8646SOL    HW226838   0.069   2.194   0.014
 8647SOL     OW26839   2.786   5.115   6.548
 8647SOL    HW126840   2.703   5.166   6.570
 8647SOL    HW226841   2.854   5.177   6.508
 8648SOL     OW26842   7.002   6.995   2.762
 8648SOL    HW126843   6.927   6.991   2.697
 8648SOL    HW226844   6.988   0.051   2.824
 8649SOL     OW26845   5.599   5.720   6.058
 8649SOL    HW126846   5.568   5.803   6.103
 8649SOL    HW226847   5.575   5.640   6.114
 8650SOL     OW26848   2.032   4.985   4.257
 8650SOL    HW126849   2.119   5.032   4.239
 8650SOL    HW226850   2.033   4.948   4.349
 8651SOL     OW26851   4.293   0.905   0.490
 8651SOL    HW126852   4.298   0.871   0.584
 8651SOL    HW226853   4.277   0.828   0.427
 8652SOL     OW26854   1.594   5.163   3.588
 8652SOL    HW126855   1.610   5.243   3.647
 8652SOL    HW226856   1.577   5.083   3.645
 8653SOL     OW26857   6.773   1.157   6.406
 8653SOL    HW126858   6.835   1.139   6.330
 8653SOL    HW226859   6.823   1.147   6.493
 8654SOL     OW26860   0.547   4.787   2.138
 8654SOL    HW126861   0.515   4.760   2.048
 8654SOL    HW226862   0.647   4.781   2.142
 8655SOL     OW26863   6.171   0.925   4.239
 8655SOL    HW126864   6.080   0.898   4.210
 8655SOL    HW226865   6.194   1.014   4.199
 8656SOL     OW26866   6.562   6.636   1.043
 8656SOL    HW126867   6.624   6.711   1.066
 8656SOL    HW226868   6.518   6.601   1.126
 8657SOL     OW26869   4.628   5.377   7.010
 8657SOL    HW126870   4.661   5.296   6.961
 8657SOL    HW226871   4.691   5.399   0.063
 8658SOL     OW26872   6.595   6.379   0.109
 8658SOL    HW126873   6.686   6.385   0.070
 8658SOL    HW226874   6.596   6.414   0.203
 8659SOL     OW26875   4.609   2.070   2.434
 8659SOL    HW126876   4.579   2.027   2.348
 8659SOL    HW226877   4.688   2.128   2.416
 8660SOL     OW26878   0.161   3.444   1.977
 8660SOL    HW126879   0.249   3.447   1.931
 8660SOL    HW226880   0.164   3.500   2.059
 8661SOL     OW26881   6.793   3.672   1.178
 8661SOL    HW126882   6.868   3.729   1.143
 8661SOL    HW226883   6.706   3.705   1.141
 8662SOL     OW26884   3.947   5.811   1.034
 8662SOL    HW126885   4.001   5.739   0.991
 8662SOL    HW226886   3.944   5.795   1.133
 8663SOL     OW26887   2.980   5.778   2.215
 8663SOL    HW126888   3.035   5.824   2.146
 8663SOL    HW226889   2.972   5.836   2.296
 8664SOL     OW26890   1.825   6.480   1.549
 8664SOL    HW126891   1.904   6.530   1.514
 8664SOL    HW226892   1.749   6.486   1.483
 8665SOL     OW26893   5.952   5.673   5.185
 8665SOL    HW126894   5.988   5.761   5.155
 8665SOL    HW226895   5.852   5.677   5.188
 8666SOL     OW26896   5.687   1.220   3.818
 8666SOL    HW126897   5.664   1.199   3.723
 8666SOL    HW226898   5.647   1.150   3.878
 8667SOL     OW26899   3.803   1.933   3.683
 8667SOL    HW126900   3.827   1.994   3.607
 8667SOL    HW226901   3.805   1.986   3.768
 8668SOL     OW26902   4.944   3.464   3.597
 8668SOL    HW126903   4.981   3.556   3.586
 8668SOL    HW226904   4.967   3.430   3.689
 8669SOL     OW26905   1.252   6.406   6.139
 8669SOL    HW126906   1.289   6.392   6.047
 8669SOL    HW226907   1.228   6.318   6.179
 8670SOL     OW26908   4.504   4.998   6.191
 8670SOL    HW126909   4.569   4.925   6.171
 8670SOL    HW226910   4.537   5.084   6.154
 8671SOL     OW26911   5.265   2.086   3.145
 8671SOL    HW126912   5.185   2.129   3.187
 8671SOL    HW226913   5.236   2.026   3.071
 8672SOL     OW26914   1.064   5.380   3.852
 8672SOL    HW126915   0.995   5.355   3.919
 8672SOL    HW226916   1.020   5.416   3.770
 8673SOL     OW26917   5.013   2.775   0.105
 8673SOL    HW126918   4.962   2.719   0.170
 8673SOL    HW226919   5.076   2.834   0.154
 8674SOL     OW26920   5.003   6.236   2.990
 8674SOL    HW126921   4.999   6.293   3.072
 8674SOL    HW226922   4.930   6.263   2.927
 8675SOL     OW26923   3.769   2.128   4.924
 8675SOL    HW126924   3.845   2.165   4.870
 8675SOL    HW226925   3.748   2.191   4.999
 8676SOL     OW26926   5.717   6.681   3.099
 8676SOL    HW126927   5.711   6.663   3.197
 8676SOL    HW226928   5.641   6.739   3.070
 8677SOL     OW26929   2.097   5.563   6.213
 8677SOL    HW126930   2.087   5.464   6.201
 8677SOL    HW226931   2.192   5.589   6.196
 8678SOL     OW26932   0.003   0.394   1.738
 8678SOL    HW126933   6.952   0.328   1.720
 8678SOL    HW226934   0.012   0.456   1.660
 8679SOL     OW26935   0.401   2.007   3.156
 8679SOL    HW126936   0.311   1.964   3.147
 8679SOL    HW226937   0.391   2.096   3.200
 8680SOL     OW26938   6.734   3.266   0.159
 8680SOL    HW126939   6.659   3.222   0.209
 8680SOL    HW226940   6.822   3.237   0.198
 8681SOL     OW26941   4.820   5.264   1.019
 8681SOL    HW126942   4.772   5.344   1.053
 8681SOL    HW226943   4.820   5.192   1.089
 8682SOL     OW26944   5.716   6.421   2.473
 8682SOL    HW126945   5.723   6.331   2.429
 8682SOL    HW226946   5.781   6.484   2.431
 8683SOL     OW26947   1.480   2.226   4.375
 8683SOL    HW126948   1.413   2.300   4.372
 8683SOL    HW226949   1.565   2.257   4.333
 8684SOL     OW26950   6.282   2.700   4.878
 8684SOL    HW126951   6.264   2.705   4.976
 8684SOL    HW226952   6.332   2.615   4.858
 8685SOL     OW26953   6.778   2.000   6.417
 8685SOL    HW126954   6.875   1.976   6.415
 8685SOL    HW226955   6.727   1.932   6.469
 8686SOL     OW26956   0.191   1.041   3.252
 8686SOL    HW126957   0.124   1.115   3.250
 8686SOL    HW226958   0.204   1.010   3.346
 8687SOL     OW26959   4.834   5.158   2.099
 8687SOL    HW126960   4.775   5.129   2.174
 8687SOL    HW226961   4.843   5.084   2.032
 8688SOL     OW26962   0.395   5.261   6.027
 8688SOL    HW126963   0.318   5.234   5.968
 8688SOL    HW226964   0.481   5.234   5.984
 8689SOL     OW26965   3.458   3.596   1.459
 8689SOL    HW126966   3.506   3.670   1.411
 8689SOL    HW226967   3.422   3.531   1.392
 8690SOL     OW26968   1.480   3.887   3.807
 8690SOL    HW126969   1.440   3.961   3.861
 8690SOL    HW226970   1.568   3.917   3.770
 8691SOL     OW26971   3.952   2.219   6.067
 8691SOL    HW126972   3.924   2.268   6.150
 8691SOL    HW226973   4.051   2.215   6.062
 8692SOL     OW26974   2.758   1.432   4.708
 8692SOL    HW126975   2.810   1.355   4.671
 8692SOL    HW226976   2.789   1.517   4.665
 8693SOL     OW26977   5.152   6.930   0.703
 8693SOL    HW126978   5.251   6.947   0.707
 8693SOL    HW226979   5.131   6.872   0.624
 8694SOL     OW26980   5.336   0.810   4.744
 8694SOL    HW126981   5.242   0.787   4.718
 8694SOL    HW226982   5.388   0.726   4.757
 8695SOL     OW26983   4.607   2.763   5.708
 8695SOL    HW126984   4.694   2.716   5.697
 8695SOL    HW226985   4.596   2.793   5.802
 8696SOL     OW26986   2.154   5.160   5.395
 8696SOL    HW126987   2.172   5.243   5.343
 8696SOL    HW226988   2.236   5.102   5.395
 8697SOL     OW26989   0.346   3.643   5.977
 8697SOL    HW126990   0.287   3.588   6.035
 8697SOL    HW226991   0.304   3.732   5.961
 8698SOL     OW26992   4.895   6.091   4.952
 8698SOL    HW126993   4.924   6.117   4.859
 8698SOL    HW226994   4.954   6.018   4.985
 8699SOL     OW26995   0.709   3.053   5.167
 8699SOL    HW126996   0.617   3.054   5.204
 8699SOL    HW226997   0.716   2.981   5.097
 8700SOL     OW26998   1.111   0.120   4.881
 8700SOL    HW126999   1.198   0.110   4.833
 8700SOL    HW227000   1.053   0.185   4.832
 8701SOL     OW27001   1.455   0.984   6.656
 8701SOL    HW127002   1.359   1.002   6.680
 8701SOL    HW227003   1.478   1.035   6.573
 8702SOL     OW27004   5.588   4.772   1.625
 8702SOL    HW127005   5.618   4.700   1.686
 8702SOL    HW227006   5.604   4.745   1.530
 8703SOL     OW27007   2.912   5.169   0.255
 8703SOL    HW127008   2.959   5.096   0.303
 8703SOL    HW227009   2.883   5.137   0.165
 8704SOL     OW27010   0.404   4.039   3.365
 8704SOL    HW127011   0.307   4.038   3.341
 8704SOL    HW227012   0.416   4.075   3.457
 8705SOL     OW27013   5.291   0.826   6.509
 8705SOL    HW127014   5.313   0.914   6.468
 8705SOL    HW227015   5.261   0.840   6.604
 8706SOL     OW27016   4.989   2.449   6.659
 8706SOL    HW127017   5.046   2.480   6.583
 8706SOL    HW227018   5.020   2.491   6.744
 8707SOL     OW27019   0.491   1.531   5.914
 8707SOL    HW127020   0.505   1.626   5.942
 8707SOL    HW227021   0.397   1.520   5.880
 8708SOL     OW27022   3.967   1.428   3.037
 8708SOL    HW127023   3.979   1.505   3.099
 8708SOL    HW227024   3.976   1.459   2.943
 8709SOL     OW27025   6.767   6.803   0.433
 8709SOL    HW127026   6.838   6.825   0.500
 8709SOL    HW227027   6.762   6.704   0.421
 8710SOL     OW27028   1.724   3.144   3.641
 8710SOL    HW127029   1.686   3.123   3.730
 8710SOL    HW227030   1.786   3.222   3.649
 8711SOL     OW27031   1.902   6.531   2.803
 8711SOL    HW127032   1.857   6.604   2.752
 8711SOL    HW227033   1.951   6.569   2.881
 8712SOL     OW27034   3.793   1.722   4.667
 8712SOL    HW127035   3.715   1.717   4.606
 8712SOL    HW227036   3.762   1.706   4.761
 8713SOL     OW27037   6.424   3.279   2.974
 8713SOL    HW127038   6.447   3.242   3.064
 8713SOL    HW227039   6.490   3.351   2.950
 8714SOL     OW27040   0.894   7.015   5.760
 8714SOL    HW127041   0.892   0.091   5.784
 8714SOL    HW227042   0.972   6.971   5.804
 8715SOL     OW27043   4.087   0.928   0.963
 8715SOL    HW127044   4.056   0.926   0.868
 8715SOL    HW227045   4.112   1.022   0.987
 8716SOL     OW27046   0.004   0.103   1.343
 8716SOL    HW127047   0.054   0.188   1.332
 8716SOL    HW227048   6.929   0.117   1.322
 8717SOL     OW27049   3.080   3.971   5.055
 8717SOL    HW127050   3.114   4.060   5.027
 8717SOL    HW227051   3.106   3.903   4.986
 8718SOL     OW27052   1.329   3.203   5.688
 8718SOL    HW127053   1.420   3.227   5.654
 8718SOL    HW227054   1.266   3.194   5.612
 8719SOL     OW27055   4.357   0.046   7.018
 8719SOL    HW127056   4.413   6.994   0.037
 8719SOL    HW227057   4.359   0.038   6.918
 8720SOL     OW27058   0.183   5.719   6.221
 8720SOL    HW127059   0.179   5.771   6.306
 8720SOL    HW227060   0.258   5.653   6.225
 8721SOL     OW27061   6.423   2.673   1.849
 8721SOL    HW127062   6.326   2.659   1.827
 8721SOL    HW227063   6.432   2.711   1.941
 8722SOL     OW27064   3.844   1.057   1.252
 8722SOL    HW127065   3.767   1.106   1.212
 8722SOL    HW227066   3.850   0.966   1.211
 8723SOL     OW27067   4.663   6.926   1.917
 8723SOL    HW127068   4.630   6.926   1.823
 8723SOL    HW227069   4.763   6.913   1.917
 8724SOL     OW27070   5.418   0.075   4.541
 8724SOL    HW127071   5.479   0.038   4.471
 8724SOL    HW227072   5.335   0.020   4.546
 8725SOL     OW27073   1.919   5.933   5.687
 8725SOL    HW127074   1.941   5.977   5.774
 8725SOL    HW227075   1.978   5.969   5.615
 8726SOL     OW27076   0.181   0.759   3.303
 8726SOL    HW127077   0.277   0.757   3.328
 8726SOL    HW227078   0.172   0.769   3.204
 8727SOL     OW27079   5.457   0.497   2.309
 8727SOL    HW127080   5.511   0.468   2.389
 8727SOL    HW227081   5.361   0.474   2.324
 8728SOL     OW27082   6.554   1.161   2.080
 8728SOL    HW127083   6.597   1.109   2.154
 8728SOL    HW227084   6.497   1.233   2.118
 8729SOL     OW27085   3.553   4.836   5.932
 8729SOL    HW127086   3.531   4.933   5.942
 8729SOL    HW227087   3.541   4.790   6.019
 8730SOL     OW27088   5.638   4.130   2.308
 8730SOL    HW127089   5.671   4.095   2.395
 8730SOL    HW227090   5.645   4.230   2.308
 8731SOL     OW27091   1.302   3.177   2.504
 8731SOL    HW127092   1.359   3.198   2.425
 8731SOL    HW227093   1.213   3.144   2.473
 8732SOL     OW27094   5.985   5.083   1.844
 8732SOL    HW127095   5.918   5.016   1.876
 8732SOL    HW227096   6.077   5.048   1.857
 8733SOL     OW27097   1.843   5.875   1.349
 8733SOL    HW127098   1.768   5.819   1.315
 8733SOL    HW227099   1.895   5.823   1.417
 8734SOL     OW27100   0.674   3.627   2.623
 8734SOL    HW127101   0.655   3.705   2.562
 8734SOL    HW227102   0.590   3.574   2.635
 8735SOL     OW27103   0.791   2.683   6.969
 8735SOL    HW127104   0.797   2.776   7.006
 8735SOL    HW227105   0.862   2.670   6.900
 8736SOL     OW27106   0.167   5.104   0.988
 8736SOL    HW127107   0.160   5.178   0.921
 8736SOL    HW227108   0.137   5.136   1.077
 8737SOL     OW27109   1.812   6.292   0.370
 8737SOL    HW127110   1.824   6.364   0.302
 8737SOL    HW227111   1.770   6.331   0.452
 8738SOL     OW27112   2.782   5.833   3.866
 8738SOL    HW127113   2.789   5.932   3.883
 8738SOL    HW227114   2.709   5.794   3.921
 8739SOL     OW27115   5.514   5.558   6.705
 8739SOL    HW127116   5.528   5.652   6.673
 8739SOL    HW227117   5.602   5.516   6.726
 8740SOL     OW27118   3.825   1.413   4.651
 8740SOL    HW127119   3.820   1.511   4.635
 8740SOL    HW227120   3.820   1.364   4.563
 8741SOL     OW27121   2.232   1.489   2.535
 8741SOL    HW127122   2.165   1.447   2.473
 8741SOL    HW227123   2.323   1.480   2.495
 8742SOL     OW27124   4.799   6.507   1.772
 8742SOL    HW127125   4.745   6.542   1.696
 8742SOL    HW227126   4.750   6.522   1.858
 8743SOL     OW27127   1.460   6.781   2.170
 8743SOL    HW127128   1.365   6.759   2.195
 8743SOL    HW227129   1.508   6.697   2.145
 8744SOL     OW27130   3.859   2.841   0.184
 8744SOL    HW127131   3.835   2.926   0.231
 8744SOL    HW227132   3.899   2.862   0.095
 8745SOL     OW27133   6.281   1.910   5.861
 8745SOL    HW127134   6.266   1.900   5.960
 8745SOL    HW227135   6.310   2.004   5.841
 8746SOL     OW27136   4.437   5.367   4.166
 8746SOL    HW127137   4.399   5.333   4.252
 8746SOL    HW227138   4.385   5.447   4.135
 8747SOL     OW27139   6.925   2.041   3.377
 8747SOL    HW127140   6.870   2.124   3.371
 8747SOL    HW227141   6.896   1.975   3.308
 8748SOL     OW27142   0.274   1.271   4.291
 8748SOL    HW127143   0.358   1.217   4.299
 8748SOL    HW227144   0.295   1.360   4.250
 8749SOL     OW27145   2.286   0.778   5.112
 8749SOL    HW127146   2.306   0.785   5.015
 8749SOL    HW227147   2.309   0.863   5.158
 8750SOL     OW27148   3.269   4.211   5.154
 8750SOL    HW127149   3.346   4.224   5.216
 8750SOL    HW227150   3.185   4.244   5.198
 8751SOL     OW27151   6.412   2.191   2.221
 8751SOL    HW127152   6.448   2.263   2.280
 8751SOL    HW227153   6.327   2.155   2.259
 8752SOL     OW27154   3.480   2.924   6.266
 8752SOL    HW127155   3.478   2.825   6.254
 8752SOL    HW227156   3.387   2.960   6.259
 8753SOL     OW27157   3.183   1.823   6.308
 8753SOL    HW127158   3.204   1.789   6.216
 8753SOL    HW227159   3.184   1.747   6.373
 8754SOL     OW27160   1.726   3.693   5.886
 8754SOL    HW127161   1.800   3.631   5.859
 8754SOL    HW227162   1.739   3.722   5.980
 8755SOL     OW27163   2.448   0.986   0.937
 8755SOL    HW127164   2.482   0.916   1.000
 8755SOL    HW227165   2.382   0.945   0.873
 8756SOL     OW27166   1.692   3.147   4.458
 8756SOL    HW127167   1.789   3.149   4.435
 8756SOL    HW227168   1.673   3.068   4.516
 8757SOL     OW27169   3.651   6.100   6.589
 8757SOL    HW127170   3.648   6.129   6.494
 8757SOL    HW227171   3.659   6.000   6.594
 8758SOL     OW27172   5.254   6.173   2.857
 8758SOL    HW127173   5.169   6.189   2.907
 8758SOL    HW227174   5.309   6.257   2.859
 8759SOL     OW27175   4.512   3.230   6.573
 8759SOL    HW127176   4.593   3.286   6.591
 8759SOL    HW227177   4.540   3.136   6.554
 8760SOL     OW27178   2.871   0.831   5.713
 8760SOL    HW127179   2.915   0.919   5.731
 8760SOL    HW227180   2.785   0.845   5.664
 8761SOL     OW27181   5.948   2.463   1.370
 8761SOL    HW127182   5.898   2.470   1.456
 8761SOL    HW227183   6.032   2.518   1.377
 8762SOL     OW27184   0.876   4.627   3.625
 8762SOL    HW127185   0.923   4.546   3.659
 8762SOL    HW227186   0.846   4.683   3.703
 8763SOL     OW27187   6.140   6.899   6.345
 8763SOL    HW127188   6.195   6.907   6.261
 8763SOL    HW227189   6.145   6.985   6.396
 8764SOL     OW27190   4.738   0.326   5.486
 8764SOL    HW127191   4.717   0.252   5.550
 8764SOL    HW227192   4.663   0.337   5.421
 8765SOL     OW27193   5.147   0.335   4.025
 8765SOL    HW127194   5.163   0.350   3.928
 8765SOL    HW227195   5.048   0.334   4.042
 8766SOL     OW27196   4.555   4.475   4.670
 8766SOL    HW127197   4.594   4.440   4.755
 8766SOL    HW227198   4.480   4.538   4.690
 8767SOL     OW27199   5.221   6.023   2.538
 8767SOL    HW127200   5.293   6.053   2.474
 8767SOL    HW227201   5.263   5.972   2.613
 8768SOL     OW27202   1.294   2.536   0.386
 8768SOL    HW127203   1.253   2.559   0.474
 8768SOL    HW227204   1.328   2.442   0.388
 8769SOL     OW27205   6.941   0.860   3.317
 8769SOL    HW127206   0.017   0.839   3.331
 8769SOL    HW227207   6.887   0.777   3.328
 8770SOL     OW27208   4.408   4.617   2.008
 8770SOL    HW127209   4.406   4.520   2.031
 8770SOL    HW227210   4.465   4.631   1.927
 8771SOL     OW27211   1.258   1.747   6.758
 8771SOL    HW127212   1.283   1.694   6.839
 8771SOL    HW227213   1.166   1.785   6.771
 8772SOL     OW27214   4.449   0.593   6.845
 8772SOL    HW127215   4.503   0.633   6.770
 8772SOL    HW227216   4.475   0.497   6.857
 8773SOL     OW27217   5.753   2.933   4.144
 8773SOL    HW127218   5.829   2.947   4.080
 8773SOL    HW227219   5.675   2.895   4.095
 8774SOL     OW27220   1.649   0.808   0.184
 8774SOL    HW127221   1.670   0.805   0.086
 8774SOL    HW227222   1.655   0.903   0.216
 8775SOL     OW27223   5.482   0.564   5.463
 8775SOL    HW127224   5.542   0.511   5.523
 8775SOL    HW227225   5.538   0.626   5.407
 8776SOL     OW27226   4.699   3.056   0.505
 8776SOL    HW127227   4.649   3.114   0.570
 8776SOL    HW227228   4.790   3.094   0.489
 8777SOL     OW27229   6.010   4.192   3.850
 8777SOL    HW127230   6.091   4.247   3.834
 8777SOL    HW227231   6.035   4.111   3.904
 8778SOL     OW27232   5.548   3.302   6.170
 8778SOL    HW127233   5.494   3.219   6.185
 8778SOL    HW227234   5.616   3.286   6.098
 8779SOL     OW27235   2.895   5.093   2.311
 8779SOL    HW127236   2.797   5.109   2.298
 8779SOL    HW227237   2.943   5.180   2.320
 8780SOL     OW27238   0.819   6.582   2.564
 8780SOL    HW127239   0.777   6.503   2.608
 8780SOL    HW227240   0.811   6.574   2.465
 8781SOL     OW27241   4.731   0.862   3.938
 8781SOL    HW127242   4.796   0.866   3.862
 8781SOL    HW227243   4.648   0.913   3.914
 8782SOL     OW27244   6.620   6.694   2.204
 8782SOL    HW127245   6.607   6.785   2.245
 8782SOL    HW227246   6.707   6.656   2.236
 8783SOL     OW27247   6.432   4.062   3.537
 8783SOL    HW127248   6.344   4.094   3.501
 8783SOL    HW227249   6.436   4.079   3.635
 8784SOL     OW27250   0.096   5.526   5.725
 8784SOL    HW127251   0.046   5.509   5.810
 8784SOL    HW227252   0.126   5.621   5.722
 8785SOL     OW27253   5.395   5.013   0.174
 8785SOL    HW127254   5.332   4.995   0.098
 8785SOL    HW227255   5.400   5.112   0.190
 8786SOL     OW27256   2.756   0.923   0.492
 8786SOL    HW127257   2.738   1.019   0.510
 8786SOL    HW227258   2.713   0.896   0.406
 8787SOL     OW27259   3.037   1.220   1.960
 8787SOL    HW127260   3.110   1.190   2.022
 8787SOL    HW227261   2.958   1.160   1.970
 8788SOL     OW27262   6.569   6.933   5.625
 8788SOL    HW127263   6.534   6.966   5.713
 8788SOL    HW227264   6.668   6.930   5.628
 8789SOL     OW27265   5.992   5.869   4.628
 8789SOL    HW127266   5.893   5.881   4.623
 8789SOL    HW227267   6.017   5.786   4.578
 8790SOL     OW27268   6.834   0.404   6.516
 8790SOL    HW127269   6.858   0.339   6.588
 8790SOL    HW227270   6.856   0.365   6.427
 8791SOL     OW27271   5.339   6.875   4.963
 8791SOL    HW127272   5.316   6.949   4.900
 8791SOL    HW227273   5.424   6.832   4.934
 8792SOL     OW27274   2.879   5.470   3.259
 8792SOL    HW127275   2.819   5.400   3.221
 8792SOL    HW227276   2.893   5.542   3.191
 8793SOL     OW27277   0.837   4.250   2.556
 8793SOL    HW127278   0.852   4.211   2.646
 8793SOL    HW227279   0.907   4.217   2.493
 8794SOL     OW27280   5.056   0.317   2.788
 8794SOL    HW127281   5.018   0.361   2.869
 8794SOL    HW227282   5.153   0.338   2.781
 8795SOL     OW27283   1.002   4.061   6.006
 8795SOL    HW127284   0.970   4.035   5.914
 8795SOL    HW227285   1.083   4.120   5.997
 8796SOL     OW27286   4.618   2.251   4.085
 8796SOL    HW127287   4.558   2.225   4.009
 8796SOL    HW227288   4.574   2.324   4.138
 8797SOL     OW27289   0.234   0.490   0.302
 8797SOL    HW127290   0.299   0.561   0.327
 8797SOL    HW227291   0.182   0.520   0.222
 8798SOL     OW27292   4.834   6.281   6.161
 8798SOL    HW127293   4.795   6.203   6.211
 8798SOL    HW227294   4.843   6.359   6.223
 8799SOL     OW27295   2.851   4.755   3.319
 8799SOL    HW127296   2.835   4.747   3.221
 8799SOL    HW227297   2.764   4.748   3.368
 8800SOL     OW27298   6.135   4.426   6.397
 8800SOL    HW127299   6.065   4.496   6.412
 8800SOL    HW227300   6.094   4.335   6.404
 8801SOL     OW27301   6.939   1.013   4.271
 8801SOL    HW127302   6.885   0.953   4.330
 8801SOL    HW227303   6.982   1.084   4.325
 8802SOL     OW27304   2.198   0.027   6.342
 8802SOL    HW127305   2.104   7.015   6.352
 8802SOL    HW227306   2.203   0.123   6.369
 8803SOL     OW27307   0.389   6.217   0.227
 8803SOL    HW127308   0.335   6.210   0.143
 8803SOL    HW227309   0.435   6.306   0.229
 8804SOL     OW27310   2.405   6.463   1.831
 8804SOL    HW127311   2.475   6.424   1.772
 8804SOL    HW227312   2.439   6.547   1.873
 8805SOL     OW27313   3.655   6.162   3.768
 8805SOL    HW127314   3.643   6.213   3.682
 8805SOL    HW227315   3.707   6.218   3.832
 8806SOL     OW27316   3.308   4.795   1.883
 8806SOL    HW127317   3.312   4.846   1.798
 8806SOL    HW227318   3.396   4.751   1.901
 8807SOL     OW27319   5.178   0.453   0.380
 8807SOL    HW127320   5.214   0.363   0.354
 8807SOL    HW227321   5.191   0.467   0.478
 8808SOL     OW27322   6.162   3.068   6.657
 8808SOL    HW127323   6.097   3.129   6.704
 8808SOL    HW227324   6.218   3.021   6.725
 8809SOL     OW27325   3.701   5.118   3.394
 8809SOL    HW127326   3.617   5.106   3.343
 8809SOL    HW227327   3.779   5.097   3.336
 8810SOL     OW27328   6.135   0.351   4.990
 8810SOL    HW127329   6.116   0.384   5.083
 8810SOL    HW227330   6.051   0.312   4.951
 8811SOL     OW27331   3.654   1.378   2.739
 8811SOL    HW127332   3.603   1.370   2.824
 8811SOL    HW227333   3.685   1.473   2.728
 8812SOL     OW27334   2.305   0.580   0.256
 8812SOL    HW127335   2.335   0.621   0.342
 8812SOL    HW227336   2.224   0.524   0.272
 8813SOL     OW27337   2.695   5.572   2.738
 8813SOL    HW127338   2.681   5.664   2.703
 8813SOL    HW227339   2.640   5.558   2.819
 8814SOL     OW27340   6.676   0.090   0.825
 8814SOL    HW127341   6.742   0.040   0.880
 8814SOL    HW227342   6.674   0.186   0.854
 8815SOL     OW27343   5.637   6.873   1.170
 8815SOL    HW127344   5.708   6.900   1.104
 8815SOL    HW227345   5.567   6.819   1.124
 8816SOL     OW27346   1.422   6.215   0.819
 8816SOL    HW127347   1.401   6.309   0.847
 8816SOL    HW227348   1.384   6.199   0.728
 8817SOL     OW27349   0.059   4.647   3.990
 8817SOL    HW127350   0.122   4.716   3.956
 8817SOL    HW227351   0.108   4.585   4.052
 8818SOL     OW27352   0.818   4.717   4.190
 8818SOL    HW127353   0.744   4.661   4.227
 8818SOL    HW227354   0.783   4.774   4.116
 8819SOL     OW27355   5.284   5.046   5.578
 8819SOL    HW127356   5.352   5.118   5.566
 8819SOL    HW227357   5.283   4.987   5.498
 8820SOL     OW27358   2.453   0.986   5.192
 8820SOL    HW127359   2.511   0.930   5.133
 8820SOL    HW227360   2.400   1.049   5.136
 8821SOL     OW27361   1.968   6.292   1.049
 8821SOL    HW127362   1.965   6.391   1.063
 8821SOL    HW227363   1.875   6.256   1.051
 8822SOL     OW27364   0.835   0.699   4.536
 8822SOL    HW127365   0.912   0.687   4.598
 8822SOL    HW227366   0.777   0.617   4.538
 8823SOL     OW27367   1.883   1.128   2.747
 8823SOL    HW127368   1.901   1.227   2.746
 8823SOL    HW227369   1.969   1.078   2.740
 8824SOL     OW27370   1.364   1.841   0.220
 8824SOL    HW127371   1.438   1.903   0.192
 8824SOL    HW227372   1.391   1.792   0.302
 8825SOL     OW27373   1.975   0.804   1.847
 8825SOL    HW127374   1.972   0.783   1.945
 8825SOL    HW227375   1.936   0.894   1.831
 8826SOL     OW27376   1.071   3.894   0.524
 8826SOL    HW127377   1.013   3.975   0.533
 8826SOL    HW227378   1.150   3.917   0.467
 8827SOL     OW27379   4.423   0.923   3.025
 8827SOL    HW127380   4.493   0.868   3.070
 8827SOL    HW227381   4.412   0.892   2.931
 8828SOL     OW27382   4.087   5.646   6.330
 8828SOL    HW127383   4.150   5.663   6.405
 8828SOL    HW227384   4.132   5.591   6.259
 8829SOL     OW27385   4.991   2.460   1.621
 8829SOL    HW127386   5.053   2.383   1.640
 8829SOL    HW227387   4.930   2.473   1.699
 8830SOL     OW27388   1.660   2.052   2.636
 8830SOL    HW127389   1.655   2.131   2.575
 8830SOL    HW227390   1.593   1.984   2.608
 8831SOL     OW27391   4.893   2.363   3.442
 8831SOL    HW127392   4.942   2.432   3.496
 8831SOL    HW227393   4.839   2.409   3.372
 8832SOL     OW27394   7.016   6.563   2.974
 8832SOL    HW127395   0.091   6.564   2.949
 8832SOL    HW227396   6.992   6.649   3.018
 8833SOL     OW27397   2.430   5.436   6.443
 8833SOL    HW127398   2.395   5.346   6.417
 8833SOL    HW227399   2.529   5.439   6.430
 8834SOL     OW27400   5.818   4.004   4.962
 8834SOL    HW127401   5.845   3.911   4.988
 8834SOL    HW227402   5.744   4.035   5.021
 8835SOL     OW27403   4.879   0.806   5.624
 8835SOL    HW127404   4.957   0.785   5.566
 8835SOL    HW227405   4.822   0.724   5.635
 8836SOL     OW27406   4.790   2.142   0.387
 8836SOL    HW127407   4.764   2.188   0.472
 8836SOL    HW227408   4.709   2.102   0.344
 8837SOL     OW27409   0.434   6.778   2.414
 8837SOL    HW127410   0.503   6.847   2.393
 8837SOL    HW227411   0.367   6.816   2.478
 8838SOL     OW27412   2.015   4.764   3.425
 8838SOL    HW127413   1.987   4.751   3.520
 8838SOL    HW227414   1.961   4.704   3.366
 8839SOL     OW27415   4.833   5.676   1.697
 8839SOL    HW127416   4.760   5.721   1.748
 8839SOL    HW227417   4.807   5.670   1.600
 8840SOL     OW27418   0.296   1.290   2.955
 8840SOL    HW127419   0.379   1.259   3.002
 8840SOL    HW227420   0.287   1.241   2.868
 8841SOL     OW27421   0.484   0.800   4.512
 8841SOL    HW127422   0.444   0.733   4.449
 8841SOL    HW227423   0.543   0.863   4.460
 8842SOL     OW27424   3.217   3.148   3.061
 8842SOL    HW127425   3.136   3.202   3.036
 8842SOL    HW227426   3.261   3.190   3.140
 8843SOL     OW27427   1.626   3.594   5.506
 8843SOL    HW127428   1.633   3.637   5.416
 8843SOL    HW227429   1.707   3.617   5.561
 8844SOL     OW27430   0.696   1.524   5.467
 8844SOL    HW127431   0.760   1.453   5.497
 8844SOL    HW227432   0.607   1.483   5.448
 8845SOL     OW27433   3.264   3.683   1.087
 8845SOL    HW127434   3.335   3.712   1.022
 8845SOL    HW227435   3.244   3.757   1.150
 8846SOL     OW27436   3.919   5.044   4.289
 8846SOL    HW127437   3.845   4.990   4.250
 8846SOL    HW227438   3.921   5.135   4.247
 8847SOL     OW27439   2.453   1.621   2.818
 8847SOL    HW127440   2.378   1.556   2.830
 8847SOL    HW227441   2.518   1.584   2.752
 8848SOL     OW27442   2.417   1.930   2.225
 8848SOL    HW127443   2.381   1.864   2.291
 8848SOL    HW227444   2.514   1.948   2.245
 8849SOL     OW27445   3.234   5.633   3.590
 8849SOL    HW127446   3.229   5.619   3.689
 8849SOL    HW227447   3.160   5.694   3.560
 8850SOL     OW27448   1.821   1.194   6.722
 8850SOL    HW127449   1.866   1.229   6.640
 8850SOL    HW227450   1.750   1.258   6.751
 8851SOL     OW27451   0.676   5.234   2.111
 8851SOL    HW127452   0.625   5.149   2.098
 8851SOL    HW227453   0.741   5.222   2.187
 8852SOL     OW27454   5.014   3.757   5.605
 8852SOL    HW127455   5.037   3.789   5.697
 8852SOL    HW227456   4.975   3.832   5.552
 8853SOL     OW27457   2.742   0.981   6.694
 8853SOL    HW127458   2.731   0.984   6.595
 8853SOL    HW227459   2.698   1.060   6.736
 8854SOL     OW27460   3.504   1.621   5.861
 8854SOL    HW127461   3.443   1.547   5.832
 8854SOL    HW227462   3.452   1.706   5.865
 8855SOL     OW27463   0.669   5.755   0.757
 8855SOL    HW127464   0.691   5.705   0.841
 8855SOL    HW227465   0.672   5.693   0.679
 8856SOL     OW27466   0.114   0.231   6.519
 8856SOL    HW127467   0.098   0.321   6.479
 8856SOL    HW227468   0.061   0.163   6.468
 8857SOL     OW27469   6.879   1.278   4.141
 8857SOL    HW127470   6.800   1.252   4.085
 8857SOL    HW227471   6.849   1.311   4.230
 8858SOL     OW27472   1.316   2.608   5.473
 8858SOL    HW127473   1.307   2.555   5.389
 8858SOL    HW227474   1.398   2.579   5.522
 8859SOL     OW27475   6.694   0.506   3.958
 8859SOL    HW127476   6.654   0.486   3.869
 8859SOL    HW227477   6.695   0.423   4.014
 8860SOL     OW27478   0.819   3.203   2.649
 8860SOL    HW127479   0.872   3.243   2.724
 8860SOL    HW227480   0.722   3.228   2.659
 8861SOL     OW27481   4.338   1.510   5.968
 8861SOL    HW127482   4.283   1.535   5.888
 8861SOL    HW227483   4.308   1.563   6.047
 8862SOL     OW27484   5.875   0.933   3.523
 8862SOL    HW127485   5.863   0.852   3.465
 8862SOL    HW227486   5.884   0.904   3.618
 8863SOL     OW27487   1.363   5.226   4.296
 8863SOL    HW127488   1.377   5.286   4.217
 8863SOL    HW227489   1.451   5.208   4.341
 8864SOL     OW27490   3.231   3.931   5.761
 8864SOL    HW127491   3.213   4.029   5.771
 8864SOL    HW227492   3.299   3.917   5.689
 8865SOL     OW27493   3.018   1.082   6.236
 8865SOL    HW127494   3.067   1.169   6.228
 8865SOL    HW227495   2.950   1.076   6.163
 8866SOL     OW27496   5.228   0.259   3.089
 8866SOL    HW127497   5.273   0.339   3.129
 8866SOL    HW227498   5.274   0.232   3.005
 8867SOL     OW27499   5.640   3.489   2.173
 8867SOL    HW127500   5.597   3.503   2.084
 8867SOL    HW227501   5.633   3.573   2.227
 8868SOL     OW27502   6.921   2.364   0.777
 8868SOL    HW127503   6.907   2.341   0.681
 8868SOL    HW227504   7.005   2.320   0.810
 8869SOL     OW27505   4.488   6.031   4.577
 8869SOL    HW127506   4.480   6.025   4.677
 8869SOL    HW227507   4.454   6.120   4.547
 8870SOL     OW27508   3.759   0.410   6.629
 8870SOL    HW127509   3.814   0.491   6.650
 8870SOL    HW227510   3.687   0.434   6.563
 8871SOL     OW27511   1.720   0.864   3.829
 8871SOL    HW127512   1.684   0.941   3.778
 8871SOL    HW227513   1.818   0.879   3.847
 8872SOL     OW27514   1.551   4.331   4.722
 8872SOL    HW127515   1.517   4.412   4.675
 8872SOL    HW227516   1.499   4.318   4.806
 8873SOL     OW27517   1.188   6.007   1.901
 8873SOL    HW127518   1.242   5.934   1.860
 8873SOL    HW227519   1.098   6.011   1.857
 8874SOL     OW27520   2.301   5.396   2.345
 8874SOL    HW127521   2.371   5.461   2.314
 8874SOL    HW227522   2.211   5.426   2.312
 8875SOL     OW27523   6.795   3.150   5.214
 8875SOL    HW127524   6.865   3.081   5.235
 8875SOL    HW227525   6.839   3.236   5.189
 8876SOL     OW27526   1.716   0.142   4.682
 8876SOL    HW127527   1.668   0.073   4.736
 8876SOL    HW227528   1.704   0.232   4.725
 8877SOL     OW27529   2.995   1.069   4.017
 8877SOL    HW127530   2.923   1.025   3.963
 8877SOL    HW227531   2.962   1.085   4.110
 8878SOL     OW27532   6.568   5.132   0.164
 8878SOL    HW127533   6.588   5.037   0.140
 8878SOL    HW227534   6.550   5.139   0.262
 8879SOL     OW27535   4.973   4.326   1.590
 8879SOL    HW127536   4.874   4.313   1.577
 8879SOL    HW227537   5.018   4.237   1.591
 8880SOL     OW27538   5.000   5.905   4.696
 8880SOL    HW127539   5.099   5.899   4.709
 8880SOL    HW227540   4.977   5.997   4.662
 8881SOL     OW27541   5.876   6.809   3.666
 8881SOL    HW127542   5.898   6.751   3.587
 8881SOL    HW227543   5.961   6.840   3.709
 8882SOL     OW27544   5.582   1.448   1.240
 8882SOL    HW127545   5.653   1.494   1.292
 8882SOL    HW227546   5.580   1.485   1.146
 8883SOL     OW27547   1.636   6.083   6.149
 8883SOL    HW127548   1.637   6.179   6.122
 8883SOL    HW227549   1.545   6.058   6.180
 8884SOL     OW27550   6.324   4.000   6.210
 8884SOL    HW127551   6.226   3.991   6.227
 8884SOL    HW227552   6.350   4.097   6.213
 8885SOL     OW27553   7.000   3.621   0.927
 8885SOL    HW127554   7.015   3.523   0.921
 8885SOL    HW227555   6.901   3.639   0.921
 8886SOL     OW27556   3.094   6.717   4.856
 8886SOL    HW127557   3.130   6.641   4.910
 8886SOL    HW227558   3.086   6.798   4.914
 8887SOL     OW27559   3.349   1.450   1.205
 8887SOL    HW127560   3.334   1.485   1.112
 8887SOL    HW227561   3.354   1.526   1.269
 8888SOL     OW27562   1.745   1.767   6.431
 8888SOL    HW127563   1.741   1.848   6.372
 8888SOL    HW227564   1.654   1.749   6.468
 8889SOL     OW27565   6.824   0.279   6.266
 8889SOL    HW127566   6.882   0.295   6.186
 8889SOL    HW227567   6.771   0.196   6.252
 8890SOL     OW27568   6.606   5.781   3.899
 8890SOL    HW127569   6.650   5.833   3.826
 8890SOL    HW227570   6.576   5.843   3.971
 8891SOL     OW27571   5.124   3.806   6.602
 8891SOL    HW127572   5.210   3.800   6.551
 8891SOL    HW227573   5.070   3.724   6.586
 8892SOL     OW27574   3.813   5.511   3.565
 8892SOL    HW127575   3.879   5.437   3.553
 8892SOL    HW227576   3.723   5.480   3.532
 8893SOL     OW27577   0.641   5.788   3.343
 8893SOL    HW127578   0.569   5.797   3.275
 8893SOL    HW227579   0.665   5.692   3.354
 8894SOL     OW27580   4.369   2.810   6.465
 8894SOL    HW127581   4.296   2.811   6.532
 8894SOL    HW227582   4.333   2.835   6.375
 8895SOL     OW27583   6.397   2.599   2.502
 8895SOL    HW127584   6.357   2.683   2.538
 8895SOL    HW227585   6.335   2.558   2.435
 8896SOL     OW27586   2.325   3.525   5.610
 8896SOL    HW127587   2.407   3.571   5.577
 8896SOL    HW227588   2.251   3.536   5.543
 8897SOL     OW27589   1.843   2.713   3.143
 8897SOL    HW127590   1.912   2.715   3.215
 8897SOL    HW227591   1.752   2.717   3.185
 8898SOL     OW27592   5.051   3.276   3.038
 8898SOL    HW127593   4.982   3.336   3.080
 8898SOL    HW227594   5.005   3.209   2.980
 8899SOL     OW27595   1.878   5.775   0.812
 8899SOL    HW127596   1.807   5.800   0.878
 8899SOL    HW227597   1.922   5.857   0.777
 8900SOL     OW27598   6.003   3.331   2.629
 8900SOL    HW127599   5.966   3.251   2.583
 8900SOL    HW227600   5.929   3.376   2.680
 8901SOL     OW27601   2.035   0.880   4.618
 8901SOL    HW127602   1.989   0.802   4.575
 8901SOL    HW227603   2.065   0.944   4.547
 8902SOL     OW27604   2.119   0.348   0.287
 8902SOL    HW127605   2.111   0.358   0.187
 8902SOL    HW227606   2.030   0.367   0.329
 8903SOL     OW27607   1.176   1.479   5.191
 8903SOL    HW127608   1.178   1.386   5.228
 8903SOL    HW227609   1.127   1.539   5.254
 8904SOL     OW27610   5.895   6.490   4.061
 8904SOL    HW127611   5.804   6.529   4.076
 8904SOL    HW227612   5.945   6.487   4.148
 8905SOL     OW27613   1.225   4.450   4.254
 8905SOL    HW127614   1.208   4.418   4.347
 8905SOL    HW227615   1.323   4.462   4.240
 8906SOL     OW27616   0.538   6.018   0.121
 8906SOL    HW127617   0.484   6.085   0.172
 8906SOL    HW227618   0.477   5.961   0.066
 8907SOL     OW27619   2.584   2.332   5.060
 8907SOL    HW127620   2.645   2.360   5.135
 8907SOL    HW227621   2.493   2.368   5.077
 8908SOL     OW27622   1.220   3.786   6.421
 8908SOL    HW127623   1.164   3.868   6.419
 8908SOL    HW227624   1.277   3.783   6.338
 8909SOL     OW27625   2.879   0.754   5.993
 8909SOL    HW127626   2.885   0.680   5.926
 8909SOL    HW227627   2.797   0.808   5.976
 8910SOL     OW27628   0.282   2.521   6.092
 8910SOL    HW127629   0.196   2.571   6.081
 8910SOL    HW227630   0.305   2.474   6.007
 8911SOL     OW27631   3.749   1.964   4.376
 8911SOL    HW127632   3.729   1.953   4.279
 8911SOL    HW227633   3.663   1.960   4.428
 8912SOL     OW27634   3.305   3.298   0.395
 8912SOL    HW127635   3.254   3.271   0.476
 8912SOL    HW227636   3.245   3.346   0.331
 8913SOL     OW27637   5.128   5.141   5.782
 8913SOL    HW127638   5.179   5.102   5.705
 8913SOL    HW227639   5.068   5.214   5.750
 8914SOL     OW27640   4.534   0.297   4.890
 8914SOL    HW127641   4.582   0.344   4.964
 8914SOL    HW227642   4.444   0.339   4.877
 8915SOL     OW27643   0.675   2.932   3.902
 8915SOL    HW127644   0.596   2.872   3.886
 8915SOL    HW227645   0.733   2.892   3.973
 8916SOL     OW27646   0.154   3.796   0.798
 8916SOL    HW127647   0.224   3.833   0.859
 8916SOL    HW227648   0.111   3.716   0.841
 8917SOL     OW27649   6.874   3.546   0.277
 8917SOL    HW127650   6.908   3.586   0.363
 8917SOL    HW227651   6.951   3.517   0.221
 8918SOL     OW27652   6.402   4.059   1.128
 8918SOL    HW127653   6.392   4.128   1.056
 8918SOL    HW227654   6.311   4.033   1.161
 8919SOL     OW27655   3.855   4.645   0.434
 8919SOL    HW127656   3.866   4.679   0.527
 8919SOL    HW227657   3.945   4.635   0.391
 8920SOL     OW27658   0.428   0.459   6.809
 8920SOL    HW127659   0.484   0.457   6.726
 8920SOL    HW227660   0.348   0.400   6.797
 8921SOL     OW27661   1.928   2.328   2.752
 8921SOL    HW127662   1.894   2.394   2.686
 8921SOL    HW227663   1.919   2.364   2.845
 8922SOL     OW27664   3.824   5.267   1.438
 8922SOL    HW127665   3.761   5.264   1.360
 8922SOL    HW227666   3.865   5.177   1.452
 8923SOL     OW27667   1.707   3.284   6.389
 8923SOL    HW127668   1.616   3.309   6.423
 8923SOL    HW227669   1.703   3.193   6.348
 8924SOL     OW27670   4.001   5.266   5.600
 8924SOL    HW127671   4.003   5.362   5.572
 8924SOL    HW227672   4.077   5.248   5.662
 8925SOL     OW27673   0.777   1.518   2.881
 8925SOL    HW127674   0.804   1.559   2.968
 8925SOL    HW227675   0.705   1.574   2.840
 8926SOL     OW27676   6.694   3.491   5.828
 8926SOL    HW127677   6.742   3.409   5.797
 8926SOL    HW227678   6.604   3.466   5.864
 8927SOL     OW27679   0.423   1.249   4.675
 8927SOL    HW127680   0.338   1.196   4.681
 8927SOL    HW227681   0.491   1.212   4.737
 8928SOL     OW27682   0.228   0.170   6.238
 8928SOL    HW127683   0.212   0.168   6.337
 8928SOL    HW227684   0.312   0.121   6.216
 8929SOL     OW27685   6.347   2.852   4.312
 8929SOL    HW127686   6.381   2.760   4.328
 8929SOL    HW227687   6.247   2.852   4.311
 8930SOL     OW27688   1.398   3.632   3.902
 8930SOL    HW127689   1.412   3.729   3.880
 8930SOL    HW227690   1.403   3.618   4.001
 8931SOL     OW27691   2.621   3.062   0.672
 8931SOL    HW127692   2.602   2.997   0.745
 8931SOL    HW227693   2.558   3.140   0.679
 8932SOL     OW27694   6.003   0.774   1.092
 8932SOL    HW127695   6.048   0.685   1.084
 8932SOL    HW227696   5.905   0.764   1.080
 8933SOL     OW27697   1.698   2.944   5.862
 8933SOL    HW127698   1.779   2.930   5.806
 8933SOL    HW227699   1.698   3.038   5.898
 8934SOL     OW27700   3.689   5.024   4.575
 8934SOL    HW127701   3.610   5.080   4.601
 8934SOL    HW227702   3.732   4.987   4.658
 8935SOL     OW27703   6.425   4.447   0.896
 8935SOL    HW127704   6.415   4.419   0.991
 8935SOL    HW227705   6.477   4.378   0.846
 8936SOL     OW27706   0.967   3.364   2.333
 8936SOL    HW127707   1.030   3.372   2.257
 8936SOL    HW227708   1.016   3.376   2.419
 8937SOL     OW27709   0.072   6.714   4.367
 8937SOL    HW127710   0.156   6.747   4.410
 8937SOL    HW227711   7.014   6.748   4.418
 8938SOL     OW27712   0.448   0.679   0.236
 8938SOL    HW127713   0.393   0.761   0.218
 8938SOL    HW227714   0.508   0.661   0.158
 8939SOL     OW27715   5.633   4.926   4.614
 8939SOL    HW127716   5.718   4.966   4.649
 8939SOL    HW227717   5.619   4.837   4.657
 8940SOL     OW27718   5.818   1.532   2.038
 8940SOL    HW127719   5.910   1.529   1.999
 8940SOL    HW227720   5.824   1.548   2.137
 8941SOL     OW27721   6.163   2.539   4.612
 8941SOL    HW127722   6.186   2.495   4.698
 8941SOL    HW227723   6.082   2.495   4.572
 8942SOL     OW27724   6.247   5.439   5.774
 8942SOL    HW127725   6.223   5.466   5.681
 8942SOL    HW227726   6.346   5.442   5.785
 8943SOL     OW27727   3.622   5.876   0.711
 8943SOL    HW127728   3.652   5.877   0.806
 8943SOL    HW227729   3.621   5.970   0.675
 8944SOL     OW27730   5.423   5.938   4.449
 8944SOL    HW127731   5.373   5.878   4.512
 8944SOL    HW227732   5.358   5.981   4.387
 8945SOL     OW27733   0.633   1.581   4.032
 8945SOL    HW127734   0.616   1.482   4.035
 8945SOL    HW227735   0.722   1.600   4.073
 8946SOL     OW27736   2.991   1.002   3.362
 8946SOL    HW127737   2.959   0.930   3.423
 8946SOL    HW227738   3.074   1.043   3.400
 8947SOL     OW27739   2.444   3.473   5.892
 8947SOL    HW127740   2.450   3.572   5.904
 8947SOL    HW227741   2.403   3.452   5.803
 8948SOL     OW27742   5.920   5.876   3.641
 8948SOL    HW127743   5.879   5.852   3.729
 8948SOL    HW227744   5.973   5.960   3.651
 8949SOL     OW27745   4.002   6.508   0.945
 8949SOL    HW127746   3.993   6.607   0.941
 8949SOL    HW227747   4.099   6.484   0.954
 8950SOL     OW27748   3.701   4.025   0.447
 8950SOL    HW127749   3.711   4.032   0.546
 8950SOL    HW227750   3.772   4.079   0.402
 8951SOL     OW27751   2.135   1.082   4.477
 8951SOL    HW127752   2.164   1.138   4.555
 8951SOL    HW227753   2.117   1.142   4.399
 8952SOL     OW27754   0.930   5.172   3.396
 8952SOL    HW127755   0.852   5.150   3.455
 8952SOL    HW227756   0.943   5.271   3.395
 8953SOL     OW27757   1.342   4.358   0.549
 8953SOL    HW127758   1.347   4.449   0.508
 8953SOL    HW227759   1.409   4.298   0.505
 8954SOL     OW27760   6.784   6.837   4.448
 8954SOL    HW127761   6.834   6.882   4.374
 8954SOL    HW227762   6.691   6.814   4.416
 8955SOL     OW27763   6.734   4.706   3.166
 8955SOL    HW127764   6.685   4.689   3.252
 8955SOL    HW227765   6.831   4.719   3.186
 8956SOL     OW27766   1.905   1.677   5.972
 8956SOL    HW127767   1.955   1.639   6.050
 8956SOL    HW227768   1.962   1.744   5.925
 8957SOL     OW27769   1.703   4.937   1.652
 8957SOL    HW127770   1.769   5.006   1.621
 8957SOL    HW227771   1.610   4.969   1.630
 8958SOL     OW27772   0.387   2.426   4.959
 8958SOL    HW127773   0.370   2.335   4.921
 8958SOL    HW227774   0.411   2.418   5.056
 8959SOL     OW27775   1.643   4.373   2.200
 8959SOL    HW127776   1.588   4.319   2.263
 8959SOL    HW227777   1.665   4.461   2.242
 8960SOL     OW27778   4.579   5.612   3.442
 8960SOL    HW127779   4.573   5.692   3.502
 8960SOL    HW227780   4.675   5.594   3.421
 8961SOL     OW27781   3.299   1.358   3.397
 8961SOL    HW127782   3.378   1.414   3.371
 8961SOL    HW227783   3.246   1.405   3.466
 8962SOL     OW27784   6.058   5.641   2.426
 8962SOL    HW127785   6.111   5.681   2.501
 8962SOL    HW227786   5.984   5.703   2.401
 8963SOL     OW27787   3.594   0.466   5.109
 8963SOL    HW127788   3.502   0.491   5.141
 8963SOL    HW227789   3.605   0.496   5.015
 8964SOL     OW27790   5.910   3.013   3.384
 8964SOL    HW127791   5.973   3.047   3.315
 8964SOL    HW227792   5.860   2.935   3.347
 8965SOL     OW27793   2.258   5.458   0.204
 8965SOL    HW127794   2.316   5.536   0.225
 8965SOL    HW227795   2.232   5.412   0.289
 8966SOL     OW27796   6.917   3.839   6.902
 8966SOL    HW127797   6.922   3.781   6.821
 8966SOL    HW227798   6.849   3.911   6.887
 8967SOL     OW27799   3.821   0.551   1.788
 8967SOL    HW127800   3.733   0.554   1.741
 8967SOL    HW227801   3.889   0.509   1.729
 8968SOL     OW27802   4.661   5.703   2.464
 8968SOL    HW127803   4.598   5.685   2.540
 8968SOL    HW227804   4.627   5.780   2.410
 8969SOL     OW27805   6.679   0.179   3.542
 8969SOL    HW127806   6.607   0.157   3.475
 8969SOL    HW227807   6.726   0.096   3.570
 8970SOL     OW27808   2.496   3.406   6.841
 8970SOL    HW127809   2.492   3.478   6.772
 8970SOL    HW227810   2.591   3.383   6.860
 8971SOL     OW27811   5.942   4.918   1.611
 8971SOL    HW127812   5.905   4.951   1.698
 8971SOL    HW227813   5.888   4.953   1.536
 8972SOL     OW27814   4.304   3.816   0.445
 8972SOL    HW127815   4.403   3.828   0.441
 8972SOL    HW227816   4.273   3.763   0.367
 8973SOL     OW27817   7.011   3.676   3.465
 8973SOL    HW127818   0.039   3.763   3.459
 8973SOL    HW227819   6.949   3.668   3.388
 8974SOL     OW27820   1.456   3.178   3.943
 8974SOL    HW127821   1.444   3.109   3.872
 8974SOL    HW227822   1.442   3.136   4.033
 8975SOL     OW27823   0.990   6.222   0.391
 8975SOL    HW127824   0.971   6.271   0.306
 8975SOL    HW227825   1.089   6.211   0.401
 8976SOL     OW27826   0.497   5.109   0.634
 8976SOL    HW127827   0.466   5.194   0.676
 8976SOL    HW227828   0.587   5.123   0.593
 8977SOL     OW27829   6.746   3.140   6.783
 8977SOL    HW127830   6.758   3.192   6.868
 8977SOL    HW227831   6.649   3.123   6.768
 8978SOL     OW27832   5.139   6.984   4.392
 8978SOL    HW127833   5.181   0.031   4.332
 8978SOL    HW227834   5.058   0.002   4.435
 8979SOL     OW27835   0.862   4.553   5.411
 8979SOL    HW127836   0.854   4.539   5.312
 8979SOL    HW227837   0.954   4.528   5.441
 8980SOL     OW27838   4.572   2.646   5.205
 8980SOL    HW127839   4.655   2.702   5.205
 8980SOL    HW227840   4.495   2.700   5.238
 8981SOL     OW27841   4.419   1.706   4.798
 8981SOL    HW127842   4.349   1.772   4.825
 8981SOL    HW227843   4.386   1.652   4.720
 8982SOL     OW27844   1.679   1.318   1.751
 8982SOL    HW127845   1.724   1.237   1.789
 8982SOL    HW227846   1.698   1.324   1.654
 8983SOL     OW27847   0.879   5.437   0.510
 8983SOL    HW127848   0.961   5.440   0.453
 8983SOL    HW227849   0.831   5.524   0.505
 8984SOL     OW27850   5.975   6.508   3.779
 8984SOL    HW127851   5.947   6.450   3.702
 8984SOL    HW227852   5.906   6.504   3.851
 8985SOL     OW27853   2.191   1.285   0.930
 8985SOL    HW127854   2.166   1.239   1.015
 8985SOL    HW227855   2.220   1.378   0.949
 8986SOL     OW27856   4.162   5.099   2.054
 8986SOL    HW127857   4.247   5.144   2.027
 8986SOL    HW227858   4.156   5.096   2.153
 8987SOL     OW27859   4.126   0.209   0.780
 8987SOL    HW127860   4.031   0.179   0.775
 8987SOL    HW227861   4.137   0.274   0.855
 8988SOL     OW27862   1.856   4.430   0.543
 8988SOL    HW127863   1.850   4.405   0.446
 8988SOL    HW227864   1.780   4.491   0.566
 8989SOL     OW27865   4.784   4.246   1.843
 8989SOL    HW127866   4.695   4.202   1.827
 8989SOL    HW227867   4.775   4.314   1.916
 8990SOL     OW27868   2.399   5.873   2.373
 8990SOL    HW127869   2.496   5.884   2.395
 8990SOL    HW227870   2.364   5.958   2.334
 8991SOL     OW27871   1.567   1.734   6.658
 8991SOL    HW127872   1.497   1.697   6.718
 8991SOL    HW227873   1.656   1.693   6.681
 8992SOL     OW27874   6.419   2.339   6.511
 8992SOL    HW127875   6.485   2.405   6.548
 8992SOL    HW227876   6.406   2.265   6.576
 8993SOL     OW27877   5.031   2.908   2.925
 8993SOL    HW127878   4.951   2.968   2.918
 8993SOL    HW227879   5.018   2.828   2.867
 8994SOL     OW27880   0.667   5.032   4.856
 8994SOL    HW127881   0.594   5.082   4.808
 8994SOL    HW227882   0.689   4.949   4.806
 8995SOL     OW27883   1.045   2.611   6.840
 8995SOL    HW127884   1.063   2.606   6.742
 8995SOL    HW227885   1.130   2.636   6.888
 8996SOL     OW27886   6.690   5.276   1.778
 8996SOL    HW127887   6.748   5.352   1.807
 8996SOL    HW227888   6.636   5.244   1.855
 8997SOL     OW27889   4.022   1.645   6.459
 8997SOL    HW127890   4.072   1.562   6.435
 8997SOL    HW227891   4.048   1.718   6.395
 8998SOL     OW27892   0.175   3.304   5.285
 8998SOL    HW127893   0.128   3.269   5.365
 8998SOL    HW227894   0.165   3.241   5.209
 8999SOL     OW27895   5.413   6.956   0.338
 8999SOL    HW127896   5.322   6.931   0.370
 8999SOL    HW227897   5.409   6.980   0.241
 9000SOL     OW27898   2.413   4.459   6.830
 9000SOL    HW127899   2.316   4.472   6.809
 9000SOL    HW227900   2.450   4.387   6.771
 9001SOL     OW27901   0.744   5.406   2.664
 9001SOL    HW127902   0.647   5.414   2.685
 9001SOL    HW227903   0.796   5.462   2.728
 9002SOL     OW27904   6.782   4.907   4.982
 9002SOL    HW127905   6.828   4.839   4.924
 9002SOL    HW227906   6.702   4.864   5.025
 9003SOL     OW27907   5.172   2.590   1.004
 9003SOL    HW127908   5.243   2.645   0.962
 9003SOL    HW227909   5.082   2.626   0.978
 9004SOL     OW27910   4.989   6.722   1.829
 9004SOL    HW127911   5.031   6.799   1.876
 9004SOL    HW227912   4.944   6.662   1.895
 9005SOL     OW27913   5.018   1.966   5.067
 9005SOL    HW127914   5.053   1.962   5.160
 9005SOL    HW227915   4.923   1.934   5.066
 9006SOL     OW27916   2.301   6.182   0.548
 9006SOL    HW127917   2.220   6.172   0.491
 9006SOL    HW227918   2.362   6.251   0.508
 9007SOL     OW27919   3.639   6.842   3.981
 9007SOL    HW127920   3.607   6.750   3.958
 9007SOL    HW227921   3.682   6.841   4.071
 9008SOL     OW27922   6.779   5.045   3.033
 9008SOL    HW127923   6.839   5.004   3.101
 9008SOL    HW227924   6.789   5.145   3.035
 9009SOL     OW27925   2.762   0.177   0.189
 9009SOL    HW127926   2.710   0.153   0.107
 9009SOL    HW227927   2.730   0.266   0.223
 9010SOL     OW27928   0.935   6.916   4.682
 9010SOL    HW127929   0.985   6.917   4.769
 9010SOL    HW227930   0.990   6.868   4.613
 9011SOL     OW27931   4.087   2.169   1.507
 9011SOL    HW127932   4.042   2.081   1.525
 9011SOL    HW227933   4.074   2.230   1.585
 9012SOL     OW27934   3.368   4.418   1.134
 9012SOL    HW127935   3.385   4.332   1.180
 9012SOL    HW227936   3.436   4.432   1.062
 9013SOL     OW27937   0.149   6.262   3.985
 9013SOL    HW127938   0.070   6.257   4.046
 9013SOL    HW227939   0.212   6.187   4.005
 9014SOL     OW27940   0.828   0.633   6.956
 9014SOL    HW127941   0.886   0.715   6.952
 9014SOL    HW227942   0.812   0.609   0.030
 9015SOL     OW27943   6.163   1.746   1.086
 9015SOL    HW127944   6.159   1.666   1.027
 9015SOL    HW227945   6.070   1.768   1.118
 9016SOL     OW27946   0.628   6.265   6.474
 9016SOL    HW127947   0.583   6.327   6.410
 9016SOL    HW227948   0.574   6.181   6.482
 9017SOL     OW27949   4.461   2.474   2.095
 9017SOL    HW127950   4.510   2.550   2.050
 9017SOL    HW227951   4.461   2.489   2.194
 9018SOL     OW27952   4.617   1.582   5.692
 9018SOL    HW127953   4.624   1.489   5.655
 9018SOL    HW227954   4.708   1.625   5.692
 9019SOL     OW27955   0.558   0.499   1.229
 9019SOL    HW127956   0.552   0.410   1.183
 9019SOL    HW227957   0.481   0.556   1.202
 9020SOL     OW27958   1.225   3.514   1.312
 9020SOL    HW127959   1.176   3.574   1.250
 9020SOL    HW227960   1.211   3.419   1.284
 9021SOL     OW27961   6.827   7.017   3.933
 9021SOL    HW127962   6.883   0.065   3.887
 9021SOL    HW227963   6.831   6.931   3.882
 9022SOL     OW27964   2.709   1.248   0.815
 9022SOL    HW127965   2.695   1.150   0.832
 9022SOL    HW227966   2.655   1.301   0.880
 9023SOL     OW27967   3.131   3.127   2.182
 9023SOL    HW127968   3.188   3.152   2.104
 9023SOL    HW227969   3.189   3.113   2.262
 9024SOL     OW27970   0.516   5.125   5.243
 9024SOL    HW127971   0.473   5.210   5.273
 9024SOL    HW227972   0.521   5.125   5.143
 9025SOL     OW27973   0.391   5.667   0.368
 9025SOL    HW127974   0.323   5.663   0.295
 9025SOL    HW227975   0.451   5.745   0.353
 9026SOL     OW27976   3.877   3.349   2.019
 9026SOL    HW127977   3.855   3.423   2.084
 9026SOL    HW227978   3.976   3.343   2.008
 9027SOL     OW27979   1.056   1.890   3.911
 9027SOL    HW127980   1.130   1.897   3.978
 9027SOL    HW227981   1.040   1.980   3.870
 9028SOL     OW27982   2.556   3.870   6.591
 9028SOL    HW127983   2.576   3.966   6.609
 9028SOL    HW227984   2.607   3.839   6.511
 9029SOL     OW27985   3.448   5.302   5.245
 9029SOL    HW127986   3.404   5.258   5.167
 9029SOL    HW227987   3.524   5.246   5.277
 9030SOL     OW27988   1.797   1.242   3.395
 9030SOL    HW127989   1.820   1.160   3.447
 9030SOL    HW227990   1.876   1.270   3.340
 9031SOL     OW27991   4.822   6.263   4.410
 9031SOL    HW127992   4.793   6.344   4.360
 9031SOL    HW227993   4.857   6.195   4.346
 9032SOL     OW27994   3.048   2.798   1.069
 9032SOL    HW127995   3.048   2.781   1.167
 9032SOL    HW227996   2.971   2.749   1.027
 9033SOL     OW27997   1.635   4.947   4.110
 9033SOL    HW127998   1.705   4.912   4.048
 9033SOL    HW227999   1.552   4.968   4.057
 9034SOL     OW28000   2.574   0.414   5.010
 9034SOL    HW128001   2.673   0.413   4.997
 9034SOL    HW228002   2.551   0.365   5.095
 9035SOL     OW28003   1.268   4.878   5.935
 9035SOL    HW128004   1.170   4.888   5.924
 9035SOL    HW228005   1.288   4.852   6.030
 9036SOL     OW28006   1.522   1.064   5.611
 9036SOL    HW128007   1.539   1.162   5.603
 9036SOL    HW228008   1.471   1.046   5.695
 9037SOL     OW28009   1.477   3.671   5.845
 9037SOL    HW128010   1.574   3.673   5.871
 9037SOL    HW228011   1.428   3.610   5.907
 9038SOL     OW28012   4.807   6.885   5.969
 9038SOL    HW128013   4.851   6.972   5.992
 9038SOL    HW228014   4.792   6.880   5.871
 9039SOL     OW28015   2.447   4.583   4.147
 9039SOL    HW128016   2.373   4.586   4.081
 9039SOL    HW228017   2.416   4.537   4.230
 9040SOL     OW28018   2.444   2.240   2.429
 9040SOL    HW128019   2.398   2.252   2.341
 9040SOL    HW228020   2.448   2.328   2.476
 9041SOL     OW28021   0.541   2.309   1.962
 9041SOL    HW128022   0.568   2.397   1.924
 9041SOL    HW228023   0.569   2.303   2.058
 9042SOL     OW28024   2.613   6.963   3.429
 9042SOL    HW128025   2.667   6.984   3.348
 9042SOL    HW228026   2.550   0.016   3.448
 9043SOL     OW28027   2.918   1.567   6.468
 9043SOL    HW128028   2.852   1.615   6.526
 9043SOL    HW228029   2.872   1.492   6.421
 9044SOL     OW28030   5.756   1.946   1.732
 9044SOL    HW128031   5.687   2.018   1.744
 9044SOL    HW228032   5.731   1.866   1.785
 9045SOL     OW28033   2.968   1.757   2.460
 9045SOL    HW128034   3.004   1.730   2.371
 9045SOL    HW228035   2.906   1.835   2.449
 9046SOL     OW28036   3.642   3.787   4.562
 9046SOL    HW128037   3.643   3.689   4.581
 9046SOL    HW228038   3.732   3.826   4.585
 9047SOL     OW28039   1.164   3.068   5.495
 9047SOL    HW128040   1.212   3.002   5.437
 9047SOL    HW228041   1.110   3.129   5.437
 9048SOL     OW28042   6.233   2.507   6.154
 9048SOL    HW128043   6.161   2.463   6.100
 9048SOL    HW228044   6.217   2.606   6.157
 9049SOL     OW28045   3.865   0.194   6.257
 9049SOL    HW128046   3.818   0.280   6.236
 9049SOL    HW228047   3.863   0.178   6.355
 9050SOL     OW28048   0.340   4.302   5.830
 9050SOL    HW128049   0.387   4.214   5.830
 9050SOL    HW228050   0.387   4.364   5.892
 9051SOL     OW28051   4.076   6.026   0.913
 9051SOL    HW128052   4.009   5.962   0.951
 9051SOL    HW228053   4.072   6.022   0.813
 9052SOL     OW28054   1.643   2.278   2.964
 9052SOL    HW128055   1.621   2.348   3.033
 9052SOL    HW228056   1.586   2.293   2.883
 9053SOL     OW28057   1.416   1.666   2.899
 9053SOL    HW128058   1.347   1.699   2.834
 9053SOL    HW228059   1.384   1.684   2.992
 9054SOL     OW28060   1.560   6.992   2.303
 9054SOL    HW128061   1.501   0.052   2.296
 9054SOL    HW228062   1.539   6.930   2.228
 9055SOL     OW28063   6.297   3.154   3.818
 9055SOL    HW128064   6.327   3.248   3.837
 9055SOL    HW228065   6.314   3.097   3.898
 9056SOL     OW28066   6.583   0.464   1.314
 9056SOL    HW128067   6.567   0.553   1.271
 9056SOL    HW228068   6.514   0.447   1.383
 9057SOL     OW28069   5.858   5.080   5.795
 9057SOL    HW128070   5.950   5.094   5.758
 9057SOL    HW228071   5.809   5.015   5.737
 9058SOL     OW28072   1.953   1.544   3.663
 9058SOL    HW128073   1.859   1.572   3.647
 9058SOL    HW228074   1.964   1.516   3.758
 9059SOL     OW28075   1.538   1.394   4.968
 9059SOL    HW128076   1.532   1.485   4.928
 9059SOL    HW228077   1.450   1.347   4.959
 9060SOL     OW28078   7.010   3.070   2.452
 9060SOL    HW128079   6.972   3.063   2.544
 9060SOL    HW228080   0.081   3.031   2.451
 9061SOL     OW28081   3.211   6.055   2.224
 9061SOL    HW128082   3.135   6.108   2.261
 9061SOL    HW228083   3.298   6.095   2.254
 9062SOL     OW28084   1.897   5.752   2.134
 9062SOL    HW128085   1.952   5.698   2.197
 9062SOL    HW228086   1.804   5.715   2.131
 9063SOL     OW28087   2.450   6.756   2.623
 9063SOL    HW128088   2.365   6.708   2.641
 9063SOL    HW228089   2.442   6.851   2.655
 9064SOL     OW28090   6.294   3.730   5.568
 9064SOL    HW128091   6.219   3.718   5.633
 9064SOL    HW228092   6.292   3.657   5.500
 9065SOL     OW28093   2.990   6.347   6.205
 9065SOL    HW128094   3.006   6.249   6.203
 9065SOL    HW228095   3.058   6.392   6.262
 9066SOL     OW28096   5.570   0.106   0.171
 9066SOL    HW128097   5.538   0.074   0.082
 9066SOL    HW228098   5.597   0.028   0.227
 9067SOL     OW28099   6.376   0.382   4.043
 9067SOL    HW128100   6.399   0.442   3.966
 9067SOL    HW228101   6.332   0.299   4.008
 9068SOL     OW28102   2.769   0.170   5.637
 9068SOL    HW128103   2.853   0.123   5.665
 9068SOL    HW228104   2.703   0.168   5.712
 9069SOL     OW28105   2.710   2.265   1.847
 9069SOL    HW128106   2.623   2.308   1.870
 9069SOL    HW228107   2.779   2.290   1.916
 9070SOL     OW28108   0.896   3.181   5.811
 9070SOL    HW128109   0.970   3.128   5.768
 9070SOL    HW228110   0.930   3.271   5.837
 9071SOL     OW28111   5.717   0.294   0.769
 9071SOL    HW128112   5.657   0.266   0.694
 9071SOL    HW228113   5.761   0.381   0.746
 9072SOL     OW28114   6.374   1.341   2.166
 9072SOL    HW128115   6.297   1.341   2.101
 9072SOL    HW228116   6.379   1.430   2.211
 9073SOL     OW28117   3.356   6.499   0.374
 9073SOL    HW128118   3.384   6.595   0.383
 9073SOL    HW228119   3.273   6.494   0.319
 9074SOL     OW28120   2.439   0.997   1.925
 9074SOL    HW128121   2.396   0.908   1.942
 9074SOL    HW228122   2.458   1.042   2.013
 9075SOL     OW28123   1.354   1.310   2.381
 9075SOL    HW128124   1.261   1.277   2.394
 9075SOL    HW228125   1.366   1.341   2.287
 9076SOL     OW28126   5.927   1.754   5.123
 9076SOL    HW128127   5.924   1.818   5.200
 9076SOL    HW228128   5.954   1.664   5.156
 9077SOL     OW28129   5.316   6.783   6.816
 9077SOL    HW128130   5.252   6.706   6.811
 9077SOL    HW228131   5.408   6.750   6.833
 9078SOL     OW28132   4.160   3.574   6.531
 9078SOL    HW128133   4.133   3.669   6.542
 9078SOL    HW228134   4.121   3.520   6.606
 9079SOL     OW28135   2.488   6.638   4.087
 9079SOL    HW128136   2.427   6.703   4.042
 9079SOL    HW228137   2.486   6.551   4.037
 9080SOL     OW28138   5.553   2.064   0.358
 9080SOL    HW128139   5.458   2.034   0.364
 9080SOL    HW228140   5.556   2.162   0.336
 9081SOL     OW28141   4.020   6.470   2.643
 9081SOL    HW128142   4.091   6.540   2.647
 9081SOL    HW228143   4.033   6.415   2.561
 9082SOL     OW28144   2.678   6.527   5.155
 9082SOL    HW128145   2.607   6.590   5.123
 9082SOL    HW228146   2.768   6.561   5.128
 9083SOL     OW28147   3.877   4.546   5.939
 9083SOL    HW128148   3.943   4.482   5.898
 9083SOL    HW228149   3.893   4.637   5.902
 9084SOL     OW28150   3.030   3.782   5.706
 9084SOL    HW128151   3.110   3.837   5.731
 9084SOL    HW228152   3.039   3.749   5.613
 9085SOL     OW28153   1.945   4.723   1.233
 9085SOL    HW128154   1.877   4.732   1.160
 9085SOL    HW228155   1.979   4.813   1.259
 9086SOL     OW28156   0.723   4.302   0.493
 9086SOL    HW128157   0.654   4.314   0.421
 9086SOL    HW228158   0.759   4.208   0.488
 9087SOL     OW28159   4.513   2.460   2.363
 9087SOL    HW128160   4.436   2.397   2.357
 9087SOL    HW228161   4.546   2.463   2.458
 9088SOL     OW28162   5.166   6.072   0.720
 9088SOL    HW128163   5.225   6.150   0.743
 9088SOL    HW228164   5.166   6.058   0.621
 9089SOL     OW28165   4.883   6.574   4.954
 9089SOL    HW128166   4.804   6.605   5.008
 9089SOL    HW228167   4.922   6.652   4.905
 9090SOL     OW28168   0.107   6.687   3.390
 9090SOL    HW128169   0.195   6.724   3.358
 9090SOL    HW228170   0.087   6.724   3.481
 9091SOL     OW28171   3.291   4.086   1.078
 9091SOL    HW128172   3.307   4.182   1.099
 9091SOL    HW228173   3.210   4.078   1.019
 9092SOL     OW28174   0.145   1.759   1.007
 9092SOL    HW128175   0.162   1.662   0.995
 9092SOL    HW228176   0.075   1.789   0.941
 9093SOL     OW28177   1.148   6.648   6.043
 9093SOL    HW128178   1.201   6.673   5.962
 9093SOL    HW228179   1.185   6.563   6.082
 9094SOL     OW28180   6.271   5.399   2.868
 9094SOL    HW128181   6.199   5.330   2.869
 9094SOL    HW228182   6.339   5.375   2.799
 9095SOL     OW28183   4.547   4.056   6.093
 9095SOL    HW128184   4.478   4.067   6.021
 9095SOL    HW228185   4.524   4.114   6.171
 9096SOL     OW28186   5.860   3.873   1.622
 9096SOL    HW128187   5.809   3.788   1.630
 9096SOL    HW228188   5.876   3.911   1.713
 9097SOL     OW28189   0.735   1.780   6.800
 9097SOL    HW128190   0.693   1.718   6.867
 9097SOL    HW228191   0.681   1.864   6.794
 9098SOL     OW28192   3.777   2.025   5.991
 9098SOL    HW128193   3.838   2.085   6.043
 9098SOL    HW228194   3.722   2.079   5.929
 9099SOL     OW28195   2.873   2.499   5.700
 9099SOL    HW128196   2.936   2.435   5.656
 9099SOL    HW228197   2.836   2.562   5.632
 9100SOL     OW28198   0.519   3.774   3.936
 9100SOL    HW128199   0.599   3.833   3.941
 9100SOL    HW228200   0.548   3.681   3.915
 9101SOL     OW28201   2.161   2.426   2.985
 9101SOL    HW128202   2.194   2.370   2.909
 9101SOL    HW228203   2.084   2.482   2.954
 9102SOL     OW28204   3.056   7.021   1.639
 9102SOL    HW128205   3.012   0.004   1.728
 9102SOL    HW228206   3.154   7.003   1.650
 9103SOL     OW28207   6.475   3.209   6.696
 9103SOL    HW128208   6.447   3.296   6.735
 9103SOL    HW228209   6.448   3.205   6.599
 9104SOL     OW28210   0.344   6.592   1.965
 9104SOL    HW128211   0.406   6.666   1.939
 9104SOL    HW228212   0.385   6.504   1.940
 9105SOL     OW28213   1.480   1.610   6.914
 9105SOL    HW128214   1.414   1.618   6.988
 9105SOL    HW228215   1.566   1.654   6.940
 9106SOL     OW28216   0.126   2.903   0.479
 9106SOL    HW128217   0.135   2.804   0.464
 9106SOL    HW228218   0.059   2.920   0.551
 9107SOL     OW28219   3.595   0.932   5.717
 9107SOL    HW128220   3.665   0.998   5.689
 9107SOL    HW228221   3.506   0.960   5.680
 9108SOL     OW28222   4.827   4.214   5.615
 9108SOL    HW128223   4.825   4.146   5.541
 9108SOL    HW228224   4.911   4.267   5.608
 9109SOL     OW28225   6.860   2.345   3.350
 9109SOL    HW128226   6.909   2.402   3.417
 9109SOL    HW228227   6.766   2.332   3.380
 9110SOL     OW28228   1.768   4.760   3.972
 9110SOL    HW128229   1.831   4.708   4.030
 9110SOL    HW228230   1.701   4.697   3.932
 9111SOL     OW28231   4.637   1.893   0.713
 9111SOL    HW128232   4.672   1.804   0.686
 9111SOL    HW228233   4.638   1.901   0.813
 9112SOL     OW28234   0.608   5.289   3.193
 9112SOL    HW128235   0.575   5.275   3.287
 9112SOL    HW228236   0.532   5.318   3.135
 9113SOL     OW28237   4.675   1.401   2.466
 9113SOL    HW128238   4.640   1.485   2.505
 9113SOL    HW228239   4.604   1.357   2.411
 9114SOL     OW28240   0.903   4.490   2.222
 9114SOL    HW128241   0.968   4.414   2.210
 9114SOL    HW228242   0.882   4.501   2.319
 9115SOL     OW28243   0.209   6.202   4.399
 9115SOL    HW128244   0.240   6.253   4.319
 9115SOL    HW228245   0.166   6.117   4.369
 9116SOL     OW28246   7.020   1.054   1.732
 9116SOL    HW128247   0.036   1.130   1.785
 9116SOL    HW228248   0.050   0.971   1.752
 9117SOL     OW28249   5.290   2.355   0.403
 9117SOL    HW128250   5.372   2.339   0.349
 9117SOL    HW228251   5.276   2.453   0.414
 9118SOL     OW28252   6.709   3.667   0.019
 9118SOL    HW128253   6.732   3.614   0.101
 9118SOL    HW228254   6.787   3.724   7.014
 9119SOL     OW28255   4.463   0.538   2.588
 9119SOL    HW128256   4.442   0.636   2.582
 9119SOL    HW228257   4.561   0.525   2.569
 9120SOL     OW28258   6.154   2.050   6.140
 9120SOL    HW128259   6.073   2.040   6.082
 9120SOL    HW228260   6.136   2.116   6.212
 9121SOL     OW28261   4.213   0.937   5.163
 9121SOL    HW128262   4.168   0.987   5.237
 9121SOL    HW228263   4.178   0.844   5.159
 9122SOL     OW28264   2.385   4.444   2.318
 9122SOL    HW128265   2.468   4.465   2.267
 9122SOL    HW228266   2.405   4.441   2.415
 9123SOL     OW28267   2.361   0.412   3.306
 9123SOL    HW128268   2.343   0.481   3.377
 9123SOL    HW228269   2.444   0.437   3.256
 9124SOL     OW28270   5.588   6.406   0.291
 9124SOL    HW128271   5.611   6.335   0.224
 9124SOL    HW228272   5.671   6.435   0.339
 9125SOL     OW28273   5.051   4.590   0.103
 9125SOL    HW128274   5.111   4.533   0.159
 9125SOL    HW228275   4.965   4.542   0.088
 9126SOL     OW28276   6.115   3.777   1.324
 9126SOL    HW128277   6.038   3.716   1.339
 9126SOL    HW228278   6.152   3.807   1.412
 9127SOL     OW28279   6.795   1.462   6.159
 9127SOL    HW128280   6.826   1.446   6.066
 9127SOL    HW228281   6.730   1.391   6.185
 9128SOL     OW28282   6.023   2.378   5.645
 9128SOL    HW128283   5.964   2.423   5.712
 9128SOL    HW228284   6.074   2.447   5.594
 9129SOL     OW28285   0.406   2.622   0.330
 9129SOL    HW128286   0.476   2.648   0.265
 9129SOL    HW228287   0.445   2.618   0.422
 9130SOL     OW28288   0.616   3.086   6.146
 9130SOL    HW128289   0.684   3.055   6.212
 9130SOL    HW228290   0.569   3.166   6.182
 9131SOL     OW28291   5.832   3.002   5.637
 9131SOL    HW128292   5.865   2.912   5.607
 9131SOL    HW228293   5.775   2.991   5.718
 9132SOL     OW28294   0.374   5.751   4.075
 9132SOL    HW128295   0.351   5.702   3.991
 9132SOL    HW228296   0.437   5.826   4.054
 9133SOL     OW28297   3.954   6.536   1.684
 9133SOL    HW128298   3.889   6.577   1.621
 9133SOL    HW228299   4.045   6.572   1.666
 9134SOL     OW28300   3.607   5.783   1.334
 9134SOL    HW128301   3.551   5.853   1.289
 9134SOL    HW228302   3.614   5.703   1.275
 9135SOL     OW28303   6.357   6.916   1.382
 9135SOL    HW128304   6.365   6.843   1.449
 9135SOL    HW228305   6.260   6.941   1.371
 9136SOL     OW28306   5.114   6.072   0.099
 9136SOL    HW128307   5.044   6.133   0.136
 9136SOL    HW228308   5.202   6.091   0.143
 9137SOL     OW28309   4.946   1.351   0.853
 9137SOL    HW128310   4.925   1.399   0.768
 9137SOL    HW228311   5.020   1.397   0.901
 9138SOL     OW28312   6.930   5.871   6.808
 9138SOL    HW128313   6.936   5.778   6.773
 9138SOL    HW228314   6.848   5.915   6.771
 9139SOL     OW28315   1.918   2.121   3.348
 9139SOL    HW128316   2.002   2.161   3.312
 9139SOL    HW228317   1.849   2.192   3.359
 9140SOL     OW28318   0.033   3.252   2.697
 9140SOL    HW128319   0.025   3.308   2.614
 9140SOL    HW228320   6.963   3.234   2.734
 9141SOL     OW28321   5.610   6.958   1.443
 9141SOL    HW128322   5.556   6.888   1.490
 9141SOL    HW228323   5.618   6.935   1.346
 9142SOL     OW28324   0.746   2.949   1.035
 9142SOL    HW128325   0.761   2.976   0.940
 9142SOL    HW228326   0.830   2.911   1.073
 9143SOL     OW28327   6.272   2.923   0.587
 9143SOL    HW128328   6.342   2.883   0.527
 9143SOL    HW228329   6.275   3.023   0.580
 9144SOL     OW28330   2.586   5.043   4.850
 9144SOL    HW128331   2.674   5.066   4.809
 9144SOL    HW228332   2.551   4.959   4.808
 9145SOL     OW28333   0.400   5.381   0.026
 9145SOL    HW128334   0.489   5.425   0.024
 9145SOL    HW228335   0.407   5.294   0.076
 9146SOL     OW28336   5.552   2.958   3.552
 9146SOL    HW128337   5.470   2.972   3.497
 9146SOL    HW228338   5.611   3.039   3.545
 9147SOL     OW28339   5.779   6.582   5.139
 9147SOL    HW128340   5.842   6.616   5.209
 9147SOL    HW228341   5.771   6.650   5.066
 9148SOL     OW28342   4.980   6.328   2.107
 9148SOL    HW128343   4.995   6.420   2.069
 9148SOL    HW228344   4.968   6.335   2.206
 9149SOL     OW28345   5.367   4.038   2.471
 9149SOL    HW128346   5.440   3.977   2.438
 9149SOL    HW228347   5.278   3.997   2.450
 9150SOL     OW28348   2.949   5.200   1.297
 9150SOL    HW128349   2.912   5.254   1.221
 9150SOL    HW228350   2.941   5.252   1.382
 9151SOL     OW28351   1.097   4.444   3.827
 9151SOL    HW128352   1.163   4.453   3.752
 9151SOL    HW228353   1.139   4.475   3.912
 9152SOL     OW28354   2.139   4.014   4.575
 9152SOL    HW128355   2.183   3.929   4.547
 9152SOL    HW228356   2.109   4.007   4.671
 9153SOL     OW28357   0.513   3.223   0.464
 9153SOL    HW128358   0.538   3.289   0.393
 9153SOL    HW228359   0.414   3.208   0.463
 9154SOL     OW28360   5.630   4.717   5.651
 9154SOL    HW128361   5.675   4.628   5.647
 9154SOL    HW228362   5.674   4.773   5.722
 9155SOL     OW28363   1.663   4.218   2.742
 9155SOL    HW128364   1.582   4.173   2.781
 9155SOL    HW228365   1.729   4.149   2.713
 9156SOL     OW28366   0.399   1.883   0.957
 9156SOL    HW128367   0.307   1.846   0.967
 9156SOL    HW228368   0.408   1.965   1.014
 9157SOL     OW28369   2.660   4.407   6.643
 9157SOL    HW128370   2.741   4.395   6.700
 9157SOL    HW228371   2.654   4.502   6.613
 9158SOL     OW28372   6.542   3.732   4.453
 9158SOL    HW128373   6.614   3.742   4.522
 9158SOL    HW228374   6.536   3.636   4.425
 9159SOL     OW28375   1.584   0.782   2.555
 9159SOL    HW128376   1.484   0.781   2.555
 9159SOL    HW228377   1.616   0.846   2.624
 9160SOL     OW28378   0.165   6.635   6.203
 9160SOL    HW128379   0.202   6.684   6.282
 9160SOL    HW228380   0.177   6.690   6.121
 9161SOL     OW28381   5.037   5.118   3.522
 9161SOL    HW128382   5.123   5.082   3.486
 9161SOL    HW228383   5.041   5.121   3.622
 9162SOL     OW28384   4.263   0.507   3.569
 9162SOL    HW128385   4.339   0.519   3.632
 9162SOL    HW228386   4.269   0.575   3.496
 9163SOL     OW28387   6.847   2.136   4.447
 9163SOL    HW128388   6.932   2.134   4.500
 9163SOL    HW228389   6.831   2.228   4.414
 9164SOL     OW28390   1.544   0.664   6.783
 9164SOL    HW128391   1.612   0.590   6.783
 9164SOL    HW228392   1.577   0.739   6.840
 9165SOL     OW28393   5.742   1.560   6.077
 9165SOL    HW128394   5.764   1.487   6.012
 9165SOL    HW228395   5.797   1.641   6.056
 9166SOL     OW28396   4.275   6.231   1.351
 9166SOL    HW128397   4.192   6.287   1.357
 9166SOL    HW228398   4.307   6.209   1.443
 9167SOL     OW28399   2.145   2.174   5.690
 9167SOL    HW128400   2.119   2.270   5.702
 9167SOL    HW228401   2.187   2.140   5.774
 9168SOL     OW28402   6.490   6.117   6.456
 9168SOL    HW128403   6.432   6.048   6.499
 9168SOL    HW228404   6.528   6.081   6.370
 9169SOL     OW28405   0.085   6.667   6.739
 9169SOL    HW128406   0.149   6.597   6.709
 9169SOL    HW228407   0.122   6.713   6.820
 9170SOL     OW28408   1.920   6.931   6.433
 9170SOL    HW128409   1.844   6.895   6.380
 9170SOL    HW228410   1.886   6.999   6.498
 9171SOL     OW28411   3.305   6.071   0.412
 9171SOL    HW128412   3.301   6.042   0.508
 9171SOL    HW228413   3.362   6.152   0.404
 9172SOL     OW28414   4.836   1.127   3.915
 9172SOL    HW128415   4.800   1.048   3.964
 9172SOL    HW228416   4.815   1.120   3.818
 9173SOL     OW28417   5.820   4.484   5.661
 9173SOL    HW128418   5.878   4.435   5.596
 9173SOL    HW228419   5.873   4.505   5.744
 9174SOL     OW28420   0.154   5.306   0.453
 9174SOL    HW128421   0.223   5.239   0.423
 9174SOL    HW228422   0.072   5.298   0.397
 9175SOL     OW28423   1.487   6.517   6.698
 9175SOL    HW128424   1.405   6.520   6.639
 9175SOL    HW228425   1.520   6.423   6.705
 9176SOL     OW28426   2.897   0.581   1.832
 9176SOL    HW128427   2.849   0.648   1.776
 9176SOL    HW228428   2.843   0.497   1.838
 9177SOL     OW28429   0.727   3.701   4.331
 9177SOL    HW128430   0.630   3.694   4.356
 9177SOL    HW228431   0.762   3.611   4.306
 9178SOL     OW28432   2.217   5.251   6.872
 9178SOL    HW128433   2.139   5.224   6.927
 9178SOL    HW228434   2.218   5.350   6.862
 9179SOL     OW28435   1.749   5.361   4.026
 9179SOL    HW128436   1.798   5.445   4.051
 9179SOL    HW228437   1.780   5.286   4.084
 9180SOL     OW28438   6.239   2.413   3.430
 9180SOL    HW128439   6.303   2.409   3.353
 9180SOL    HW228440   6.205   2.507   3.440
 9181SOL     OW28441   6.034   2.492   5.014
 9181SOL    HW128442   6.094   2.558   5.059
 9181SOL    HW228443   6.086   2.443   4.943
 9182SOL     OW28444   2.769   6.579   2.944
 9182SOL    HW128445   2.717   6.554   3.025
 9182SOL    HW228446   2.867   6.564   2.960
 9183SOL     OW28447   4.794   4.765   6.445
 9183SOL    HW128448   4.799   4.859   6.409
 9183SOL    HW228449   4.882   4.720   6.433
 9184SOL     OW28450   3.816   2.748   1.128
 9184SOL    HW128451   3.837   2.718   1.035
 9184SOL    HW228452   3.739   2.813   1.125
 9185SOL     OW28453   6.660   6.394   4.746
 9185SOL    HW128454   6.643   6.410   4.649
 9185SOL    HW228455   6.703   6.474   4.786
 9186SOL     OW28456   5.595   0.008   4.761
 9186SOL    HW128457   5.635   0.004   4.853
 9186SOL    HW228458   5.504   0.048   4.767
 9187SOL     OW28459   3.442   1.792   0.206
 9187SOL    HW128460   3.501   1.715   0.184
 9187SOL    HW228461   3.403   1.778   0.297
 9188SOL     OW28462   2.142   0.356   1.189
 9188SOL    HW128463   2.178   0.449   1.190
 9188SOL    HW228464   2.116   0.329   1.281
 9189SOL     OW28465   3.686   6.198   2.534
 9189SOL    HW128466   3.775   6.175   2.574
 9189SOL    HW228467   3.670   6.140   2.454
 9190SOL     OW28468   0.704   2.781   5.504
 9190SOL    HW128469   0.782   2.734   5.462
 9190SOL    HW228470   0.735   2.869   5.541
 9191SOL     OW28471   5.763   1.105   6.368
 9191SOL    HW128472   5.830   1.062   6.308
 9191SOL    HW228473   5.771   1.204   6.362
 9192SOL     OW28474   6.953   2.394   6.429
 9192SOL    HW128475   6.894   2.414   6.351
 9192SOL    HW228476   6.898   2.351   6.501
 9193SOL     OW28477   3.946   3.215   4.553
 9193SOL    HW128478   3.993   3.196   4.467
 9193SOL    HW228479   3.866   3.156   4.562
 9194SOL     OW28480   2.836   0.201   2.455
 9194SOL    HW128481   2.753   0.253   2.433
 9194SOL    HW228482   2.888   0.249   2.525
 9195SOL     OW28483   1.636   3.319   3.069
 9195SOL    HW128484   1.633   3.231   3.022
 9195SOL    HW228485   1.551   3.332   3.121
 9196SOL     OW28486   5.428   6.672   3.759
 9196SOL    HW128487   5.340   6.692   3.716
 9196SOL    HW228488   5.418   6.591   3.818
 9197SOL     OW28489   3.260   5.253   1.128
 9197SOL    HW128490   3.163   5.228   1.126
 9197SOL    HW228491   3.309   5.194   1.192
 9198SOL     OW28492   6.453   4.278   6.930
 9198SOL    HW128493   6.364   4.277   6.975
 9198SOL    HW228494   6.467   4.368   6.887
 9199SOL     OW28495   0.237   2.736   5.800
 9199SOL    HW128496   0.279   2.787   5.875
 9199SOL    HW228497   0.307   2.711   5.733
 9200SOL     OW28498   2.560   5.979   5.493
 9200SOL    HW128499   2.646   6.020   5.525
 9200SOL    HW228500   2.580   5.905   5.429
 9201SOL     OW28501   6.947   3.110   0.261
 9201SOL    HW128502   6.882   3.036   0.276
 9201SOL    HW228503   6.994   3.131   0.347
 9202SOL     OW28504   0.762   5.513   4.272
 9202SOL    HW128505   0.687   5.559   4.320
 9202SOL    HW228506   0.778   5.558   4.184
 9203SOL     OW28507   6.262   2.832   6.274
 9203SOL    HW128508   6.183   2.883   6.307
 9203SOL    HW228509   6.346   2.881   6.298
 9204SOL     OW28510   4.909   3.550   4.135
 9204SOL    HW128511   4.927   3.454   4.155
 9204SOL    HW228512   4.885   3.598   4.220
 9205SOL     OW28513   5.164   5.517   2.921
 9205SOL    HW128514   5.082   5.487   2.970
 9205SOL    HW228515   5.140   5.590   2.857
 9206SOL     OW28516   3.057   6.489   3.628
 9206SOL    HW128517   3.079   6.581   3.597
 9206SOL    HW228518   3.088   6.476   3.722
 9207SOL     OW28519   4.181   5.204   0.196
 9207SOL    HW128520   4.241   5.140   0.244
 9207SOL    HW228521   4.237   5.273   0.149
 9208SOL     OW28522   6.072   3.915   2.169
 9208SOL    HW128523   6.156   3.897   2.118
 9208SOL    HW228524   6.027   3.828   2.191
 9209SOL     OW28525   4.428   0.604   1.310
 9209SOL    HW128526   4.471   0.547   1.379
 9209SOL    HW228527   4.436   0.700   1.337
 9210SOL     OW28528   0.783   0.885   1.362
 9210SOL    HW128529   0.880   0.861   1.375
 9210SOL    HW228530   0.770   0.921   1.270
 9211SOL     OW28531   5.954   3.226   6.767
 9211SOL    HW128532   5.954   3.299   6.836
 9211SOL    HW228533   5.874   3.168   6.780
 9212SOL     OW28534   4.949   4.423   4.282
 9212SOL    HW128535   4.865   4.377   4.310
 9212SOL    HW228536   5.017   4.354   4.256
 9213SOL     OW28537   4.676   5.671   4.315
 9213SOL    HW128538   4.641   5.702   4.404
 9213SOL    HW228539   4.638   5.728   4.243
 9214SOL     OW28540   0.060   3.014   5.302
 9214SOL    HW128541   0.016   2.938   5.350
 9214SOL    HW228542   0.141   2.980   5.254
 9215SOL     OW28543   1.515   4.394   2.579
 9215SOL    HW128544   1.584   4.330   2.612
 9215SOL    HW228545   1.446   4.408   2.649
 9216SOL     OW28546   2.363   6.593   3.680
 9216SOL    HW128547   2.373   6.682   3.635
 9216SOL    HW228548   2.378   6.520   3.613
 9217SOL     OW28549   6.329   2.489   0.288
 9217SOL    HW128550   6.246   2.539   0.264
 9217SOL    HW228551   6.336   2.407   0.230
 9218SOL     OW28552   4.225   1.144   0.087
 9218SOL    HW128553   4.295   1.201   0.044
 9218SOL    HW228554   4.237   1.049   0.057
 9219SOL     OW28555   4.956   3.750   6.307
 9219SOL    HW128556   4.975   3.717   6.400
 9219SOL    HW228557   4.870   3.801   6.306
 9220SOL     OW28558   1.519   6.289   2.296
 9220SOL    HW128559   1.528   6.224   2.371
 9220SOL    HW228560   1.527   6.242   2.208
 9221SOL     OW28561   2.291   0.058   3.925
 9221SOL    HW128562   2.358   0.115   3.876
 9221SOL    HW228563   2.240   0.115   3.990
 9222SOL     OW28564   2.555   5.565   5.011
 9222SOL    HW128565   2.588   5.658   4.995
 9222SOL    HW228566   2.611   5.500   4.959
 9223SOL     OW28567   1.572   3.056   4.199
 9223SOL    HW128568   1.475   3.079   4.189
 9223SOL    HW228569   1.612   3.108   4.274
 9224SOL     OW28570   1.224   4.840   3.660
 9224SOL    HW128571   1.157   4.817   3.731
 9224SOL    HW228572   1.248   4.757   3.610
 9225SOL     OW28573   3.496   6.041   5.778
 9225SOL    HW128574   3.505   6.141   5.782
 9225SOL    HW228575   3.588   6.000   5.774
 9226SOL     OW28576   0.313   6.808   1.282
 9226SOL    HW128577   0.222   6.795   1.241
 9226SOL    HW228578   0.321   6.753   1.365
 9227SOL     OW28579   2.420   6.114   1.136
 9227SOL    HW128580   2.462   6.148   1.052
 9227SOL    HW228581   2.339   6.061   1.114
 9228SOL     OW28582   2.731   1.819   6.966
 9228SOL    HW128583   2.666   1.750   6.998
 9228SOL    HW228584   2.718   1.903   7.018
 9229SOL     OW28585   1.114   4.555   5.508
 9229SOL    HW128586   1.104   4.647   5.472
 9229SOL    HW228587   1.204   4.545   5.550
 9230SOL     OW28588   5.211   3.064   3.608
 9230SOL    HW128589   5.119   3.051   3.645
 9230SOL    HW228590   5.221   3.010   3.524
 9231SOL     OW28591   1.420   3.173   5.362
 9231SOL    HW128592   1.378   3.084   5.382
 9231SOL    HW228593   1.486   3.163   5.287
 9232SOL     OW28594   3.219   5.182   6.950
 9232SOL    HW128595   3.198   5.249   6.879
 9232SOL    HW228596   3.167   5.098   6.933
 9233SOL     OW28597   6.725   6.278   0.894
 9233SOL    HW128598   6.664   6.345   0.851
 9233SOL    HW228599   6.812   6.323   0.917
 9234SOL     OW28600   2.835   5.740   0.689
 9234SOL    HW128601   2.819   5.713   0.784
 9234SOL    HW228602   2.931   5.723   0.665
 9235SOL     OW28603   1.958   2.735   3.417
 9235SOL    HW128604   2.044   2.779   3.442
 9235SOL    HW228605   1.888   2.756   3.485
 9236SOL     OW28606   1.728   4.100   0.280
 9236SOL    HW128607   1.752   4.071   0.188
 9236SOL    HW228608   1.789   4.057   0.346
 9237SOL     OW28609   0.530   5.575   2.981
 9237SOL    HW128610   0.528   5.628   3.065
 9237SOL    HW228611   0.504   5.480   3.001
 9238SOL     OW28612   2.406   2.753   6.087
 9238SOL    HW128613   2.444   2.788   6.001
 9238SOL    HW228614   2.480   2.731   6.150
 9239SOL     OW28615   0.087   4.138   5.901
 9239SOL    HW128616   0.115   4.148   5.997
 9239SOL    HW228617   0.146   4.193   5.843
 9240SOL     OW28618   4.944   3.143   2.186
 9240SOL    HW128619   4.874   3.108   2.123
 9240SOL    HW228620   5.018   3.184   2.133
 9241SOL     OW28621   0.287   4.922   0.602
 9241SOL    HW128622   0.331   5.008   0.627
 9241SOL    HW228623   0.234   4.935   0.519
 9242SOL     OW28624   1.657   4.244   1.219
 9242SOL    HW128625   1.640   4.214   1.313
 9242SOL    HW228626   1.587   4.205   1.159
 9243SOL     OW28627   6.844   7.007   1.561
 9243SOL    HW128628   6.879   6.992   1.468
 9243SOL    HW228629   6.751   6.973   1.568
 9244SOL     OW28630   3.019   5.753   6.140
 9244SOL    HW128631   2.971   5.841   6.141
 9244SOL    HW228632   2.968   5.688   6.084
 9245SOL     OW28633   0.761   5.043   3.618
 9245SOL    HW128634   0.739   5.109   3.690
 9245SOL    HW228635   0.790   4.957   3.661
 9246SOL     OW28636   6.269   6.990   2.694
 9246SOL    HW128637   6.226   6.900   2.686
 9246SOL    HW228638   6.273   0.012   2.605
 9247SOL     OW28639   2.718   6.088   3.247
 9247SOL    HW128640   2.710   6.104   3.149
 9247SOL    HW228641   2.652   6.145   3.295
 9248SOL     OW28642   2.971   1.858   4.241
 9248SOL    HW128643   2.894   1.831   4.299
 9248SOL    HW228644   3.045   1.791   4.253
 9249SOL     OW28645   3.886   4.990   1.266
 9249SOL    HW128646   3.972   5.001   1.317
 9249SOL    HW228647   3.880   4.897   1.230
 9250SOL     OW28648   5.505   3.448   4.733
 9250SOL    HW128649   5.553   3.369   4.694
 9250SOL    HW228650   5.453   3.494   4.661
 9251SOL     OW28651   4.169   1.905   2.720
 9251SOL    HW128652   4.242   1.869   2.778
 9251SOL    HW228653   4.097   1.837   2.711
 9252SOL     OW28654   5.663   0.667   4.430
 9252SOL    HW128655   5.755   0.696   4.405
 9252SOL    HW228656   5.668   0.589   4.492
 9253SOL     OW28657   5.742   5.275   5.421
 9253SOL    HW128658   5.653   5.261   5.463
 9253SOL    HW228659   5.755   5.372   5.400
 9254SOL     OW28660   4.882   5.444   2.995
 9254SOL    HW128661   4.918   5.503   3.068
 9254SOL    HW228662   4.807   5.491   2.949
 9255SOL     OW28663   5.078   3.810   6.938
 9255SOL    HW128664   5.146   3.744   6.971
 9255SOL    HW228665   5.120   3.869   6.869
 9256SOL     OW28666   2.968   0.414   2.632
 9256SOL    HW128667   3.066   0.431   2.629
 9256SOL    HW228668   2.920   0.501   2.648
 9257SOL     OW28669   6.421   4.917   3.513
 9257SOL    HW128670   6.421   4.975   3.594
 9257SOL    HW228671   6.502   4.936   3.458
 9258SOL     OW28672   4.135   3.528   2.449
 9258SOL    HW128673   4.039   3.524   2.475
 9258SOL    HW228674   4.164   3.439   2.414
 9259SOL     OW28675   0.346   1.765   0.680
 9259SOL    HW128676   0.379   1.829   0.749
 9259SOL    HW228677   0.330   1.814   0.594
 9260SOL     OW28678   6.000   1.975   5.278
 9260SOL    HW128679   6.092   1.990   5.316
 9260SOL    HW228680   5.933   2.026   5.332
 9261SOL     OW28681   3.577   1.403   0.370
 9261SOL    HW128682   3.498   1.368   0.420
 9261SOL    HW228683   3.621   1.476   0.423
 9262SOL     OW28684   6.963   5.775   5.301
 9262SOL    HW128685   7.013   5.856   5.331
 9262SOL    HW228686   6.871   5.801   5.273
 9263SOL     OW28687   4.612   0.007   2.381
 9263SOL    HW128688   4.521   0.034   2.415
 9263SOL    HW228689   4.660   0.087   2.346
 9264SOL     OW28690   4.969   4.363   0.608
 9264SOL    HW128691   5.039   4.424   0.647
 9264SOL    HW228692   4.949   4.391   0.514
 9265SOL     OW28693   3.456   2.525   6.853
 9265SOL    HW128694   3.453   2.556   6.758
 9265SOL    HW228695   3.536   2.565   6.899
 9266SOL     OW28696   1.183   6.078   1.059
 9266SOL    HW128697   1.240   6.151   1.021
 9266SOL    HW228698   1.107   6.058   0.997
 9267SOL     OW28699   6.959   1.787   4.925
 9267SOL    HW128700   6.916   1.856   4.983
 9267SOL    HW228701   6.894   1.715   4.903
 9268SOL     OW28702   1.596   6.681   2.822
 9268SOL    HW128703   1.514   6.739   2.828
 9268SOL    HW228704   1.632   6.684   2.729
 9269SOL     OW28705   4.812   1.246   6.454
 9269SOL    HW128706   4.781   1.334   6.418
 9269SOL    HW228707   4.801   1.245   6.554
 9270SOL     OW28708   4.596   6.549   6.018
 9270SOL    HW128709   4.575   6.600   6.101
 9270SOL    HW228710   4.618   6.613   5.944
 9271SOL     OW28711   6.211   0.093   1.027
 9271SOL    HW128712   6.158   0.176   1.012
 9271SOL    HW228713   6.150   0.015   1.036
 9272SOL     OW28714   0.935   5.556   5.467
 9272SOL    HW128715   0.902   5.515   5.382
 9272SOL    HW228716   1.011   5.502   5.502
 9273SOL     OW28717   5.828   5.948   2.989
 9273SOL    HW128718   5.916   5.932   2.945
 9273SOL    HW228719   5.796   5.863   3.033
 9274SOL     OW28720   6.436   1.689   0.415
 9274SOL    HW128721   6.392   1.766   0.463
 9274SOL    HW228722   6.447   1.612   0.478
 9275SOL     OW28723   6.410   0.808   7.003
 9275SOL    HW128724   6.390   0.880   6.936
 9275SOL    HW228725   6.506   0.783   6.997
 9276SOL     OW28726   2.054   4.409   1.380
 9276SOL    HW128727   1.964   4.445   1.405
 9276SOL    HW228728   2.088   4.458   1.300
 9277SOL     OW28729   4.627   4.629   0.832
 9277SOL    HW128730   4.613   4.702   0.899
 9277SOL    HW228731   4.538   4.597   0.798
 9278SOL     OW28732   1.730   0.015   5.574
 9278SOL    HW128733   1.712   7.015   5.478
 9278SOL    HW228734   1.671   0.090   5.603
 9279SOL     OW28735   2.910   0.242   1.307
 9279SOL    HW128736   3.006   0.237   1.334
 9279SOL    HW228737   2.853   0.196   1.375
 9280SOL     OW28738   2.038   1.646   2.247
 9280SOL    HW128739   2.040   1.727   2.189
 9280SOL    HW228740   2.040   1.673   2.344
 9281SOL     OW28741   2.744   3.984   6.791
 9281SOL    HW128742   2.702   3.894   6.805
 9281SOL    HW228743   2.687   4.054   6.832
 9282SOL     OW28744   5.645   0.997   2.992
 9282SOL    HW128745   5.710   1.065   3.025
 9282SOL    HW228746   5.647   0.916   3.051
 9283SOL     OW28747   4.773   0.773   4.198
 9283SOL    HW128748   4.704   0.701   4.207
 9283SOL    HW228749   4.761   0.819   4.110
 9284SOL     OW28750   2.854   3.072   5.496
 9284SOL    HW128751   2.771   3.093   5.445
 9284SOL    HW228752   2.890   3.155   5.537
 9285SOL     OW28753   4.937   3.274   1.181
 9285SOL    HW128754   4.952   3.370   1.161
 9285SOL    HW228755   4.844   3.248   1.155
 9286SOL     OW28756   5.460   6.075   0.926
 9286SOL    HW128757   5.371   6.105   0.959
 9286SOL    HW228758   5.453   6.049   0.829
 9287SOL     OW28759   3.672   4.790   6.505
 9287SOL    HW128760   3.636   4.882   6.518
 9287SOL    HW228761   3.745   4.793   6.437
 9288SOL     OW28762   4.483   1.426   2.934
 9288SOL    HW128763   4.408   1.485   2.966
 9288SOL    HW228764   4.538   1.475   2.867
 9289SOL     OW28765   4.300   0.568   1.634
 9289SOL    HW128766   4.304   0.482   1.583
 9289SOL    HW228767   4.388   0.583   1.681
 9290SOL     OW28768   5.536   0.617   3.337
 9290SOL    HW128769   5.508   0.712   3.348
 9290SOL    HW228770   5.619   0.612   3.282
 9291SOL     OW28771   1.333   5.129   5.826
 9291SOL    HW128772   1.277   5.052   5.855
 9291SOL    HW228773   1.274   5.201   5.790
 9292SOL     OW28774   2.495   2.214   5.677
 9292SOL    HW128775   2.436   2.134   5.665
 9292SOL    HW228776   2.464   2.288   5.616
 9293SOL     OW28777   6.251   2.923   6.857
 9293SOL    HW128778   6.255   2.827   6.883
 9293SOL    HW228779   6.292   2.979   6.929
 9294SOL     OW28780   5.192   0.909   6.059
 9294SOL    HW128781   5.132   0.875   5.987
 9294SOL    HW228782   5.137   0.936   6.139
 9295SOL     OW28783   5.318   0.663   5.114
 9295SOL    HW128784   5.405   0.704   5.139
 9295SOL    HW228785   5.334   0.574   5.069
 9296SOL     OW28786   1.817   5.364   6.653
 9296SOL    HW128787   1.843   5.459   6.673
 9296SOL    HW228788   1.895   5.316   6.613
 9297SOL     OW28789   1.077   0.038   3.104
 9297SOL    HW128790   1.153   0.016   3.167
 9297SOL    HW228791   1.114   0.080   3.021
 9298SOL     OW28792   1.163   6.319   6.747
 9298SOL    HW128793   1.137   6.269   6.665
 9298SOL    HW228794   1.133   6.414   6.740
 9299SOL     OW28795   0.532   2.057   4.265
 9299SOL    HW128796   0.623   2.018   4.276
 9299SOL    HW228797   0.466   1.984   4.250
 9300SOL     OW28798   0.735   4.328   5.904
 9300SOL    HW128799   0.735   4.321   5.804
 9300SOL    HW228800   0.829   4.341   5.936
 9301SOL     OW28801   5.571   5.261   4.808
 9301SOL    HW128802   5.495   5.209   4.770
 9301SOL    HW228803   5.580   5.241   4.905
 9302SOL     OW28804   2.100   3.370   4.053
 9302SOL    HW128805   2.112   3.322   4.140
 9302SOL    HW228806   2.185   3.364   4.000
 9303SOL     OW28807   3.255   3.896   0.514
 9303SOL    HW128808   3.192   3.885   0.437
 9303SOL    HW228809   3.212   3.861   0.597
 9304SOL     OW28810   4.158   4.577   1.755
 9304SOL    HW128811   4.111   4.544   1.674
 9304SOL    HW228812   4.247   4.531   1.763
 9305SOL     OW28813   3.557   1.213   0.735
 9305SOL    HW128814   3.640   1.164   0.761
 9305SOL    HW228815   3.490   1.208   0.809
 9306SOL     OW28816   1.229   3.858   5.432
 9306SOL    HW128817   1.158   3.865   5.502
 9306SOL    HW228818   1.317   3.838   5.476
 9307SOL     OW28819   1.239   4.226   1.153
 9307SOL    HW128820   1.224   4.303   1.092
 9307SOL    HW228821   1.206   4.249   1.245
 9308SOL     OW28822   1.826   3.598   1.072
 9308SOL    HW128823   1.877   3.684   1.070
 9308SOL    HW228824   1.871   3.535   1.135
 9309SOL     OW28825   3.472   5.439   6.065
 9309SOL    HW128826   3.505   5.459   5.973
 9309SOL    HW228827   3.426   5.520   6.103
 9310SOL     OW28828   5.740   5.703   5.577
 9310SOL    HW128829   5.717   5.791   5.535
 9310SOL    HW228830   5.697   5.698   5.668
 9311SOL     OW28831   4.950   4.811   0.895
 9311SOL    HW128832   4.960   4.870   0.975
 9311SOL    HW228833   4.927   4.718   0.925
 9312SOL     OW28834   1.235   3.240   1.259
 9312SOL    HW128835   1.144   3.219   1.224
 9312SOL    HW228836   1.267   3.164   1.316
 9313SOL     OW28837   0.158   0.039   1.580
 9313SOL    HW128838   0.132   0.072   1.671
 9313SOL    HW228839   0.083   0.052   1.516
 9314SOL     OW28840   6.493   3.756   6.861
 9314SOL    HW128841   6.568   3.721   6.916
 9314SOL    HW228842   6.471   3.850   6.889
 9315SOL     OW28843   0.036   6.966   5.400
 9315SOL    HW128844   0.059   0.042   5.407
 9315SOL    HW228845   0.000   6.947   5.308
 9316SOL     OW28846   5.668   6.411   5.698
 9316SOL    HW128847   5.737   6.345   5.669
 9316SOL    HW228848   5.584   6.363   5.723
 9317SOL     OW28849   4.369   5.522   3.847
 9317SOL    HW128850   4.362   5.577   3.764
 9317SOL    HW228851   4.465   5.519   3.876
 9318SOL     OW28852   6.161   0.651   6.400
 9318SOL    HW128853   6.230   0.688   6.463
 9318SOL    HW228854   6.171   0.552   6.395
 9319SOL     OW28855   2.431   3.121   1.023
 9319SOL    HW128856   2.415   3.171   1.108
 9319SOL    HW228857   2.405   3.025   1.034
 9320SOL     OW28858   3.831   0.588   5.192
 9320SOL    HW128859   3.759   0.532   5.151
 9320SOL    HW228860   3.823   0.586   5.292
 9321SOL     OW28861   1.344   0.399   4.595
 9321SOL    HW128862   1.324   0.479   4.539
 9321SOL    HW228863   1.442   0.379   4.590
 9322SOL     OW28864   0.138   3.564   6.634
 9322SOL    HW128865   0.236   3.579   6.645
 9322SOL    HW228866   0.119   3.466   6.640
 9323SOL     OW28867   0.805   1.447   4.835
 9323SOL    HW128868   0.804   1.474   4.931
 9323SOL    HW228869   0.766   1.520   4.779
 9324SOL     OW28870   1.464   4.228   2.369
 9324SOL    HW128871   1.467   4.294   2.444
 9324SOL    HW228872   1.385   4.168   2.380
 9325SOL     OW28873   6.450   0.381   6.940
 9325SOL    HW128874   6.350   0.373   6.940
 9325SOL    HW228875   6.478   0.444   6.868
 9326SOL     OW28876   2.915   4.636   0.283
 9326SOL    HW128877   3.009   4.604   0.294
 9326SOL    HW228878   2.913   4.736   0.282
 9327SOL     OW28879   4.710   0.421   2.500
 9327SOL    HW128880   4.723   0.352   2.571
 9327SOL    HW228881   4.742   0.385   2.413
 9328SOL     OW28882   2.044   0.886   4.165
 9328SOL    HW128883   2.037   0.985   4.157
 9328SOL    HW228884   1.963   0.849   4.210
 9329SOL     OW28885   5.790   4.071   0.953
 9329SOL    HW128886   5.779   4.125   1.036
 9329SOL    HW228887   5.883   4.083   0.918
 9330SOL     OW28888   6.725   0.494   5.619
 9330SOL    HW128889   6.701   0.477   5.524
 9330SOL    HW228890   6.808   0.444   5.642
 9331SOL     OW28891   2.807   0.949   6.402
 9331SOL    HW128892   2.901   0.982   6.398
 9331SOL    HW228893   2.754   0.991   6.329
 9332SOL     OW28894   3.260   4.904   0.557
 9332SOL    HW128895   3.334   4.944   0.612
 9332SOL    HW228896   3.289   4.896   0.462
 9333SOL     OW28897   3.622   5.356   6.308
 9333SOL    HW128898   3.696   5.288   6.300
 9333SOL    HW228899   3.565   5.354   6.226
 9334SOL     OW28900   4.489   6.651   4.495
 9334SOL    HW128901   4.495   6.728   4.559
 9334SOL    HW228902   4.575   6.644   4.444
 9335SOL     OW28903   1.441   1.369   6.544
 9335SOL    HW128904   1.356   1.422   6.545
 9335SOL    HW228905   1.505   1.411   6.480
 9336SOL     OW28906   3.922   0.405   4.939
 9336SOL    HW128907   3.910   0.433   5.034
 9336SOL    HW228908   3.919   0.485   4.880
 9337SOL     OW28909   4.593   1.118   4.999
 9337SOL    HW128910   4.514   1.097   4.942
 9337SOL    HW228911   4.564   1.121   5.095
 9338SOL     OW28912   6.040   6.915   1.111
 9338SOL    HW128913   6.063   6.919   1.208
 9338SOL    HW228914   5.952   6.959   1.095
 9339SOL     OW28915   6.173   6.580   0.159
 9339SOL    HW128916   6.133   6.646   0.096
 9339SOL    HW228917   6.105   6.511   0.185
 9340SOL     OW28918   4.008   4.798   3.241
 9340SOL    HW128919   3.982   4.808   3.337
 9340SOL    HW228920   3.932   4.827   3.183
 9341SOL     OW28921   5.785   4.997   1.391
 9341SOL    HW128922   5.688   5.021   1.394
 9341SOL    HW228923   5.827   5.036   1.309
 9342SOL     OW28924   3.018   6.615   4.467
 9342SOL    HW128925   3.106   6.633   4.511
 9342SOL    HW228926   3.008   6.672   4.386
 9343SOL     OW28927   4.681   4.447   2.056
 9343SOL    HW128928   4.692   4.465   2.154
 9343SOL    HW228929   4.591   4.405   2.040
 9344SOL     OW28930   5.599   6.384   1.823
 9344SOL    HW128931   5.648   6.300   1.799
 9344SOL    HW228932   5.505   6.379   1.789
 9345SOL     OW28933   6.775   5.121   0.903
 9345SOL    HW128934   6.814   5.182   0.834
 9345SOL    HW228935   6.839   5.045   0.920
 9346SOL     OW28936   4.767   0.899   1.925
 9346SOL    HW128937   4.797   0.807   1.950
 9346SOL    HW228938   4.811   0.927   1.839
 9347SOL     OW28939   3.235   5.442   0.556
 9347SOL    HW128940   3.330   5.414   0.567
 9347SOL    HW228941   3.177   5.387   0.617
 9348SOL     OW28942   3.357   5.428   2.995
 9348SOL    HW128943   3.343   5.358   3.065
 9348SOL    HW228944   3.378   5.516   3.039
 9349SOL     OW28945   6.215   4.905   1.870
 9349SOL    HW128946   6.287   4.944   1.927
 9349SOL    HW228947   6.240   4.811   1.844
 9350SOL     OW28948   6.532   1.814   5.125
 9350SOL    HW128949   6.466   1.882   5.156
 9350SOL    HW228950   6.569   1.766   5.205
 9351SOL     OW28951   3.857   6.672   5.963
 9351SOL    HW128952   3.879   6.608   5.889
 9351SOL    HW228953   3.925   6.662   6.036
 9352SOL     OW28954   3.619   1.823   6.406
 9352SOL    HW128955   3.550   1.892   6.384
 9352SOL    HW228956   3.573   1.744   6.447
 9353SOL     OW28957   0.983   4.592   1.144
 9353SOL    HW128958   0.934   4.525   1.201
 9353SOL    HW228959   0.922   4.626   1.073
 9354SOL     OW28960   0.451   1.804   6.050
 9354SOL    HW128961   0.364   1.799   6.001
 9354SOL    HW228962   0.475   1.900   6.066
 9355SOL     OW28963   0.555   1.437   4.541
 9355SOL    HW128964   0.506   1.352   4.559
 9355SOL    HW228965   0.490   1.513   4.542
 9356SOL     OW28966   4.716   6.080   2.191
 9356SOL    HW128967   4.775   6.160   2.196
 9356SOL    HW228968   4.770   5.999   2.166
 9357SOL     OW28969   2.522   3.587   6.629
 9357SOL    HW128970   2.469   3.534   6.562
 9357SOL    HW228971   2.513   3.684   6.609
 9358SOL     OW28972   6.424   3.376   2.423
 9358SOL    HW128973   6.480   3.360   2.341
 9358SOL    HW228974   6.327   3.370   2.399
 9359SOL     OW28975   0.850   3.667   5.603
 9359SOL    HW128976   0.867   3.758   5.566
 9359SOL    HW228977   0.937   3.619   5.615
 9360SOL     OW28978   1.929   5.785   6.610
 9360SOL    HW128979   1.921   5.863   6.673
 9360SOL    HW228980   1.965   5.706   6.660
 9361SOL     OW28981   1.290   6.582   2.909
 9361SOL    HW128982   1.280   6.657   2.974
 9361SOL    HW228983   1.236   6.601   2.827
 9362SOL     OW28984   1.926   3.491   2.752
 9362SOL    HW128985   2.001   3.443   2.706
 9362SOL    HW228986   1.890   3.563   2.691
 9363SOL     OW28987   3.766   6.788   2.004
 9363SOL    HW128988   3.788   6.883   1.981
 9363SOL    HW228989   3.812   6.727   1.940
 9364SOL     OW28990   4.002   3.041   6.288
 9364SOL    HW128991   4.034   2.984   6.364
 9364SOL    HW228992   3.948   2.986   6.224
 9365SOL     OW28993   2.292   2.257   4.606
 9365SOL    HW128994   2.267   2.234   4.700
 9365SOL    HW228995   2.291   2.175   4.550
 9366SOL     OW28996   3.712   6.522   6.204
 9366SOL    HW128997   3.765   6.547   6.123
 9366SOL    HW228998   3.771   6.524   6.285
 9367SOL     OW28999   0.215   6.321   2.200
 9367SOL    HW129000   0.270   6.261   2.141
 9367SOL    HW229001   0.248   6.415   2.192
 9368SOL     OW29002   2.818   1.258   2.968
 9368SOL    HW129003   2.733   1.309   2.953
 9368SOL    HW229004   2.796   1.161   2.982
 9369SOL     OW29005   6.204   6.561   4.990
 9369SOL    HW129006   6.212   6.508   4.905
 9369SOL    HW229007   6.127   6.528   5.043
 9370SOL     OW29008   5.080   0.789   2.587
 9370SOL    HW129009   5.157   0.726   2.600
 9370SOL    HW229010   4.997   0.737   2.568
 9371SOL     OW29011   2.525   5.271   0.501
 9371SOL    HW129012   2.496   5.211   0.426
 9371SOL    HW229013   2.560   5.357   0.464
 9372SOL     OW29014   5.412   6.161   2.392
 9372SOL    HW129015   5.346   6.174   2.319
 9372SOL    HW229016   5.505   6.166   2.356
 9373SOL     OW29017   4.651   2.093   2.938
 9373SOL    HW129018   4.636   2.192   2.941
 9373SOL    HW229019   4.563   2.047   2.938
 9374SOL     OW29020   0.568   3.851   0.203
 9374SOL    HW129021   0.605   3.764   0.236
 9374SOL    HW229022   0.526   3.838   0.113
 9375SOL     OW29023   0.300   1.198   2.522
 9375SOL    HW129024   0.346   1.196   2.610
 9375SOL    HW229025   0.365   1.175   2.450
 9376SOL     OW29026   2.611   4.295   1.376
 9376SOL    HW129027   2.692   4.296   1.435
 9376SOL    HW229028   2.556   4.377   1.393
 9377SOL     OW29029   2.170   5.230   4.388
 9377SOL    HW129030   2.096   5.283   4.431
 9377SOL    HW229031   2.198   5.157   4.449
 9378SOL     OW29032   1.791   1.317   4.401
 9378SOL    HW129033   1.791   1.349   4.306
 9378SOL    HW229034   1.718   1.363   4.452
 9379SOL     OW29035   4.071   6.117   5.752
 9379SOL    HW129036   4.110   6.101   5.842
 9379SOL    HW229037   4.101   6.046   5.689
 9380SOL     OW29038   5.152   5.512   4.706
 9380SOL    HW129039   5.192   5.422   4.690
 9380SOL    HW229040   5.053   5.506   4.702
 9381SOL     OW29041   3.745   2.956   6.132
 9381SOL    HW129042   3.654   2.961   6.174
 9381SOL    HW229043   3.740   2.990   6.038
 9382SOL     OW29044   3.661   0.892   3.469
 9382SOL    HW129045   3.700   0.840   3.394
 9382SOL    HW229046   3.620   0.976   3.434
 9383SOL     OW29047   0.547   5.627   4.412
 9383SOL    HW129048   0.580   5.645   4.505
 9383SOL    HW229049   0.539   5.714   4.363
 9384SOL     OW29050   4.207   0.249   2.372
 9384SOL    HW129051   4.119   0.208   2.347
 9384SOL    HW229052   4.195   0.303   2.455
 9385SOL     OW29053   4.496   1.148   3.646
 9385SOL    HW129054   4.575   1.210   3.651
 9385SOL    HW229055   4.416   1.192   3.686
 9386SOL     OW29056   2.235   6.175   4.991
 9386SOL    HW129057   2.299   6.193   5.067
 9386SOL    HW229058   2.284   6.181   4.904
 9387SOL     OW29059   2.676   1.630   6.610
 9387SOL    HW129060   2.624   1.715   6.620
 9387SOL    HW229061   2.738   1.620   6.688
 9388SOL     OW29062   3.223   5.626   2.575
 9388SOL    HW129063   3.303   5.637   2.633
 9388SOL    HW229064   3.210   5.709   2.520
 9389SOL     OW29065   2.023   0.081   3.467
 9389SOL    HW129066   2.071   0.155   3.419
 9389SOL    HW229067   1.998   0.112   3.559
 9390SOL     OW29068   5.218   4.885   5.860
 9390SOL    HW129069   5.174   4.975   5.858
 9390SOL    HW229070   5.245   4.859   5.767
 9391SOL     OW29071   2.742   1.253   5.145
 9391SOL    HW129072   2.650   1.285   5.169
 9391SOL    HW229073   2.741   1.215   5.053
 9392SOL     OW29074   5.966   6.411   5.075
 9392SOL    HW129075   5.881   6.461   5.058
 9392SOL    HW229076   5.975   6.393   5.173
 9393SOL     OW29077   3.147   6.241   6.477
 9393SOL    HW129078   3.071   6.298   6.508
 9393SOL    HW229079   3.234   6.286   6.498
 9394SOL     OW29080   0.138   1.276   1.854
 9394SOL    HW129081   0.209   1.272   1.924
 9394SOL    HW229082   0.078   1.354   1.871
 9395SOL     OW29083   2.652   1.442   1.350
 9395SOL    HW129084   2.655   1.374   1.276
 9395SOL    HW229085   2.745   1.465   1.377
 9396SOL     OW29086   2.182   4.168   3.938
 9396SOL    HW129087   2.128   4.214   4.008
 9396SOL    HW229088   2.245   4.233   3.896
 9397SOL     OW29089   4.833   0.146   6.352
 9397SOL    HW129090   4.890   0.144   6.434
 9397SOL    HW229091   4.890   0.144   6.271
 9398SOL     OW29092   6.541   0.706   5.072
 9398SOL    HW129093   6.458   0.667   5.033
 9398SOL    HW229094   6.584   0.639   5.131
 9399SOL     OW29095   1.115   1.934   6.033
 9399SOL    HW129096   1.130   1.842   6.070
 9399SOL    HW229097   1.155   1.940   5.942
 9400SOL     OW29098   4.553   0.640   1.729
 9400SOL    HW129099   4.615   0.622   1.653
 9400SOL    HW229100   4.557   0.736   1.754
 9401SOL     OW29101   6.418   0.602   3.591
 9401SOL    HW129102   6.341   0.657   3.559
 9401SOL    HW229103   6.488   0.663   3.629
 9402SOL     OW29104   1.263   5.368   2.706
 9402SOL    HW129105   1.248   5.326   2.796
 9402SOL    HW229106   1.203   5.325   2.639
 9403SOL     OW29107   6.494   1.478   2.963
 9403SOL    HW129108   6.504   1.418   3.042
 9403SOL    HW229109   6.522   1.429   2.880
 9404SOL     OW29110   1.379   2.945   0.180
 9404SOL    HW129111   1.407   2.958   0.275
 9404SOL    HW229112   1.328   2.860   0.172
 9405SOL     OW29113   2.226   4.484   3.561
 9405SOL    HW129114   2.259   4.392   3.584
 9405SOL    HW229115   2.194   4.530   3.644
 9406SOL     OW29116   6.791   2.873   6.043
 9406SOL    HW129117   6.702   2.834   6.020
 9406SOL    HW229118   6.817   2.941   5.975
 9407SOL     OW29119   3.076   5.105   3.381
 9407SOL    HW129120   3.081   5.183   3.443
 9407SOL    HW229121   3.048   5.023   3.431
 9408SOL     OW29122   6.512   2.979   6.249
 9408SOL    HW129123   6.554   3.020   6.168
 9408SOL    HW229124   6.582   2.936   6.305
 9409SOL     OW29125   5.986   5.905   0.403
 9409SOL    HW129126   5.994   5.994   0.448
 9409SOL    HW229127   6.076   5.862   0.398
 9410SOL     OW29128   2.951   0.326   1.050
 9410SOL    HW129129   2.921   0.421   1.058
 9410SOL    HW229130   2.970   0.289   1.141
 9411SOL     OW29131   3.491   2.933   2.203
 9411SOL    HW129132   3.477   2.908   2.299
 9411SOL    HW229133   3.402   2.938   2.158
 9412SOL     OW29134   0.125   1.347   2.687
 9412SOL    HW129135   0.199   1.344   2.620
 9412SOL    HW229136   0.107   1.255   2.721
 9413SOL     OW29137   3.931   5.762   3.444
 9413SOL    HW129138   3.985   5.839   3.479
 9413SOL    HW229139   3.912   5.698   3.519
 9414SOL     OW29140   2.674   1.043   3.068
 9414SOL    HW129141   2.623   1.089   3.140
 9414SOL    HW229142   2.611   0.997   3.006
 9415SOL     OW29143   2.458   6.907   1.930
 9415SOL    HW129144   2.358   6.911   1.940
 9415SOL    HW229145   2.490   6.816   1.956
 9416SOL     OW29146   6.976   2.199   0.552
 9416SOL    HW129147   0.044   2.158   0.573
 9416SOL    HW229148   6.978   2.233   0.458
 9417SOL     OW29149   4.585   0.477   0.660
 9417SOL    HW129150   4.639   0.528   0.727
 9417SOL    HW229151   4.628   0.485   0.570
 9418SOL     OW29152   3.755   0.179   1.149
 9418SOL    HW129153   3.824   0.108   1.162
 9418SOL    HW229154   3.706   0.194   1.234
 9419SOL     OW29155   2.673   4.710   5.770
 9419SOL    HW129156   2.691   4.780   5.701
 9419SOL    HW229157   2.616   4.749   5.842
 9420SOL     OW29158   5.764   4.079   5.794
 9420SOL    HW129159   5.707   4.146   5.745
 9420SOL    HW229160   5.777   3.998   5.736
 9421SOL     OW29161   2.289   6.514   4.443
 9421SOL    HW129162   2.272   6.564   4.357
 9421SOL    HW229163   2.288   6.416   4.425
 9422SOL     OW29164   3.241   5.272   3.197
 9422SOL    HW129165   3.151   5.229   3.202
 9422SOL    HW229166   3.246   5.346   3.264
 9423SOL     OW29167   2.741   6.342   3.837
 9423SOL    HW129168   2.802   6.331   3.758
 9423SOL    HW229169   2.785   6.402   3.904
 9424SOL     OW29170   5.337   2.145   5.092
 9424SOL    HW129171   5.298   2.061   5.130
 9424SOL    HW229172   5.418   2.170   5.145
 9425SOL     OW29173   5.852   3.793   0.954
 9425SOL    HW129174   5.828   3.886   0.984
 9425SOL    HW229175   5.915   3.799   0.876
 9426SOL     OW29176   4.091   1.871   6.317
 9426SOL    HW129177   4.118   1.964   6.344
 9426SOL    HW229178   3.994   1.870   6.294
 9427SOL     OW29179   2.969   5.623   3.014
 9427SOL    HW129180   3.015   5.546   2.971
 9427SOL    HW229181   3.035   5.697   3.029
 9428SOL     OW29182   6.818   0.944   1.239
 9428SOL    HW129183   6.831   0.977   1.332
 9428SOL    HW229184   6.723   0.958   1.211
 9429SOL     OW29185   2.136   3.815   2.850
 9429SOL    HW129186   2.182   3.898   2.883
 9429SOL    HW229187   2.159   3.800   2.754
 9430SOL     OW29188   0.070   3.613   4.273
 9430SOL    HW129189   0.046   3.673   4.350
 9430SOL    HW229190   0.164   3.631   4.246
 9431SOL     OW29191   6.546   4.021   0.661
 9431SOL    HW129192   6.605   4.007   0.582
 9431SOL    HW229193   6.582   3.970   0.739
 9432SOL     OW29194   5.418   0.528   3.598
 9432SOL    HW129195   5.454   0.622   3.595
 9432SOL    HW229196   5.475   0.469   3.541
 9433SOL     OW29197   3.528   6.186   3.049
 9433SOL    HW129198   3.475   6.109   3.085
 9433SOL    HW229199   3.599   6.152   2.988
 9434SOL     OW29200   5.509   5.796   2.906
 9434SOL    HW129201   5.502   5.697   2.899
 9434SOL    HW229202   5.453   5.838   2.835
 9435SOL     OW29203   0.367   2.713   4.726
 9435SOL    HW129204   0.434   2.700   4.799
 9435SOL    HW229205   0.281   2.746   4.766
 9436SOL     OW29206   1.534   2.504   1.322
 9436SOL    HW129207   1.544   2.587   1.377
 9436SOL    HW229208   1.574   2.518   1.232
 9437SOL     OW29209   1.383   5.892   3.205
 9437SOL    HW129210   1.358   5.959   3.136
 9437SOL    HW229211   1.303   5.837   3.229
 9438SOL     OW29212   0.436   0.441   1.532
 9438SOL    HW129213   0.528   0.480   1.528
 9438SOL    HW229214   0.378   0.499   1.589
 9439SOL     OW29215   0.409   3.277   1.129
 9439SOL    HW129216   0.318   3.239   1.140
 9439SOL    HW229217   0.477   3.209   1.157
 9440SOL     OW29218   3.929   5.086   3.264
 9440SOL    HW129219   3.982   5.167   3.239
 9440SOL    HW229220   3.979   5.003   3.237
 9441SOL     OW29221   6.258   4.347   5.673
 9441SOL    HW129222   6.253   4.297   5.587
 9441SOL    HW229223   6.179   4.325   5.730
 9442SOL     OW29224   4.573   3.620   1.073
 9442SOL    HW129225   4.577   3.594   1.170
 9442SOL    HW229226   4.650   3.579   1.024
 9443SOL     OW29227   2.635   5.226   0.988
 9443SOL    HW129228   2.595   5.240   0.897
 9443SOL    HW229229   2.567   5.188   1.049
 9444SOL     OW29230   1.324   3.302   0.946
 9444SOL    HW129231   1.372   3.257   0.870
 9444SOL    HW229232   1.332   3.246   1.028
 9445SOL     OW29233   6.035   2.670   3.195
 9445SOL    HW129234   5.944   2.653   3.155
 9445SOL    HW229235   6.053   2.768   3.197
 9446SOL     OW29236   6.389   5.424   4.018
 9446SOL    HW129237   6.470   5.437   3.960
 9446SOL    HW229238   6.374   5.326   4.033
 9447SOL     OW29239   6.086   4.566   3.390
 9447SOL    HW129240   5.999   4.524   3.364
 9447SOL    HW229241   6.134   4.598   3.309
 9448SOL     OW29242   0.285   6.963   6.841
 9448SOL    HW129243   0.228   6.964   6.759
 9448SOL    HW229244   0.241   6.908   6.912
 9449SOL     OW29245   6.438   6.928   0.171
 9449SOL    HW129246   6.456   6.838   0.130
 9449SOL    HW229247   6.343   6.954   0.155
 9450SOL     OW29248   1.639   5.250   4.375
 9450SOL    HW129249   1.707   5.208   4.315
 9450SOL    HW229250   1.677   5.261   4.467
 9451SOL     OW29251   4.414   0.436   6.086
 9451SOL    HW129252   4.455   0.358   6.133
 9451SOL    HW229253   4.360   0.403   6.008
 9452SOL     OW29254   1.663   4.061   0.687
 9452SOL    HW129255   1.672   4.096   0.780
 9452SOL    HW229256   1.725   3.984   0.674
 9453SOL     OW29257   2.301   4.588   3.318
 9453SOL    HW129258   2.262   4.677   3.294
 9453SOL    HW229259   2.278   4.565   3.412
 9454SOL     OW29260   3.388   3.791   6.467
 9454SOL    HW129261   3.473   3.824   6.508
 9454SOL    HW229262   3.313   3.803   6.531
 9455SOL     OW29263   2.452   1.505   3.709
 9455SOL    HW129264   2.377   1.554   3.754
 9455SOL    HW229265   2.456   1.531   3.613
 9456SOL     OW29266   6.981   3.857   1.058
 9456SOL    HW129267   6.995   3.765   1.022
 9456SOL    HW229268   6.948   3.917   0.984
 9457SOL     OW29269   1.432   3.491   4.992
 9457SOL    HW129270   1.513   3.498   5.051
 9457SOL    HW229271   1.386   3.404   5.010
 9458SOL     OW29272   0.992   2.883   0.191
 9458SOL    HW129273   1.030   2.971   0.221
 9458SOL    HW229274   0.914   2.899   0.130
 9459SOL     OW29275   5.887   4.930   3.784
 9459SOL    HW129276   5.908   4.870   3.706
 9459SOL    HW229277   5.928   4.892   3.867
 9460SOL     OW29278   1.321   3.127   4.182
 9460SOL    HW129279   1.333   3.225   4.200
 9460SOL    HW229280   1.224   3.107   4.173
 9461SOL     OW29281   0.227   1.779   1.657
 9461SOL    HW129282   0.207   1.682   1.651
 9461SOL    HW229283   0.172   1.829   1.589
 9462SOL     OW29284   2.084   3.657   3.247
 9462SOL    HW129285   2.049   3.751   3.245
 9462SOL    HW229286   2.095   3.624   3.154
 9463SOL     OW29287   5.999   0.332   1.712
 9463SOL    HW129288   6.068   0.389   1.755
 9463SOL    HW229289   6.038   0.283   1.635
 9464SOL     OW29290   5.863   0.522   0.704
 9464SOL    HW129291   5.960   0.540   0.719
 9464SOL    HW229292   5.811   0.607   0.715
 9465SOL     OW29293   1.356   4.463   1.951
 9465SOL    HW129294   1.276   4.522   1.944
 9465SOL    HW229295   1.419   4.500   2.018
 9466SOL     OW29296   3.858   4.619   5.613
 9466SOL    HW129297   3.859   4.519   5.609
 9466SOL    HW229298   3.945   4.651   5.651
 9467SOL     OW29299   1.303   2.242   2.205
 9467SOL    HW129300   1.379   2.297   2.170
 9467SOL    HW229301   1.217   2.276   2.167
 9468SOL     OW29302   5.912   3.738   6.504
 9468SOL    HW129303   5.980   3.685   6.454
 9468SOL    HW229304   5.844   3.677   6.543
 9469SOL     OW29305   6.398   5.147   1.677
 9469SOL    HW129306   6.381   5.229   1.622
 9469SOL    HW229307   6.458   5.170   1.754
 9470SOL     OW29308   5.158   3.133   6.075
 9470SOL    HW129309   5.075   3.150   6.129
 9470SOL    HW229310   5.141   3.062   6.008
 9471SOL     OW29311   6.671   1.677   4.572
 9471SOL    HW129312   6.580   1.668   4.613
 9471SOL    HW229313   6.721   1.751   4.617
 9472SOL     OW29314   6.488   2.809   5.622
 9472SOL    HW129315   6.421   2.873   5.661
 9472SOL    HW229316   6.442   2.725   5.595
 9473SOL     OW29317   2.792   5.194   6.952
 9473SOL    HW129318   2.818   5.143   6.871
 9473SOL    HW229319   2.744   5.134   7.015
 9474SOL     OW29320   0.181   3.131   0.141
 9474SOL    HW129321   0.257   3.146   0.204
 9474SOL    HW229322   0.095   3.148   0.189
 9475SOL     OW29323   3.630   3.074   0.045
 9475SOL    HW129324   3.560   3.056   0.114
 9475SOL    HW229325   3.586   3.089   6.977
 9476SOL     OW29326   3.924   3.975   4.866
 9476SOL    HW129327   3.892   4.017   4.781
 9476SOL    HW229328   3.973   4.043   4.920
 9477SOL     OW29329   0.812   2.643   0.739
 9477SOL    HW129330   0.720   2.623   0.771
 9477SOL    HW229331   0.879   2.607   0.805
 9478SOL     OW29332   4.929   3.475   0.717
 9478SOL    HW129333   5.016   3.437   0.748
 9478SOL    HW229334   4.937   3.502   0.621
 9479SOL     OW29335   4.386   6.077   6.652
 9479SOL    HW129336   4.295   6.042   6.630
 9479SOL    HW229337   4.433   6.013   6.713
 9480SOL     OW29338   5.937   5.013   0.959
 9480SOL    HW129339   5.894   5.060   0.882
 9480SOL    HW229340   5.988   5.080   1.014
 9481SOL     OW29341   5.247   3.005   2.177
 9481SOL    HW129342   5.294   3.044   2.257
 9481SOL    HW229343   5.313   2.954   2.122
 9482SOL     OW29344   0.527   1.091   2.740
 9482SOL    HW129345   0.558   1.107   2.834
 9482SOL    HW229346   0.477   1.005   2.736
 9483SOL     OW29347   1.821   0.951   0.841
 9483SOL    HW129348   1.723   0.950   0.858
 9483SOL    HW229349   1.853   1.045   0.830
 9484SOL     OW29350   4.578   0.577   4.181
 9484SOL    HW129351   4.479   0.590   4.185
 9484SOL    HW229352   4.602   0.489   4.222
 9485SOL     OW29353   0.791   0.766   0.335
 9485SOL    HW129354   0.766   0.859   0.308
 9485SOL    HW229355   0.770   0.753   0.432
 9486SOL     OW29356   3.786   6.673   1.119
 9486SOL    HW129357   3.731   6.637   1.044
 9486SOL    HW229358   3.870   6.714   1.081
 9487SOL     OW29359   3.253   3.573   4.291
 9487SOL    HW129360   3.193   3.592   4.368
 9487SOL    HW229361   3.347   3.599   4.314
 9488SOL     OW29362   2.770   6.595   0.814
 9488SOL    HW129363   2.826   6.590   0.731
 9488SOL    HW229364   2.769   6.505   0.858
 9489SOL     OW29365   4.635   4.354   1.284
 9489SOL    HW129366   4.709   4.311   1.233
 9489SOL    HW229367   4.640   4.453   1.274
 9490SOL     OW29368   6.202   4.735   2.219
 9490SOL    HW129369   6.168   4.820   2.259
 9490SOL    HW229370   6.234   4.674   2.291
 9491SOL     OW29371   5.770   5.059   4.274
 9491SOL    HW129372   5.710   4.987   4.310
 9491SOL    HW229373   5.829   5.021   4.203
 9492SOL     OW29374   3.516   2.898   4.077
 9492SOL    HW129375   3.433   2.923   4.128
 9492SOL    HW229376   3.540   2.803   4.097
 9493SOL     OW29377   3.072   5.422   4.516
 9493SOL    HW129378   2.984   5.442   4.559
 9493SOL    HW229379   3.117   5.347   4.565
 9494SOL     OW29380   4.929   3.579   2.450
 9494SOL    HW129381   4.947   3.481   2.445
 9494SOL    HW229382   4.908   3.614   2.359
 9495SOL     OW29383   6.356   1.638   3.645
 9495SOL    HW129384   6.370   1.580   3.725
 9495SOL    HW229385   6.265   1.680   3.650
 9496SOL     OW29386   5.959   3.522   1.787
 9496SOL    HW129387   6.047   3.523   1.739
 9496SOL    HW229388   5.976   3.505   1.885
 9497SOL     OW29389   5.252   6.503   5.557
 9497SOL    HW129390   5.284   6.562   5.631
 9497SOL    HW229391   5.287   6.410   5.571
 9498SOL     OW29392   4.258   6.547   4.399
 9498SOL    HW129393   4.198   6.596   4.335
 9498SOL    HW229394   4.332   6.607   4.428
 9499SOL     OW29395   2.342   5.157   6.413
 9499SOL    HW129396   2.254   5.117   6.390
 9499SOL    HW229397   2.363   5.139   6.509
 9500SOL     OW29398   5.389   0.045   0.964
 9500SOL    HW129399   5.397   7.003   0.888
 9500SOL    HW229400   5.325   0.009   1.031
 9501SOL     OW29401   2.786   1.062   4.822
 9501SOL    HW129402   2.853   1.011   4.875
 9501SOL    HW229403   2.832   1.134   4.769
 9502SOL     OW29404   5.391   2.956   5.016
 9502SOL    HW129405   5.358   3.036   5.066
 9502SOL    HW229406   5.314   2.894   4.998
 9503SOL     OW29407   0.586   1.433   1.550
 9503SOL    HW129408   0.494   1.399   1.533
 9503SOL    HW229409   0.583   1.532   1.564
 9504SOL     OW29410   0.315   2.316   0.492
 9504SOL    HW129411   0.252   2.238   0.491
 9504SOL    HW229412   0.294   2.375   0.570
 9505SOL     OW29413   4.709   4.651   4.083
 9505SOL    HW129414   4.671   4.562   4.060
 9505SOL    HW229415   4.672   4.721   4.021
 9506SOL     OW29416   1.052   1.831   6.373
 9506SOL    HW129417   1.038   1.922   6.336
 9506SOL    HW229418   0.964   1.791   6.398
 9507SOL     OW29419   1.142   2.487   3.246
 9507SOL    HW129420   1.084   2.568   3.251
 9507SOL    HW229421   1.090   2.411   3.207
 9508SOL     OW29422   6.293   2.147   1.374
 9508SOL    HW129423   6.366   2.201   1.417
 9508SOL    HW229424   6.276   2.184   1.282
 9509SOL     OW29425   1.057   1.022   4.227
 9509SOL    HW129426   0.988   1.087   4.258
 9509SOL    HW229427   1.012   0.940   4.190
 9510SOL     OW29428   1.123   3.647   3.708
 9510SOL    HW129429   1.222   3.662   3.713
 9510SOL    HW229430   1.085   3.647   3.800
 9511SOL     OW29431   1.713   0.580   0.634
 9511SOL    HW129432   1.678   0.486   0.638
 9511SOL    HW229433   1.750   0.605   0.723
 9512SOL     OW29434   6.186   1.679   1.492
 9512SOL    HW129435   6.144   1.642   1.410
 9512SOL    HW229436   6.266   1.734   1.467
 9513SOL     OW29437   2.104   3.485   6.818
 9513SOL    HW129438   2.194   3.490   6.862
 9513SOL    HW229439   2.109   3.423   6.740
 9514SOL     OW29440   2.118   5.442   5.898
 9514SOL    HW129441   2.093   5.535   5.927
 9514SOL    HW229442   2.123   5.383   5.978
 9515SOL     OW29443   2.048   6.011   0.904
 9515SOL    HW129444   2.042   6.083   0.973
 9515SOL    HW229445   1.982   6.028   0.831
 9516SOL     OW29446   5.955   4.616   5.892
 9516SOL    HW129447   5.896   4.696   5.886
 9516SOL    HW229448   6.050   4.645   5.904
 9517SOL     OW29449   2.218   4.812   0.872
 9517SOL    HW129450   2.239   4.771   0.783
 9517SOL    HW229451   2.119   4.815   0.884
 9518SOL     OW29452   2.265   2.159   0.504
 9518SOL    HW129453   2.321   2.132   0.582
 9518SOL    HW229454   2.322   2.202   0.435
 9519SOL     OW29455   3.911   3.723   4.994
 9519SOL    HW129456   3.831   3.670   4.967
 9519SOL    HW229457   3.909   3.813   4.949
 9520SOL     OW29458   1.282   1.382   3.751
 9520SOL    HW129459   1.281   1.383   3.651
 9520SOL    HW229460   1.196   1.418   3.786
 9521SOL     OW29461   4.874   5.407   1.802
 9521SOL    HW129462   4.869   5.484   1.738
 9521SOL    HW229463   4.796   5.346   1.787
 9522SOL     OW29464   2.908   5.840   1.262
 9522SOL    HW129465   2.829   5.885   1.222
 9522SOL    HW229466   2.890   5.742   1.273
 9523SOL     OW29467   2.665   4.659   4.799
 9523SOL    HW129468   2.569   4.634   4.809
 9523SOL    HW229469   2.714   4.639   4.884
 9524SOL     OW29470   3.285   2.920   1.337
 9524SOL    HW129471   3.375   2.939   1.376
 9524SOL    HW229472   3.295   2.883   1.245
 9525SOL     OW29473   2.297   2.928   5.694
 9525SOL    HW129474   2.245   2.842   5.691
 9525SOL    HW229475   2.293   2.971   5.604
 9526SOL     OW29476   5.536   5.113   1.403
 9526SOL    HW129477   5.507   5.087   1.495
 9526SOL    HW229478   5.496   5.201   1.379
 9527SOL     OW29479   0.592   0.646   3.825
 9527SOL    HW129480   0.549   0.608   3.907
 9527SOL    HW229481   0.684   0.608   3.816
 9528SOL     OW29482   0.034   1.267   0.321
 9528SOL    HW129483   0.130   1.295   0.329
 9528SOL    HW229484   0.013   1.198   0.390
 9529SOL     OW29485   6.565   3.040   5.819
 9529SOL    HW129486   6.611   3.066   5.734
 9529SOL    HW229487   6.607   3.089   5.895
 9530SOL     OW29488   1.716   4.081   1.793
 9530SOL    HW129489   1.696   4.148   1.722
 9530SOL    HW229490   1.767   4.004   1.754
 9531SOL     OW29491   4.858   5.188   2.922
 9531SOL    HW129492   4.904   5.270   2.956
 9531SOL    HW229493   4.759   5.201   2.927
 9532SOL     OW29494   6.744   6.941   2.283
 9532SOL    HW129495   6.796   6.989   2.354
 9532SOL    HW229496   6.796   6.943   2.197
 9533SOL     OW29497   6.798   6.594   5.818
 9533SOL    HW129498   6.879   6.635   5.860
 9533SOL    HW229499   6.802   6.605   5.719
 9534SOL     OW29500   0.199   3.935   4.916
 9534SOL    HW129501   0.264   3.877   4.867
 9534SOL    HW229502   0.198   3.911   5.013
 9535SOL     OW29503   2.194   1.343   6.116
 9535SOL    HW129504   2.259   1.365   6.043
 9535SOL    HW229505   2.202   1.246   6.140
 9536SOL     OW29506   2.724   4.243   5.297
 9536SOL    HW129507   2.738   4.244   5.395
 9536SOL    HW229508   2.669   4.323   5.270
 9537SOL     OW29509   3.045   6.510   2.925
 9537SOL    HW129510   3.083   6.600   2.904
 9537SOL    HW229511   3.091   6.472   3.005
 9538SOL     OW29512   6.360   1.928   3.565
 9538SOL    HW129513   6.291   1.913   3.493
 9538SOL    HW229514   6.331   2.003   3.623
 9539SOL     OW29515   2.865   3.807   5.115
 9539SOL    HW129516   2.789   3.846   5.167
 9539SOL    HW229517   2.939   3.873   5.109
 9540SOL     OW29518   6.081   4.239   4.426
 9540SOL    HW129519   5.992   4.234   4.472
 9540SOL    HW229520   6.091   4.162   4.364
 9541SOL     OW29521   3.815   0.550   5.465
 9541SOL    HW129522   3.881   0.603   5.518
 9541SOL    HW229523   3.785   0.471   5.517
 9542SOL     OW29524   5.366   4.490   4.234
 9542SOL    HW129525   5.272   4.457   4.239
 9542SOL    HW229526   5.420   4.429   4.176
 9543SOL     OW29527   3.669   1.061   5.272
 9543SOL    HW129528   3.711   0.986   5.221
 9543SOL    HW229529   3.570   1.047   5.276
 9544SOL     OW29530   6.758   1.453   3.740
 9544SOL    HW129531   6.821   1.442   3.817
 9544SOL    HW229532   6.682   1.389   3.750
 9545SOL     OW29533   5.986   5.420   4.091
 9545SOL    HW129534   6.054   5.396   4.022
 9545SOL    HW229535   6.008   5.374   4.177
 9546SOL     OW29536   3.013   2.081   5.682
 9546SOL    HW129537   2.936   2.128   5.723
 9546SOL    HW229538   3.011   2.095   5.582
 9547SOL     OW29539   2.527   6.523   4.612
 9547SOL    HW129540   2.459   6.543   4.542
 9547SOL    HW229541   2.484   6.471   4.686
 9548SOL     OW29542   6.116   5.884   6.494
 9548SOL    HW129543   6.117   5.789   6.524
 9548SOL    HW229544   6.209   5.921   6.497
 9549SOL     OW29545   2.714   3.098   1.030
 9549SOL    HW129546   2.760   3.154   1.099
 9549SOL    HW229547   2.616   3.116   1.033
 9550SOL     OW29548   0.213   1.398   0.645
 9550SOL    HW129549   0.153   1.354   0.711
 9550SOL    HW229550   0.190   1.495   0.638
 9551SOL     OW29551   5.654   1.260   4.243
 9551SOL    HW129552   5.612   1.249   4.334
 9551SOL    HW229553   5.753   1.265   4.253
 9552SOL     OW29554   1.400   6.351   2.960
 9552SOL    HW129555   1.485   6.338   2.909
 9552SOL    HW229556   1.366   6.444   2.945
 9553SOL     OW29557   6.252   3.805   6.686
 9553SOL    HW129558   6.328   3.801   6.751
 9553SOL    HW229559   6.287   3.796   6.593
 9554SOL     OW29560   2.711   0.477   1.252
 9554SOL    HW129561   2.759   0.390   1.260
 9554SOL    HW229562   2.613   0.462   1.266
 9555SOL     OW29563   1.119   0.866   2.846
 9555SOL    HW129564   1.152   0.958   2.869
 9555SOL    HW229565   1.169   0.832   2.767
 9556SOL     OW29566   1.697   1.812   1.346
 9556SOL    HW129567   1.740   1.808   1.436
 9556SOL    HW229568   1.754   1.864   1.283
 9557SOL     OW29569   0.147   0.399   2.697
 9557SOL    HW129570   0.169   0.492   2.727
 9557SOL    HW229571   0.185   0.334   2.763
 9558SOL     OW29572   6.407   6.243   4.724
 9558SOL    HW129573   6.493   6.295   4.726
 9558SOL    HW229574   6.330   6.306   4.721
 9559SOL     OW29575   1.011   4.130   0.713
 9559SOL    HW129576   1.099   4.176   0.728
 9559SOL    HW229577   1.002   4.054   0.777
 9560SOL     OW29578   1.043   1.823   3.284
 9560SOL    HW129579   1.082   1.835   3.192
 9560SOL    HW229580   1.055   1.908   3.336
 9561SOL     OW29581   1.119   6.653   0.784
 9561SOL    HW129582   1.093   6.655   0.688
 9561SOL    HW229583   1.212   6.618   0.793
 9562SOL     OW29584   3.240   0.150   5.517
 9562SOL    HW129585   3.235   0.132   5.615
 9562SOL    HW229586   3.308   0.221   5.500
 9563SOL     OW29587   6.040   6.932   0.765
 9563SOL    HW129588   6.124   6.937   0.712
 9563SOL    HW229589   6.057   6.883   0.851
 9564SOL     OW29590   3.089   0.295   0.054
 9564SOL    HW129591   3.020   0.235   0.093
 9564SOL    HW229592   3.111   0.266   6.983
 9565SOL     OW29593   4.255   5.977   4.808
 9565SOL    HW129594   4.186   6.048   4.813
 9565SOL    HW229595   4.319   5.986   4.884
 9566SOL     OW29596   2.653   4.775   6.678
 9566SOL    HW129597   2.721   4.716   6.635
 9566SOL    HW229598   2.567   4.768   6.628
 9567SOL     OW29599   5.765   4.779   6.858
 9567SOL    HW129600   5.702   4.706   6.886
 9567SOL    HW229601   5.778   4.843   6.934
 9568SOL     OW29602   4.248   2.565   6.740
 9568SOL    HW129603   4.328   2.507   6.726
 9568SOL    HW229604   4.229   2.572   6.838
 9569SOL     OW29605   0.112   0.710   2.779
 9569SOL    HW129606   0.040   0.699   2.710
 9569SOL    HW229607   0.080   0.773   2.850
 9570SOL     OW29608   0.801   2.719   2.537
 9570SOL    HW129609   0.889   2.716   2.489
 9570SOL    HW229610   0.814   2.756   2.629
 9571SOL     OW29611   2.336   3.922   0.160
 9571SOL    HW129612   2.315   4.017   0.183
 9571SOL    HW229613   2.284   3.895   0.079
 9572SOL     OW29614   2.250   5.627   1.492
 9572SOL    HW129615   2.201   5.669   1.569
 9572SOL    HW229616   2.270   5.697   1.423
 9573SOL     OW29617   1.085   1.248   6.737
 9573SOL    HW129618   1.061   1.283   6.828
 9573SOL    HW229619   1.138   1.317   6.688
 9574SOL     OW29620   3.824   3.274   4.071
 9574SOL    HW129621   3.903   3.243   4.125
 9574SOL    HW229622   3.742   3.225   4.100
 9575SOL     OW29623   5.859   1.635   1.017
 9575SOL    HW129624   5.836   1.728   0.990
 9575SOL    HW229625   5.914   1.636   1.100
 9576SOL     OW29626   2.660   0.425   2.450
 9576SOL    HW129627   2.650   0.506   2.509
 9576SOL    HW229628   2.663   0.454   2.354
 9577SOL     OW29629   1.154   0.826   4.393
 9577SOL    HW129630   1.228   0.781   4.344
 9577SOL    HW229631   1.117   0.900   4.337
 9578SOL     OW29632   0.231   4.071   3.698
 9578SOL    HW129633   0.255   3.980   3.731
 9578SOL    HW229634   0.313   4.118   3.666
 9579SOL     OW29635   1.858   5.473   2.863
 9579SOL    HW129636   1.779   5.534   2.855
 9579SOL    HW229637   1.918   5.485   2.785
 9580SOL     OW29638   4.133   3.241   0.960
 9580SOL    HW129639   4.160   3.169   1.024
 9580SOL    HW229640   4.104   3.322   1.011
 9581SOL     OW29641   1.400   5.632   6.239
 9581SOL    HW129642   1.497   5.611   6.247
 9581SOL    HW229643   1.349   5.547   6.221
 9582SOL     OW29644   4.593   4.849   4.742
 9582SOL    HW129645   4.667   4.807   4.689
 9582SOL    HW229646   4.519   4.783   4.753
 9583SOL     OW29647   3.465   4.813   1.090
 9583SOL    HW129648   3.441   4.743   1.158
 9583SOL    HW229649   3.398   4.811   1.016
 9584SOL     OW29650   6.767   6.515   0.354
 9584SOL    HW129651   6.786   6.463   0.437
 9584SOL    HW229652   6.806   6.468   0.275
 9585SOL     OW29653   6.386   0.385   3.271
 9585SOL    HW129654   6.340   0.359   3.355
 9585SOL    HW229655   6.376   0.484   3.256
 9586SOL     OW29656   5.829   3.753   2.585
 9586SOL    HW129657   5.761   3.697   2.537
 9586SOL    HW229658   5.917   3.706   2.585
 9587SOL     OW29659   6.347   0.701   2.404
 9587SOL    HW129660   6.296   0.614   2.398
 9587SOL    HW229661   6.411   0.696   2.481
 9588SOL     OW29662   0.616   1.594   2.194
 9588SOL    HW129663   0.620   1.615   2.292
 9588SOL    HW229664   0.668   1.662   2.142
 9589SOL     OW29665   2.701   5.460   6.294
 9589SOL    HW129666   2.705   5.364   6.265
 9589SOL    HW229667   2.688   5.519   6.214
 9590SOL     OW29668   0.414   4.366   2.024
 9590SOL    HW129669   0.462   4.447   2.059
 9590SOL    HW229670   0.403   4.374   1.925
 9591SOL     OW29671   2.852   6.021   0.303
 9591SOL    HW129672   2.767   5.996   0.351
 9591SOL    HW229673   2.849   6.119   0.281
 9592SOL     OW29674   3.778   4.564   1.681
 9592SOL    HW129675   3.836   4.608   1.612
 9592SOL    HW229676   3.744   4.633   1.745
 9593SOL     OW29677   6.380   0.557   4.601
 9593SOL    HW129678   6.462   0.592   4.646
 9593SOL    HW229679   6.307   0.625   4.606
 9594SOL     OW29680   1.550   6.035   3.405
 9594SOL    HW129681   1.586   6.082   3.324
 9594SOL    HW229682   1.528   5.941   3.382
 9595SOL     OW29683   1.906   4.172   4.932
 9595SOL    HW129684   1.867   4.193   4.842
 9595SOL    HW229685   1.845   4.205   5.004
 9596SOL     OW29686   0.592   5.845   0.340
 9596SOL    HW129687   0.562   5.921   0.282
 9596SOL    HW229688   0.670   5.874   0.396
 9597SOL     OW29689   0.408   4.685   0.570
 9597SOL    HW129690   0.334   4.620   0.587
 9597SOL    HW229691   0.375   4.778   0.584
 9598SOL     OW29692   0.713   3.838   5.107
 9598SOL    HW129693   0.742   3.743   5.119
 9598SOL    HW229694   0.782   3.899   5.146
 9599SOL     OW29695   3.185   0.530   5.585
 9599SOL    HW129696   3.094   0.518   5.546
 9599SOL    HW229697   3.183   0.605   5.652
 9600SOL     OW29698   2.068   0.100   6.628
 9600SOL    HW129699   2.014   0.088   6.711
 9600SOL    HW229700   2.140   0.031   6.625
 9601SOL     OW29701   6.154   4.182   0.047
 9601SOL    HW129702   6.178   4.237   0.127
 9601SOL    HW229703   6.157   4.085   0.071
 9602SOL     OW29704   6.578   4.945   6.976
 9602SOL    HW129705   6.490   4.901   6.998
 9602SOL    HW229706   6.589   4.948   6.877
 9603SOL     OW29707   3.126   0.602   4.890
 9603SOL    HW129708   3.077   0.665   4.950
 9603SOL    HW229709   3.101   0.619   4.795
 9604SOL     OW29710   5.004   0.243   0.584
 9604SOL    HW129711   4.985   0.172   0.651
 9604SOL    HW229712   5.099   0.274   0.593
 9605SOL     OW29713   0.938   5.112   5.142
 9605SOL    HW129714   0.853   5.076   5.181
 9605SOL    HW229715   0.916   5.186   5.079
 9606SOL     OW29716   1.567   5.923   5.149
 9606SOL    HW129717   1.596   5.836   5.187
 9606SOL    HW229718   1.535   5.910   5.056
 9607SOL     OW29719   1.089   2.023   2.057
 9607SOL    HW129720   1.153   1.949   2.037
 9607SOL    HW229721   1.077   2.031   2.156
 9608SOL     OW29722   6.668   6.360   1.948
 9608SOL    HW129723   6.761   6.365   1.912
 9608SOL    HW229724   6.641   6.450   1.983
 9609SOL     OW29725   1.459   3.788   5.584
 9609SOL    HW129726   1.494   3.709   5.533
 9609SOL    HW229727   1.499   3.788   5.676
 9610SOL     OW29728   1.570   4.272   4.022
 9610SOL    HW129729   1.656   4.240   3.982
 9610SOL    HW229730   1.590   4.327   4.104
 9611SOL     OW29731   0.165   6.684   0.382
 9611SOL    HW129732   0.092   6.639   0.435
 9611SOL    HW229733   0.137   6.778   0.360
 9612SOL     OW29734   6.241   3.451   1.395
 9612SOL    HW129735   6.289   3.486   1.314
 9612SOL    HW229736   6.226   3.353   1.385
 9613SOL     OW29737   3.810   6.166   3.477
 9613SOL    HW129738   3.741   6.115   3.427
 9613SOL    HW229739   3.901   6.134   3.451
 9614SOL     OW29740   3.589   2.923   1.150
 9614SOL    HW129741   3.505   2.872   1.134
 9614SOL    HW229742   3.591   3.004   1.092
 9615SOL     OW29743   1.230   6.736   2.384
 9615SOL    HW129744   1.273   6.784   2.461
 9615SOL    HW229745   1.147   6.784   2.357
 9616SOL     OW29746   4.249   4.040   0.662
 9616SOL    HW129747   4.221   3.950   0.628
 9616SOL    HW229748   4.288   4.094   0.587
 9617SOL     OW29749   1.103   3.735   4.450
 9617SOL    HW129750   1.165   3.807   4.479
 9617SOL    HW229751   1.087   3.742   4.352
 9618SOL     OW29752   4.914   0.118   6.045
 9618SOL    HW129753   5.009   0.105   6.015
 9618SOL    HW229754   4.884   0.210   6.020
 9619SOL     OW29755   1.245   0.331   0.640
 9619SOL    HW129756   1.316   0.326   0.710
 9619SOL    HW229757   1.155   0.337   0.684
 9620SOL     OW29758   5.563   1.716   6.373
 9620SOL    HW129759   5.472   1.756   6.369
 9620SOL    HW229760   5.632   1.788   6.372
 9621SOL     OW29761   1.598   1.249   2.881
 9621SOL    HW129762   1.628   1.343   2.899
 9621SOL    HW229763   1.502   1.239   2.906
 9622SOL     OW29764   6.032   1.159   6.693
 9622SOL    HW129765   6.016   1.253   6.665
 9622SOL    HW229766   6.075   1.108   6.619
 9623SOL     OW29767   4.437   5.434   5.487
 9623SOL    HW129768   4.413   5.489   5.407
 9623SOL    HW229769   4.440   5.492   5.568
 9624SOL     OW29770   5.217   4.249   3.908
 9624SOL    HW129771   5.314   4.232   3.923
 9624SOL    HW229772   5.175   4.169   3.865
 9625SOL     OW29773   5.252   4.713   6.804
 9625SOL    HW129774   5.330   4.693   6.745
 9625SOL    HW229775   5.255   4.654   6.884
 9626SOL     OW29776   2.287   5.797   5.549
 9626SOL    HW129777   2.244   5.828   5.633
 9626SOL    HW229778   2.328   5.875   5.501
 9627SOL     OW29779   6.983   3.895   4.728
 9627SOL    HW129780   6.899   3.843   4.736
 9627SOL    HW229781   0.019   3.881   4.809
 9628SOL     OW29782   6.308   4.314   0.508
 9628SOL    HW129783   6.404   4.297   0.484
 9628SOL    HW229784   6.298   4.409   0.537
 9629SOL     OW29785   6.871   5.511   2.390
 9629SOL    HW129786   6.943   5.579   2.407
 9629SOL    HW229787   6.909   5.435   2.337
 9630SOL     OW29788   6.377   6.482   5.554
 9630SOL    HW129789   6.455   6.488   5.617
 9630SOL    HW229790   6.406   6.508   5.462
 9631SOL     OW29791   4.818   2.102   0.773
 9631SOL    HW129792   4.899   2.061   0.729
 9631SOL    HW229793   4.738   2.044   0.755
 9632SOL     OW29794   2.400   5.485   1.862
 9632SOL    HW129795   2.451   5.399   1.866
 9632SOL    HW229796   2.355   5.502   1.950
 9633SOL     OW29797   3.695   4.415   0.361
 9633SOL    HW129798   3.721   4.375   0.273
 9633SOL    HW229799   3.759   4.489   0.384
 9634SOL     OW29800   0.165   5.798   3.457
 9634SOL    HW129801   0.101   5.721   3.460
 9634SOL    HW229802   0.179   5.826   3.362
 9635SOL     OW29803   2.069   4.130   5.367
 9635SOL    HW129804   2.159   4.145   5.325
 9635SOL    HW229805   2.000   4.126   5.295
 9636SOL     OW29806   4.484   1.794   5.886
 9636SOL    HW129807   4.502   1.724   5.817
 9636SOL    HW229808   4.564   1.805   5.944
 9637SOL     OW29809   3.815   2.562   0.859
 9637SOL    HW129810   3.834   2.586   0.764
 9637SOL    HW229811   3.718   2.540   0.870
 9638SOL     OW29812   0.259   3.212   5.704
 9638SOL    HW129813   0.348   3.252   5.682
 9638SOL    HW229814   0.266   3.162   5.791
 9639SOL     OW29815   4.099   2.224   1.958
 9639SOL    HW129816   4.150   2.255   2.037
 9639SOL    HW229817   4.026   2.162   1.987
 9640SOL     OW29818   3.184   0.466   2.872
 9640SOL    HW129819   3.236   0.542   2.911
 9640SOL    HW229820   3.094   0.461   2.915
 9641SOL     OW29821   5.523   5.484   1.897
 9641SOL    HW129822   5.572   5.480   1.810
 9641SOL    HW229823   5.580   5.530   1.966
 9642SOL     OW29824   1.144   5.941   4.453
 9642SOL    HW129825   1.196   5.978   4.376
 9642SOL    HW229826   1.116   6.016   4.513
 9643SOL     OW29827   5.186   4.233   3.346
 9643SOL    HW129828   5.243   4.178   3.408
 9643SOL    HW229829   5.203   4.204   3.252
 9644SOL     OW29830   0.760   5.855   5.686
 9644SOL    HW129831   0.727   5.806   5.605
 9644SOL    HW229832   0.689   5.918   5.717
 9645SOL     OW29833   2.698   4.647   4.058
 9645SOL    HW129834   2.611   4.631   4.105
 9645SOL    HW229835   2.722   4.565   4.005
 9646SOL     OW29836   2.503   5.265   2.003
 9646SOL    HW129837   2.565   5.330   2.048
 9646SOL    HW229838   2.539   5.173   2.012
 9647SOL     OW29839   0.260   6.610   2.923
 9647SOL    HW129840   0.275   6.703   2.958
 9647SOL    HW229841   0.341   6.554   2.941
 9648SOL     OW29842   3.852   2.773   6.747
 9648SOL    HW129843   3.756   2.800   6.738
 9648SOL    HW229844   3.858   2.689   6.802
 9649SOL     OW29845   1.879   4.138   0.053
 9649SOL    HW129846   1.803   4.202   0.056
 9649SOL    HW229847   1.880   4.091   6.986
 9650SOL     OW29848   5.027   4.771   3.082
 9650SOL    HW129849   5.002   4.745   2.989
 9650SOL    HW229850   5.002   4.866   3.099
 9651SOL     OW29851   5.335   1.137   0.949
 9651SOL    HW129852   5.324   1.058   1.010
 9651SOL    HW229853   5.319   1.221   1.001
 9652SOL     OW29854   0.820   4.685   1.865
 9652SOL    HW129855   0.849   4.778   1.839
 9652SOL    HW229856   0.883   4.618   1.826
 9653SOL     OW29857   4.427   5.013   4.559
 9653SOL    HW129858   4.481   4.964   4.628
 9653SOL    HW229859   4.453   4.983   4.468
 9654SOL     OW29860   2.953   3.214   2.887
 9654SOL    HW129861   2.934   3.171   2.798
 9654SOL    HW229862   2.930   3.311   2.882
 9655SOL     OW29863   0.145   1.910   0.329
 9655SOL    HW129864   0.069   1.850   0.353
 9655SOL    HW229865   0.110   1.990   0.281
 9656SOL     OW29866   4.154   3.001   1.428
 9656SOL    HW129867   4.148   2.905   1.454
 9656SOL    HW229868   4.109   3.057   1.498
 9657SOL     OW29869   5.466   3.253   2.378
 9657SOL    HW129870   5.498   3.244   2.283
 9657SOL    HW229871   5.521   3.321   2.426
 9658SOL     OW29872   5.508   1.544   2.476
 9658SOL    HW129873   5.421   1.495   2.479
 9658SOL    HW229874   5.571   1.505   2.544
 9659SOL     OW29875   0.427   3.364   6.892
 9659SOL    HW129876   0.434   3.271   6.928
 9659SOL    HW229877   0.404   3.427   6.966
 9660SOL     OW29878   0.657   6.646   2.840
 9660SOL    HW129879   0.627   6.569   2.897
 9660SOL    HW229880   0.622   6.633   2.747
 9661SOL     OW29881   3.649   6.225   1.713
 9661SOL    HW129882   3.651   6.128   1.737
 9661SOL    HW229883   3.600   6.276   1.783
 9662SOL     OW29884   4.272   2.956   6.230
 9662SOL    HW129885   4.200   3.026   6.232
 9662SOL    HW229886   4.361   2.999   6.235
 9663SOL     OW29887   0.126   5.950   2.522
 9663SOL    HW129888   0.088   5.959   2.614
 9663SOL    HW229889   0.084   6.018   2.462
 9664SOL     OW29890   5.781   5.438   4.343
 9664SOL    HW129891   5.747   5.523   4.383
 9664SOL    HW229892   5.704   5.378   4.321
 9665SOL     OW29893   5.943   6.444   6.378
 9665SOL    HW129894   5.960   6.527   6.431
 9665SOL    HW229895   6.011   6.375   6.403
 9666SOL     OW29896   6.493   4.067   2.022
 9666SOL    HW129897   6.590   4.080   2.043
 9666SOL    HW229898   6.438   4.104   2.096
 9667SOL     OW29899   4.191   3.712   0.203
 9667SOL    HW129900   4.184   3.618   0.168
 9667SOL    HW229901   4.100   3.752   0.210
 9668SOL     OW29902   0.492   0.646   6.287
 9668SOL    HW129903   0.446   0.556   6.287
 9668SOL    HW229904   0.480   0.689   6.377
 9669SOL     OW29905   1.951   6.991   1.705
 9669SOL    HW129906   1.969   6.895   1.728
 9669SOL    HW229907   1.854   7.010   1.715
 9670SOL     OW29908   0.083   4.799   5.963
 9670SOL    HW129909   0.163   4.745   5.936
 9670SOL    HW229910   0.112   4.889   5.993
 9671SOL     OW29911   0.053   4.437   0.346
 9671SOL    HW129912   0.026   4.384   0.266
 9671SOL    HW229913   6.996   4.489   0.380
 9672SOL     OW29914   1.701   5.342   3.355
 9672SOL    HW129915   1.618   5.379   3.313
 9672SOL    HW229916   1.682   5.318   3.450
 9673SOL     OW29917   4.094   4.003   1.437
 9673SOL    HW129918   4.000   3.995   1.404
 9673SOL    HW229919   4.094   4.022   1.535
 9674SOL     OW29920   3.238   6.811   3.340
 9674SOL    HW129921   3.299   6.883   3.372
 9674SOL    HW229922   3.258   6.789   3.245
 9675SOL     OW29923   5.504   2.336   6.218
 9675SOL    HW129924   5.551   2.403   6.161
 9675SOL    HW229925   5.408   2.362   6.228
 9676SOL     OW29926   1.117   3.165   6.129
 9676SOL    HW129927   1.157   3.211   6.050
 9676SOL    HW229928   1.025   3.201   6.145
 9677SOL     OW29929   6.599   5.551   4.623
 9677SOL    HW129930   6.553   5.529   4.537
 9677SOL    HW229931   6.557   5.633   4.663
 9678SOL     OW29932   3.030   3.918   3.933
 9678SOL    HW129933   3.067   3.844   3.988
 9678SOL    HW229934   3.010   3.884   3.841
 9679SOL     OW29935   2.785   0.282   3.496
 9679SOL    HW129936   2.694   0.293   3.536
 9679SOL    HW229937   2.806   0.184   3.488
 9680SOL     OW29938   4.004   0.965   3.464
 9680SOL    HW129939   4.087   0.999   3.420
 9680SOL    HW229940   3.932   1.034   3.458
 9681SOL     OW29941   2.725   1.735   0.477
 9681SOL    HW129942   2.633   1.720   0.441
 9681SOL    HW229943   2.788   1.668   0.436
 9682SOL     OW29944   4.899   4.406   3.354
 9682SOL    HW129945   4.906   4.500   3.389
 9682SOL    HW229946   4.866   4.408   3.260
 9683SOL     OW29947   3.312   6.453   1.702
 9683SOL    HW129948   3.246   6.516   1.744
 9683SOL    HW229949   3.313   6.367   1.753
 9684SOL     OW29950   0.976   3.289   6.314
 9684SOL    HW129951   0.899   3.320   6.370
 9684SOL    HW229952   1.059   3.338   6.342
 9685SOL     OW29953   4.413   4.355   0.481
 9685SOL    HW129954   4.392   4.436   0.536
 9685SOL    HW229955   4.479   4.298   0.531
 9686SOL     OW29956   0.716   3.308   6.519
 9686SOL    HW129957   0.725   3.209   6.513
 9686SOL    HW229958   0.731   3.337   6.614
 9687SOL     OW29959   0.975   0.798   4.100
 9687SOL    HW129960   1.035   0.765   4.027
 9687SOL    HW229961   0.943   0.721   4.155
 9688SOL     OW29962   1.449   2.825   1.184
 9688SOL    HW129963   1.480   2.888   1.112
 9688SOL    HW229964   1.425   2.877   1.266
 9689SOL     OW29965   0.892   4.593   6.474
 9689SOL    HW129966   0.889   4.678   6.421
 9689SOL    HW229967   0.987   4.561   6.478
 9690SOL     OW29968   6.161   5.836   6.824
 9690SOL    HW129969   6.095   5.802   6.891
 9690SOL    HW229970   6.173   5.768   6.751
 9691SOL     OW29971   3.412   5.049   1.267
 9691SOL    HW129972   3.506   5.048   1.301
 9691SOL    HW229973   3.399   4.972   1.204
 9692SOL     OW29974   3.872   5.970   1.971
 9692SOL    HW129975   3.940   5.899   1.951
 9692SOL    HW229976   3.917   6.050   2.010
 9693SOL     OW29977   5.500   3.808   2.662
 9693SOL    HW129978   5.552   3.879   2.613
 9693SOL    HW229979   5.530   3.718   2.632
 9694SOL     OW29980   3.124   1.300   1.692
 9694SOL    HW129981   3.175   1.383   1.715
 9694SOL    HW229982   3.097   1.254   1.777
 9695SOL     OW29983   0.127   2.846   3.272
 9695SOL    HW129984   0.149   2.943   3.264
 9695SOL    HW229985   0.043   2.826   3.222
 9696SOL     OW29986   5.436   2.708   1.107
 9696SOL    HW129987   5.477   2.782   1.159
 9696SOL    HW229988   5.400   2.639   1.170
 9697SOL     OW29989   0.261   5.124   0.253
 9697SOL    HW129990   0.352   5.121   0.210
 9697SOL    HW229991   0.191   5.109   0.183
 9698SOL     OW29992   5.259   2.251   5.963
 9698SOL    HW129993   5.174   2.203   5.943
 9698SOL    HW229994   5.241   2.331   6.019
 9699SOL     OW29995   6.331   6.351   6.498
 9699SOL    HW129996   6.376   6.436   6.469
 9699SOL    HW229997   6.388   6.273   6.471
 9700SOL     OW29998   4.934   5.707   4.937
 9700SOL    HW129999   4.919   5.730   4.841
 9700SOL    HW230000   4.852   5.727   4.990
 9701SOL     OW30001   4.324   5.241   5.342
 9701SOL    HW130002   4.375   5.311   5.392
 9701SOL    HW230003   4.251   5.284   5.289
 9702SOL     OW30004   4.189   1.311   6.673
 9702SOL    HW130005   4.155   1.308   6.767
 9702SOL    HW230006   4.289   1.309   6.673
 9703SOL     OW30007   5.032   3.964   3.528
 9703SOL    HW130008   4.941   3.995   3.501
 9703SOL    HW230009   5.081   3.930   3.448
 9704SOL     OW30010   3.522   6.627   1.737
 9704SOL    HW130011   3.465   6.693   1.786
 9704SOL    HW230012   3.462   6.557   1.696
 9705SOL     OW30013   5.627   3.869   5.976
 9705SOL    HW130014   5.696   3.941   5.976
 9705SOL    HW230015   5.586   3.861   5.885
 9706SOL     OW30016   2.016   2.700   0.929
 9706SOL    HW130017   2.039   2.798   0.928
 9706SOL    HW230018   2.084   2.649   0.879
 9707SOL     OW30019   6.512   4.232   2.252
 9707SOL    HW130020   6.594   4.228   2.308
 9707SOL    HW230021   6.498   4.325   2.219
 9708SOL     OW30022   1.256   1.899   3.647
 9708SOL    HW130023   1.328   1.966   3.660
 9708SOL    HW230024   1.228   1.861   3.735
 9709SOL     OW30025   5.476   6.291   2.978
 9709SOL    HW130026   5.497   6.194   2.987
 9709SOL    HW230027   5.562   6.342   2.969
 9710SOL     OW30028   0.038   1.776   1.416
 9710SOL    HW130029   0.093   1.841   1.363
 9710SOL    HW230030   6.970   1.764   1.372
 9711SOL     OW30031   3.730   5.342   5.877
 9711SOL    HW130032   3.804   5.401   5.910
 9711SOL    HW230033   3.675   5.392   5.810
 9712SOL     OW30034   5.564   4.024   6.741
 9712SOL    HW130035   5.542   4.069   6.654
 9712SOL    HW230036   5.555   3.925   6.730
 9713SOL     OW30037   1.478   4.231   3.343
 9713SOL    HW130038   1.398   4.290   3.333
 9713SOL    HW230039   1.449   4.140   3.374
 9714SOL     OW30040   4.301   6.288   6.428
 9714SOL    HW130041   4.349   6.200   6.429
 9714SOL    HW230042   4.263   6.307   6.518
 9715SOL     OW30043   5.874   4.166   0.090
 9715SOL    HW130044   5.968   4.196   0.104
 9715SOL    HW230045   5.864   4.132   7.017
 9716SOL     OW30046   4.079   4.585   6.558
 9716SOL    HW130047   4.045   4.568   6.465
 9716SOL    HW230048   4.161   4.642   6.553
 9717SOL     OW30049   5.103   6.475   6.142
 9717SOL    HW130050   5.058   6.549   6.091
 9717SOL    HW230051   5.086   6.388   6.096
 9718SOL     OW30052   5.297   3.449   0.555
 9718SOL    HW130053   5.286   3.389   0.635
 9718SOL    HW230054   5.329   3.539   0.584
 9719SOL     OW30055   6.503   0.727   6.135
 9719SOL    HW130056   6.564   0.650   6.117
 9719SOL    HW230057   6.517   0.760   6.228
 9720SOL     OW30058   0.480   5.012   2.281
 9720SOL    HW130059   0.472   4.925   2.231
 9720SOL    HW230060   0.462   5.088   2.219
 9721SOL     OW30061   0.444   2.030   0.626
 9721SOL    HW130062   0.421   2.074   0.713
 9721SOL    HW230063   0.541   2.044   0.607
 9722SOL     OW30064   4.323   1.271   4.348
 9722SOL    HW130065   4.319   1.362   4.305
 9722SOL    HW230066   4.411   1.259   4.393
 9723SOL     OW30067   3.284   6.816   3.086
 9723SOL    HW130068   3.221   6.796   3.010
 9723SOL    HW230069   3.376   6.788   3.061
 9724SOL     OW30070   1.593   4.982   0.049
 9724SOL    HW130071   1.503   5.018   0.023
 9724SOL    HW230072   1.620   5.021   0.137
 9725SOL     OW30073   5.200   5.569   5.726
 9725SOL    HW130074   5.243   5.550   5.638
 9725SOL    HW230075   5.163   5.662   5.727
 9726SOL     OW30076   5.230   1.498   3.679
 9726SOL    HW130077   5.211   1.596   3.679
 9726SOL    HW230078   5.239   1.465   3.773
 9727SOL     OW30079   1.046   2.435   0.088
 9727SOL    HW130080   1.010   2.518   0.131
 9727SOL    HW230081   1.140   2.452   0.056
 9728SOL     OW30082   1.243   0.353   5.506
 9728SOL    HW130083   1.240   0.258   5.476
 9728SOL    HW230084   1.292   0.408   5.438
 9729SOL     OW30085   1.215   4.305   3.076
 9729SOL    HW130086   1.286   4.375   3.066
 9729SOL    HW230087   1.130   4.338   3.035
 9730SOL     OW30088   1.725   4.045   3.692
 9730SOL    HW130089   1.726   4.108   3.614
 9730SOL    HW230090   1.756   4.093   3.774
 9731SOL     OW30091   5.407   4.606   1.013
 9731SOL    HW130092   5.334   4.599   1.081
 9731SOL    HW230093   5.455   4.518   1.006
 9732SOL     OW30094   6.970   5.104   2.451
 9732SOL    HW130095   6.884   5.144   2.484
 9732SOL    HW230096   7.019   5.063   2.528
 9733SOL     OW30097   5.255   5.486   0.060
 9733SOL    HW130098   5.165   5.449   0.035
 9733SOL    HW230099   5.242   5.568   0.115
 9734SOL     OW30100   6.411   1.823   0.839
 9734SOL    HW130101   6.483   1.757   0.818
 9734SOL    HW230102   6.451   1.900   0.889
 9735SOL     OW30103   2.120   3.473   3.737
 9735SOL    HW130104   2.192   3.542   3.740
 9735SOL    HW230105   2.044   3.506   3.680
 9736SOL     OW30106   5.900   1.782   6.038
 9736SOL    HW130107   5.911   1.873   5.998
 9736SOL    HW230108   5.953   1.777   6.123
 9737SOL     OW30109   5.738   2.786   3.272
 9737SOL    HW130110   5.705   2.822   3.185
 9737SOL    HW230111   5.705   2.692   3.284
 9738SOL     OW30112   2.425   0.280   0.209
 9738SOL    HW130113   2.474   0.361   0.241
 9738SOL    HW230114   2.333   0.307   0.180
 9739SOL     OW30115   5.512   5.444   1.405
 9739SOL    HW130116   5.582   5.419   1.338
 9739SOL    HW230117   5.546   5.426   1.497
 9740SOL     OW30118   6.822   1.109   3.360
 9740SOL    HW130119   6.863   1.164   3.287
 9740SOL    HW230120   6.867   1.020   3.364
 9741SOL     OW30121   3.685   2.048   2.380
 9741SOL    HW130122   3.659   2.051   2.283
 9741SOL    HW230123   3.758   1.981   2.393
 9742SOL     OW30124   4.492   1.416   0.866
 9742SOL    HW130125   4.585   1.402   0.899
 9742SOL    HW230126   4.427   1.378   0.933
 9743SOL     OW30127   6.695   3.028   4.587
 9743SOL    HW130128   6.595   3.022   4.583
 9743SOL    HW230129   6.724   3.024   4.682
 9744SOL     OW30130   2.049   6.859   2.224
 9744SOL    HW130131   1.974   6.918   2.254
 9744SOL    HW230132   2.126   6.869   2.286
 9745SOL     OW30133   5.229   2.418   6.218
 9745SOL    HW130134   5.177   2.333   6.231
 9745SOL    HW230135   5.211   2.479   6.295
 9746SOL     OW30136   6.083   0.049   5.625
 9746SOL    HW130137   6.139   0.105   5.686
 9746SOL    HW230138   6.125   6.979   5.617
 9747SOL     OW30139   2.736   1.060   1.588
 9747SOL    HW130140   2.715   0.977   1.639
 9747SOL    HW230141   2.660   1.125   1.595
 9748SOL     OW30142   0.105   0.540   3.450
 9748SOL    HW130143   0.078   0.619   3.395
 9748SOL    HW230144   0.030   0.474   3.453
 9749SOL     OW30145   2.232   6.960   4.320
 9749SOL    HW130146   2.225   0.021   4.262
 9749SOL    HW230147   2.308   6.971   4.384
 9750SOL     OW30148   5.887   3.838   3.535
 9750SOL    HW130149   5.837   3.875   3.456
 9750SOL    HW230150   5.891   3.739   3.528
 9751SOL     OW30151   2.359   0.991   0.231
 9751SOL    HW130152   2.272   0.981   0.281
 9751SOL    HW230153   2.374   0.910   0.174
 9752SOL     OW30154   4.022   2.208   4.826
 9752SOL    HW130155   4.038   2.185   4.730
 9752SOL    HW230156   4.076   2.288   4.851
 9753SOL     OW30157   6.785   5.340   6.269
 9753SOL    HW130158   6.748   5.256   6.231
 9753SOL    HW230159   6.847   5.382   6.203
 9754SOL     OW30160   1.956   0.570   0.161
 9754SOL    HW130161   2.027   0.640   0.160
 9754SOL    HW230162   1.898   0.583   0.241
 9755SOL     OW30163   3.497   3.693   4.375
 9755SOL    HW130164   3.543   3.657   4.294
 9755SOL    HW230165   3.565   3.728   4.439
 9756SOL     OW30166   5.647   3.356   0.203
 9756SOL    HW130167   5.638   3.292   0.280
 9756SOL    HW230168   5.557   3.371   0.162
 9757SOL     OW30169   5.990   4.381   4.128
 9757SOL    HW130170   5.916   4.381   4.061
 9757SOL    HW230171   5.988   4.467   4.179
 9758SOL     OW30172   3.126   0.387   6.608
 9758SOL    HW130173   3.218   0.396   6.568
 9758SOL    HW230174   3.087   0.478   6.620
 9759SOL     OW30175   1.256   0.286   0.177
 9759SOL    HW130176   1.217   0.333   0.256
 9759SOL    HW230177   1.209   0.199   0.164
 9760SOL     OW30178   4.989   2.956   5.664
 9760SOL    HW130179   5.039   2.995   5.587
 9760SOL    HW230180   4.925   2.886   5.630
 9761SOL     OW30181   6.997   1.430   2.215
 9761SOL    HW130182   0.073   1.409   2.226
 9761SOL    HW230183   6.946   1.389   2.291
 9762SOL     OW30184   3.167   1.822   4.546
 9762SOL    HW130185   3.194   1.917   4.530
 9762SOL    HW230186   3.229   1.780   4.612
 9763SOL     OW30187   4.864   1.876   2.590
 9763SOL    HW130188   4.882   1.841   2.498
 9763SOL    HW230189   4.927   1.833   2.655
 9764SOL     OW30190   0.403   2.878   3.114
 9764SOL    HW130191   0.388   2.862   3.211
 9764SOL    HW230192   0.314   2.881   3.067
 9765SOL     OW30193   6.821   0.167   3.259
 9765SOL    HW130194   6.770   0.109   3.196
 9765SOL    HW230195   6.786   0.154   3.352
 9766SOL     OW30196   2.860   6.860   2.060
 9766SOL    HW130197   2.834   6.846   1.965
 9766SOL    HW230198   2.787   6.828   2.120
 9767SOL     OW30199   4.005   1.370   5.483
 9767SOL    HW130200   3.931   1.431   5.509
 9767SOL    HW230201   4.093   1.414   5.503
 9768SOL     OW30202   5.731   1.667   2.300
 9768SOL    HW130203   5.649   1.626   2.341
 9768SOL    HW230204   5.811   1.638   2.351
 9769SOL     OW30205   3.986   1.283   3.565
 9769SOL    HW130206   4.046   1.292   3.486
 9769SOL    HW230207   3.894   1.314   3.540
 9770SOL     OW30208   4.600   1.506   6.178
 9770SOL    HW130209   4.502   1.507   6.197
 9770SOL    HW230210   4.626   1.590   6.131
 9771SOL     OW30211   2.884   6.302   0.237
 9771SOL    HW130212   2.897   6.334   0.143
 9771SOL    HW230213   2.873   6.381   0.298
 9772SOL     OW30214   2.184   6.159   1.467
 9772SOL    HW130215   2.170   6.253   1.500
 9772SOL    HW230216   2.109   6.134   1.405
 9773SOL     OW30217   4.983   5.655   3.669
 9773SOL    HW130218   4.951   5.582   3.730
 9773SOL    HW230219   5.078   5.637   3.644
 9774SOL     OW30220   0.382   5.257   1.819
 9774SOL    HW130221   0.311   5.235   1.885
 9774SOL    HW230222   0.420   5.173   1.781
 9775SOL     OW30223   2.542   0.550   3.127
 9775SOL    HW130224   2.544   0.638   3.175
 9775SOL    HW230225   2.635   0.514   3.118
 9776SOL     OW30226   1.163   5.046   4.980
 9776SOL    HW130227   1.255   5.065   5.016
 9776SOL    HW230228   1.095   5.073   5.048
 9777SOL     OW30229   6.472   6.081   6.931
 9777SOL    HW130230   6.373   6.068   6.928
 9777SOL    HW230231   6.504   6.116   6.842
 9778SOL     OW30232   0.293   0.833   4.170
 9778SOL    HW130233   0.281   0.780   4.087
 9778SOL    HW230234   0.360   0.906   4.155
 9779SOL     OW30235   1.358   1.411   4.388
 9779SOL    HW130236   1.337   1.457   4.301
 9779SOL    HW230237   1.314   1.321   4.389
 9780SOL     OW30238   2.021   2.447   1.082
 9780SOL    HW130239   2.020   2.538   1.042
 9780SOL    HW230240   1.970   2.448   1.168
 9781SOL     OW30241   2.162   3.405   4.576
 9781SOL    HW130242   2.092   3.343   4.611
 9781SOL    HW230243   2.177   3.479   4.642
 9782SOL     OW30244   6.993   0.765   1.363
 9782SOL    HW130245   6.990   0.749   1.264
 9782SOL    HW230246   6.909   0.809   1.392
 9783SOL     OW30247   4.005   2.073   2.879
 9783SOL    HW130248   3.920   2.083   2.827
 9783SOL    HW230249   4.066   2.009   2.831
 9784SOL     OW30250   3.027   1.681   4.882
 9784SOL    HW130251   3.065   1.739   4.954
 9784SOL    HW230252   2.930   1.701   4.870
 9785SOL     OW30253   1.034   2.519   6.597
 9785SOL    HW130254   1.086   2.499   6.514
 9785SOL    HW230255   0.936   2.514   6.577
 9786SOL     OW30256   2.451   3.976   0.450
 9786SOL    HW130257   2.355   4.001   0.438
 9786SOL    HW230258   2.509   4.056   0.432
 9787SOL     OW30259   3.772   4.078   2.206
 9787SOL    HW130260   3.689   4.097   2.155
 9787SOL    HW230261   3.824   4.163   2.218
 9788SOL     OW30262   0.803   0.999   3.685
 9788SOL    HW130263   0.846   1.015   3.596
 9788SOL    HW230264   0.707   0.973   3.672
 9789SOL     OW30265   1.942   5.587   0.614
 9789SOL    HW130266   1.917   5.649   0.689
 9789SOL    HW230267   1.999   5.636   0.548
 9790SOL     OW30268   6.508   4.547   6.867
 9790SOL    HW130269   6.594   4.598   6.860
 9790SOL    HW230270   6.432   4.610   6.875
 9791SOL     OW30271   0.114   1.016   1.421
 9791SOL    HW130272   0.188   1.018   1.488
 9791SOL    HW230273   0.111   0.926   1.379
 9792SOL     OW30274   4.111   4.722   0.380
 9792SOL    HW130275   4.194   4.730   0.436
 9792SOL    HW230276   4.085   4.812   0.346
 9793SOL     OW30277   4.341   6.462   3.055
 9793SOL    HW130278   4.333   6.521   3.136
 9793SOL    HW230279   4.381   6.514   2.980
 9794SOL     OW30280   6.911   4.239   0.034
 9794SOL    HW130281   6.907   4.222   6.957
 9794SOL    HW230282   7.006   4.250   0.062
 9795SOL     OW30283   1.895   1.978   4.463
 9795SOL    HW130284   1.990   1.963   4.437
 9795SOL    HW230285   1.857   2.054   4.410
 9796SOL     OW30286   3.238   2.889   2.153
 9796SOL    HW130287   3.234   2.803   2.102
 9796SOL    HW230288   3.175   2.955   2.113
 9797SOL     OW30289   2.104   5.475   7.012
 9797SOL    HW130290   2.166   5.459   0.067
 9797SOL    HW230291   2.009   5.472   0.024
 9798SOL     OW30292   2.580   0.335   1.878
 9798SOL    HW130293   2.674   0.328   1.842
 9798SOL    HW230294   2.561   0.255   1.935
 9799SOL     OW30295   2.946   3.191   5.086
 9799SOL    HW130296   2.966   3.155   5.177
 9799SOL    HW230297   2.898   3.122   5.032
 9800SOL     OW30298   3.922   5.201   4.638
 9800SOL    HW130299   3.844   5.143   4.617
 9800SOL    HW230300   4.006   5.158   4.605
 9801SOL     OW30301   4.676   4.239   6.915
 9801SOL    HW130302   4.689   4.139   6.912
 9801SOL    HW230303   4.698   4.278   6.826
 9802SOL     OW30304   0.040   4.016   1.278
 9802SOL    HW130305   6.970   4.048   1.302
 9802SOL    HW230306   0.038   3.974   1.187
 9803SOL     OW30307   0.970   2.338   6.863
 9803SOL    HW130308   1.004   2.362   6.954
 9803SOL    HW230309   0.967   2.420   6.805
 9804SOL     OW30310   1.841   6.206   2.973
 9804SOL    HW130311   1.869   6.111   2.984
 9804SOL    HW230312   1.915   6.266   3.000
 9805SOL     OW30313   1.444   6.628   3.925
 9805SOL    HW130314   1.402   6.554   3.874
 9805SOL    HW230315   1.500   6.590   3.999
 9806SOL     OW30316   1.186   0.954   6.661
 9806SOL    HW130317   1.175   1.044   6.620
 9806SOL    HW230318   1.105   0.899   6.642
 9807SOL     OW30319   3.179   4.407   0.088
 9807SOL    HW130320   3.189   4.342   0.012
 9807SOL    HW230321   3.262   4.405   0.143
 9808SOL     OW30322   3.935   0.178   5.277
 9808SOL    HW130323   3.876   0.238   5.331
 9808SOL    HW230324   3.894   0.161   5.188
 9809SOL     OW30325   1.357   2.587   6.437
 9809SOL    HW130326   1.276   2.531   6.420
 9809SOL    HW230327   1.395   2.619   6.349
 9810SOL     OW30328   2.152   2.587   3.726
 9810SOL    HW130329   2.183   2.582   3.631
 9810SOL    HW230330   2.230   2.579   3.788
 9811SOL     OW30331   5.506   4.522   3.304
 9811SOL    HW130332   5.426   4.513   3.363
 9811SOL    HW230333   5.494   4.464   3.223
 9812SOL     OW30334   3.540   2.616   5.860
 9812SOL    HW130335   3.549   2.521   5.830
 9812SOL    HW230336   3.470   2.661   5.804
 9813SOL     OW30337   5.480   1.574   0.617
 9813SOL    HW130338   5.437   1.491   0.653
 9813SOL    HW230339   5.409   1.642   0.597
 9814SOL     OW30340   0.136   0.009   0.338
 9814SOL    HW130341   0.148   0.102   0.373
 9814SOL    HW230342   0.100   0.014   0.244
 9815SOL     OW30343   5.358   4.142   3.535
 9815SOL    HW130344   5.369   4.064   3.597
 9815SOL    HW230345   5.367   4.227   3.586
 9816SOL     OW30346   0.657   1.144   6.427
 9816SOL    HW130347   0.669   1.216   6.358
 9816SOL    HW230348   0.584   1.170   6.489
 9817SOL     OW30349   3.086   0.163   3.095
 9817SOL    HW130350   3.136   0.181   3.179
 9817SOL    HW230351   3.003   0.111   3.116
 9818SOL     OW30352   1.545   0.743   4.669
 9818SOL    HW130353   1.540   0.647   4.698
 9818SOL    HW230354   1.588   0.797   4.741
 9819SOL     OW30355   4.876   3.110   3.908
 9819SOL    HW130356   4.862   3.206   3.883
 9819SOL    HW230357   4.878   3.102   4.008
 9820SOL     OW30358   4.167   3.072   6.760
 9820SOL    HW130359   4.190   3.069   6.663
 9820SOL    HW230360   4.199   2.988   6.804
 9821SOL     OW30361   5.093   0.715   6.928
 9821SOL    HW130362   5.160   0.648   6.897
 9821SOL    HW230363   5.077   0.702   0.005
 9822SOL     OW30364   3.038   5.843   3.548
 9822SOL    HW130365   2.953   5.838   3.496
 9822SOL    HW230366   3.024   5.898   3.630
 9823SOL     OW30367   2.411   1.265   6.634
 9823SOL    HW130368   2.394   1.281   6.731
 9823SOL    HW230369   2.506   1.290   6.613
 9824SOL     OW30370   2.049   4.832   4.489
 9824SOL    HW130371   2.004   4.751   4.450
 9824SOL    HW230372   2.134   4.804   4.533
 9825SOL     OW30373   4.876   5.822   4.393
 9825SOL    HW130374   4.856   5.822   4.491
 9825SOL    HW230375   4.806   5.770   4.345
 9826SOL     OW30376   4.535   5.226   5.695
 9826SOL    HW130377   4.551   5.295   5.625
 9826SOL    HW230378   4.620   5.177   5.713
 9827SOL     OW30379   1.870   3.714   3.996
 9827SOL    HW130380   1.772   3.731   4.012
 9827SOL    HW230381   1.905   3.783   3.933
 9828SOL     OW30382   2.195   2.168   5.117
 9828SOL    HW130383   2.098   2.172   5.144
 9828SOL    HW230384   2.251   2.198   5.194
 9829SOL     OW30385   4.382   5.332   5.908
 9829SOL    HW130386   4.430   5.299   5.989
 9829SOL    HW230387   4.431   5.302   5.826
 9830SOL     OW30388   4.813   2.404   1.983
 9830SOL    HW130389   4.778   2.377   2.072
 9830SOL    HW230390   4.847   2.498   1.988
 9831SOL     OW30391   1.799   5.087   1.904
 9831SOL    HW130392   1.873   5.046   1.957
 9831SOL    HW230393   1.767   5.020   1.836
 9832SOL     OW30394   5.234   5.580   2.355
 9832SOL    HW130395   5.244   5.592   2.453
 9832SOL    HW230396   5.186   5.494   2.335
 9833SOL     OW30397   2.949   3.514   4.739
 9833SOL    HW130398   2.980   3.473   4.824
 9833SOL    HW230399   2.939   3.442   4.669
 9834SOL     OW30400   2.321   4.173   5.278
 9834SOL    HW130401   2.361   4.260   5.249
 9834SOL    HW230402   2.378   4.098   5.248
 9835SOL     OW30403   4.144   3.248   5.258
 9835SOL    HW130404   4.243   3.255   5.266
 9835SOL    HW230405   4.118   3.151   5.255
 9836SOL     OW30406   6.723   4.253   3.540
 9836SOL    HW130407   6.654   4.224   3.606
 9836SOL    HW230408   6.814   4.237   3.578
 9837SOL     OW30409   3.664   0.350   2.482
 9837SOL    HW130410   3.601   0.416   2.440
 9837SOL    HW230411   3.639   0.258   2.452
 9838SOL     OW30412   1.623   6.767   0.578
 9838SOL    HW130413   1.709   6.758   0.627
 9838SOL    HW230414   1.639   6.758   0.480
 9839SOL     OW30415   5.204   0.125   3.726
 9839SOL    HW130416   5.204   0.215   3.767
 9839SOL    HW230417   5.150   0.126   3.642
 9840SOL     OW30418   5.391   1.873   0.955
 9840SOL    HW130419   5.490   1.867   0.948
 9840SOL    HW230420   5.355   1.921   0.875
 9841SOL     OW30421   1.467   4.598   4.887
 9841SOL    HW130422   1.449   4.688   4.925
 9841SOL    HW230423   1.422   4.528   4.942
 9842SOL     OW30424   3.256   3.253   1.944
 9842SOL    HW130425   3.186   3.325   1.951
 9842SOL    HW230426   3.347   3.294   1.950
 9843SOL     OW30427   6.438   0.502   1.771
 9843SOL    HW130428   6.503   0.577   1.786
 9843SOL    HW230429   6.345   0.534   1.789
 9844SOL     OW30430   6.507   0.896   2.809
 9844SOL    HW130431   6.576   0.966   2.789
 9844SOL    HW230432   6.424   0.916   2.757
 9845SOL     OW30433   1.935   3.017   3.266
 9845SOL    HW130434   1.988   2.994   3.184
 9845SOL    HW230435   1.899   2.934   3.308
 9846SOL     OW30436   3.396   2.576   1.614
 9846SOL    HW130437   3.311   2.551   1.659
 9846SOL    HW230438   3.473   2.553   1.674
 9847SOL     OW30439   3.634   3.030   3.329
 9847SOL    HW130440   3.725   3.071   3.319
 9847SOL    HW230441   3.621   3.002   3.424
 9848SOL     OW30442   4.339   3.075   5.535
 9848SOL    HW130443   4.344   3.166   5.493
 9848SOL    HW230444   4.245   3.043   5.533
 9849SOL     OW30445   0.872   6.735   6.053
 9849SOL    HW130446   0.968   6.714   6.071
 9849SOL    HW230447   0.843   6.812   6.109
 9850SOL     OW30448   6.306   0.127   3.953
 9850SOL    HW130449   6.366   0.060   3.908
 9850SOL    HW230450   6.259   0.083   4.030
 9851SOL     OW30451   0.208   0.157   4.673
 9851SOL    HW130452   0.204   0.122   4.580
 9851SOL    HW230453   0.220   0.081   4.737
 9852SOL     OW30454   3.300   1.433   4.188
 9852SOL    HW130455   3.229   1.462   4.123
 9852SOL    HW230456   3.326   1.338   4.169
 9853SOL     OW30457   5.235   4.062   4.580
 9853SOL    HW130458   5.260   4.001   4.656
 9853SOL    HW230459   5.298   4.140   4.578
 9854SOL     OW30460   6.455   5.997   4.593
 9854SOL    HW130461   6.437   6.075   4.652
 9854SOL    HW230462   6.427   6.019   4.499
 9855SOL     OW30463   2.093   3.905   1.217
 9855SOL    HW130464   1.994   3.890   1.222
 9855SOL    HW230465   2.139   3.845   1.283
 9856SOL     OW30466   4.966   4.097   4.475
 9856SOL    HW130467   4.908   4.144   4.542
 9856SOL    HW230468   5.055   4.077   4.515
 9857SOL     OW30469   4.854   3.262   2.696
 9857SOL    HW130470   4.848   3.197   2.621
 9857SOL    HW230471   4.853   3.355   2.660
 9858SOL     OW30472   0.081   6.843   1.736
 9858SOL    HW130473   0.152   6.883   1.793
 9858SOL    HW230474   0.061   6.904   1.660
 9859SOL     OW30475   6.257   6.169   2.461
 9859SOL    HW130476   6.250   6.219   2.374
 9859SOL    HW230477   6.353   6.160   2.486
 9860SOL     OW30478   1.660   2.334   3.693
 9860SOL    HW130479   1.615   2.317   3.781
 9860SOL    HW230480   1.759   2.341   3.707
 9861SOL     OW30481   2.767   0.423   3.236
 9861SOL    HW130482   2.749   0.352   3.304
 9861SOL    HW230483   2.835   0.487   3.272
 9862SOL     OW30484   3.381   2.907   6.932
 9862SOL    HW130485   3.363   3.005   6.929
 9862SOL    HW230486   3.303   2.859   6.972
 9863SOL     OW30487   3.618   6.639   2.218
 9863SOL    HW130488   3.646   6.699   2.143
 9863SOL    HW230489   3.558   6.568   2.183
 9864SOL     OW30490   3.770   7.000   3.783
 9864SOL    HW130491   3.709   6.951   3.846
 9864SOL    HW230492   3.797   0.066   3.825
 9865SOL     OW30493   1.413   6.803   4.449
 9865SOL    HW130494   1.446   6.883   4.400
 9865SOL    HW230495   1.450   6.720   4.406
 9866SOL     OW30496   4.953   4.433   5.859
 9866SOL    HW130497   5.021   4.425   5.786
 9866SOL    HW230498   4.992   4.483   5.936
 9867SOL     OW30499   6.466   1.641   1.105
 9867SOL    HW130500   6.556   1.685   1.105
 9867SOL    HW230501   6.398   1.703   1.065
 9868SOL     OW30502   0.370   3.336   4.744
 9868SOL    HW130503   0.417   3.299   4.664
 9868SOL    HW230504   0.271   3.334   4.728
 9869SOL     OW30505   0.551   2.315   1.307
 9869SOL    HW130506   0.608   2.249   1.258
 9869SOL    HW230507   0.506   2.269   1.384
 9870SOL     OW30508   4.070   5.959   2.256
 9870SOL    HW130509   4.021   5.876   2.229
 9870SOL    HW230510   4.145   5.935   2.317
 9871SOL     OW30511   6.641   4.795   5.756
 9871SOL    HW130512   6.667   4.745   5.674
 9871SOL    HW230513   6.563   4.855   5.736
 9872SOL     OW30514   3.009   5.347   5.033
 9872SOL    HW130515   3.030   5.278   5.103
 9872SOL    HW230516   3.014   5.438   5.074
 9873SOL     OW30517   2.253   2.309   0.761
 9873SOL    HW130518   2.330   2.310   0.825
 9873SOL    HW230519   2.171   2.277   0.808
 9874SOL     OW30520   5.431   3.485   4.985
 9874SOL    HW130521   5.511   3.521   5.034
 9874SOL    HW230522   5.459   3.452   4.895
 9875SOL     OW30523   5.871   5.565   1.803
 9875SOL    HW130524   5.810   5.529   1.874
 9875SOL    HW230525   5.864   5.664   1.800
 9876SOL     OW30526   5.565   1.043   3.974
 9876SOL    HW130527   5.559   1.044   4.074
 9876SOL    HW230528   5.573   0.948   3.943
 9877SOL     OW30529   6.676   4.532   4.585
 9877SOL    HW130530   6.740   4.601   4.552
 9877SOL    HW230531   6.620   4.500   4.509
 9878SOL     OW30532   2.778   4.204   5.647
 9878SOL    HW130533   2.766   4.108   5.621
 9878SOL    HW230534   2.790   4.210   5.746
 9879SOL     OW30535   4.976   5.815   5.335
 9879SOL    HW130536   4.989   5.833   5.432
 9879SOL    HW230537   4.910   5.740   5.324
 9880SOL     OW30538   3.222   0.923   0.243
 9880SOL    HW130539   3.124   0.939   0.256
 9880SOL    HW230540   3.239   0.891   0.150
 9881SOL     OW30541   0.591   1.945   5.025
 9881SOL    HW130542   0.568   1.902   5.112
 9881SOL    HW230543   0.550   1.894   4.950
 9882SOL     OW30544   1.560   3.763   5.003
 9882SOL    HW130545   1.612   3.842   4.972
 9882SOL    HW230546   1.503   3.729   4.928
 9883SOL     OW30547   1.303   6.153   1.315
 9883SOL    HW130548   1.290   6.241   1.268
 9883SOL    HW230549   1.281   6.079   1.252
 9884SOL     OW30550   4.879   2.127   1.094
 9884SOL    HW130551   4.851   2.067   1.020
 9884SOL    HW230552   4.799   2.169   1.136
 9885SOL     OW30553   6.827   2.003   5.044
 9885SOL    HW130554   6.820   2.073   4.973
 9885SOL    HW230555   6.749   2.011   5.106
 9886SOL     OW30556   0.853   4.964   1.815
 9886SOL    HW130557   0.813   4.996   1.901
 9886SOL    HW230558   0.894   5.041   1.767
 9887SOL     OW30559   3.921   0.217   0.111
 9887SOL    HW130560   3.834   0.172   0.131
 9887SOL    HW230561   3.973   0.163   0.045
 9888SOL     OW30562   5.316   5.111   2.650
 9888SOL    HW130563   5.263   5.055   2.586
 9888SOL    HW230564   5.267   5.197   2.667
 9889SOL     OW30565   6.236   4.506   0.697
 9889SOL    HW130566   6.146   4.493   0.740
 9889SOL    HW230567   6.308   4.486   0.764
 9890SOL     OW30568   0.439   2.098   1.105
 9890SOL    HW130569   0.534   2.118   1.131
 9890SOL    HW230570   0.381   2.175   1.132
 9891SOL     OW30571   5.929   3.293   1.600
 9891SOL    HW130572   5.922   3.343   1.686
 9891SOL    HW230573   5.838   3.278   1.562
 9892SOL     OW30574   1.189   5.054   2.410
 9892SOL    HW130575   1.267   5.085   2.355
 9892SOL    HW230576   1.116   5.123   2.407
 9893SOL     OW30577   6.647   0.261   2.499
 9893SOL    HW130578   6.655   0.313   2.414
 9893SOL    HW230579   6.729   0.275   2.554
 9894SOL     OW30580   2.999   2.107   6.591
 9894SOL    HW130581   2.918   2.073   6.640
 9894SOL    HW230582   3.078   2.104   6.653
 9895SOL     OW30583   5.190   3.587   5.327
 9895SOL    HW130584   5.099   3.626   5.336
 9895SOL    HW230585   5.200   3.546   5.236
 9896SOL     OW30586   5.127   1.339   0.606
 9896SOL    HW130587   5.212   1.341   0.659
 9896SOL    HW230588   5.106   1.244   0.581
 9897SOL     OW30589   5.508   0.065   2.236
 9897SOL    HW130590   5.557   0.152   2.232
 9897SOL    HW230591   5.420   0.078   2.283
 9898SOL     OW30592   1.161   4.720   6.149
 9898SOL    HW130593   1.218   4.649   6.106
 9898SOL    HW230594   1.193   4.736   6.242
 9899SOL     OW30595   0.957   5.177   2.282
 9899SOL    HW130596   1.010   5.206   2.202
 9899SOL    HW230597   0.895   5.251   2.309
 9900SOL     OW30598   1.495   2.960   2.182
 9900SOL    HW130599   1.545   2.928   2.101
 9900SOL    HW230600   1.469   3.056   2.169
 9901SOL     OW30601   2.999   0.653   6.675
 9901SOL    HW130602   2.997   0.722   6.748
 9901SOL    HW230603   2.906   0.637   6.642
 9902SOL     OW30604   4.157   4.332   1.354
 9902SOL    HW130605   4.183   4.330   1.257
 9902SOL    HW230606   4.084   4.266   1.370
 9903SOL     OW30607   5.240   1.824   1.631
 9903SOL    HW130608   5.230   1.884   1.711
 9903SOL    HW230609   5.150   1.802   1.594
 9904SOL     OW30610   0.626   3.418   6.232
 9904SOL    HW130611   0.627   3.469   6.318
 9904SOL    HW230612   0.624   3.482   6.155
 9905SOL     OW30613   1.840   0.665   6.182
 9905SOL    HW130614   1.914   0.688   6.118
 9905SOL    HW230615   1.791   0.748   6.208
 9906SOL     OW30616   1.837   3.545   0.519
 9906SOL    HW130617   1.756   3.603   0.517
 9906SOL    HW230618   1.860   3.523   0.613
 9907SOL     OW30619   1.515   1.021   1.991
 9907SOL    HW130620   1.544   0.925   1.987
 9907SOL    HW230621   1.567   1.068   2.063
 9908SOL     OW30622   0.458   2.689   5.589
 9908SOL    HW130623   0.431   2.603   5.545
 9908SOL    HW230624   0.540   2.725   5.545
 9909SOL     OW30625   3.707   0.522   2.699
 9909SOL    HW130626   3.798   0.503   2.738
 9909SOL    HW230627   3.711   0.513   2.600
 9910SOL     OW30628   1.912   5.530   1.825
 9910SOL    HW130629   1.844   5.593   1.786
 9910SOL    HW230630   1.960   5.483   1.751
 9911SOL     OW30631   3.252   5.828   2.385
 9911SOL    HW130632   3.230   5.903   2.322
 9911SOL    HW230633   3.234   5.740   2.340
 9912SOL     OW30634   4.382   1.182   1.780
 9912SOL    HW130635   4.358   1.246   1.707
 9912SOL    HW230636   4.412   1.232   1.861
 9913SOL     OW30637   5.877   3.073   1.297
 9913SOL    HW130638   5.821   2.999   1.259
 9913SOL    HW230639   5.877   3.150   1.234
 9914SOL     OW30640   0.107   6.720   5.487
 9914SOL    HW130641   0.067   6.803   5.450
 9914SOL    HW230642   0.035   6.654   5.508
 9915SOL     OW30643   5.790   1.734   3.121
 9915SOL    HW130644   5.813   1.679   3.040
 9915SOL    HW230645   5.784   1.830   3.096
 9916SOL     OW30646   1.744   1.942   3.789
 9916SOL    HW130647   1.745   2.032   3.834
 9916SOL    HW230648   1.693   1.949   3.703
 9917SOL     OW30649   3.313   3.838   5.530
 9917SOL    HW130650   3.295   3.911   5.463
 9917SOL    HW230651   3.338   3.754   5.481
 9918SOL     OW30652   1.032   2.951   2.274
 9918SOL    HW130653   1.101   2.909   2.215
 9918SOL    HW230654   0.954   2.980   2.220
 9919SOL     OW30655   2.474   5.608   2.242
 9919SOL    HW130656   2.479   5.659   2.327
 9919SOL    HW230657   2.532   5.651   2.173
 9920SOL     OW30658   4.433   0.576   2.978
 9920SOL    HW130659   4.420   0.661   2.927
 9920SOL    HW230660   4.469   0.506   2.916
 9921SOL     OW30661   4.417   0.073   4.821
 9921SOL    HW130662   4.334   0.071   4.877
 9921SOL    HW230663   4.471   0.154   4.845
 9922SOL     OW30664   4.204   4.447   1.114
 9922SOL    HW130665   4.173   4.487   1.028
 9922SOL    HW230666   4.262   4.368   1.095
 9923SOL     OW30667   6.260   3.381   0.351
 9923SOL    HW130668   6.323   3.398   0.275
 9923SOL    HW230669   6.292   3.430   0.432
 9924SOL     OW30670   5.098   1.976   2.969
 9924SOL    HW130671   5.068   2.036   2.895
 9924SOL    HW230672   5.021   1.956   3.030
 9925SOL     OW30673   1.100   4.780   3.889
 9925SOL    HW130674   1.080   4.709   3.956
 9925SOL    HW230675   1.047   4.862   3.911
 9926SOL     OW30676   4.011   3.089   0.462
 9926SOL    HW130677   3.918   3.071   0.430
 9926SOL    HW230678   4.070   3.110   0.383
 9927SOL     OW30679   1.320   1.256   0.746
 9927SOL    HW130680   1.323   1.192   0.822
 9927SOL    HW230681   1.265   1.336   0.771
 9928SOL     OW30682   5.478   3.463   2.733
 9928SOL    HW130683   5.380   3.462   2.713
 9928SOL    HW230684   5.517   3.372   2.714
 9929SOL     OW30685   3.322   4.162   4.596
 9929SOL    HW130686   3.414   4.142   4.628
 9929SOL    HW230687   3.317   4.148   4.497
 9930SOL     OW30688   0.679   0.094   6.671
 9930SOL    HW130689   0.640   0.010   6.709
 9930SOL    HW230690   0.752   0.128   6.731
 9931SOL     OW30691   7.002   5.872   3.907
 9931SOL    HW130692   7.011   5.773   3.896
 9931SOL    HW230693   6.937   5.892   3.980
 9932SOL     OW30694   2.724   1.983   5.725
 9932SOL    HW130695   2.717   2.078   5.755
 9932SOL    HW230696   2.774   1.930   5.793
 9933SOL     OW30697   1.671   6.870   3.901
 9933SOL    HW130698   1.682   6.789   3.958
 9933SOL    HW230699   1.615   6.848   3.821
 9934SOL     OW30700   6.576   1.856   6.044
 9934SOL    HW130701   6.492   1.828   6.089
 9934SOL    HW230702   6.640   1.895   6.111
 9935SOL     OW30703   3.072   0.129   0.919
 9935SOL    HW130704   3.038   0.215   0.957
 9935SOL    HW230705   3.030   0.052   0.967
 9936SOL     OW30706   6.271   5.015   0.887
 9936SOL    HW130707   6.253   4.952   0.811
 9936SOL    HW230708   6.319   4.966   0.959
 9937SOL     OW30709   0.863   1.330   1.986
 9937SOL    HW130710   0.843   1.297   1.894
 9937SOL    HW230711   0.802   1.285   2.051
 9938SOL     OW30712   5.648   5.840   4.119
 9938SOL    HW130713   5.715   5.769   4.099
 9938SOL    HW230714   5.615   5.881   4.033
 9939SOL     OW30715   3.006   3.522   0.832
 9939SOL    HW130716   3.052   3.501   0.746
 9939SOL    HW230717   2.913   3.485   0.830
 9940SOL     OW30718   1.554   0.287   2.300
 9940SOL    HW130719   1.537   0.320   2.207
 9940SOL    HW230720   1.593   0.360   2.355
 9941SOL     OW30721   3.159   4.930   5.952
 9941SOL    HW130722   3.235   4.866   5.959
 9941SOL    HW230723   3.074   4.884   5.980
 9942SOL     OW30724   4.004   5.470   2.319
 9942SOL    HW130725   3.935   5.450   2.388
 9942SOL    HW230726   3.960   5.478   2.230
 9943SOL     OW30727   1.152   4.466   6.477
 9943SOL    HW130728   1.236   4.481   6.425
 9943SOL    HW230729   1.148   4.371   6.508
 9944SOL     OW30730   1.159   4.524   6.733
 9944SOL    HW130731   1.142   4.515   6.635
 9944SOL    HW230732   1.242   4.578   6.748
 9945SOL     OW30733   4.515   5.302   6.755
 9945SOL    HW130734   4.576   5.381   6.744
 9945SOL    HW230735   4.570   5.219   6.762
 9946SOL     OW30736   6.403   0.134   3.144
 9946SOL    HW130737   6.394   0.230   3.170
 9946SOL    HW230738   6.336   0.112   3.074
 9947SOL     OW30739   2.821   2.265   4.898
 9947SOL    HW130740   2.755   2.216   4.955
 9947SOL    HW230741   2.894   2.300   4.956
 9948SOL     OW30742   6.183   5.807   4.854
 9948SOL    HW130743   6.236   5.888   4.880
 9948SOL    HW230744   6.103   5.834   4.800
 9949SOL     OW30745   0.347   4.565   3.639
 9949SOL    HW130746   0.298   4.499   3.697
 9949SOL    HW230747   0.363   4.649   3.691
 9950SOL     OW30748   6.219   6.318   6.772
 9950SOL    HW130749   6.264   6.350   6.855
 9950SOL    HW230750   6.268   6.353   6.692
 9951SOL     OW30751   0.739   2.488   3.312
 9951SOL    HW130752   0.797   2.463   3.234
 9951SOL    HW230753   0.657   2.432   3.312
 9952SOL     OW30754   2.233   3.771   0.999
 9952SOL    HW130755   2.330   3.790   0.983
 9952SOL    HW230756   2.201   3.825   1.077
 9953SOL     OW30757   5.884   2.045   3.786
 9953SOL    HW130758   5.843   2.118   3.841
 9953SOL    HW230759   5.969   2.077   3.745
 9954SOL     OW30760   1.183   0.097   5.416
 9954SOL    HW130761   1.089   0.079   5.389
 9954SOL    HW230762   1.229   0.010   5.437
 9955SOL     OW30763   4.075   3.525   6.248
 9955SOL    HW130764   4.128   3.525   6.333
 9955SOL    HW230765   4.031   3.614   6.236
 9956SOL     OW30766   0.757   4.827   3.822
 9956SOL    HW130767   0.809   4.882   3.887
 9956SOL    HW230768   0.671   4.798   3.865
 9957SOL     OW30769   5.718   0.527   1.961
 9957SOL    HW130770   5.676   0.617   1.962
 9957SOL    HW230771   5.793   0.524   2.027
 9958SOL     OW30772   2.712   6.406   6.570
 9958SOL    HW130773   2.709   6.457   6.484
 9958SOL    HW230774   2.807   6.403   6.603
 9959SOL     OW30775   4.119   3.662   3.621
 9959SOL    HW130776   4.195   3.645   3.684
 9959SOL    HW230777   4.140   3.621   3.532
 9960SOL     OW30778   1.004   6.576   2.183
 9960SOL    HW130779   1.022   6.498   2.124
 9960SOL    HW230780   1.089   6.608   2.224
 9961SOL     OW30781   1.092   5.369   4.269
 9961SOL    HW130782   1.071   5.291   4.327
 9961SOL    HW230783   1.148   5.434   4.320
 9962SOL     OW30784   4.617   0.757   2.338
 9962SOL    HW130785   4.652   0.846   2.310
 9962SOL    HW230786   4.556   0.767   2.415
 9963SOL     OW30787   2.176   2.612   6.068
 9963SOL    HW130788   2.197   2.516   6.051
 9963SOL    HW230789   2.260   2.662   6.088
 9964SOL     OW30790   4.237   4.970   5.920
 9964SOL    HW130791   4.208   4.983   6.015
 9964SOL    HW230792   4.243   4.872   5.900
 9965SOL     OW30793   3.541   4.693   5.321
 9965SOL    HW130794   3.454   4.742   5.333
 9965SOL    HW230795   3.617   4.756   5.336
 9966SOL     OW30796   2.666   5.877   2.432
 9966SOL    HW130797   2.633   5.828   2.513
 9966SOL    HW230798   2.762   5.853   2.415
 9967SOL     OW30799   5.201   5.708   2.122
 9967SOL    HW130800   5.127   5.673   2.066
 9967SOL    HW230801   5.201   5.661   2.211
 9968SOL     OW30802   3.398   5.199   6.421
 9968SOL    HW130803   3.466   5.137   6.459
 9968SOL    HW230804   3.443   5.281   6.386
 9969SOL     OW30805   0.753   2.733   4.111
 9969SOL    HW130806   0.659   2.735   4.147
 9969SOL    HW230807   0.814   2.778   4.175
 9970SOL     OW30808   6.531   4.486   2.152
 9970SOL    HW130809   6.521   4.521   2.245
 9970SOL    HW230810   6.609   4.529   2.107
 9971SOL     OW30811   2.506   4.253   0.427
 9971SOL    HW130812   2.466   4.266   0.336
 9971SOL    HW230813   2.451   4.303   0.494
 9972SOL     OW30814   3.835   4.871   6.903
 9972SOL    HW130815   3.815   4.774   6.895
 9972SOL    HW230816   3.753   4.924   6.882
 9973SOL     OW30817   3.938   1.915   4.964
 9973SOL    HW130818   3.874   1.838   4.957
 9973SOL    HW230819   3.889   2.001   4.951
 9974SOL     OW30820   6.435   3.634   3.141
 9974SOL    HW130821   6.476   3.560   3.087
 9974SOL    HW230822   6.429   3.606   3.237
 9975SOL     OW30823   0.070   4.749   6.941
 9975SOL    HW130824   0.039   4.798   6.859
 9975SOL    HW230825   0.008   4.674   6.962
 9976SOL     OW30826   6.801   5.372   5.404
 9976SOL    HW130827   6.864   5.335   5.472
 9976SOL    HW230828   6.819   5.329   5.316
 9977SOL     OW30829   6.592   5.113   5.873
 9977SOL    HW130830   6.569   5.061   5.791
 9977SOL    HW230831   6.508   5.138   5.922
 9978SOL     OW30832   6.647   2.151   4.209
 9978SOL    HW130833   6.628   2.058   4.180
 9978SOL    HW230834   6.703   2.150   4.292
 9979SOL     OW30835   6.799   4.581   6.334
 9979SOL    HW130836   6.724   4.598   6.270
 9979SOL    HW230837   6.882   4.625   6.299
 9980SOL     OW30838   1.536   1.160   6.409
 9980SOL    HW130839   1.468   1.131   6.342
 9980SOL    HW230840   1.497   1.230   6.469
 9981SOL     OW30841   2.450   1.824   1.076
 9981SOL    HW130842   2.387   1.871   1.138
 9981SOL    HW230843   2.484   1.740   1.119
 9982SOL     OW30844   0.818   2.038   2.853
 9982SOL    HW130845   0.813   2.132   2.819
 9982SOL    HW230846   0.764   2.030   2.937
 9983SOL     OW30847   1.142   1.911   1.752
 9983SOL    HW130848   1.193   1.983   1.799
 9983SOL    HW230849   1.134   1.934   1.655
 9984SOL     OW30850   0.983   0.252   0.752
 9984SOL    HW130851   0.887   0.224   0.758
 9984SOL    HW230852   1.017   0.268   0.845
 9985SOL     OW30853   3.385   0.428   1.159
 9985SOL    HW130854   3.406   0.523   1.180
 9985SOL    HW230855   3.363   0.420   1.061
 9986SOL     OW30856   5.124   4.289   6.422
 9986SOL    HW130857   5.119   4.242   6.510
 9986SOL    HW230858   5.135   4.221   6.349
 9987SOL     OW30859   5.374   2.336   2.691
 9987SOL    HW130860   5.440   2.316   2.618
 9987SOL    HW230861   5.293   2.279   2.678
 9988SOL     OW30862   6.992   5.748   5.008
 9988SOL    HW130863   6.921   5.713   5.069
 9988SOL    HW230864   7.019   5.840   5.038
 9989SOL     OW30865   5.169   3.613   2.850
 9989SOL    HW130866   5.247   3.576   2.899
 9989SOL    HW230867   5.196   3.696   2.801
 9990SOL     OW30868   2.560   6.642   3.341
 9990SOL    HW130869   2.582   6.572   3.408
 9990SOL    HW230870   2.502   6.712   3.384
 9991SOL     OW30871   1.297   3.003   4.516
 9991SOL    HW130872   1.372   3.024   4.453
 9991SOL    HW230873   1.319   2.920   4.567
 9992SOL     OW30874   4.888   3.508   0.443
 9992SOL    HW130875   4.885   3.418   0.400
 9992SOL    HW230876   4.941   3.571   0.386
 9993SOL     OW30877   4.892   6.746   2.717
 9993SOL    HW130878   4.876   6.651   2.692
 9993SOL    HW230879   4.889   6.803   2.635
 9994SOL     OW30880   6.727   3.925   4.213
 9994SOL    HW130881   6.824   3.931   4.235
 9994SOL    HW230882   6.676   3.995   4.263
 9995SOL     OW30883   3.170   6.726   2.827
 9995SOL    HW130884   3.266   6.735   2.798
 9995SOL    HW230885   3.124   6.815   2.818
 9996SOL     OW30886   2.871   1.947   1.271
 9996SOL    HW130887   2.874   1.968   1.174
 9996SOL    HW230888   2.907   2.024   1.323
 9997SOL     OW30889   4.142   2.238   0.930
 9997SOL    HW130890   4.069   2.174   0.903
 9997SOL    HW230891   4.138   2.319   0.872
 9998SOL     OW30892   6.735   3.869   2.265
 9998SOL    HW130893   6.834   3.859   2.249
 9998SOL    HW230894   6.688   3.883   2.178
 9999SOL     OW30895   6.197   4.489   4.367
 9999SOL    HW130896   6.152   4.497   4.278
 9999SOL    HW230897   6.164   4.407   4.414
10000SOL     OW30898   6.020   2.260   6.417
10000SOL    HW130899   6.062   2.350   6.430
10000SOL    HW230900   6.039   2.202   6.496
10001SOL     OW30901   5.058   1.142   1.524
10001SOL    HW130902   4.995   1.168   1.596
10001SOL    HW230903   5.152   1.156   1.555
10002SOL     OW30904   1.373   0.676   1.390
10002SOL    HW130905   1.342   0.755   1.337
10002SOL    HW230906   1.447   0.705   1.452
10003SOL     OW30907   3.897   2.189   3.497
10003SOL    HW130908   3.961   2.236   3.436
10003SOL    HW230909   3.917   2.216   3.592
10004SOL     OW30910   5.034   2.729   4.604
10004SOL    HW130911   5.106   2.734   4.673
10004SOL    HW230912   5.061   2.664   4.532
10005SOL     OW30913   5.035   5.567   3.220
10005SOL    HW130914   5.044   5.640   3.152
10005SOL    HW230915   5.122   5.556   3.268
10006SOL     OW30916   5.570   0.939   4.527
10006SOL    HW130917   5.611   0.849   4.537
10006SOL    HW230918   5.524   0.945   4.438
10007SOL     OW30919   1.183   4.482   4.780
10007SOL    HW130920   1.146   4.468   4.872
10007SOL    HW230921   1.201   4.579   4.766
10008SOL     OW30922   3.838   1.491   3.740
10008SOL    HW130923   3.781   1.572   3.753
10008SOL    HW230924   3.908   1.487   3.811
10009SOL     OW30925   2.243   3.772   1.403
10009SOL    HW130926   2.286   3.682   1.413
10009SOL    HW230927   2.253   3.823   1.488
10010SOL     OW30928   1.886   6.511   0.209
10010SOL    HW130929   1.944   6.589   0.233
10010SOL    HW230930   1.901   6.485   0.114
10011SOL     OW30931   0.347   2.412   5.235
10011SOL    HW130932   0.320   2.319   5.257
10011SOL    HW230933   0.371   2.461   5.319
10012SOL     OW30934   5.187   6.753   3.090
10012SOL    HW130935   5.091   6.781   3.088
10012SOL    HW230936   5.245   6.833   3.106
10013SOL     OW30937   2.262   2.018   4.474
10013SOL    HW130938   2.217   1.965   4.402
10013SOL    HW230939   2.306   1.956   4.539
10014SOL     OW30940   6.662   2.459   0.066
10014SOL    HW130941   6.683   2.546   0.111
10014SOL    HW230942   6.667   2.470   6.988
10015SOL     OW30943   3.148   4.156   0.316
10015SOL    HW130944   3.204   4.173   0.235
10015SOL    HW230945   3.053   4.145   0.289
10016SOL     OW30946   2.251   0.087   4.720
10016SOL    HW130947   2.162   0.041   4.723
10016SOL    HW230948   2.257   0.153   4.795
10017SOL     OW30949   1.834   2.452   2.347
10017SOL    HW130950   1.789   2.522   2.292
10017SOL    HW230951   1.905   2.408   2.292
10018SOL     OW30952   5.863   6.133   6.323
10018SOL    HW130953   5.816   6.096   6.403
10018SOL    HW230954   5.798   6.181   6.264
10019SOL     OW30955   1.245   1.985   3.185
10019SOL    HW130956   1.244   2.023   3.278
10019SOL    HW230957   1.266   1.888   3.189
10020SOL     OW30958   0.001   2.233   1.146
10020SOL    HW130959   6.967   2.163   1.100
10020SOL    HW230960   6.991   2.242   1.240
10021SOL     OW30961   0.823   2.673   1.519
10021SOL    HW130962   0.888   2.638   1.451
10021SOL    HW230963   0.740   2.617   1.517
10022SOL     OW30964   3.389   6.729   1.237
10022SOL    HW130965   3.336   6.729   1.152
10022SOL    HW230966   3.408   6.634   1.264
10023SOL     OW30967   1.976   5.495   5.663
10023SOL    HW130968   1.887   5.535   5.684
10023SOL    HW230969   2.027   5.479   5.748
10024SOL     OW30970   2.193   6.805   1.987
10024SOL    HW130971   2.150   6.767   1.905
10024SOL    HW230972   2.123   6.821   2.057
10025SOL     OW30973   1.341   1.106   0.981
10025SOL    HW130974   1.245   1.086   1.000
10025SOL    HW230975   1.360   1.201   1.005
10026SOL     OW30976   4.967   6.335   3.615
10026SOL    HW130977   5.009   6.261   3.563
10026SOL    HW230978   4.976   6.315   3.713
10027SOL     OW30979   0.648   4.641   4.978
10027SOL    HW130980   0.556   4.602   4.970
10027SOL    HW230981   0.688   4.614   5.065
10028SOL     OW30982   1.480   1.589   1.624
10028SOL    HW130983   1.559   1.533   1.600
10028SOL    HW230984   1.487   1.678   1.579
10029SOL     OW30985   3.255   1.842   3.510
10029SOL    HW130986   3.204   1.777   3.565
10029SOL    HW230987   3.348   1.850   3.545
10030SOL     OW30988   2.301   6.847   4.080
10030SOL    HW130989   2.280   6.931   4.030
10030SOL    HW230990   2.264   6.853   4.172
10031SOL     OW30991   5.995   5.280   3.848
10031SOL    HW130992   5.972   5.329   3.764
10031SOL    HW230993   5.917   5.223   3.876
10032SOL     OW30994   3.150   0.668   5.283
10032SOL    HW130995   3.094   0.657   5.364
10032SOL    HW230996   3.231   0.723   5.305
10033SOL     OW30997   4.628   2.552   4.360
10033SOL    HW130998   4.663   2.640   4.328
10033SOL    HW230999   4.686   2.478   4.325
10034SOL     OW31000   3.172   7.006   4.215
10034SOL    HW131001   3.184   7.005   4.116
10034SOL    HW231002   3.189   0.077   4.250
10035SOL     OW31003   0.126   4.311   2.091
10035SOL    HW131004   0.084   4.254   2.161
10035SOL    HW231005   0.225   4.308   2.099
10036SOL     OW31006   5.148   1.487   0.970
10036SOL    HW131007   5.215   1.453   1.036
10036SOL    HW231008   5.139   1.586   0.980
10037SOL     OW31009   5.673   1.497   0.846
10037SOL    HW131010   5.736   1.546   0.907
10037SOL    HW231011   5.640   1.560   0.776
10038SOL     OW31012   4.131   1.389   6.419
10038SOL    HW131013   4.134   1.371   6.517
10038SOL    HW231014   4.062   1.330   6.377
10039SOL     OW31015   3.190   0.534   3.866
10039SOL    HW131016   3.139   0.448   3.872
10039SOL    HW231017   3.153   0.590   3.792
10040SOL     OW31018   4.289   5.833   6.231
10040SOL    HW131019   4.215   5.766   6.233
10040SOL    HW231020   4.271   5.900   6.160
10041SOL     OW31021   4.151   6.056   6.044
10041SOL    HW131022   4.110   6.077   6.133
10041SOL    HW231023   4.229   6.117   6.028
10042SOL     OW31024   0.795   1.584   4.482
10042SOL    HW131025   0.723   1.516   4.470
10042SOL    HW231026   0.878   1.555   4.434
10043SOL     OW31027   6.523   2.189   4.955
10043SOL    HW131028   6.589   2.204   4.882
10043SOL    HW231029   6.444   2.139   4.919
10044SOL     OW31030   2.898   1.155   5.363
10044SOL    HW131031   2.824   1.153   5.431
10044SOL    HW231032   2.869   1.210   5.284
10045SOL     OW31033   4.304   0.344   3.121
10045SOL    HW131034   4.376   0.344   3.051
10045SOL    HW231035   4.232   0.407   3.094
10046SOL     OW31036   2.491   3.878   0.986
10046SOL    HW131037   2.493   3.948   0.915
10046SOL    HW231038   2.580   3.834   0.992
10047SOL     OW31039   0.642   4.044   5.430
10047SOL    HW131040   0.637   4.142   5.414
10047SOL    HW231041   0.567   3.999   5.381
10048SOL     OW31042   6.223   0.938   2.827
10048SOL    HW131043   6.266   0.995   2.756
10048SOL    HW231044   6.249   0.972   2.917
10049SOL     OW31045   0.459   1.929   6.548
10049SOL    HW131046   0.419   1.838   6.557
10049SOL    HW231047   0.484   1.964   6.638
10050SOL     OW31048   5.434   3.839   4.751
10050SOL    HW131049   5.424   3.811   4.847
10050SOL    HW231050   5.362   3.795   4.696
10051SOL     OW31051   6.181   3.640   5.805
10051SOL    HW131052   6.228   3.714   5.852
10051SOL    HW231053   6.177   3.559   5.864
10052SOL     OW31054   1.804   1.694   3.043
10052SOL    HW131055   1.752   1.779   3.051
10052SOL    HW231056   1.829   1.662   3.134
10053SOL     OW31057   3.804   5.561   3.266
10053SOL    HW131058   3.786   5.567   3.364
10053SOL    HW231059   3.850   5.644   3.235
10054SOL     OW31060   5.707   6.020   6.531
10054SOL    HW131061   5.762   5.974   6.600
10054SOL    HW231062   5.614   5.983   6.532
10055SOL     OW31063   6.014   0.942   4.624
10055SOL    HW131064   5.942   1.012   4.618
10055SOL    HW231065   5.998   0.885   4.705
10056SOL     OW31066   5.292   4.298   2.848
10056SOL    HW131067   5.257   4.388   2.873
10056SOL    HW231068   5.342   4.304   2.762
10057SOL     OW31069   4.252   2.395   5.617
10057SOL    HW131070   4.232   2.313   5.563
10057SOL    HW231071   4.198   2.393   5.701
10058SOL     OW31072   6.350   3.334   5.204
10058SOL    HW131073   6.399   3.265   5.258
10058SOL    HW231074   6.415   3.378   5.140
10059SOL     OW31075   6.733   1.296   0.391
10059SOL    HW131076   6.686   1.209   0.375
10059SOL    HW231077   6.829   1.278   0.414
10060SOL     OW31078   1.990   3.046   1.911
10060SOL    HW131079   1.952   3.054   2.003
10060SOL    HW231080   2.010   3.137   1.875
10061SOL     OW31081   4.614   1.334   4.418
10061SOL    HW131082   4.683   1.325   4.490
10061SOL    HW231083   4.636   1.272   4.343
10062SOL     OW31084   5.680   0.696   3.637
10062SOL    HW131085   5.706   0.614   3.688
10062SOL    HW231086   5.725   0.776   3.676
10063SOL     OW31087   2.768   0.817   3.958
10063SOL    HW131088   2.823   0.795   4.038
10063SOL    HW231089   2.677   0.847   3.988
10064SOL     OW31090   4.910   6.863   0.325
10064SOL    HW131091   4.846   6.788   0.308
10064SOL    HW231092   4.866   6.933   0.380
10065SOL     OW31093   2.934   6.599   2.605
10065SOL    HW131094   2.837   6.599   2.630
10065SOL    HW231095   2.986   6.648   2.675
10066SOL     OW31096   0.331   2.434   4.285
10066SOL    HW131097   0.246   2.478   4.256
10066SOL    HW231098   0.379   2.396   4.206
10067SOL     OW31099   0.483   3.975   5.121
10067SOL    HW131100   0.402   3.921   5.098
10067SOL    HW231101   0.565   3.919   5.107
10068SOL     OW31102   0.137   3.393   3.278
10068SOL    HW131103   0.109   3.447   3.199
10068SOL    HW231104   0.233   3.368   3.269
10069SOL     OW31105   3.234   5.440   2.001
10069SOL    HW131106   3.307   5.397   2.054
10069SOL    HW231107   3.163   5.472   2.063
10070SOL     OW31108   0.142   6.125   5.269
10070SOL    HW131109   0.220   6.097   5.324
10070SOL    HW231110   0.153   6.221   5.243
10071SOL     OW31111   6.400   6.146   4.341
10071SOL    HW131112   6.423   6.242   4.321
10071SOL    HW231113   6.331   6.114   4.276
10072SOL     OW31114   0.344   6.674   4.227
10072SOL    HW131115   0.353   6.715   4.317
10072SOL    HW231116   0.263   6.709   4.181
10073SOL     OW31117   6.626   4.240   4.182
10073SOL    HW131118   6.627   4.339   4.164
10073SOL    HW231119   6.545   4.217   4.235
10074SOL     OW31120   2.297   0.303   5.684
10074SOL    HW131121   2.255   0.248   5.756
10074SOL    HW231122   2.259   0.277   5.595
10075SOL     OW31123   1.527   2.386   2.103
10075SOL    HW131124   1.598   2.318   2.084
10075SOL    HW231125   1.565   2.478   2.097
10076SOL     OW31126   6.083   6.102   3.655
10076SOL    HW131127   6.036   6.185   3.625
10076SOL    HW231128   6.176   6.100   3.618
10077SOL     OW31129   4.485   3.266   0.119
10077SOL    HW131130   4.444   3.280   0.029
10077SOL    HW231131   4.542   3.345   0.141
10078SOL     OW31132   6.421   6.361   4.052
10078SOL    HW131133   6.493   6.354   3.983
10078SOL    HW231134   6.460   6.393   4.139
10079SOL     OW31135   6.071   2.900   3.590
10079SOL    HW131136   6.049   2.922   3.685
10079SOL    HW231137   6.012   2.953   3.529
10080SOL     OW31138   5.346   0.660   5.700
10080SOL    HW131139   5.310   0.753   5.696
10080SOL    HW231140   5.389   0.638   5.612
10081SOL     OW31141   0.514   1.572   0.349
10081SOL    HW131142   0.474   1.650   0.300
10081SOL    HW231143   0.569   1.518   0.286
10082SOL     OW31144   0.736   5.108   1.586
10082SOL    HW131145   0.762   5.202   1.608
10082SOL    HW231146   0.804   5.068   1.525
10083SOL     OW31147   3.973   0.843   3.701
10083SOL    HW131148   3.996   0.888   3.614
10083SOL    HW231149   3.952   0.747   3.684
10084SOL     OW31150   1.524   0.521   5.923
10084SOL    HW131151   1.471   0.443   5.890
10084SOL    HW231152   1.566   0.567   5.845
10085SOL     OW31153   3.021   6.552   0.689
10085SOL    HW131154   3.107   6.591   0.722
10085SOL    HW231155   3.018   6.455   0.710
10086SOL     OW31156   6.148   5.802   2.653
10086SOL    HW131157   6.135   5.900   2.667
10086SOL    HW231158   6.238   5.775   2.688
10087SOL     OW31159   6.442   5.648   3.733
10087SOL    HW131160   6.451   5.667   3.636
10087SOL    HW231161   6.504   5.706   3.785
10088SOL     OW31162   0.037   6.875   2.350
10088SOL    HW131163   0.011   6.784   2.315
10088SOL    HW231164   0.003   6.945   2.288
10089SOL     OW31165   2.870   1.896   3.721
10089SOL    HW131166   2.854   1.815   3.664
10089SOL    HW231167   2.791   1.911   3.781
10090SOL     OW31168   0.070   4.957   1.796
10090SOL    HW131169   0.042   4.994   1.884
10090SOL    HW231170   0.052   4.859   1.794
10091SOL     OW31171   6.531   5.789   6.722
10091SOL    HW131172   6.529   5.690   6.707
10091SOL    HW231173   6.516   5.809   6.819
10092SOL     OW31174   1.968   3.205   6.208
10092SOL    HW131175   1.939   3.240   6.297
10092SOL    HW231176   1.972   3.105   6.211
10093SOL     OW31177   4.666   3.467   5.412
10093SOL    HW131178   4.612   3.513   5.483
10093SOL    HW231179   4.662   3.519   5.327
10094SOL     OW31180   2.899   5.930   1.605
10094SOL    HW131181   2.802   5.909   1.592
10094SOL    HW231182   2.933   5.880   1.686
10095SOL     OW31183   5.541   1.716   4.378
10095SOL    HW131184   5.624   1.737   4.325
10095SOL    HW231185   5.511   1.623   4.356
10096SOL     OW31186   4.775   6.321   2.876
10096SOL    HW131187   4.736   6.307   2.967
10096SOL    HW231188   4.702   6.346   2.812
10097SOL     OW31189   1.626   2.288   0.160
10097SOL    HW131190   1.608   2.191   0.176
10097SOL    HW231191   1.716   2.312   0.196
10098SOL     OW31192   2.894   7.004   5.165
10098SOL    HW131193   2.817   6.990   5.227
10098SOL    HW231194   2.907   0.081   5.151
10099SOL     OW31195   1.112   4.814   1.225
10099SOL    HW131196   1.051   4.746   1.184
10099SOL    HW231197   1.124   4.795   1.322
10100SOL     OW31198   4.935   5.866   5.605
10100SOL    HW131199   5.004   5.845   5.675
10100SOL    HW231200   4.846   5.833   5.636
10101SOL     OW31201   6.838   2.898   2.222
10101SOL    HW131202   6.758   2.958   2.213
10101SOL    HW231203   6.885   2.918   2.307
10102SOL     OW31204   0.385   1.235   1.994
10102SOL    HW131205   0.410   1.304   2.061
10102SOL    HW231206   0.449   1.237   1.917
10103SOL     OW31207   2.350   0.638   5.415
10103SOL    HW131208   2.368   0.633   5.514
10103SOL    HW231209   2.390   0.721   5.378
10104SOL     OW31210   1.542   2.151   5.483
10104SOL    HW131211   1.603   2.144   5.562
10104SOL    HW231212   1.501   2.242   5.480
10105SOL     OW31213   2.049   0.321   6.019
10105SOL    HW131214   2.042   0.297   5.923
10105SOL    HW231215   1.975   0.278   6.071
10106SOL     OW31216   3.705   6.527   0.617
10106SOL    HW131217   3.654   6.468   0.554
10106SOL    HW231218   3.745   6.471   0.689
10107SOL     OW31219   5.035   1.232   5.931
10107SOL    HW131220   5.133   1.240   5.915
10107SOL    HW231221   5.016   1.237   6.029
10108SOL     OW31222   7.013   1.041   0.454
10108SOL    HW131223   6.997   0.982   0.375
10108SOL    HW231224   7.012   0.986   0.538
10109SOL     OW31225   6.890   0.989   0.981
10109SOL    HW131226   6.874   1.026   1.072
10109SOL    HW231227   6.804   0.961   0.940
10110SOL     OW31228   5.071   5.125   3.797
10110SOL    HW131229   4.992   5.112   3.858
10110SOL    HW231230   5.117   5.037   3.784
10111SOL     OW31231   6.593   3.459   3.843
10111SOL    HW131232   6.519   3.399   3.874
10111SOL    HW231233   6.559   3.552   3.834
10112SOL     OW31234   5.968   3.448   3.124
10112SOL    HW131235   6.035   3.522   3.131
10112SOL    HW231236   6.013   3.365   3.091
10113SOL     OW31237   4.545   0.060   0.470
10113SOL    HW131238   4.474   0.122   0.504
10113SOL    HW231239   4.592   0.103   0.393
10114SOL     OW31240   4.169   2.226   2.224
10114SOL    HW131241   4.108   2.149   2.242
10114SOL    HW231242   4.241   2.228   2.294
10115SOL     OW31243   4.319   2.124   5.013
10115SOL    HW131244   4.281   2.065   4.942
10115SOL    HW231245   4.405   2.164   4.980
10116SOL     OW31246   0.883   0.111   6.856
10116SOL    HW131247   0.972   0.148   6.830
10116SOL    HW231248   0.848   0.161   6.935
10117SOL     OW31249   6.197   6.559   5.746
10117SOL    HW131250   6.255   6.507   5.683
10117SOL    HW231251   6.213   6.526   5.839
10118SOL     OW31252   2.344   4.241   3.554
10118SOL    HW131253   2.415   4.182   3.517
10118SOL    HW231254   2.274   4.185   3.598
10119SOL     OW31255   6.556   5.067   3.915
10119SOL    HW131256   6.501   5.139   3.874
10119SOL    HW231257   6.587   5.095   4.006
10120SOL     OW31258   1.820   3.681   4.309
10120SOL    HW131259   1.917   3.692   4.330
10120SOL    HW231260   1.765   3.731   4.376
10121SOL     OW31261   5.514   4.058   0.091
10121SOL    HW131262   5.594   4.099   0.133
10121SOL    HW231263   5.486   4.112   0.012
10122SOL     OW31264   5.043   2.655   3.294
10122SOL    HW131265   5.107   2.613   3.358
10122SOL    HW231266   5.056   2.616   3.203
10123SOL     OW31267   5.521   6.362   0.938
10123SOL    HW131268   5.449   6.384   0.873
10123SOL    HW231269   5.531   6.262   0.944
10124SOL     OW31270   1.558   4.717   0.265
10124SOL    HW131271   1.656   4.698   0.263
10124SOL    HW231272   1.543   4.815   0.269
10125SOL     OW31273   2.159   1.161   1.166
10125SOL    HW131274   2.100   1.083   1.146
10125SOL    HW231275   2.235   1.132   1.225
10126SOL     OW31276   0.411   0.248   0.001
10126SOL    HW131277   0.383   0.310   6.949
10126SOL    HW231278   0.443   0.302   0.079
10127SOL     OW31279   1.844   3.849   0.704
10127SOL    HW131280   1.770   3.782   0.714
10127SOL    HW231281   1.932   3.805   0.722
10128SOL     OW31282   3.167   0.774   5.761
10128SOL    HW131283   3.075   0.789   5.797
10128SOL    HW231284   3.205   0.861   5.729
10129SOL     OW31285   6.808   1.307   2.353
10129SOL    HW131286   6.837   1.218   2.318
10129SOL    HW231287   6.737   1.344   2.294
10130SOL     OW31288   0.726   3.420   1.456
10130SOL    HW131289   0.750   3.398   1.361
10130SOL    HW231290   0.784   3.495   1.488
10131SOL     OW31291   1.945   0.094   4.550
10131SOL    HW131292   1.856   0.091   4.595
10131SOL    HW231293   1.952   0.018   4.485
10132SOL     OW31294   1.974   0.820   3.245
10132SOL    HW131295   1.920   0.828   3.329
10132SOL    HW231296   1.942   0.741   3.193
10133SOL     OW31297   4.486   6.616   0.876
10133SOL    HW131298   4.498   6.591   0.780
10133SOL    HW231299   4.402   6.575   0.911
10134SOL     OW31300   5.268   1.437   2.538
10134SOL    HW131301   5.208   1.382   2.595
10134SOL    HW231302   5.242   1.428   2.442
10135SOL     OW31303   5.281   2.435   3.883
10135SOL    HW131304   5.354   2.391   3.936
10135SOL    HW231305   5.303   2.532   3.870
10136SOL     OW31306   5.190   2.063   2.282
10136SOL    HW131307   5.285   2.076   2.252
10136SOL    HW231308   5.187   1.995   2.355
10137SOL     OW31309   0.630   4.699   5.358
10137SOL    HW131310   0.567   4.645   5.302
10137SOL    HW231311   0.713   4.647   5.375
10138SOL     OW31312   5.362   3.461   0.282
10138SOL    HW131313   5.351   3.466   0.381
10138SOL    HW231314   5.357   3.366   0.252
10139SOL     OW31315   2.947   3.801   4.798
10139SOL    HW131316   2.892   3.837   4.874
10139SOL    HW231317   2.929   3.703   4.788
10140SOL     OW31318   0.602   6.442   6.692
10140SOL    HW131319   0.667   6.518   6.693
10140SOL    HW231320   0.629   6.376   6.621
10141SOL     OW31321   4.564   1.081   5.266
10141SOL    HW131322   4.635   1.038   5.322
10141SOL    HW231323   4.560   1.179   5.287
10142SOL     OW31324   5.923   6.223   5.904
10142SOL    HW131325   5.932   6.123   5.908
10142SOL    HW231326   5.987   6.259   5.836
10143SOL     OW31327   4.988   2.598   0.759
10143SOL    HW131328   5.082   2.565   0.767
10143SOL    HW231329   4.925   2.528   0.791
10144SOL     OW31330   4.535   0.191   6.101
10144SOL    HW131331   4.612   0.214   6.040
10144SOL    HW231332   4.531   0.092   6.114
10145SOL     OW31333   3.716   5.808   2.972
10145SOL    HW131334   3.780   5.770   3.040
10145SOL    HW231335   3.742   5.776   2.881
10146SOL     OW31336   6.111   3.958   4.834
10146SOL    HW131337   6.018   3.932   4.863
10146SOL    HW231338   6.124   4.056   4.852
10147SOL     OW31339   4.719   4.041   6.548
10147SOL    HW131340   4.713   3.990   6.462
10147SOL    HW231341   4.672   4.129   6.537
10148SOL     OW31342   5.906   5.037   0.155
10148SOL    HW131343   5.815   5.013   0.120
10148SOL    HW231344   5.975   5.015   0.087
10149SOL     OW31345   5.181   3.871   1.317
10149SOL    HW131346   5.230   3.850   1.402
10149SOL    HW231347   5.245   3.867   1.240
10150SOL     OW31348   4.061   3.142   1.674
10150SOL    HW131349   4.111   3.223   1.702
10150SOL    HW231350   4.049   3.082   1.753
10151SOL     OW31351   1.346   6.809   7.009
10151SOL    HW131352   1.296   6.734   6.964
10151SOL    HW231353   1.394   6.774   0.068
10152SOL     OW31354   6.672   5.954   3.684
10152SOL    HW131355   6.632   5.928   3.596
10152SOL    HW231356   6.765   5.989   3.670
10153SOL     OW31357   5.123   6.308   3.871
10153SOL    HW131358   5.143   6.254   3.953
10153SOL    HW231359   5.167   6.398   3.879
10154SOL     OW31360   3.943   6.399   4.854
10154SOL    HW131361   4.034   6.388   4.895
10154SOL    HW231362   3.890   6.464   4.909
10155SOL     OW31363   4.954   2.238   5.608
10155SOL    HW131364   4.883   2.211   5.542
10155SOL    HW231365   5.025   2.290   5.560
10156SOL     OW31366   5.342   0.718   1.616
10156SOL    HW131367   5.319   0.668   1.532
10156SOL    HW231368   5.347   0.654   1.692
10157SOL     OW31369   6.998   2.293   0.302
10157SOL    HW131370   0.016   2.232   0.233
10157SOL    HW231371   7.016   2.388   0.276
10158SOL     OW31372   6.128   6.166   1.154
10158SOL    HW131373   6.077   6.084   1.131
10158SOL    HW231374   6.103   6.240   1.091
10159SOL     OW31375   3.813   3.207   2.241
10159SOL    HW131376   3.832   3.109   2.249
10159SOL    HW231377   3.845   3.240   2.152
10160SOL     OW31378   1.431   3.647   3.103
10160SOL    HW131379   1.466   3.639   3.010
10160SOL    HW231380   1.497   3.606   3.167
10161SOL     OW31381   3.458   4.268   6.445
10161SOL    HW131382   3.436   4.180   6.487
10161SOL    HW231383   3.531   4.255   6.378
10162SOL     OW31384   2.941   4.993   0.567
10162SOL    HW131385   2.982   4.925   0.627
10162SOL    HW231386   2.884   5.055   0.620
10163SOL     OW31387   0.320   4.082   6.886
10163SOL    HW131388   0.321   4.039   6.976
10163SOL    HW231389   0.311   4.181   6.896
10164SOL     OW31390   5.738   3.680   4.817
10164SOL    HW131391   5.701   3.588   4.825
10164SOL    HW231392   5.671   3.739   4.772
10165SOL     OW31393   6.585   2.046   3.370
10165SOL    HW131394   6.518   1.985   3.411
10165SOL    HW231395   6.634   1.997   3.297
10166SOL     OW31396   2.224   1.705   1.351
10166SOL    HW131397   2.265   1.654   1.276
10166SOL    HW231398   2.149   1.651   1.391
10167SOL     OW31399   0.225   5.699   0.165
10167SOL    HW131400   0.149   5.760   0.145
10167SOL    HW231401   0.205   5.607   0.130
10168SOL     OW31402   6.572   2.478   6.026
10168SOL    HW131403   6.503   2.406   6.025
10168SOL    HW231404   6.531   2.563   6.061
10169SOL     OW31405   6.894   3.353   3.404
10169SOL    HW131406   6.870   3.404   3.486
10169SOL    HW231407   6.952   3.409   3.345
10170SOL     OW31408   6.004   5.604   6.405
10170SOL    HW131409   6.031   5.684   6.353
10170SOL    HW231410   5.975   5.531   6.342
10171SOL     OW31411   0.540   2.591   4.289
10171SOL    HW131412   0.466   2.526   4.306
10171SOL    HW231413   0.628   2.544   4.300
10172SOL     OW31414   0.688   6.496   4.462
10172SOL    HW131415   0.610   6.478   4.522
10172SOL    HW231416   0.676   6.447   4.376
10173SOL     OW31417   2.072   3.210   6.981
10173SOL    HW131418   2.053   3.289   0.018
10173SOL    HW231419   2.169   3.210   6.956
10174SOL     OW31420   4.936   4.806   3.751
10174SOL    HW131421   4.909   4.846   3.664
10174SOL    HW231422   4.886   4.721   3.766
10175SOL     OW31423   6.077   2.170   3.389
10175SOL    HW131424   6.134   2.243   3.426
10175SOL    HW231425   6.078   2.174   3.289
10176SOL     OW31426   6.439   2.522   5.568
10176SOL    HW131427   6.483   2.480   5.488
10176SOL    HW231428   6.497   2.509   5.648
10177SOL     OW31429   2.040   0.736   0.533
10177SOL    HW131430   2.070   0.653   0.581
10177SOL    HW231431   1.961   0.715   0.476
10178SOL     OW31432   1.056   0.653   0.425
10178SOL    HW131433   1.073   0.560   0.395
10178SOL    HW231434   0.977   0.691   0.376
10179SOL     OW31435   0.804   3.581   6.506
10179SOL    HW131436   0.762   3.491   6.519
10179SOL    HW231437   0.748   3.635   6.443
10180SOL     OW31438   4.735   0.620   0.850
10180SOL    HW131439   4.765   0.647   0.941
10180SOL    HW231440   4.801   0.556   0.811
10181SOL     OW31441   0.557   2.517   0.939
10181SOL    HW131442   0.577   2.508   1.036
10181SOL    HW231443   0.587   2.434   0.891
10182SOL     OW31444   4.767   0.840   0.419
10182SOL    HW131445   4.728   0.879   0.503
10182SOL    HW231446   4.745   0.743   0.414
10183SOL     OW31447   5.964   2.790   5.976
10183SOL    HW131448   5.962   2.816   6.073
10183SOL    HW231449   5.887   2.730   5.956
10184SOL     OW31450   4.577   2.964   6.571
10184SOL    HW131451   4.502   2.908   6.536
10184SOL    HW231452   4.657   2.954   6.512
10185SOL     OW31453   6.421   5.888   2.025
10185SOL    HW131454   6.459   5.797   2.039
10185SOL    HW231455   6.407   5.933   2.113
10186SOL     OW31456   4.873   3.650   4.399
10186SOL    HW131457   4.922   3.611   4.477
10186SOL    HW231458   4.827   3.734   4.427
10187SOL     OW31459   1.624   3.791   6.421
10187SOL    HW131460   1.681   3.710   6.435
10187SOL    HW231461   1.547   3.767   6.361
10188SOL     OW31462   2.565   5.045   6.292
10188SOL    HW131463   2.490   5.088   6.342
10188SOL    HW231464   2.574   4.950   6.322
10189SOL     OW31465   0.866   1.116   6.203
10189SOL    HW131466   0.929   1.047   6.241
10189SOL    HW231467   0.808   1.073   6.134
10190SOL     OW31468   3.856   2.875   1.510
10190SOL    HW131469   3.942   2.828   1.487
10190SOL    HW231470   3.826   2.847   1.602
10191SOL     OW31471   4.866   5.474   6.625
10191SOL    HW131472   4.768   5.485   6.610
10191SOL    HW231473   4.902   5.404   6.564
10192SOL     OW31474   3.426   1.927   5.224
10192SOL    HW131475   3.360   1.893   5.157
10192SOL    HW231476   3.449   2.022   5.202
10193SOL     OW31477   3.001   3.875   2.762
10193SOL    HW131478   3.066   3.801   2.779
10193SOL    HW231479   3.016   3.948   2.830
10194SOL     OW31480   4.680   1.185   4.197
10194SOL    HW131481   4.763   1.234   4.222
10194SOL    HW231482   4.661   1.201   4.100
10195SOL     OW31483   6.821   6.749   1.770
10195SOL    HW131484   6.793   6.732   1.676
10195SOL    HW231485   6.914   6.786   1.771
10196SOL     OW31486   4.395   2.330   3.867
10196SOL    HW131487   4.337   2.337   3.948
10196SOL    HW231488   4.462   2.404   3.866
10197SOL     OW31489   4.698   1.983   3.992
10197SOL    HW131490   4.658   1.903   4.038
10197SOL    HW231491   4.759   2.030   4.056
10198SOL     OW31492   4.021   7.015   1.434
10198SOL    HW131493   3.994   0.085   1.467
10198SOL    HW231494   4.121   7.012   1.428
10199SOL     OW31495   0.803   2.072   0.065
10199SOL    HW131496   0.833   2.164   0.041
10199SOL    HW231497   0.706   2.061   0.044
10200SOL     OW31498   5.053   3.151   5.474
10200SOL    HW131499   5.123   3.216   5.501
10200SOL    HW231500   4.964   3.197   5.469
10201SOL     OW31501   0.680   6.019   0.660
10201SOL    HW131502   0.698   6.093   0.725
10201SOL    HW231503   0.701   5.931   0.703
10202SOL     OW31504   2.046   4.426   7.002
10202SOL    HW131505   1.964   4.452   0.032
10202SOL    HW231506   2.092   4.508   6.970
10203SOL     OW31507   0.993   2.767   1.765
10203SOL    HW131508   1.028   2.856   1.796
10203SOL    HW231509   0.898   2.777   1.734
10204SOL     OW31510   3.345   5.805   6.483
10204SOL    HW131511   3.294   5.731   6.439
10204SOL    HW231512   3.286   5.884   6.495
10205SOL     OW31513   3.302   1.341   2.721
10205SOL    HW131514   3.220   1.387   2.757
10205SOL    HW231515   3.360   1.311   2.797
10206SOL     OW31516   5.332   6.975   6.585
10206SOL    HW131517   5.304   6.909   6.654
10206SOL    HW231518   5.271   6.969   6.506
10207SOL     OW31519   2.146   1.072   0.005
10207SOL    HW131520   2.223   1.012   7.005
10207SOL    HW231521   2.179   1.152   0.055
10208SOL     OW31522   6.425   4.526   3.692
10208SOL    HW131523   6.512   4.570   3.667
10208SOL    HW231524   6.349   4.587   3.668
10209SOL     OW31525   0.287   0.161   5.899
10209SOL    HW131526   0.374   0.111   5.901
10209SOL    HW231527   0.299   0.249   5.853
10210SOL     OW31528   5.255   6.863   1.423
10210SOL    HW131529   5.325   6.816   1.475
10210SOL    HW231530   5.202   6.923   1.483
10211SOL     OW31531   4.172   6.268   4.969
10211SOL    HW131532   4.107   6.199   5.002
10211SOL    HW231533   4.180   6.342   5.036
10212SOL     OW31534   6.990   0.298   5.163
10212SOL    HW131535   6.894   0.322   5.179
10212SOL    HW231536   6.995   0.209   5.119
10213SOL     OW31537   5.410   2.795   2.443
10213SOL    HW131538   5.467   2.769   2.521
10213SOL    HW231539   5.352   2.873   2.469
10214SOL     OW31540   1.258   1.616   2.293
10214SOL    HW131541   1.197   1.545   2.260
10214SOL    HW231542   1.350   1.578   2.307
10215SOL     OW31543   3.659   2.969   3.821
10215SOL    HW131544   3.617   3.055   3.795
10215SOL    HW231545   3.608   2.928   3.897
10216SOL     OW31546   0.631   6.726   1.222
10216SOL    HW131547   0.541   6.693   1.248
10216SOL    HW231548   0.698   6.699   1.291
10217SOL     OW31549   2.356   2.018   3.111
10217SOL    HW131550   2.396   2.104   3.143
10217SOL    HW231551   2.428   1.954   3.086
10218SOL     OW31552   1.793   0.517   1.939
10218SOL    HW131553   1.798   0.430   1.988
10218SOL    HW231554   1.774   0.501   1.842
10219SOL     OW31555   0.258   2.699   2.517
10219SOL    HW131556   0.194   2.761   2.565
10219SOL    HW231557   0.239   2.702   2.419
10220SOL     OW31558   4.366   2.066   1.220
10220SOL    HW131559   4.291   2.113   1.267
10220SOL    HW231560   4.329   1.993   1.163
10221SOL     OW31561   1.931   3.045   4.406
10221SOL    HW131562   2.010   3.101   4.383
10221SOL    HW231563   1.875   3.031   4.324
10222SOL     OW31564   2.769   3.682   5.703
10222SOL    HW131565   2.727   3.667   5.793
10222SOL    HW231566   2.866   3.700   5.714
10223SOL     OW31567   2.075   6.200   6.663
10223SOL    HW131568   2.074   6.213   6.564
10223SOL    HW231569   2.168   6.207   6.697
10224SOL     OW31570   0.473   1.605   5.117
10224SOL    HW131571   0.561   1.559   5.130
10224SOL    HW231572   0.399   1.539   5.134
10225SOL     OW31573   2.196   6.032   6.214
10225SOL    HW131574   2.181   6.086   6.131
10225SOL    HW231575   2.136   5.952   6.213
10226SOL     OW31576   2.685   0.458   6.306
10226SOL    HW131577   2.632   0.521   6.248
10226SOL    HW231578   2.782   0.485   6.304
10227SOL     OW31579   5.347   4.690   0.765
10227SOL    HW131580   5.381   4.679   0.858
10227SOL    HW231581   5.422   4.717   0.705
10228SOL     OW31582   0.943   5.826   2.044
10228SOL    HW131583   0.976   5.917   2.065
10228SOL    HW231584   0.959   5.806   1.948
10229SOL     OW31585   1.143   1.743   4.201
10229SOL    HW131586   1.119   1.722   4.296
10229SOL    HW231587   1.205   1.822   4.199
10230SOL     OW31588   6.468   6.282   2.829
10230SOL    HW131589   6.395   6.349   2.842
10230SOL    HW231590   6.432   6.199   2.788
10231SOL     OW31591   6.292   5.604   5.016
10231SOL    HW131592   6.262   5.509   5.022
10231SOL    HW231593   6.222   5.658   4.968
10232SOL     OW31594   2.839   0.679   4.720
10232SOL    HW131595   2.755   0.732   4.734
10232SOL    HW231596   2.819   0.581   4.730
10233SOL     OW31597   4.935   3.663   5.303
10233SOL    HW131598   4.860   3.634   5.244
10233SOL    HW231599   4.901   3.677   5.396
10234SOL     OW31600   5.382   0.263   0.353
10234SOL    HW131601   5.445   0.216   0.290
10234SOL    HW231602   5.429   0.281   0.439
10235SOL     OW31603   4.136   3.132   0.190
10235SOL    HW131604   4.064   3.195   0.162
10235SOL    HW231605   4.150   3.063   0.118
10236SOL     OW31606   1.993   0.182   1.878
10236SOL    HW131607   1.909   0.213   1.921
10236SOL    HW231608   1.972   0.105   1.816
10237SOL     OW31609   6.702   4.043   0.437
10237SOL    HW131610   6.726   4.009   0.346
10237SOL    HW231611   6.786   4.069   0.485
10238SOL     OW31612   3.278   4.044   3.458
10238SOL    HW131613   3.318   3.955   3.432
10238SOL    HW231614   3.348   4.099   3.504
10239SOL     OW31615   1.736   4.017   5.766
10239SOL    HW131616   1.768   4.022   5.671
10239SOL    HW231617   1.809   3.978   5.823
10240SOL     OW31618   1.624   4.678   3.281
10240SOL    HW131619   1.573   4.690   3.195
10240SOL    HW231620   1.594   4.594   3.326
10241SOL     OW31621   6.692   0.587   2.219
10241SOL    HW131622   6.684   0.540   2.131
10241SOL    HW231623   6.746   0.530   2.282
10242SOL     OW31624   6.612   1.349   7.018
10242SOL    HW131625   6.555   1.323   0.075
10242SOL    HW231626   6.588   1.293   6.939
10243SOL     OW31627   1.115   4.961   1.695
10243SOL    HW131628   1.116   4.952   1.794
10243SOL    HW231629   1.101   4.871   1.653
10244SOL     OW31630   1.264   4.270   0.279
10244SOL    HW131631   1.306   4.350   0.321
10244SOL    HW231632   1.287   4.189   0.332
10245SOL     OW31633   3.126   4.668   6.923
10245SOL    HW131634   3.218   4.708   6.918
10245SOL    HW231635   3.128   4.587   6.981
10246SOL     OW31636   3.389   4.169   3.706
10246SOL    HW131637   3.365   4.085   3.755
10246SOL    HW231638   3.374   4.248   3.765
10247SOL     OW31639   6.883   5.191   5.839
10247SOL    HW131640   6.789   5.167   5.862
10247SOL    HW231641   6.900   5.287   5.862
10248SOL     OW31642   3.082   0.081   2.348
10248SOL    HW131643   3.015   0.142   2.391
10248SOL    HW231644   3.148   0.051   2.417
10249SOL     OW31645   3.594   0.585   5.731
10249SOL    HW131646   3.585   0.679   5.699
10249SOL    HW231647   3.591   0.584   5.831
10250SOL     OW31648   0.189   2.829   1.037
10250SOL    HW131649   0.287   2.841   1.049
10250SOL    HW231650   0.158   2.883   0.958
10251SOL     OW31651   2.822   1.513   5.226
10251SOL    HW131652   2.826   1.566   5.141
10251SOL    HW231653   2.792   1.419   5.205
10252SOL     OW31654   4.776   4.980   0.289
10252SOL    HW131655   4.842   4.919   0.246
10252SOL    HW231656   4.685   4.940   0.283
10253SOL     OW31657   3.304   5.855   7.004
10253SOL    HW131658   3.326   5.845   6.907
10253SOL    HW231659   3.313   5.951   0.010
10254SOL     OW31660   4.650   1.435   4.929
10254SOL    HW131661   4.552   1.439   4.949
10254SOL    HW231662   4.683   1.527   4.906
10255SOL     OW31663   2.044   7.014   1.163
10255SOL    HW131664   2.125   0.032   1.119
10255SOL    HW231665   2.063   6.998   1.260
10256SOL     OW31666   6.082   1.564   1.922
10256SOL    HW131667   6.078   1.540   1.825
10256SOL    HW231668   6.076   1.664   1.932
10257SOL     OW31669   1.675   5.252   4.895
10257SOL    HW131670   1.746   5.196   4.937
10257SOL    HW231671   1.604   5.271   4.963
10258SOL     OW31672   3.487   0.837   4.529
10258SOL    HW131673   3.547   0.894   4.585
10258SOL    HW231674   3.518   0.839   4.434
10259SOL     OW31675   0.295   4.349   3.326
10259SOL    HW131676   0.369   4.350   3.394
10259SOL    HW231677   0.324   4.400   3.245
10260SOL     OW31678   0.451   0.695   3.196
10260SOL    HW131679   0.509   0.709   3.275
10260SOL    HW231680   0.425   0.783   3.156
10261SOL     OW31681   0.037   5.669   3.053
10261SOL    HW131682   0.092   5.654   2.971
10261SOL    HW231683   6.961   5.661   3.029
10262SOL     OW31684   1.822   6.954   4.303
10262SOL    HW131685   1.733   6.957   4.348
10262SOL    HW231686   1.879   6.884   4.346
10263SOL     OW31687   5.463   0.634   6.396
10263SOL    HW131688   5.438   0.670   6.306
10263SOL    HW231689   5.394   0.662   6.463
10264SOL     OW31690   6.144   2.172   5.818
10264SOL    HW131691   6.115   2.077   5.804
10264SOL    HW231692   6.101   2.230   5.749
10265SOL     OW31693   2.922   2.257   3.082
10265SOL    HW131694   2.934   2.194   3.006
10265SOL    HW231695   2.855   2.327   3.057
10266SOL     OW31696   3.236   3.063   5.003
10266SOL    HW131697   3.265   2.979   5.050
10266SOL    HW231698   3.153   3.098   5.047
10267SOL     OW31699   6.559   1.629   0.174
10267SOL    HW131700   6.525   1.657   0.264
10267SOL    HW231701   6.493   1.566   0.132
10268SOL     OW31702   5.585   5.046   2.101
10268SOL    HW131703   5.514   5.022   2.168
10268SOL    HW231704   5.671   5.003   2.129
10269SOL     OW31705   0.501   2.985   5.608
10269SOL    HW131706   0.407   2.952   5.604
10269SOL    HW231707   0.561   2.908   5.632
10270SOL     OW31708   3.257   4.943   3.260
10270SOL    HW131709   3.211   5.026   3.292
10270SOL    HW231710   3.209   4.863   3.294
10271SOL     OW31711   3.467   2.296   6.976
10271SOL    HW131712   3.483   2.383   6.930
10271SOL    HW231713   3.549   2.239   6.971
10272SOL     OW31714   0.689   0.474   5.098
10272SOL    HW131715   0.702   0.548   5.164
10272SOL    HW231716   0.717   0.388   5.140
10273SOL     OW31717   3.799   5.415   2.842
10273SOL    HW131718   3.738   5.365   2.781
10273SOL    HW231719   3.867   5.465   2.788
10274SOL     OW31720   6.886   4.969   4.164
10274SOL    HW131721   6.859   4.991   4.071
10274SOL    HW231722   6.819   4.906   4.204
10275SOL     OW31723   1.040   6.838   1.752
10275SOL    HW131724   1.094   6.865   1.832
10275SOL    HW231725   1.021   6.740   1.757
10276SOL     OW31726   5.827   5.144   5.200
10276SOL    HW131727   5.786   5.175   5.286
10276SOL    HW231728   5.926   5.144   5.208
10277SOL     OW31729   2.318   5.572   4.098
10277SOL    HW131730   2.323   5.546   4.194
10277SOL    HW231731   2.289   5.494   4.043
10278SOL     OW31732   6.647   0.637   4.696
10278SOL    HW131733   6.613   0.715   4.750
10278SOL    HW231734   6.741   0.655   4.667
10279SOL     OW31735   2.832   5.369   4.329
10279SOL    HW131736   2.741   5.387   4.365
10279SOL    HW231737   2.881   5.455   4.317
10280SOL     OW31738   1.034   4.361   1.533
10280SOL    HW131739   0.997   4.368   1.441
10280SOL    HW231740   1.134   4.351   1.529
10281SOL     OW31741   5.999   1.127   2.848
10281SOL    HW131742   6.059   1.204   2.827
10281SOL    HW231743   6.052   1.042   2.844
10282SOL     OW31744   6.212   4.179   4.115
10282SOL    HW131745   6.194   4.107   4.182
10282SOL    HW231746   6.135   4.243   4.113
10283SOL     OW31747   0.810   3.604   1.068
10283SOL    HW131748   0.907   3.626   1.067
10283SOL    HW231749   0.766   3.646   1.147
10284SOL     OW31750   5.101   2.820   5.215
10284SOL    HW131751   5.116   2.839   5.117
10284SOL    HW231752   5.004   2.827   5.235
10285SOL     OW31753   5.377   0.965   1.156
10285SOL    HW131754   5.474   0.986   1.168
10285SOL    HW231755   5.336   0.947   1.245
10286SOL     OW31756   3.186   1.686   3.774
10286SOL    HW131757   3.105   1.701   3.831
10286SOL    HW231758   3.264   1.731   3.816
10287SOL     OW31759   2.485   6.300   0.878
10287SOL    HW131760   2.450   6.390   0.854
10287SOL    HW231761   2.425   6.229   0.841
10288SOL     OW31762   5.068   5.686   2.726
10288SOL    HW131763   5.139   5.641   2.672
10288SOL    HW231764   5.033   5.764   2.676
10289SOL     OW31765   3.138   0.801   1.987
10289SOL    HW131766   3.210   0.743   1.951
10289SOL    HW231767   3.080   0.834   1.913
10290SOL     OW31768   2.934   3.279   1.514
10290SOL    HW131769   2.876   3.299   1.594
10290SOL    HW231770   3.021   3.241   1.545
10291SOL     OW31771   3.242   1.120   3.506
10291SOL    HW131772   3.255   1.212   3.470
10291SOL    HW231773   3.279   1.114   3.599
10292SOL     OW31774   1.634   0.496   5.163
10292SOL    HW131775   1.666   0.574   5.108
10292SOL    HW231776   1.597   0.426   5.103
10293SOL     OW31777   1.475   4.959   3.717
10293SOL    HW131778   1.387   4.920   3.689
10293SOL    HW231779   1.478   4.967   3.816
10294SOL     OW31780   5.716   3.325   2.624
10294SOL    HW131781   5.713   3.302   2.722
10294SOL    HW231782   5.720   3.240   2.571
10295SOL     OW31783   5.796   5.113   6.237
10295SOL    HW131784   5.728   5.041   6.222
10295SOL    HW231785   5.879   5.092   6.183
10296SOL     OW31786   4.630   2.927   0.287
10296SOL    HW131787   4.660   2.977   0.368
10296SOL    HW231788   4.549   2.971   0.249
10297SOL     OW31789   2.104   6.768   6.601
10297SOL    HW131790   2.159   6.704   6.548
10297SOL    HW231791   2.064   6.837   6.540
10298SOL     OW31792   3.644   5.083   2.011
10298SOL    HW131793   3.621   4.986   2.020
10298SOL    HW231794   3.739   5.092   1.980
10299SOL     OW31795   4.797   5.272   2.436
10299SOL    HW131796   4.847   5.318   2.363
10299SOL    HW231797   4.809   5.323   2.522
10300SOL     OW31798   1.344   4.614   3.504
10300SOL    HW131799   1.367   4.690   3.444
10300SOL    HW231800   1.304   4.539   3.451
10301SOL     OW31801   5.750   2.232   3.900
10301SOL    HW131802   5.811   2.308   3.922
10301SOL    HW231803   5.664   2.267   3.863
10302SOL     OW31804   0.763   5.754   3.646
10302SOL    HW131805   0.734   5.836   3.696
10302SOL    HW231806   0.711   5.747   3.561
10303SOL     OW31807   1.928   5.894   2.541
10303SOL    HW131808   1.892   5.984   2.565
10303SOL    HW231809   1.869   5.850   2.473
10304SOL     OW31810   5.195   0.407   2.308
10304SOL    HW131811   5.116   0.406   2.369
10304SOL    HW231812   5.166   0.387   2.215
10305SOL     OW31813   0.556   4.737   6.664
10305SOL    HW131814   0.480   4.709   6.605
10305SOL    HW231815   0.621   4.662   6.673
10306SOL     OW31816   4.066   6.660   0.150
10306SOL    HW131817   4.017   6.744   0.176
10306SOL    HW231818   4.060   6.649   0.051
10307SOL     OW31819   2.233   2.250   4.263
10307SOL    HW131820   2.196   2.330   4.310
10307SOL    HW231821   2.251   2.177   4.330
10308SOL     OW31822   2.285   4.798   4.636
10308SOL    HW131823   2.282   4.764   4.730
10308SOL    HW231824   2.359   4.753   4.586
10309SOL     OW31825   5.915   1.245   4.346
10309SOL    HW131826   5.897   1.172   4.412
10309SOL    HW231827   6.013   1.254   4.331
10310SOL     OW31828   3.570   3.007   1.751
10310SOL    HW131829   3.597   2.934   1.814
10310SOL    HW231830   3.622   3.090   1.772
10311SOL     OW31831   0.910   5.904   1.192
10311SOL    HW131832   0.951   5.995   1.182
10311SOL    HW231833   0.953   5.857   1.269
10312SOL     OW31834   2.538   6.345   1.589
10312SOL    HW131835   2.524   6.250   1.618
10312SOL    HW231836   2.611   6.349   1.521
10313SOL     OW31837   4.171   0.287   1.271
10313SOL    HW131838   4.092   0.323   1.321
10313SOL    HW231839   4.175   0.329   1.180
10314SOL     OW31840   0.095   0.374   2.172
10314SOL    HW131841   0.164   0.370   2.244
10314SOL    HW231842   0.062   0.282   2.152
10315SOL     OW31843   6.221   5.823   4.087
10315SOL    HW131844   6.194   5.758   4.016
10315SOL    HW231845   6.234   5.774   4.174
10316SOL     OW31846   6.464   2.499   4.886
10316SOL    HW131847   6.527   2.479   4.811
10316SOL    HW231848   6.402   2.421   4.898
10317SOL     OW31849   3.490   6.385   5.455
10317SOL    HW131850   3.426   6.456   5.487
10317SOL    HW231851   3.448   6.295   5.467
10318SOL     OW31852   5.189   5.998   6.505
10318SOL    HW131853   5.112   5.995   6.568
10318SOL    HW231854   5.155   6.014   6.412
10319SOL     OW31855   2.095   2.460   5.680
10319SOL    HW131856   2.052   2.482   5.592
10319SOL    HW231857   2.025   2.462   5.752
10320SOL     OW31858   0.827   0.469   2.345
10320SOL    HW131859   0.925   0.484   2.333
10320SOL    HW231860   0.776   0.517   2.274
10321SOL     OW31861   4.555   0.711   3.196
10321SOL    HW131862   4.566   0.685   3.293
10321SOL    HW231863   4.509   0.636   3.148
10322SOL     OW31864   6.423   5.729   6.294
10322SOL    HW131865   6.452   5.812   6.246
10322SOL    HW231866   6.471   5.650   6.255
10323SOL     OW31867   6.214   3.207   6.029
10323SOL    HW131868   6.180   3.113   6.030
10323SOL    HW231869   6.162   3.261   6.095
10324SOL     OW31870   2.968   3.229   3.154
10324SOL    HW131871   2.932   3.224   3.061
10324SOL    HW231872   2.992   3.323   3.176
10325SOL     OW31873   6.870   3.682   3.232
10325SOL    HW131874   6.905   3.753   3.171
10325SOL    HW231875   6.793   3.720   3.285
10326SOL     OW31876   3.814   3.640   0.194
10326SOL    HW131877   3.867   3.725   0.206
10326SOL    HW231878   3.874   3.569   0.157
10327SOL     OW31879   2.553   1.646   1.704
10327SOL    HW131880   2.549   1.724   1.640
10327SOL    HW231881   2.574   1.680   1.796
10328SOL     OW31882   6.039   3.135   0.830
10328SOL    HW131883   5.991   3.078   0.897
10328SOL    HW231884   6.036   3.230   0.860
10329SOL     OW31885   3.717   0.671   3.931
10329SOL    HW131886   3.813   0.681   3.905
10329SOL    HW231887   3.658   0.696   3.853
10330SOL     OW31888   4.158   5.685   1.644
10330SOL    HW131889   4.142   5.756   1.575
10330SOL    HW231890   4.154   5.595   1.602
10331SOL     OW31891   6.552   0.673   4.153
10331SOL    HW131892   6.578   0.642   4.244
10331SOL    HW231893   6.587   0.609   4.085
10332SOL     OW31894   5.967   1.632   0.365
10332SOL    HW131895   5.907   1.635   0.445
10332SOL    HW231896   5.992   1.537   0.346
10333SOL     OW31897   6.665   4.510   4.160
10333SOL    HW131898   6.679   4.571   4.082
10333SOL    HW231899   6.753   4.496   4.206
10334SOL     OW31900   2.598   5.726   4.024
10334SOL    HW131901   2.640   5.700   4.111
10334SOL    HW231902   2.527   5.660   4.000
10335SOL     OW31903   2.830   4.991   6.768
10335SOL    HW131904   2.833   5.024   6.674
10335SOL    HW231905   2.761   4.919   6.776
10336SOL     OW31906   5.426   0.319   2.891
10336SOL    HW131907   5.472   0.279   2.970
10336SOL    HW231908   5.482   0.393   2.854
10337SOL     OW31909   6.537   6.497   5.775
10337SOL    HW131910   6.629   6.504   5.814
10337SOL    HW231911   6.500   6.405   5.793
10338SOL     OW31912   2.751   6.162   2.302
10338SOL    HW131913   2.705   6.108   2.231
10338SOL    HW231914   2.820   6.106   2.347
10339SOL     OW31915   2.660   5.581   0.135
10339SOL    HW131916   2.734   5.531   0.181
10339SOL    HW231917   2.593   5.516   0.099
10340SOL     OW31918   1.401   5.235   0.731
10340SOL    HW131919   1.395   5.307   0.661
10340SOL    HW231920   1.498   5.217   0.750
10341SOL     OW31921   2.059   3.607   1.794
10341SOL    HW131922   2.127   3.598   1.866
10341SOL    HW231923   2.097   3.573   1.707
10342SOL     OW31924   1.629   5.992   5.772
10342SOL    HW131925   1.679   6.044   5.842
10342SOL    HW231926   1.693   5.948   5.710
10343SOL     OW31927   2.339   4.140   0.813
10343SOL    HW131928   2.256   4.123   0.867
10343SOL    HW231929   2.313   4.164   0.720
10344SOL     OW31930   4.277   3.351   1.798
10344SOL    HW131931   4.242   3.338   1.890
10344SOL    HW231932   4.294   3.448   1.782
10345SOL     OW31933   1.614   0.801   6.020
10345SOL    HW131934   1.561   0.772   6.100
10345SOL    HW231935   1.618   0.726   5.954
10346SOL     OW31936   5.964   1.191   1.190
10346SOL    HW131937   5.886   1.162   1.135
10346SOL    HW231938   6.014   1.111   1.223
10347SOL     OW31939   5.106   2.648   2.482
10347SOL    HW131940   5.175   2.665   2.552
10347SOL    HW231941   5.023   2.613   2.525
10348SOL     OW31942   6.440   1.830   6.958
10348SOL    HW131943   6.526   1.806   7.004
10348SOL    HW231944   6.370   1.850   0.006
10349SOL     OW31945   6.409   1.248   0.177
10349SOL    HW131946   6.403   1.154   0.142
10349SOL    HW231947   6.359   1.309   0.117
10350SOL     OW31948   2.222   6.507   5.333
10350SOL    HW131949   2.296   6.509   5.400
10350SOL    HW231950   2.252   6.456   5.252
10351SOL     OW31951   5.648   5.335   6.331
10351SOL    HW131952   5.706   5.261   6.296
10351SOL    HW231953   5.606   5.306   6.417
10352SOL     OW31954   5.583   1.608   6.650
10352SOL    HW131955   5.581   1.661   6.565
10352SOL    HW231956   5.510   1.639   6.711
10353SOL     OW31957   6.340   2.534   4.406
10353SOL    HW131958   6.273   2.541   4.480
10353SOL    HW231959   6.329   2.446   4.359
10354SOL     OW31960   0.055   2.038   1.766
10354SOL    HW131961   0.059   2.056   1.668
10354SOL    HW231962   0.137   2.074   1.810
10355SOL     OW31963   1.576   0.699   0.915
10355SOL    HW131964   1.550   0.789   0.879
10355SOL    HW231965   1.676   0.692   0.916
10356SOL     OW31966   6.938   3.423   5.367
10356SOL    HW131967   6.974   3.345   5.418
10356SOL    HW231968   6.946   3.506   5.423
10357SOL     OW31969   3.355   2.680   6.087
10357SOL    HW131970   3.323   2.752   6.026
10357SOL    HW231971   3.443   2.645   6.056
10358SOL     OW31972   0.471   2.772   3.837
10358SOL    HW131973   0.429   2.693   3.881
10358SOL    HW231974   0.486   2.752   3.740
10359SOL     OW31975   5.176   1.558   1.773
10359SOL    HW131976   5.191   1.567   1.675
10359SOL    HW231977   5.078   1.553   1.792
10360SOL     OW31978   4.985   5.593   2.013
10360SOL    HW131979   4.949   5.538   1.938
10360SOL    HW231980   4.931   5.677   2.022
10361SOL     OW31981   2.514   1.223   2.576
10361SOL    HW131982   2.470   1.209   2.665
10361SOL    HW231983   2.541   1.134   2.539
10362SOL     OW31984   0.473   5.104   2.916
10362SOL    HW131985   0.569   5.082   2.898
10362SOL    HW231986   0.420   5.019   2.920
10363SOL     OW31987   5.013   3.105   1.635
10363SOL    HW131988   4.959   3.035   1.683
10363SOL    HW231989   4.983   3.111   1.540
10364SOL     OW31990   4.428   4.290   1.454
10364SOL    HW131991   4.499   4.328   1.395
10364SOL    HW231992   4.338   4.307   1.414
10365SOL     OW31993   5.488   4.321   6.720
10365SOL    HW131994   5.458   4.286   6.809
10365SOL    HW231995   5.587   4.334   6.720
10366SOL     OW31996   3.136   6.989   3.627
10366SOL    HW131997   3.205   0.008   3.567
10366SOL    HW231998   3.158   6.893   3.644
10367SOL     OW31999   0.067   1.542   1.716
10367SOL    HW132000   0.018   1.599   1.783
10367SOL    HW232001   0.001   1.486   1.666
10368SOL     OW32002   1.994   1.337   2.434
10368SOL    HW132003   1.973   1.243   2.407
10368SOL    HW232004   1.946   1.359   2.518
10369SOL     OW32005   3.392   6.868   5.772
10369SOL    HW132006   3.296   6.871   5.743
10369SOL    HW232007   3.446   6.928   5.713
10370SOL     OW32008   0.013   0.622   5.453
10370SOL    HW132009   0.101   0.621   5.499
10370SOL    HW232010   0.005   0.706   5.398
10371SOL     OW32011   1.857   6.807   4.749
10371SOL    HW132012   1.830   6.764   4.663
10371SOL    HW232013   1.873   6.737   4.818
10372SOL     OW32014   2.207   1.377   6.981
10372SOL    HW132015   2.295   1.339   6.952
10372SOL    HW232016   2.191   1.356   0.056
10373SOL     OW32017   1.416   6.550   5.060
10373SOL    HW132018   1.374   6.472   5.106
10373SOL    HW232019   1.367   6.569   4.975
10374SOL     OW32020   3.141   0.896   3.675
10374SOL    HW132021   3.196   0.888   3.758
10374SOL    HW232022   3.164   0.981   3.627
10375SOL     OW32023   2.529   2.282   5.936
10375SOL    HW132024   2.509   2.264   5.839
10375SOL    HW232025   2.614   2.335   5.943
10376SOL     OW32026   1.018   6.004   3.835
10376SOL    HW132027   1.081   6.064   3.785
10376SOL    HW232028   1.061   5.914   3.847
10377SOL     OW32029   0.338   0.686   2.113
10377SOL    HW132030   0.317   0.666   2.208
10377SOL    HW232031   0.328   0.785   2.097
10378SOL     OW32032   6.012   5.668   5.619
10378SOL    HW132033   6.016   5.676   5.719
10378SOL    HW232034   5.916   5.661   5.591
10379SOL     OW32035   2.832   6.094   3.919
10379SOL    HW132036   2.866   6.091   4.013
10379SOL    HW232037   2.768   6.170   3.909
10380SOL     OW32038   0.801   2.497   4.779
10380SOL    HW132039   0.836   2.579   4.824
10380SOL    HW232040   0.796   2.422   4.844
10381SOL     OW32041   4.275   4.057   1.202
10381SOL    HW132042   4.229   4.030   1.287
10381SOL    HW232043   4.234   4.007   1.125
10382SOL     OW32044   2.335   5.157   1.744
10382SOL    HW132045   2.331   5.190   1.838
10382SOL    HW232046   2.354   5.059   1.743
10383SOL     OW32047   1.382   4.081   0.699
10383SOL    HW132048   1.482   4.088   0.704
10383SOL    HW232049   1.341   4.169   0.724
10384SOL     OW32050   6.769   0.080   1.264
10384SOL    HW132051   6.748   7.005   1.248
10384SOL    HW232052   6.684   0.129   1.283
10385SOL     OW32053   3.983   6.121   6.247
10385SOL    HW132054   3.996   6.136   6.345
10385SOL    HW232055   3.893   6.156   6.220
10386SOL     OW32056   6.784   0.989   5.676
10386SOL    HW132057   6.821   1.036   5.596
10386SOL    HW232058   6.836   0.905   5.692
10387SOL     OW32059   4.335   1.816   2.960
10387SOL    HW132060   4.418   1.837   3.010
10387SOL    HW232061   4.315   1.718   2.968
10388SOL     OW32062   2.185   5.552   2.063
10388SOL    HW132063   2.243   5.633   2.068
10388SOL    HW232064   2.126   5.549   2.144
10389SOL     OW32065   6.164   5.247   0.489
10389SOL    HW132066   6.248   5.265   0.541
10389SOL    HW232067   6.110   5.178   0.537
10390SOL     OW32068   1.788   3.551   0.812
10390SOL    HW132069   1.689   3.537   0.806
10390SOL    HW232070   1.812   3.581   0.904
10391SOL     OW32071   0.492   6.058   2.979
10391SOL    HW132072   0.480   6.125   2.905
10391SOL    HW232073   0.588   6.034   2.987
10392SOL     OW32074   6.755   4.936   5.309
10392SOL    HW132075   6.796   4.981   5.230
10392SOL    HW232076   6.659   4.964   5.318
10393SOL     OW32077   2.579   2.534   3.503
10393SOL    HW132078   2.505   2.468   3.517
10393SOL    HW232079   2.659   2.486   3.466
10394SOL     OW32080   2.460   5.412   5.213
10394SOL    HW132081   2.362   5.425   5.228
10394SOL    HW232082   2.495   5.486   5.155
10395SOL     OW32083   0.740   0.625   1.753
10395SOL    HW132084   0.651   0.598   1.789
10395SOL    HW232085   0.728   0.675   1.667
10396SOL     OW32086   3.735   1.188   3.321
10396SOL    HW132087   3.641   1.154   3.332
10396SOL    HW232088   3.757   1.250   3.397
10397SOL     OW32089   2.959   1.220   4.685
10397SOL    HW132090   3.003   1.303   4.721
10397SOL    HW232091   3.029   1.156   4.655
10398SOL     OW32092   5.560   2.296   0.640
10398SOL    HW132093   5.499   2.265   0.713
10398SOL    HW232094   5.611   2.218   0.604
10399SOL     OW32095   4.802   2.211   3.637
10399SOL    HW132096   4.880   2.183   3.695
10399SOL    HW232097   4.830   2.287   3.578
10400SOL     OW32098   4.232   5.815   0.214
10400SOL    HW132099   4.200   5.908   0.233
10400SOL    HW232100   4.163   5.749   0.243
10401SOL     OW32101   0.527   6.774   1.833
10401SOL    HW132102   0.586   6.838   1.883
10401SOL    HW232103   0.583   6.720   1.770
10402SOL     OW32104   0.163   1.456   5.511
10402SOL    HW132105   0.126   1.388   5.448
10402SOL    HW232106   0.140   1.548   5.480
10403SOL     OW32107   4.193   1.989   3.142
10403SOL    HW132108   4.222   1.917   3.079
10403SOL    HW232109   4.270   2.051   3.159
10404SOL     OW32110   6.646   6.304   4.432
10404SOL    HW132111   6.746   6.299   4.440
10404SOL    HW232112   6.608   6.212   4.431
10405SOL     OW32113   1.084   5.941   4.981
10405SOL    HW132114   1.076   5.994   5.066
10405SOL    HW232115   1.047   5.995   4.905
10406SOL     OW32116   2.196   3.216   5.123
10406SOL    HW132117   2.251   3.138   5.092
10406SOL    HW232118   2.135   3.187   5.196
10407SOL     OW32119   2.978   6.970   6.411
10407SOL    HW132120   2.908   0.021   6.413
10407SOL    HW232121   3.056   6.997   6.467
10408SOL     OW32122   4.573   0.118   1.454
10408SOL    HW132123   4.512   0.097   1.377
10408SOL    HW232124   4.667   0.098   1.428
10409SOL     OW32125   0.103   4.387   0.828
10409SOL    HW132126   0.185   4.419   0.876
10409SOL    HW232127   0.029   4.453   0.841
10410SOL     OW32128   4.934   2.659   1.986
10410SOL    HW132129   4.898   2.719   1.914
10410SOL    HW232130   4.921   2.703   2.075
10411SOL     OW32131   3.335   6.079   3.688
10411SOL    HW132132   3.281   6.109   3.609
10411SOL    HW232133   3.288   6.003   3.733
10412SOL     OW32134   0.510   1.132   1.025
10412SOL    HW132135   0.501   1.182   0.938
10412SOL    HW232136   0.534   1.196   1.097
10413SOL     OW32137   6.235   2.893   1.867
10413SOL    HW132138   6.324   2.855   1.892
10413SOL    HW232139   6.246   2.957   1.791
10414SOL     OW32140   3.384   4.678   6.109
10414SOL    HW132141   3.396   4.726   6.196
10414SOL    HW232142   3.415   4.584   6.118
10415SOL     OW32143   1.893   4.640   4.364
10415SOL    HW132144   1.928   4.656   4.271
10415SOL    HW232145   1.795   4.658   4.365
10416SOL     OW32146   5.539   6.968   5.254
10416SOL    HW132147   5.596   6.903   5.305
10416SOL    HW232148   5.449   6.929   5.240
10417SOL     OW32149   4.123   4.725   3.703
10417SOL    HW132150   4.039   4.766   3.739
10417SOL    HW232151   4.185   4.704   3.779
10418SOL     OW32152   6.576   4.578   5.509
10418SOL    HW132153   6.552   4.605   5.416
10418SOL    HW232154   6.576   4.479   5.516
10419SOL     OW32155   3.237   6.683   6.142
10419SOL    HW132156   3.307   6.744   6.104
10419SOL    HW232157   3.236   6.598   6.090
10420SOL     OW32158   0.329   3.587   4.198
10420SOL    HW132159   0.389   3.653   4.153
10420SOL    HW232160   0.330   3.501   4.147
10421SOL     OW32161   0.967   3.668   3.932
10421SOL    HW132162   0.901   3.594   3.919
10421SOL    HW232163   0.973   3.690   4.030
10422SOL     OW32164   6.373   3.460   5.669
10422SOL    HW132165   6.301   3.521   5.700
10422SOL    HW232166   6.333   3.383   5.619
10423SOL     OW32167   5.895   4.835   5.594
10423SOL    HW132168   5.987   4.803   5.614
10423SOL    HW232169   5.854   4.779   5.522
10424SOL     OW32170   3.608   3.274   0.897
10424SOL    HW132171   3.602   3.222   0.812
10424SOL    HW232172   3.517   3.308   0.923
10425SOL     OW32173   1.233   6.448   2.605
10425SOL    HW132174   1.175   6.527   2.622
10425SOL    HW232175   1.237   6.429   2.507
10426SOL     OW32176   5.428   4.887   6.898
10426SOL    HW132177   5.330   4.866   6.892
10426SOL    HW232178   5.479   4.802   6.914
10427SOL     OW32179   4.270   1.314   0.465
10427SOL    HW132180   4.271   1.242   0.534
10427SOL    HW232181   4.200   1.294   0.397
10428SOL     OW32182   3.009   1.025   4.310
10428SOL    HW132183   3.052   1.048   4.397
10428SOL    HW232184   3.079   1.004   4.242
10429SOL     OW32185   0.099   4.084   2.469
10429SOL    HW132186   0.057   4.073   2.560
10429SOL    HW232187   0.116   4.181   2.452
10430SOL     OW32188   4.449   6.990   5.176
10430SOL    HW132189   4.378   7.019   5.112
10430SOL    HW232190   4.407   6.951   5.258
10431SOL     OW32191   2.324   6.287   4.256
10431SOL    HW132192   2.409   6.272   4.206
10431SOL    HW232193   2.286   6.199   4.285
10432SOL     OW32194   6.040   0.063   4.674
10432SOL    HW132195   5.999   7.002   4.711
10432SOL    HW232196   6.140   0.051   4.667
10433SOL     OW32197   0.721   5.974   2.680
10433SOL    HW132198   0.703   5.881   2.711
10433SOL    HW232199   0.747   6.032   2.758
10434SOL     OW32200   4.176   6.064   2.722
10434SOL    HW132201   4.100   6.054   2.658
10434SOL    HW232202   4.205   5.974   2.753
10435SOL     OW32203   1.208   1.830   5.563
10435SOL    HW132204   1.111   1.851   5.549
10435SOL    HW232205   1.261   1.869   5.488
10436SOL     OW32206   5.829   4.744   5.331
10436SOL    HW132207   5.883   4.786   5.259
10436SOL    HW232208   5.844   4.645   5.332
10437SOL     OW32209   4.653   4.393   5.947
10437SOL    HW132210   4.753   4.390   5.937
10437SOL    HW232211   4.629   4.400   6.044
10438SOL     OW32212   0.347   6.167   6.703
10438SOL    HW132213   0.288   6.091   6.730
10438SOL    HW232214   0.378   6.153   6.609
10439SOL     OW32215   4.109   1.234   4.921
10439SOL    HW132216   4.068   1.282   4.998
10439SOL    HW232217   4.038   1.208   4.856
10440SOL     OW32218   0.258   6.753   0.811
10440SOL    HW132219   0.344   6.793   0.845
10440SOL    HW232220   0.232   6.798   0.725
10441SOL     OW32221   3.962   1.610   1.725
10441SOL    HW132222   3.882   1.602   1.666
10441SOL    HW232223   4.044   1.616   1.668
10442SOL     OW32224   4.418   6.762   6.630
10442SOL    HW132225   4.463   6.823   6.696
10442SOL    HW232226   4.320   6.757   6.651
10443SOL     OW32227   4.933   3.394   3.865
10443SOL    HW132228   5.026   3.383   3.902
10443SOL    HW232229   4.896   3.482   3.893
10444SOL     OW32230   4.436   5.854   3.289
10444SOL    HW132231   4.525   5.831   3.328
10444SOL    HW232232   4.367   5.793   3.326
10445SOL     OW32233   0.532   4.585   4.144
10445SOL    HW132234   0.550   4.504   4.090
10445SOL    HW232235   0.504   4.558   4.236
10446SOL     OW32236   2.135   3.303   6.602
10446SOL    HW132237   2.063   3.247   6.561
10446SOL    HW232238   2.180   3.252   6.675
10447SOL     OW32239   0.398   0.750   2.878
10447SOL    HW132240   0.316   0.694   2.879
10447SOL    HW232241   0.385   0.830   2.937
10448SOL     OW32242   4.733   0.924   2.676
10448SOL    HW132243   4.781   0.841   2.704
10448SOL    HW232244   4.751   0.997   2.742
10449SOL     OW32245   1.529   4.880   6.145
10449SOL    HW132246   1.587   4.932   6.083
10449SOL    HW232247   1.533   4.783   6.122
10450SOL     OW32248   0.267   1.376   0.389
10450SOL    HW132249   0.227   1.382   0.480
10450SOL    HW232250   0.333   1.301   0.386
10451SOL     OW32251   1.997   5.519   2.640
10451SOL    HW132252   1.967   5.505   2.546
10451SOL    HW232253   2.084   5.472   2.654
10452SOL     OW32254   6.420   3.282   2.108
10452SOL    HW132255   6.338   3.297   2.052
10452SOL    HW232256   6.435   3.184   2.119
10453SOL     OW32257   5.210   6.930   1.139
10453SOL    HW132258   5.210   6.926   1.239
10453SOL    HW232259   5.121   6.963   1.107
10454SOL     OW32260   4.947   3.149   0.412
10454SOL    HW132261   4.922   3.137   0.316
10454SOL    HW232262   5.041   3.182   0.417
10455SOL     OW32263   6.561   6.596   3.464
10455SOL    HW132264   6.549   6.503   3.429
10455SOL    HW232265   6.520   6.603   3.555
10456SOL     OW32266   1.622   5.477   0.637
10456SOL    HW132267   1.655   5.525   0.555
10456SOL    HW232268   1.617   5.541   0.713
10457SOL     OW32269   3.526   2.629   0.915
10457SOL    HW132270   3.438   2.666   0.884
10457SOL    HW232271   3.599   2.695   0.897
10458SOL     OW32272   6.316   0.418   6.414
10458SOL    HW132273   6.330   0.429   6.316
10458SOL    HW232274   6.390   0.464   6.464
10459SOL     OW32275   4.384   6.147   1.833
10459SOL    HW132276   4.388   6.054   1.869
10459SOL    HW232277   4.325   6.148   1.752
10460SOL     OW32278   0.627   4.070   1.925
10460SOL    HW132279   0.555   4.088   1.992
10460SOL    HW232280   0.586   4.058   1.835
10461SOL     OW32281   6.121   5.295   4.972
10461SOL    HW132282   6.080   5.321   5.059
10461SOL    HW232283   6.094   5.362   4.902
10462SOL     OW32284   5.317   1.384   3.317
10462SOL    HW132285   5.300   1.462   3.258
10462SOL    HW232286   5.397   1.402   3.375
10463SOL     OW32287   4.577   3.124   5.664
10463SOL    HW132288   4.572   3.100   5.761
10463SOL    HW232289   4.489   3.103   5.621
10464SOL     OW32290   0.025   6.419   1.249
10464SOL    HW132291   0.067   6.328   1.247
10464SOL    HW232292   6.954   6.413   1.212
10465SOL     OW32293   5.973   6.142   0.560
10465SOL    HW132294   5.990   6.109   0.652
10465SOL    HW232295   6.035   6.218   0.539
10466SOL     OW32296   4.800   5.173   5.746
10466SOL    HW132297   4.816   5.092   5.689
10466SOL    HW232298   4.872   5.240   5.731
10467SOL     OW32299   2.654   1.362   0.085
10467SOL    HW132300   2.653   1.456   0.051
10467SOL    HW232301   2.642   1.363   0.185
10468SOL     OW32302   3.828   5.135   3.008
10468SOL    HW132303   3.771   5.217   3.010
10468SOL    HW232304   3.864   5.117   3.100
10469SOL     OW32305   4.153   4.617   5.424
10469SOL    HW132306   4.068   4.565   5.425
10469SOL    HW232307   4.159   4.673   5.506
10470SOL     OW32308   2.428   2.702   3.373
10470SOL    HW132309   2.388   2.775   3.428
10470SOL    HW232310   2.489   2.646   3.429
10471SOL     OW32311   3.379   1.195   0.948
10471SOL    HW132312   3.355   1.292   0.948
10471SOL    HW232313   3.300   1.141   0.975
10472SOL     OW32314   3.485   5.640   0.494
10472SOL    HW132315   3.456   5.705   0.423
10472SOL    HW232316   3.441   5.664   0.581
10473SOL     OW32317   6.506   6.703   0.047
10473SOL    HW132318   6.431   6.692   7.004
10473SOL    HW232319   6.552   6.614   0.060
10474SOL     OW32320   3.221   1.937   4.103
10474SOL    HW132321   3.130   1.975   4.088
10474SOL    HW232322   3.214   1.850   4.150
10475SOL     OW32323   4.717   6.923   1.136
10475SOL    HW132324   4.631   6.974   1.140
10475SOL    HW232325   4.716   6.849   1.203
10476SOL     OW32326   6.854   6.414   0.101
10476SOL    HW132327   6.904   6.328   0.116
10476SOL    HW232328   6.919   6.489   0.090
10477SOL     OW32329   6.802   0.858   4.477
10477SOL    HW132330   6.831   0.781   4.534
10477SOL    HW232331   6.704   0.874   4.491
10478SOL     OW32332   6.433   0.776   0.941
10478SOL    HW132333   6.422   0.683   0.974
10478SOL    HW232334   6.343   0.813   0.915
10479SOL     OW32335   0.188   2.142   2.532
10479SOL    HW132336   0.245   2.070   2.491
10479SOL    HW232337   0.141   2.193   2.459
10480SOL     OW32338   6.699   0.188   2.018
10480SOL    HW132339   6.695   0.288   2.019
10480SOL    HW232340   6.607   0.151   2.015
10481SOL     OW32341   2.790   6.779   4.087
10481SOL    HW132342   2.694   6.758   4.106
10481SOL    HW232343   2.795   6.850   4.016
10482SOL     OW32344   6.202   4.807   4.153
10482SOL    HW132345   6.276   4.811   4.086
10482SOL    HW232346   6.203   4.890   4.209
10483SOL     OW32347   6.414   4.543   0.186
10483SOL    HW132348   6.338   4.479   0.195
10483SOL    HW232349   6.459   4.529   0.099
10484SOL     OW32350   6.297   2.045   2.002
10484SOL    HW132351   6.359   2.068   2.077
10484SOL    HW232352   6.239   2.124   1.981
10485SOL     OW32353   3.149   3.860   0.777
10485SOL    HW132354   3.075   3.806   0.816
10485SOL    HW232355   3.146   3.953   0.814
10486SOL     OW32356   6.939   0.354   0.391
10486SOL    HW132357   0.015   0.331   0.398
10486SOL    HW232358   6.888   0.306   0.463
10487SOL     OW32359   4.746   2.039   1.724
10487SOL    HW132360   4.755   1.941   1.706
10487SOL    HW232361   4.662   2.055   1.776
10488SOL     OW32362   3.123   1.431   5.531
10488SOL    HW132363   3.110   1.445   5.433
10488SOL    HW232364   3.197   1.489   5.564
10489SOL     OW32365   0.013   0.067   4.984
10489SOL    HW132366   0.091   0.024   4.939
10489SOL    HW232367   6.971   0.102   4.915
10490SOL     OW32368   5.631   1.884   0.751
10490SOL    HW132369   5.664   1.972   0.718
10490SOL    HW232370   5.568   1.845   0.684
10491SOL     OW32371   2.998   2.324   5.993
10491SOL    HW132372   3.020   2.420   5.976
10491SOL    HW232373   3.010   2.304   6.090
10492SOL     OW32374   5.666   5.711   1.153
10492SOL    HW132375   5.761   5.730   1.174
10492SOL    HW232376   5.612   5.710   1.238
10493SOL     OW32377   3.731   0.350   1.471
10493SOL    HW132378   3.672   0.408   1.527
10493SOL    HW232379   3.690   0.260   1.460
10494SOL     OW32380   6.013   4.204   5.757
10494SOL    HW132381   6.045   4.112   5.780
10494SOL    HW232382   5.913   4.206   5.762
10495SOL     OW32383   1.561   6.422   1.365
10495SOL    HW132384   1.532   6.489   1.434
10495SOL    HW232385   1.572   6.333   1.408
10496SOL     OW32386   6.484   3.504   6.709
10496SOL    HW132387   6.455   3.588   6.755
10496SOL    HW232388   6.488   3.519   6.610
10497SOL     OW32389   1.826   7.004   2.366
10497SOL    HW132390   1.732   7.011   2.334
10497SOL    HW232391   1.830   0.010   2.463
10498SOL     OW32392   5.185   5.377   0.640
10498SOL    HW132393   5.114   5.406   0.704
10498SOL    HW232394   5.204   5.450   0.575
10499SOL     OW32395   4.452   6.791   2.045
10499SOL    HW132396   4.366   6.841   2.033
10499SOL    HW232397   4.525   6.838   1.996
10500SOL     OW32398   6.211   1.547   5.804
10500SOL    HW132399   6.177   1.628   5.756
10500SOL    HW232400   6.307   1.560   5.829
10501SOL     OW32401   2.271   5.797   2.083
10501SOL    HW132402   2.332   5.806   2.162
10501SOL    HW232403   2.320   5.825   2.001
10502SOL     OW32404   2.608   1.346   2.173
10502SOL    HW132405   2.565   1.425   2.130
10502SOL    HW232406   2.667   1.300   2.106
10503SOL     OW32407   4.846   2.825   1.094
10503SOL    HW132408   4.833   2.725   1.095
10503SOL    HW232409   4.879   2.855   1.184
10504SOL     OW32410   1.577   2.339   5.724
10504SOL    HW132411   1.518   2.258   5.732
10504SOL    HW232412   1.658   2.328   5.782
10505SOL     OW32413   5.296   5.123   0.554
10505SOL    HW132414   5.322   5.138   0.458
10505SOL    HW232415   5.236   5.197   0.584
10506SOL     OW32416   0.328   3.862   0.316
10506SOL    HW132417   0.425   3.879   0.331
10506SOL    HW232418   0.278   3.872   0.402
10507SOL     OW32419   1.770   6.876   0.866
10507SOL    HW132420   1.805   6.968   0.885
10507SOL    HW232421   1.832   6.830   0.802
10508SOL     OW32422   6.415   5.602   4.222
10508SOL    HW132423   6.507   5.643   4.215
10508SOL    HW232424   6.409   5.524   4.159
10509SOL     OW32425   6.884   5.149   5.054
10509SOL    HW132426   6.867   5.055   5.026
10509SOL    HW232427   6.938   5.150   5.138
10510SOL     OW32428   5.075   5.711   6.591
10510SOL    HW132429   5.019   5.631   6.569
10510SOL    HW232430   5.040   5.754   6.674
10511SOL     OW32431   3.288   1.285   2.438
10511SOL    HW132432   3.278   1.334   2.524
10511SOL    HW232433   3.323   1.347   2.368
10512SOL     OW32434   4.501   0.819   6.369
10512SOL    HW132435   4.515   0.853   6.276
10512SOL    HW232436   4.445   0.737   6.366
10513SOL     OW32437   5.667   2.382   4.575
10513SOL    HW132438   5.724   2.374   4.493
10513SOL    HW232439   5.664   2.294   4.622
10514SOL     OW32440   0.279   3.008   1.565
10514SOL    HW132441   0.292   3.106   1.548
10514SOL    HW232442   0.349   2.976   1.630
10515SOL     OW32443   0.747   3.509   3.802
10515SOL    HW132444   0.648   3.499   3.814
10515SOL    HW232445   0.772   3.480   3.710
10516SOL     OW32446   4.207   1.609   0.534
10516SOL    HW132447   4.123   1.633   0.487
10516SOL    HW232448   4.233   1.515   0.510
10517SOL     OW32449   0.709   3.050   1.596
10517SOL    HW132450   0.691   3.078   1.502
10517SOL    HW232451   0.715   3.131   1.655
10518SOL     OW32452   0.373   5.979   0.621
10518SOL    HW132453   0.315   6.039   0.566
10518SOL    HW232454   0.452   6.030   0.653
10519SOL     OW32455   3.405   3.782   0.878
10519SOL    HW132456   3.461   3.742   0.805
10519SOL    HW232457   3.323   3.823   0.839
10520SOL     OW32458   0.426   2.223   6.099
10520SOL    HW132459   0.517   2.232   6.058
10520SOL    HW232460   0.358   2.218   6.026
10521SOL     OW32461   6.354   5.391   1.591
10521SOL    HW132462   6.303   5.424   1.670
10521SOL    HW232463   6.412   5.465   1.555
10522SOL     OW32464   0.439   0.307   5.087
10522SOL    HW132465   0.508   0.378   5.096
10522SOL    HW232466   0.354   0.347   5.053
10523SOL     OW32467   0.774   4.720   2.849
10523SOL    HW132468   0.741   4.732   2.756
10523SOL    HW232469   0.708   4.759   2.913
10524SOL     OW32470   0.632   6.896   3.744
10524SOL    HW132471   0.606   6.807   3.705
10524SOL    HW232472   0.722   6.888   3.787
10525SOL     OW32473   4.804   0.465   6.108
10525SOL    HW132474   4.747   0.482   6.188
10525SOL    HW232475   4.839   0.551   6.073
10526SOL     OW32476   1.753   6.766   3.351
10526SOL    HW132477   1.772   6.773   3.253
10526SOL    HW232478   1.794   6.682   3.387
10527SOL     OW32479   0.760   1.533   5.142
10527SOL    HW132480   0.783   1.537   5.239
10527SOL    HW232481   0.821   1.593   5.090
10528SOL     OW32482   1.414   3.281   6.240
10528SOL    HW132483   1.426   3.287   6.339
10528SOL    HW232484   1.367   3.195   6.217
10529SOL     OW32485   2.844   6.493   4.055
10529SOL    HW132486   2.805   6.459   4.141
10529SOL    HW232487   2.836   6.592   4.052
10530SOL     OW32488   1.671   6.791   6.381
10530SOL    HW132489   1.625   6.723   6.324
10530SOL    HW232490   1.615   6.873   6.387
10531SOL     OW32491   1.651   2.916   4.620
10531SOL    HW132492   1.735   2.866   4.599
10531SOL    HW232493   1.618   2.889   4.710
10532SOL     OW32494   1.193   6.881   6.173
10532SOL    HW132495   1.143   6.899   6.258
10532SOL    HW232496   1.166   6.792   6.137
10533SOL     OW32497   3.071   6.530   3.297
10533SOL    HW132498   3.136   6.600   3.326
10533SOL    HW232499   3.109   6.477   3.222
10534SOL     OW32500   6.490   5.815   1.655
10534SOL    HW132501   6.420   5.768   1.708
10534SOL    HW232502   6.559   5.854   1.716
10535SOL     OW32503   1.278   2.125   1.855
10535SOL    HW132504   1.263   2.206   1.798
10535SOL    HW232505   1.204   2.116   1.921
10536SOL     OW32506   3.901   1.114   3.780
10536SOL    HW132507   3.935   1.027   3.744
10536SOL    HW232508   3.915   1.186   3.713
10537SOL     OW32509   4.217   5.903   3.854
10537SOL    HW132510   4.251   5.996   3.840
10537SOL    HW232511   4.265   5.840   3.794
10538SOL     OW32512   5.662   3.247   0.599
10538SOL    HW132513   5.759   3.221   0.595
10538SOL    HW232514   5.613   3.204   0.524
10539SOL     OW32515   0.902   4.859   6.841
10539SOL    HW132516   0.869   4.880   6.749
10539SOL    HW232517   0.862   4.772   6.871
10540SOL     OW32518   1.466   2.430   6.000
10540SOL    HW132519   1.500   2.423   5.906
10540SOL    HW232520   1.506   2.357   6.056
10541SOL     OW32521   3.163   3.769   2.183
10541SOL    HW132522   3.181   3.682   2.137
10541SOL    HW232523   3.195   3.763   2.278
10542SOL     OW32524   0.677   0.633   5.552
10542SOL    HW132525   0.591   0.647   5.504
10542SOL    HW232526   0.659   0.617   5.649
10543SOL     OW32527   0.032   1.515   5.186
10543SOL    HW132528   0.103   1.545   5.122
10543SOL    HW232529   0.060   1.429   5.228
10544SOL     OW32530   2.583   6.667   1.937
10544SOL    HW132531   2.657   6.711   1.885
10544SOL    HW232532   2.622   6.592   1.991
10545SOL     OW32533   0.182   1.954   1.216
10545SOL    HW132534   0.163   1.870   1.166
10545SOL    HW232535   0.195   2.029   1.151
10546SOL     OW32536   1.505   0.405   0.820
10546SOL    HW132537   1.480   0.359   0.905
10546SOL    HW232538   1.524   0.502   0.839
10547SOL     OW32539   4.850   3.106   2.939
10547SOL    HW132540   4.764   3.068   2.971
10547SOL    HW232541   4.838   3.142   2.846
10548SOL     OW32542   5.988   4.643   4.241
10548SOL    HW132543   6.061   4.709   4.222
10548SOL    HW232544   5.962   4.648   4.337
10549SOL     OW32545   0.767   0.363   1.697
10549SOL    HW132546   0.684   0.339   1.747
10549SOL    HW232547   0.779   0.462   1.698
10550SOL     OW32548   4.518   6.989   3.715
10550SOL    HW132549   4.441   6.929   3.696
10550SOL    HW232550   4.593   6.935   3.754
10551SOL     OW32551   1.620   2.661   6.860
10551SOL    HW132552   1.577   2.583   6.905
10551SOL    HW232553   1.549   2.726   6.831
10552SOL     OW32554   2.439   1.034   5.723
10552SOL    HW132555   2.440   1.025   5.623
10552SOL    HW232556   2.349   1.067   5.753
10553SOL     OW32557   0.562   4.645   1.582
10553SOL    HW132558   0.481   4.615   1.532
10553SOL    HW232559   0.554   4.743   1.602
10554SOL     OW32560   5.950   4.825   0.747
10554SOL    HW132561   6.047   4.825   0.724
10554SOL    HW232562   5.938   4.857   0.841
10555SOL     OW32563   2.080   2.465   0.046
10555SOL    HW132564   2.130   2.531   0.102
10555SOL    HW232565   1.997   2.507   0.011
10556SOL     OW32566   1.958   1.633   5.154
10556SOL    HW132567   1.900   1.668   5.228
10556SOL    HW232568   1.907   1.635   5.068
10557SOL     OW32569   1.812   3.290   3.297
10557SOL    HW132570   1.729   3.310   3.244
10557SOL    HW232571   1.837   3.194   3.286
10558SOL     OW32572   4.119   0.246   4.391
10558SOL    HW132573   4.056   0.187   4.443
10558SOL    HW232574   4.213   0.216   4.406
10559SOL     OW32575   4.777   0.608   1.927
10559SOL    HW132576   4.724   0.560   1.858
10559SOL    HW232577   4.735   0.595   2.017
10560SOL     OW32578   4.651   6.634   2.523
10560SOL    HW132579   4.670   6.671   2.432
10560SOL    HW232580   4.570   6.678   2.561
10561SOL     OW32581   3.592   4.360   1.635
10561SOL    HW132582   3.604   4.361   1.536
10561SOL    HW232583   3.633   4.442   1.674
10562SOL     OW32584   3.906   5.796   7.020
10562SOL    HW132585   4.002   5.793   6.992
10562SOL    HW232586   3.864   5.707   7.002
10563SOL     OW32587   0.266   1.359   3.259
10563SOL    HW132588   0.232   1.327   3.171
10563SOL    HW232589   0.342   1.422   3.244
10564SOL     OW32590   6.118   6.041   2.920
10564SOL    HW132591   6.117   6.141   2.926
10564SOL    HW232592   6.196   6.011   2.866
10565SOL     OW32593   0.706   6.871   5.644
10565SOL    HW132594   0.633   6.920   5.597
10565SOL    HW232595   0.770   6.938   5.684
10566SOL     OW32596   3.431   1.842   6.630
10566SOL    HW132597   3.365   1.901   6.678
10566SOL    HW232598   3.472   1.894   6.555
10567SOL     OW32599   2.537   1.949   4.959
10567SOL    HW132600   2.593   2.001   5.023
10567SOL    HW232601   2.535   1.995   4.870
10568SOL     OW32602   6.862   3.237   1.566
10568SOL    HW132603   6.944   3.243   1.624
10568SOL    HW232604   6.782   3.266   1.619
10569SOL     OW32605   5.925   1.652   2.520
10569SOL    HW132606   5.855   1.670   2.588
10569SOL    HW232607   6.014   1.680   2.555
10570SOL     OW32608   1.060   4.741   2.818
10570SOL    HW132609   1.059   4.841   2.824
10570SOL    HW232610   0.968   4.708   2.799
10571SOL     OW32611   6.894   4.177   5.095
10571SOL    HW132612   6.837   4.172   5.013
10571SOL    HW232613   6.881   4.266   5.139
10572SOL     OW32614   6.611   3.994   3.275
10572SOL    HW132615   6.543   4.054   3.317
10572SOL    HW232616   6.614   3.907   3.324
10573SOL     OW32617   5.702   0.473   5.124
10573SOL    HW132618   5.663   0.557   5.164
10573SOL    HW232619   5.628   0.419   5.084
10574SOL     OW32620   1.267   1.525   4.049
10574SOL    HW132621   1.209   1.443   4.047
10574SOL    HW232622   1.218   1.599   4.095
10575SOL     OW32623   0.009   1.267   3.828
10575SOL    HW132624   0.017   1.212   3.911
10575SOL    HW232625   0.100   1.286   3.792
10576SOL     OW32626   0.080   5.552   5.371
10576SOL    HW132627   0.004   5.542   5.436
10576SOL    HW232628   0.063   5.631   5.311
10577SOL     OW32629   1.744   4.436   0.289
10577SOL    HW132630   1.726   4.390   0.202
10577SOL    HW232631   1.801   4.517   0.273
10578SOL     OW32632   4.682   1.586   2.806
10578SOL    HW132633   4.781   1.587   2.795
10578SOL    HW232634   4.639   1.640   2.733
10579SOL     OW32635   4.308   2.960   1.683
10579SOL    HW132636   4.230   2.996   1.632
10579SOL    HW232637   4.383   3.026   1.679
10580SOL     OW32638   6.591   0.508   6.429
10580SOL    HW132639   6.582   0.515   6.330
10580SOL    HW232640   6.683   0.477   6.453
10581SOL     OW32641   5.935   0.001   2.843
10581SOL    HW132642   5.961   0.046   2.928
10581SOL    HW232643   5.859   0.051   2.801
10582SOL     OW32644   4.819   4.677   5.774
10582SOL    HW132645   4.845   4.600   5.834
10582SOL    HW232646   4.722   4.670   5.752
10583SOL     OW32647   3.731   1.400   3.501
10583SOL    HW132648   3.763   1.443   3.585
10583SOL    HW232649   3.643   1.440   3.474
10584SOL     OW32650   6.422   0.235   0.451
10584SOL    HW132651   6.479   0.317   0.450
10584SOL    HW232652   6.479   0.154   0.436
10585SOL     OW32653   2.445   1.869   5.395
10585SOL    HW132654   2.393   1.900   5.315
10585SOL    HW232655   2.502   1.791   5.368
10586SOL     OW32656   6.536   4.816   5.061
10586SOL    HW132657   6.520   4.870   5.143
10586SOL    HW232658   6.448   4.787   5.022
10587SOL     OW32659   6.303   4.760   6.954
10587SOL    HW132660   6.218   4.736   6.906
10587SOL    HW232661   6.281   4.789   0.026
10588SOL     OW32662   1.487   3.509   4.643
10588SOL    HW132663   1.524   3.506   4.550
10588SOL    HW232664   1.486   3.416   4.681
10589SOL     OW32665   6.458   1.437   4.598
10589SOL    HW132666   6.526   1.375   4.560
10589SOL    HW232667   6.433   1.505   4.530
10590SOL     OW32668   0.546   0.247   1.100
10590SOL    HW132669   0.631   0.252   1.153
10590SOL    HW232670   0.504   0.157   1.111
10591SOL     OW32671   1.907   1.876   6.809
10591SOL    HW132672   1.888   1.966   6.769
10591SOL    HW232673   1.992   1.880   6.861
10592SOL     OW32674   6.052   3.597   2.581
10592SOL    HW132675   6.039   3.498   2.592
10592SOL    HW232676   6.124   3.628   2.643
10593SOL     OW32677   2.095   6.272   0.391
10593SOL    HW132678   2.008   6.242   0.351
10593SOL    HW232679   2.149   6.320   0.322
10594SOL     OW32680   5.106   0.772   3.067
10594SOL    HW132681   5.010   0.750   3.078
10594SOL    HW232682   5.121   0.819   2.980
10595SOL     OW32683   4.891   6.165   0.233
10595SOL    HW132684   4.870   6.254   0.274
10595SOL    HW232685   4.826   6.146   0.160
10596SOL     OW32686   4.537   0.995   0.361
10596SOL    HW132687   4.597   0.920   0.387
10596SOL    HW232688   4.445   0.977   0.395
10597SOL     OW32689   3.342   1.034   5.641
10597SOL    HW132690   3.334   1.097   5.718
10597SOL    HW232691   3.306   1.077   5.558
10598SOL     OW32692   3.591   2.799   0.171
10598SOL    HW132693   3.524   2.873   0.168
10598SOL    HW232694   3.684   2.837   0.164
10599SOL     OW32695   5.305   3.450   6.140
10599SOL    HW132696   5.382   3.394   6.170
10599SOL    HW232697   5.279   3.424   6.046
10600SOL     OW32698   3.358   2.695   0.423
10600SOL    HW132699   3.406   2.772   0.467
10600SOL    HW232700   3.372   2.699   0.324
10601SOL     OW32701   1.624   4.816   5.299
10601SOL    HW132702   1.538   4.852   5.262
10601SOL    HW232703   1.667   4.758   5.231
10602SOL     OW32704   2.312   0.773   1.920
10602SOL    HW132705   2.307   0.762   1.820
10602SOL    HW232706   2.363   0.697   1.959
10603SOL     OW32707   3.711   0.400   3.093
10603SOL    HW132708   3.742   0.314   3.134
10603SOL    HW232709   3.727   0.475   3.156
10604SOL     OW32710   6.046   5.923   5.098
10604SOL    HW132711   6.141   5.905   5.071
10604SOL    HW232712   6.013   6.005   5.051
10605SOL     OW32713   2.091   6.862   6.865
10605SOL    HW132714   2.088   6.836   6.768
10605SOL    HW232715   2.000   6.852   6.905
10606SOL     OW32716   0.277   0.618   1.637
10606SOL    HW132717   0.335   0.640   1.715
10606SOL    HW232718   0.297   0.681   1.562
10607SOL     OW32719   4.394   4.983   5.679
10607SOL    HW132720   4.336   4.967   5.759
10607SOL    HW232721   4.429   5.076   5.682
10608SOL     OW32722   6.041   3.133   5.467
10608SOL    HW132723   5.996   3.117   5.555
10608SOL    HW232724   5.973   3.138   5.395
10609SOL     OW32725   2.376   6.812   6.858
10609SOL    HW132726   2.409   6.831   6.950
10609SOL    HW232727   2.277   6.828   6.853
10610SOL     OW32728   0.830   2.321   4.559
10610SOL    HW132729   0.929   2.318   4.553
10610SOL    HW232730   0.802   2.374   4.640
10611SOL     OW32731   2.349   4.145   6.711
10611SOL    HW132732   2.390   4.089   6.639
10611SOL    HW232733   2.408   4.144   6.792
10612SOL     OW32734   3.383   1.658   4.725
10612SOL    HW132735   3.426   1.672   4.636
10612SOL    HW232736   3.397   1.563   4.755
10613SOL     OW32737   5.393   5.627   5.339
10613SOL    HW132738   5.366   5.722   5.325
10613SOL    HW232739   5.482   5.624   5.385
10614SOL     OW32740   5.009   1.870   4.609
10614SOL    HW132741   5.049   1.778   4.606
10614SOL    HW232742   5.067   1.928   4.667
10615SOL     OW32743   4.484   0.508   5.706
10615SOL    HW132744   4.436   0.578   5.654
10615SOL    HW232745   4.469   0.419   5.664
10616SOL     OW32746   2.232   0.057   6.959
10616SOL    HW132747   2.306   0.046   0.003
10616SOL    HW232748   2.198   6.988   6.931
10617SOL     OW32749   3.106   3.758   1.387
10617SOL    HW132750   3.176   3.818   1.347
10617SOL    HW232751   3.144   3.666   1.398
10618SOL     OW32752   1.075   3.499   5.659
10618SOL    HW132753   1.174   3.513   5.659
10618SOL    HW232754   1.048   3.446   5.739
10619SOL     OW32755   0.292   3.142   2.661
10619SOL    HW132756   0.198   3.174   2.672
10619SOL    HW232757   0.296   3.075   2.587
10620SOL     OW32758   0.958   6.036   5.335
10620SOL    HW132759   1.023   6.082   5.395
10620SOL    HW232760   0.927   6.100   5.264
10621SOL     OW32761   0.550   5.024   1.763
10621SOL    HW132762   0.567   4.937   1.810
10621SOL    HW232763   0.628   5.046   1.705
10622SOL     OW32764   4.952   2.158   1.888
10622SOL    HW132765   4.911   2.247   1.909
10622SOL    HW232766   4.885   2.100   1.842
10623SOL     OW32767   0.399   4.748   5.576
10623SOL    HW132768   0.384   4.817   5.505
10623SOL    HW232769   0.393   4.657   5.536
10624SOL     OW32770   1.221   2.509   4.864
10624SOL    HW132771   1.156   2.527   4.938
10624SOL    HW232772   1.186   2.434   4.807
10625SOL     OW32773   0.772   4.736   1.005
10625SOL    HW132774   0.821   4.764   0.922
10625SOL    HW232775   0.752   4.817   1.061
10626SOL     OW32776   2.665   2.976   0.379
10626SOL    HW132777   2.632   2.970   0.473
10626SOL    HW232778   2.604   2.925   0.318
10627SOL     OW32779   4.918   0.311   1.002
10627SOL    HW132780   4.953   0.217   1.010
10627SOL    HW232781   4.930   0.343   0.908
10628SOL     OW32782   4.576   6.398   0.146
10628SOL    HW132783   4.498   6.427   0.202
10628SOL    HW232784   4.548   6.389   0.050
10629SOL     OW32785   2.451   4.974   5.075
10629SOL    HW132786   2.497   5.012   4.996
10629SOL    HW232787   2.499   4.892   5.107
10630SOL     OW32788   5.881   1.221   4.019
10630SOL    HW132789   5.808   1.260   3.962
10630SOL    HW232790   5.849   1.135   4.060
10631SOL     OW32791   2.994   5.236   5.496
10631SOL    HW132792   2.981   5.232   5.397
10631SOL    HW232793   2.906   5.235   5.542
10632SOL     OW32794   5.659   1.341   3.397
10632SOL    HW132795   5.604   1.404   3.452
10632SOL    HW232796   5.661   1.251   3.440
10633SOL     OW32797   2.179   2.570   0.730
10633SOL    HW132798   2.101   2.588   0.671
10633SOL    HW232799   2.194   2.471   0.737
10634SOL     OW32800   3.339   4.534   0.615
10634SOL    HW132801   3.412   4.592   0.651
10634SOL    HW232802   3.378   4.464   0.555
10635SOL     OW32803   1.465   3.151   0.744
10635SOL    HW132804   1.411   3.137   0.661
10635SOL    HW232805   1.545   3.207   0.723
10636SOL     OW32806   0.705   2.174   1.130
10636SOL    HW132807   0.732   2.105   1.064
10636SOL    HW232808   0.781   2.236   1.147
10637SOL     OW32809   2.320   4.423   5.937
10637SOL    HW132810   2.328   4.404   6.035
10637SOL    HW232811   2.337   4.339   5.885
10638SOL     OW32812   6.315   5.510   2.539
10638SOL    HW132813   6.226   5.466   2.550
10638SOL    HW232814   6.382   5.465   2.599
10639SOL     OW32815   1.147   3.336   3.309
10639SOL    HW132816   1.086   3.416   3.314
10639SOL    HW232817   1.194   3.325   3.397
10640SOL     OW32818   3.795   0.055   5.005
10640SOL    HW132819   3.809   0.082   4.910
10640SOL    HW232820   3.705   0.086   5.036
10641SOL     OW32821   2.278   2.169   2.175
10641SOL    HW132822   2.318   2.239   2.116
10641SOL    HW232823   2.344   2.094   2.187
10642SOL     OW32824   6.157   2.648   1.440
10642SOL    HW132825   6.082   2.714   1.436
10642SOL    HW232826   6.186   2.636   1.534
10643SOL     OW32827   1.980   5.494   5.201
10643SOL    HW132828   1.882   5.509   5.211
10643SOL    HW232829   1.997   5.437   5.121
10644SOL     OW32830   5.850   2.875   2.660
10644SOL    HW132831   5.888   2.920   2.579
10644SOL    HW232832   5.752   2.863   2.648
10645SOL     OW32833   1.938   2.619   5.052
10645SOL    HW132834   1.938   2.523   5.082
10645SOL    HW232835   2.025   2.639   5.005
10646SOL     OW32836   0.881   0.460   6.740
10646SOL    HW132837   0.950   0.394   6.772
10646SOL    HW232838   0.857   0.521   6.815
10647SOL     OW32839   2.722   5.348   4.906
10647SOL    HW132840   2.658   5.273   4.921
10647SOL    HW232841   2.797   5.343   4.973
10648SOL     OW32842   6.081   3.746   6.127
10648SOL    HW132843   5.999   3.702   6.164
10648SOL    HW232844   6.071   3.846   6.134
10649SOL     OW32845   0.082   4.359   2.435
10649SOL    HW132846   0.111   4.437   2.490
10649SOL    HW232847   7.009   4.374   2.404
10650SOL     OW32848   0.977   0.359   4.080
10650SOL    HW132849   0.890   0.311   4.081
10650SOL    HW232850   0.991   0.404   4.168
10651SOL     OW32851   5.742   6.721   0.067
10651SOL    HW132852   5.784   6.630   0.063
10651SOL    HW232853   5.710   6.738   0.160
10652SOL     OW32854   3.492   0.032   5.600
10652SOL    HW132855   3.499   0.108   5.665
10652SOL    HW232856   3.580   0.019   5.554
10653SOL     OW32857   4.136   4.914   2.917
10653SOL    HW132858   4.203   4.840   2.922
10653SOL    HW232859   4.046   4.879   2.944
10654SOL     OW32860   5.405   0.968   0.742
10654SOL    HW132861   5.493   1.000   0.706
10654SOL    HW232862   5.378   1.027   0.819
10655SOL     OW32863   2.385   5.427   0.934
10655SOL    HW132864   2.291   5.393   0.943
10655SOL    HW232865   2.446   5.349   0.920
10656SOL     OW32866   6.939   2.390   2.486
10656SOL    HW132867   6.909   2.309   2.436
10656SOL    HW232868   0.017   2.396   2.483
10657SOL     OW32869   6.200   0.253   5.783
10657SOL    HW132870   6.213   0.226   5.879
10657SOL    HW232871   6.118   0.310   5.775
10658SOL     OW32872   6.324   4.860   4.674
10658SOL    HW132873   6.281   4.781   4.630
10658SOL    HW232874   6.308   4.856   4.772
10659SOL     OW32875   0.325   5.536   1.013
10659SOL    HW132876   0.230   5.566   1.024
10659SOL    HW232877   0.346   5.467   1.082
10660SOL     OW32878   4.905   4.426   6.357
10660SOL    HW132879   4.959   4.366   6.416
10660SOL    HW232880   4.809   4.423   6.386
10661SOL     OW32881   1.435   6.574   1.624
10661SOL    HW132882   1.517   6.533   1.664
10661SOL    HW232883   1.387   6.626   1.695
10662SOL     OW32884   5.670   6.487   2.913
10662SOL    HW132885   5.588   6.508   2.859
10662SOL    HW232886   5.687   6.561   2.978
10663SOL     OW32887   0.461   1.891   2.045
10663SOL    HW132888   0.429   1.913   2.137
10663SOL    HW232889   0.559   1.870   2.049
10664SOL     OW32890   6.993   4.183   4.810
10664SOL    HW132891   6.895   4.191   4.831
10664SOL    HW232892   7.015   4.087   4.794
10665SOL     OW32893   0.918   1.337   0.612
10665SOL    HW132894   0.900   1.390   0.530
10665SOL    HW232895   0.961   1.250   0.587
10666SOL     OW32896   3.359   4.110   1.898
10666SOL    HW132897   3.309   4.057   1.828
10666SOL    HW232898   3.370   4.204   1.866
10667SOL     OW32899   4.129   3.032   5.899
10667SOL    HW132900   4.055   2.966   5.888
10667SOL    HW232901   4.100   3.121   5.863
10668SOL     OW32902   2.309   0.491   5.068
10668SOL    HW132903   2.295   0.584   5.103
10668SOL    HW232904   2.394   0.487   5.016
10669SOL     OW32905   5.549   6.678   0.842
10669SOL    HW132906   5.543   6.669   0.942
10669SOL    HW232907   5.539   6.588   0.800
10670SOL     OW32908   5.322   3.723   5.033
10670SOL    HW132909   5.351   3.631   5.006
10670SOL    HW232910   5.223   3.728   5.035
10671SOL     OW32911   2.689   2.426   2.970
10671SOL    HW132912   2.633   2.391   2.895
10671SOL    HW232913   2.632   2.476   3.035
10672SOL     OW32914   6.541   2.751   0.791
10672SOL    HW132915   6.570   2.656   0.777
10672SOL    HW232916   6.443   2.759   0.776
10673SOL     OW32917   1.358   1.420   6.224
10673SOL    HW132918   1.435   1.466   6.267
10673SOL    HW232919   1.273   1.470   6.243
10674SOL     OW32920   3.548   4.176   2.084
10674SOL    HW132921   3.557   4.267   2.044
10674SOL    HW232922   3.469   4.130   2.045
10675SOL     OW32923   1.628   6.752   6.661
10675SOL    HW132924   1.609   6.670   6.715
10675SOL    HW232925   1.660   6.725   6.570
10676SOL     OW32926   6.518   5.982   6.195
10676SOL    HW132927   6.465   6.057   6.154
10676SOL    HW232928   6.594   5.958   6.134
10677SOL     OW32929   1.266   1.064   2.137
10677SOL    HW132930   1.263   0.993   2.207
10677SOL    HW232931   1.345   1.049   2.077
10678SOL     OW32932   3.451   5.905   4.213
10678SOL    HW132933   3.440   5.805   4.219
10678SOL    HW232934   3.485   5.929   4.122
10679SOL     OW32935   4.357   5.822   5.912
10679SOL    HW132936   4.444   5.824   5.960
10679SOL    HW232937   4.346   5.908   5.861
10680SOL     OW32938   2.904   1.927   2.730
10680SOL    HW132939   2.973   1.855   2.733
10680SOL    HW232940   2.844   1.914   2.651
10681SOL     OW32941   0.741   3.593   0.159
10681SOL    HW132942   0.720   3.663   0.090
10681SOL    HW232943   0.820   3.623   0.212
10682SOL     OW32944   1.906   1.269   4.861
10682SOL    HW132945   1.953   1.272   4.950
10682SOL    HW232946   1.957   1.325   4.795
10683SOL     OW32947   3.434   2.059   3.339
10683SOL    HW132948   3.378   2.116   3.400
10683SOL    HW232949   3.531   2.079   3.355
10684SOL     OW32950   5.140   4.102   0.928
10684SOL    HW132951   5.063   4.136   0.875
10684SOL    HW232952   5.162   4.009   0.898
10685SOL     OW32953   0.358   5.541   2.558
10685SOL    HW132954   0.421   5.575   2.488
10685SOL    HW232955   0.396   5.457   2.598
10686SOL     OW32956   1.441   5.079   6.303
10686SOL    HW132957   1.516   5.092   6.368
10686SOL    HW232958   1.468   5.013   6.233
10687SOL     OW32959   6.874   5.105   1.665
10687SOL    HW132960   6.808   5.160   1.716
10687SOL    HW232961   6.928   5.051   1.728
10688SOL     OW32962   6.113   4.326   3.118
10688SOL    HW132963   6.118   4.327   3.018
10688SOL    HW232964   6.018   4.331   3.147
10689SOL     OW32965   0.471   6.135   3.344
10689SOL    HW132966   0.561   6.107   3.376
10689SOL    HW232967   0.408   6.139   3.422
10690SOL     OW32968   0.620   6.334   2.866
10690SOL    HW132969   0.541   6.295   2.818
10690SOL    HW232970   0.589   6.374   2.952
10691SOL     OW32971   0.242   2.157   2.194
10691SOL    HW132972   0.295   2.081   2.232
10691SOL    HW232973   0.233   2.145   2.095
10692SOL     OW32974   2.761   5.739   3.145
10692SOL    HW132975   2.719   5.815   3.097
10692SOL    HW232976   2.830   5.697   3.086
10693SOL     OW32977   2.852   0.487   6.978
10693SOL    HW132978   2.789   0.436   6.919
10693SOL    HW232979   2.934   0.433   6.994
10694SOL     OW32980   5.185   6.610   1.653
10694SOL    HW132981   5.135   6.661   1.723
10694SOL    HW232982   5.260   6.666   1.618
10695SOL     OW32983   5.003   2.196   2.819
10695SOL    HW132984   4.914   2.171   2.781
10695SOL    HW232985   5.058   2.239   2.748
10696SOL     OW32986   0.001   3.579   3.958
10696SOL    HW132987   6.961   3.500   3.953
10696SOL    HW232988   7.008   3.637   3.878
10697SOL     OW32989   0.593   6.246   4.329
10697SOL    HW132990   0.497   6.258   4.306
10697SOL    HW232991   0.601   6.192   4.413
10698SOL     OW32992   4.145   5.746   4.715
10698SOL    HW132993   4.178   5.837   4.741
10698SOL    HW232994   4.222   5.691   4.682
10699SOL     OW32995   3.916   3.023   1.904
10699SOL    HW132996   3.855   3.101   1.891
10699SOL    HW232997   3.867   2.938   1.882
10700SOL     OW32998   0.070   6.192   1.098
10700SOL    HW132999   7.018   6.136   1.059
10700SOL    HW233000   0.137   6.133   1.144
10701SOL     OW33001   2.856   5.930   0.012
10701SOL    HW133002   2.819   5.929   0.104
10701SOL    HW233003   2.933   5.994   0.008
10702SOL     OW33004   5.766   3.058   1.862
10702SOL    HW133005   5.766   3.157   1.872
10702SOL    HW233006   5.699   3.030   1.794
10703SOL     OW33007   3.383   3.966   5.102
10703SOL    HW133008   3.349   4.054   5.133
10703SOL    HW233009   3.414   3.974   5.007
10704SOL     OW33010   6.612   5.244   1.489
10704SOL    HW133011   6.647   5.217   1.579
10704SOL    HW233012   6.551   5.174   1.454
10705SOL     OW33013   6.214   4.296   1.821
10705SOL    HW133014   6.205   4.391   1.851
10705SOL    HW233015   6.199   4.235   1.899
10706SOL     OW33016   4.828   6.889   2.492
10706SOL    HW133017   4.901   6.868   2.426
10706SOL    HW233018   4.766   6.957   2.453
10707SOL     OW33019   0.411   6.419   3.563
10707SOL    HW133020   0.396   6.333   3.612
10707SOL    HW233021   0.344   6.428   3.489
10708SOL     OW33022   4.359   0.787   2.521
10708SOL    HW133023   4.368   0.848   2.442
10708SOL    HW233024   4.266   0.753   2.527
10709SOL     OW33025   5.949   6.698   5.325
10709SOL    HW133026   6.031   6.746   5.355
10709SOL    HW233027   5.869   6.740   5.365
10710SOL     OW33028   0.231   6.519   4.757
10710SOL    HW133029   0.228   6.419   4.761
10710SOL    HW233030   0.143   6.556   4.786
10711SOL     OW33031   1.897   5.772   3.526
10711SOL    HW133032   1.943   5.686   3.547
10711SOL    HW233033   1.875   5.777   3.429
10712SOL     OW33034   2.367   0.824   1.364
10712SOL    HW133035   2.398   0.735   1.397
10712SOL    HW233036   2.308   0.867   1.432
10713SOL     OW33037   0.934   3.571   1.438
10713SOL    HW133038   0.904   3.608   1.350
10713SOL    HW233039   1.012   3.625   1.471
10714SOL     OW33040   6.349   3.574   5.344
10714SOL    HW133041   6.445   3.598   5.333
10714SOL    HW233042   6.330   3.489   5.295
10715SOL     OW33043   4.911   6.965   3.083
10715SOL    HW133044   4.926   0.010   3.157
10715SOL    HW233045   4.953   7.000   2.999
10716SOL     OW33046   5.966   3.071   4.754
10716SOL    HW133047   5.966   3.077   4.854
10716SOL    HW233048   5.878   3.102   4.719
10717SOL     OW33049   1.120   2.539   0.819
10717SOL    HW133050   1.158   2.461   0.769
10717SOL    HW233051   1.058   2.506   0.890
10718SOL     OW33052   0.655   3.000   6.521
10718SOL    HW133053   0.566   2.989   6.478
10718SOL    HW233054   0.727   2.973   6.457
10719SOL     OW33055   5.332   5.662   0.233
10719SOL    HW133056   5.361   5.643   0.327
10719SOL    HW233057   5.374   5.596   0.171
10720SOL     OW33058   6.624   3.177   5.540
10720SOL    HW133059   6.653   3.089   5.503
10720SOL    HW233060   6.530   3.197   5.510
10721SOL     OW33061   6.289   4.166   5.459
10721SOL    HW133062   6.345   4.083   5.467
10721SOL    HW233063   6.201   4.143   5.418
10722SOL     OW33064   0.250   3.761   0.562
10722SOL    HW133065   0.239   3.662   0.568
10722SOL    HW233066   0.207   3.805   0.641
10723SOL     OW33067   0.353   3.707   6.286
10723SOL    HW133068   0.324   3.619   6.249
10723SOL    HW233069   0.344   3.707   6.386
10724SOL     OW33070   4.633   0.994   0.058
10724SOL    HW133071   4.643   0.894   0.058
10724SOL    HW233072   4.541   1.018   0.090
10725SOL     OW33073   0.196   4.873   3.918
10725SOL    HW133074   0.189   4.933   3.997
10725SOL    HW233075   0.170   4.923   3.836
10726SOL     OW33076   5.354   6.263   5.638
10726SOL    HW133077   5.385   6.200   5.567
10726SOL    HW233078   5.387   6.231   5.727
10727SOL     OW33079   0.464   5.393   4.292
10727SOL    HW133080   0.505   5.473   4.336
10727SOL    HW233081   0.527   5.315   4.299
10728SOL     OW33082   6.122   6.163   1.592
10728SOL    HW133083   6.144   6.093   1.660
10728SOL    HW233084   6.192   6.164   1.521
10729SOL     OW33085   5.797   0.788   2.840
10729SOL    HW133086   5.771   0.743   2.925
10729SOL    HW233087   5.771   0.885   2.844
10730SOL     OW33088   2.512   0.217   0.980
10730SOL    HW133089   2.535   0.313   0.966
10730SOL    HW233090   2.559   0.160   0.912
10731SOL     OW33091   2.567   5.769   6.960
10731SOL    HW133092   2.637   5.802   6.896
10731SOL    HW233093   2.604   5.695   7.016
10732SOL     OW33094   5.155   5.322   2.708
10732SOL    HW133095   5.062   5.328   2.671
10732SOL    HW233096   5.159   5.373   2.794
10733SOL     OW33097   5.297   2.076   6.744
10733SOL    HW133098   5.277   2.007   6.675
10733SOL    HW233099   5.248   2.161   6.721
10734SOL     OW33100   1.473   0.230   6.966
10734SOL    HW133101   1.401   0.168   6.996
10734SOL    HW233102   1.456   0.322   7.002
10735SOL     OW33103   1.395   4.487   3.014
10735SOL    HW133104   1.486   4.463   2.981
10735SOL    HW233105   1.376   4.583   2.993
10736SOL     OW33106   0.717   0.743   3.426
10736SOL    HW133107   0.747   0.788   3.342
10736SOL    HW233108   0.736   0.645   3.420
10737SOL     OW33109   1.447   1.688   0.424
10737SOL    HW133110   1.537   1.724   0.447
10737SOL    HW233111   1.435   1.598   0.465
10738SOL     OW33112   2.221   0.456   2.677
10738SOL    HW133113   2.271   0.444   2.763
10738SOL    HW233114   2.259   0.394   2.608
10739SOL     OW33115   0.326   1.366   1.505
10739SOL    HW133116   0.243   1.377   1.449
10739SOL    HW233117   0.320   1.426   1.585
10740SOL     OW33118   1.762   4.268   5.871
10740SOL    HW133119   1.731   4.361   5.853
10740SOL    HW233120   1.757   4.214   5.786
10741SOL     OW33121   0.304   0.512   3.049
10741SOL    HW133122   0.360   0.577   3.100
10741SOL    HW233123   0.354   0.426   3.037
10742SOL     OW33124   6.082   0.337   2.052
10742SOL    HW133125   6.164   0.339   1.994
10742SOL    HW233126   6.055   0.242   2.067
10743SOL     OW33127   2.637   1.957   3.891
10743SOL    HW133128   2.616   2.043   3.937
10743SOL    HW233129   2.574   1.945   3.814
10744SOL     OW33130   3.086   1.477   2.793
10744SOL    HW133131   3.041   1.501   2.879
10744SOL    HW233132   3.017   1.470   2.720
10745SOL     OW33133   1.099   4.942   0.728
10745SOL    HW133134   1.049   5.028   0.738
10745SOL    HW233135   1.174   4.938   0.795
10746SOL     OW33136   1.876   3.840   1.768
10746SOL    HW133137   1.916   3.757   1.807
10746SOL    HW233138   1.882   3.836   1.668
10747SOL     OW33139   4.431   1.037   3.281
10747SOL    HW133140   4.426   1.134   3.260
10747SOL    HW233141   4.417   0.984   3.197
10748SOL     OW33142   3.819   0.215   0.854
10748SOL    HW133143   3.767   0.186   0.934
10748SOL    HW233144   3.817   0.315   0.848
10749SOL     OW33145   6.974   4.603   3.697
10749SOL    HW133146   7.012   4.543   3.626
10749SOL    HW233147   7.002   4.570   3.787
10750SOL     OW33148   4.122   5.874   4.328
10750SOL    HW133149   4.067   5.828   4.398
10750SOL    HW233150   4.155   5.962   4.364
10751SOL     OW33151   0.870   3.938   5.500
10751SOL    HW133152   0.931   4.015   5.518
10751SOL    HW233153   0.784   3.973   5.460
10752SOL     OW33154   6.776   3.570   6.266
10752SOL    HW133155   6.858   3.615   6.230
10752SOL    HW233156   6.803   3.501   6.333
10753SOL     OW33157   5.159   0.678   3.884
10753SOL    HW133158   5.213   0.760   3.862
10753SOL    HW233159   5.194   0.601   3.831
10754SOL     OW33160   1.547   2.219   3.936
10754SOL    HW133161   1.514   2.263   4.019
10754SOL    HW233162   1.472   2.169   3.892
10755SOL     OW33163   0.704   2.106   0.592
10755SOL    HW133164   0.742   2.122   0.501
10755SOL    HW233165   0.772   2.131   0.662
10756SOL     OW33166   6.452   4.011   6.936
10756SOL    HW133167   6.442   4.111   6.938
10756SOL    HW233168   6.389   3.970   7.001
10757SOL     OW33169   0.739   3.753   0.539
10757SOL    HW133170   0.804   3.692   0.494
10757SOL    HW233171   0.729   3.728   0.635
10758SOL     OW33172   1.106   6.787   5.348
10758SOL    HW133173   1.049   6.851   5.400
10758SOL    HW233174   1.140   6.716   5.410
10759SOL     OW33175   1.542   3.190   6.987
10759SOL    HW133176   1.517   3.272   0.016
10759SOL    HW233177   1.529   3.110   0.025
10760SOL     OW33178   6.982   0.627   0.419
10760SOL    HW133179   6.963   0.534   0.387
10760SOL    HW233180   0.038   0.624   0.483
10761SOL     OW33181   0.928   2.033   6.228
10761SOL    HW133182   0.997   2.033   6.156
10761SOL    HW233183   0.845   1.988   6.194
10762SOL     OW33184   3.583   1.974   4.803
10762SOL    HW133185   3.654   2.030   4.846
10762SOL    HW233186   3.614   1.879   4.797
10763SOL     OW33187   4.689   6.466   1.263
10763SOL    HW133188   4.756   6.407   1.307
10763SOL    HW233189   4.704   6.466   1.164
10764SOL     OW33190   5.814   1.507   5.570
10764SOL    HW133191   5.727   1.496   5.521
10764SOL    HW233192   5.796   1.535   5.664
10765SOL     OW33193   5.446   2.924   1.294
10765SOL    HW133194   5.401   2.993   1.238
10765SOL    HW233195   5.408   2.926   1.387
10766SOL     OW33196   2.883   3.155   0.700
10766SOL    HW133197   2.928   3.095   0.766
10766SOL    HW233198   2.786   3.130   0.694
10767SOL     OW33199   1.229   0.543   6.787
10767SOL    HW133200   1.267   0.576   6.873
10767SOL    HW233201   1.228   0.616   6.720
10768SOL     OW33202   4.772   5.673   1.409
10768SOL    HW133203   4.794   5.609   1.335
10768SOL    HW233204   4.739   5.759   1.371
10769SOL     OW33205   1.884   5.145   5.087
10769SOL    HW133206   1.918   5.062   5.131
10769SOL    HW233207   1.828   5.196   5.151
10770SOL     OW33208   5.181   0.085   4.886
10770SOL    HW133209   5.160   0.132   4.800
10770SOL    HW233210   5.098   0.082   4.943
10771SOL     OW33211   4.287   0.947   4.699
10771SOL    HW133212   4.382   0.932   4.672
10771SOL    HW233213   4.284   0.991   4.788
10772SOL     OW33214   6.214   6.488   4.340
10772SOL    HW133215   6.312   6.478   4.360
10772SOL    HW233216   6.166   6.406   4.369
10773SOL     OW33217   6.325   5.216   5.989
10773SOL    HW133218   6.278   5.304   5.987
10773SOL    HW233219   6.359   5.198   6.081
10774SOL     OW33220   1.584   1.498   6.340
10774SOL    HW133221   1.596   1.451   6.253
10774SOL    HW233222   1.572   1.596   6.324
10775SOL     OW33223   0.720   3.652   0.821
10775SOL    HW133224   0.664   3.575   0.791
10775SOL    HW233225   0.742   3.641   0.918
10776SOL     OW33226   1.628   6.289   0.053
10776SOL    HW133227   1.620   6.381   0.091
10776SOL    HW233228   1.540   6.260   0.014
10777SOL     OW33229   4.242   6.600   3.966
10777SOL    HW133230   4.142   6.597   3.963
10777SOL    HW233231   4.271   6.687   4.008
10778SOL     OW33232   5.339   6.225   5.287
10778SOL    HW133233   5.356   6.324   5.293
10778SOL    HW233234   5.312   6.202   5.193
10779SOL     OW33235   6.301   5.034   2.952
10779SOL    HW133236   6.385   5.012   3.002
10779SOL    HW233237   6.224   5.039   3.016
10780SOL     OW33238   1.343   0.150   3.552
10780SOL    HW133239   1.427   0.122   3.598
10780SOL    HW233240   1.276   0.076   3.557
10781SOL     OW33241   3.959   1.808   2.980
10781SOL    HW133242   3.864   1.801   3.011
10781SOL    HW233243   3.981   1.904   2.962
10782SOL     OW33244   6.551   1.746   3.425
10782SOL    HW133245   6.509   1.746   3.516
10782SOL    HW233246   6.480   1.758   3.355
10783SOL     OW33247   1.534   3.388   3.316
10783SOL    HW133248   1.443   3.400   3.356
10783SOL    HW233249   1.595   3.344   3.382
10784SOL     OW33250   2.842   0.083   2.948
10784SOL    HW133251   2.843   0.011   2.878
10784SOL    HW233252   2.804   0.167   2.908
10785SOL     OW33253   0.883   4.734   0.744
10785SOL    HW133254   0.829   4.765   0.666
10785SOL    HW233255   0.970   4.784   0.746
10786SOL     OW33256   4.699   4.210   2.489
10786SOL    HW133257   4.774   4.157   2.449
10786SOL    HW233258   4.673   4.283   2.425
10787SOL     OW33259   2.990   2.208   4.378
10787SOL    HW133260   2.988   2.113   4.348
10787SOL    HW233261   2.926   2.221   4.453
10788SOL     OW33262   2.270   4.673   0.285
10788SOL    HW133263   2.192   4.718   0.329
10788SOL    HW233264   2.300   4.726   0.206
10789SOL     OW33265   5.758   2.878   0.245
10789SOL    HW133266   5.779   2.872   0.148
10789SOL    HW233267   5.816   2.947   0.288
10790SOL     OW33268   1.292   0.416   3.522
10790SOL    HW133269   1.197   0.424   3.491
10790SOL    HW233270   1.313   0.320   3.539
10791SOL     OW33271   0.034   0.583   1.111
10791SOL    HW133272   0.026   0.492   1.072
10791SOL    HW233273   0.059   0.648   1.040
10792SOL     OW33274   3.720   3.234   1.802
10792SOL    HW133275   3.697   3.300   1.731
10792SOL    HW233276   3.763   3.282   1.879
10793SOL     OW33277   5.429   2.680   4.456
10793SOL    HW133278   5.405   2.686   4.553
10793SOL    HW233279   5.504   2.742   4.436
10794SOL     OW33280   2.946   3.831   3.397
10794SOL    HW133281   2.887   3.757   3.427
10794SOL    HW233282   2.976   3.814   3.303
10795SOL     OW33283   6.697   3.107   4.270
10795SOL    HW133284   6.701   3.102   4.370
10795SOL    HW233285   6.778   3.065   4.231
10796SOL     OW33286   4.725   6.674   0.100
10796SOL    HW133287   4.769   6.679   0.011
10796SOL    HW233288   4.680   6.585   0.110
10797SOL     OW33289   4.004   2.569   1.304
10797SOL    HW133290   3.964   2.632   1.238
10797SOL    HW233291   3.979   2.475   1.280
10798SOL     OW33292   2.220   6.529   1.013
10798SOL    HW133293   2.197   6.537   0.916
10798SOL    HW233294   2.311   6.567   1.029
10799SOL     OW33295   3.631   0.755   2.328
10799SOL    HW133296   3.713   0.798   2.365
10799SOL    HW233297   3.551   0.786   2.379
10800SOL     OW33298   0.813   0.091   0.104
10800SOL    HW133299   0.758   0.163   0.061
10800SOL    HW233300   0.787   0.002   0.065
10801SOL     OW33301   0.951   6.972   5.481
10801SOL    HW133302   0.853   6.952   5.475
10801SOL    HW233303   0.975   6.993   5.576
10802SOL     OW33304   1.969   2.917   3.659
10802SOL    HW133305   1.989   2.857   3.736
10802SOL    HW233306   1.971   3.012   3.689
10803SOL     OW33307   4.253   4.363   5.704
10803SOL    HW133308   4.304   4.294   5.652
10803SOL    HW233309   4.315   4.437   5.730
10804SOL     OW33310   6.666   4.121   1.639
10804SOL    HW133311   6.629   4.147   1.550
10804SOL    HW233312   6.642   4.191   1.707
10805SOL     OW33313   3.639   0.022   6.827
10805SOL    HW133314   3.695   6.961   6.820
10805SOL    HW233315   3.698   0.103   6.830
10806SOL     OW33316   5.093   4.484   6.125
10806SOL    HW133317   5.057   4.437   6.206
10806SOL    HW233318   5.160   4.425   6.080
10807SOL     OW33319   1.429   6.465   3.235
10807SOL    HW133320   1.375   6.439   3.155
10807SOL    HW233321   1.418   6.563   3.252
10808SOL     OW33322   6.656   4.195   6.630
10808SOL    HW133323   6.715   4.237   6.561
10808SOL    HW233324   6.566   4.238   6.627
10809SOL     OW33325   2.800   6.113   3.581
10809SOL    HW133326   2.876   6.068   3.628
10809SOL    HW233327   2.718   6.107   3.638
10810SOL     OW33328   1.977   0.360   4.784
10810SOL    HW133329   1.944   0.454   4.783
10810SOL    HW233330   2.014   0.338   4.874
10811SOL     OW33331   4.548   4.748   5.627
10811SOL    HW133332   4.520   4.843   5.636
10811SOL    HW233333   4.518   4.712   5.539
10812SOL     OW33334   1.098   3.598   1.835
10812SOL    HW133335   1.023   3.580   1.897
10812SOL    HW233336   1.074   3.675   1.775
10813SOL     OW33337   2.073   5.957   6.979
10813SOL    HW133338   2.022   5.874   7.002
10813SOL    HW233339   2.030   6.001   6.900
10814SOL     OW33340   1.578   6.250   6.732
10814SOL    HW133341   1.667   6.295   6.728
10814SOL    HW233342   1.573   6.180   6.661
10815SOL     OW33343   4.833   4.539   2.941
10815SOL    HW133344   4.930   4.521   2.922
10815SOL    HW233345   4.781   4.530   2.856
10816SOL     OW33346   1.432   1.797   1.424
10816SOL    HW133347   1.377   1.866   1.470
10816SOL    HW233348   1.522   1.835   1.401
10817SOL     OW33349   5.495   6.722   2.341
10817SOL    HW133350   5.573   6.715   2.403
10817SOL    HW233351   5.477   6.818   2.319
10818SOL     OW33352   4.451   4.570   5.418
10818SOL    HW133353   4.357   4.536   5.410
10818SOL    HW233354   4.510   4.498   5.453
10819SOL     OW33355   6.654   4.276   0.111
10819SOL    HW133356   6.751   4.254   0.098
10819SOL    HW233357   6.607   4.273   0.023
10820SOL     OW33358   5.865   5.832   3.904
10820SOL    HW133359   5.853   5.749   3.959
10820SOL    HW233360   5.781   5.886   3.906
10821SOL     OW33361   5.769   6.127   2.106
10821SOL    HW133362   5.767   6.113   2.007
10821SOL    HW233363   5.675   6.130   2.141
10822SOL     OW33364   1.237   2.961   3.189
10822SOL    HW133365   1.143   2.925   3.188
10822SOL    HW233366   1.272   2.958   3.282
10823SOL     OW33367   1.803   5.407   2.132
10823SOL    HW133368   1.834   5.387   2.224
10823SOL    HW233369   1.882   5.418   2.071
10824SOL     OW33370   5.495   0.753   3.987
10824SOL    HW133371   5.461   0.737   4.080
10824SOL    HW233372   5.565   0.686   3.965
10825SOL     OW33373   3.400   0.148   6.706
10825SOL    HW133374   3.475   0.095   6.745
10825SOL    HW233375   3.351   0.092   6.639
10826SOL     OW33376   0.590   3.242   3.200
10826SOL    HW133377   0.580   3.155   3.249
10826SOL    HW233378   0.611   3.315   3.266
10827SOL     OW33379   6.109   3.993   4.311
10827SOL    HW133380   6.153   3.910   4.347
10827SOL    HW233381   6.048   3.968   4.236
10828SOL     OW33382   1.139   4.922   2.001
10828SOL    HW133383   1.144   4.853   2.073
10828SOL    HW233384   1.063   4.985   2.021
10829SOL     OW33385   3.409   2.368   0.880
10829SOL    HW133386   3.340   2.369   0.952
10829SOL    HW233387   3.480   2.435   0.900
10830SOL     OW33388   5.141   1.195   3.519
10830SOL    HW133389   5.135   1.248   3.604
10830SOL    HW233390   5.211   1.235   3.460
10831SOL     OW33391   4.370   5.830   1.805
10831SOL    HW133392   4.298   5.789   1.749
10831SOL    HW233393   4.330   5.864   1.890
10832SOL     OW33394   0.550   2.374   0.614
10832SOL    HW133395   0.464   2.361   0.564
10832SOL    HW233396   0.601   2.449   0.573
10833SOL     OW33397   1.703   1.720   2.535
10833SOL    HW133398   1.624   1.773   2.566
10833SOL    HW233399   1.675   1.627   2.514
10834SOL     OW33400   1.548   2.208   6.138
10834SOL    HW133401   1.581   2.199   6.232
10834SOL    HW233402   1.512   2.121   6.106
10835SOL     OW33403   6.152   2.233   0.383
10835SOL    HW133404   6.212   2.160   0.351
10835SOL    HW233405   6.195   2.282   0.459
10836SOL     OW33406   6.819   1.411   5.074
10836SOL    HW133407   6.859   1.451   5.156
10836SOL    HW233408   6.787   1.484   5.013
10837SOL     OW33409   6.734   4.827   0.553
10837SOL    HW133410   6.644   4.817   0.510
10837SOL    HW233411   6.731   4.789   0.645
10838SOL     OW33412   5.530   6.744   4.818
10838SOL    HW133413   5.617   6.774   4.857
10838SOL    HW233414   5.530   6.760   4.719
10839SOL     OW33415   3.202   3.007   0.798
10839SOL    HW133416   3.240   3.093   0.832
10839SOL    HW233417   3.118   2.986   0.848
10840SOL     OW33418   3.752   5.938   1.510
10840SOL    HW133419   3.702   5.876   1.450
10840SOL    HW233420   3.732   5.916   1.605
10841SOL     OW33421   3.858   6.311   0.245
10841SOL    HW133422   3.821   6.287   0.155
10841SOL    HW233423   3.815   6.255   0.315
10842SOL     OW33424   5.117   3.121   1.293
10842SOL    HW133425   5.066   3.035   1.300
10842SOL    HW233426   5.054   3.194   1.265
10843SOL     OW33427   0.457   2.149   1.609
10843SOL    HW133428   0.481   2.053   1.595
10843SOL    HW233429   0.390   2.156   1.683
10844SOL     OW33430   0.337   0.051   4.408
10844SOL    HW133431   0.397   0.131   4.411
10844SOL    HW233432   0.275   0.059   4.330
10845SOL     OW33433   3.666   0.588   6.431
10845SOL    HW133434   3.732   0.620   6.500
10845SOL    HW233435   3.617   0.667   6.393
10846SOL     OW33436   4.379   3.292   0.862
10846SOL    HW133437   4.285   3.265   0.884
10846SOL    HW233438   4.417   3.345   0.937
10847SOL     OW33439   3.824   3.255   6.534
10847SOL    HW133440   3.740   3.202   6.526
10847SOL    HW233441   3.844   3.299   6.446
10848SOL     OW33442   2.751   2.314   0.024
10848SOL    HW133443   2.779   2.356   0.111
10848SOL    HW233444   2.748   2.215   0.034
10849SOL     OW33445   2.487   4.624   2.939
10849SOL    HW133446   2.472   4.716   2.974
10849SOL    HW233447   2.570   4.622   2.884
10850SOL     OW33448   3.289   5.815   0.274
10850SOL    HW133449   3.270   5.819   0.176
10850SOL    HW233450   3.267   5.903   0.316
10851SOL     OW33451   2.792   3.212   6.911
10851SOL    HW133452   2.777   3.191   7.008
10851SOL    HW233453   2.865   3.153   6.875
10852SOL     OW33454   0.819   6.673   6.385
10852SOL    HW133455   0.730   6.684   6.340
10852SOL    HW233456   0.808   6.673   6.484
10853SOL     OW33457   3.693   2.182   5.787
10853SOL    HW133458   3.697   2.281   5.799
10853SOL    HW233459   3.668   2.161   5.692
10854SOL     OW33460   5.122   6.909   5.564
10854SOL    HW133461   5.051   6.847   5.530
10854SOL    HW233462   5.186   6.929   5.490
10855SOL     OW33463   2.802   6.465   1.852
10855SOL    HW133464   2.782   6.487   1.756
10855SOL    HW233465   2.884   6.513   1.881
10856SOL     OW33466   6.155   1.831   2.446
10856SOL    HW133467   6.158   1.758   2.377
10856SOL    HW233468   6.075   1.888   2.431
10857SOL     OW33469   6.045   2.951   3.135
10857SOL    HW133470   6.141   2.975   3.123
10857SOL    HW233471   5.990   3.000   3.067
10858SOL     OW33472   0.765   2.542   6.586
10858SOL    HW133473   0.704   2.515   6.511
10858SOL    HW233474   0.719   2.526   6.674
10859SOL     OW33475   2.074   3.635   4.137
10859SOL    HW133476   2.097   3.553   4.085
10859SOL    HW233477   1.985   3.670   4.107
10860SOL     OW33478   6.347   0.606   5.892
10860SOL    HW133479   6.437   0.638   5.864
10860SOL    HW233480   6.323   0.646   5.981
10861SOL     OW33481   3.766   2.905   3.048
10861SOL    HW133482   3.779   2.900   3.147
10861SOL    HW233483   3.669   2.898   3.027
10862SOL     OW33484   2.593   2.231   6.675
10862SOL    HW133485   2.614   2.277   6.589
10862SOL    HW233486   2.658   2.156   6.689
10863SOL     OW33487   4.073   0.708   2.822
10863SOL    HW133488   4.086   0.685   2.726
10863SOL    HW233489   3.992   0.767   2.832
10864SOL     OW33490   3.369   5.241   0.857
10864SOL    HW133491   3.315   5.293   0.924
10864SOL    HW233492   3.392   5.299   0.780
10865SOL     OW33493   5.755   1.813   3.383
10865SOL    HW133494   5.768   1.765   3.296
10865SOL    HW233495   5.832   1.873   3.400
10866SOL     OW33496   4.596   5.284   0.620
10866SOL    HW133497   4.535   5.229   0.677
10866SOL    HW233498   4.633   5.227   0.546
10867SOL     OW33499   3.514   3.869   0.307
10867SOL    HW133500   3.586   3.908   0.365
10867SOL    HW233501   3.427   3.914   0.326
10868SOL     OW33502   2.247   2.115   3.606
10868SOL    HW133503   2.158   2.069   3.604
10868SOL    HW233504   2.251   2.177   3.684
10869NA      NA33505   0.323   2.200   6.326
10870NA      NA33506   4.465   4.626   5.142
10871NA      NA33507   2.240   4.320   2.188
10872NA      NA33508   4.979   4.208   3.471
10873NA      NA33509   4.238   2.269   5.204
10874NA      NA33510   3.159   4.520   1.535
10875NA      NA33511   0.432   4.639   0.088
10876NA      NA33512   3.647   3.685   2.752
10877NA      NA33513   5.280   5.064   0.784
10878NA      NA33514   3.321   6.960   5.450
10879NA      NA33515   5.987   5.856   0.926
10880NA      NA33516   1.965   0.731   5.122
10881NA      NA33517   4.047   4.970   1.901
10882NA      NA33518   3.689   3.006   1.340
   7.02119   7.02119   7.02119
