Generated by trjconv : CNT in water t= 528.00000
33518
    1C        C    1   2.845   2.769   4.749
    1C        C    2   2.901   2.721   4.870
    1C        C    3   2.841   2.768   4.988
    1C        C    4   2.856   2.776   4.259
    1C        C    5   2.901   2.725   4.382
    1C        C    6   2.846   2.769   4.505
    1C        C    7   3.010   2.637   4.628
    1C        C    8   2.894   2.718   4.627
    1C        C    9   3.075   2.600   4.748
    1C        C   10   3.010   2.632   4.869
    1C        C   11   3.184   2.494   4.977
    1C        C   12   3.062   2.563   4.979
    1C        C   13   2.857   2.774   3.771
    1C        C   14   2.906   2.726   3.894
    1C        C   15   2.852   2.776   4.015
    1C        C   16   3.014   2.637   4.139
    1C        C   17   2.904   2.725   4.136
    1C        C   18   3.076   2.605   4.262
    1C        C   19   3.017   2.644   4.384
    1C        C   20   3.206   2.553   4.504
    1C        C   21   3.075   2.605   4.507
    1C        C   22   3.278   2.535   4.625
    1C        C   23   3.206   2.545   4.746
    1C        C   24   3.414   2.485   4.865
    1C        C   25   3.272   2.502   4.864
    1C        C   26   3.489   2.481   4.983
    1C        C   27   2.854   2.774   3.282
    1C        C   28   2.907   2.725   3.404
    1C        C   29   2.858   2.776   3.526
    1C        C   30   3.020   2.640   3.650
    1C        C   31   2.908   2.726   3.648
    1C        C   32   3.077   2.600   3.773
    1C        C   33   3.016   2.637   3.895
    1C        C   34   3.206   2.545   4.018
    1C        C   35   3.075   2.598   4.017
    1C        C   36   3.274   2.529   4.141
    1C        C   37   3.207   2.553   4.263
    1C        C   38   3.415   2.506   4.381
    1C        C   39   3.276   2.530   4.384
    1C        C   40   3.488   2.508   4.502
    1C        C   41   3.417   2.509   4.624
    1C        C   42   3.631   2.486   4.744
    1C        C   43   3.489   2.489   4.744
    1C        C   44   3.709   2.486   4.862
    1C        C   45   3.628   2.479   4.976
    1C        C   46   2.841   2.756   2.794
    1C        C   47   2.903   2.721   2.916
    1C        C   48   2.853   2.770   3.038
    1C        C   49   3.021   2.642   3.162
    1C        C   50   2.906   2.723   3.161
    1C        C   51   3.082   2.607   3.284
    1C        C   52   3.020   2.639   3.407
    1C        C   53   3.211   2.545   3.529
    1C        C   54   3.083   2.604   3.529
    1C        C   55   3.277   2.528   3.653
    1C        C   56   3.208   2.548   3.774
    1C        C   57   3.416   2.509   3.897
    1C        C   58   3.275   2.525   3.897
    1C        C   59   3.486   2.503   4.020
    1C        C   60   3.413   2.505   4.141
    1C        C   61   3.630   2.503   4.260
    1C        C   62   3.488   2.500   4.260
    1C        C   63   3.702   2.510   4.381
    1C        C   64   3.629   2.505   4.502
    1C        C   65   3.837   2.544   4.623
    1C        C   66   3.702   2.502   4.623
    1C        C   67   3.907   2.566   4.743
    1C        C   68   3.845   2.526   4.863
    1C        C   69   4.057   2.587   4.980
    1C        C   70   3.928   2.532   4.975
    1C        C   71   2.823   2.733   2.309
    1C        C   72   2.885   2.692   2.429
    1C        C   73   2.836   2.748   2.549
    1C        C   74   3.009   2.628   2.673
    1C        C   75   2.892   2.707   2.672
    1C        C   76   3.076   2.598   2.794
    1C        C   77   3.016   2.636   2.916
    1C        C   78   3.205   2.540   3.037
    1C        C   79   3.078   2.601   3.039
    1C        C   80   3.274   2.523   3.160
    1C        C   81   3.211   2.551   3.283
    1C        C   82   3.415   2.494   3.405
    1C        C   83   3.277   2.524   3.406
    1C        C   84   3.485   2.495   3.528
    1C        C   85   3.417   2.505   3.651
    1C        C   86   3.627   2.499   3.772
    1C        C   87   3.486   2.501   3.774
    1C        C   88   3.699   2.509   3.894
    1C        C   89   3.627   2.504   4.015
    1C        C   90   3.833   2.558   4.136
    1C        C   91   3.698   2.515   4.137
    1C        C   92   3.901   2.577   4.259
    1C        C   93   3.838   2.550   4.382
    1C        C   94   4.033   2.635   4.500
    1C        C   95   3.907   2.572   4.503
    1C        C   96   4.095   2.673   4.621
    1C        C   97   4.033   2.632   4.741
    1C        C   98   4.194   2.766   4.864
    1C        C   99   4.103   2.656   4.863
    1C        C  100   4.217   2.845   4.977
    1C        C  101   2.826   2.732   2.072
    1C        C  102   2.995   2.595   2.192
    1C        C  103   2.880   2.681   2.190
    1C        C  104   3.063   2.568   2.314
    1C        C  105   3.005   2.616   2.433
    1C        C  106   3.202   2.530   2.549
    1C        C  107   3.073   2.588   2.553
    1C        C  108   3.271   2.517   2.671
    1C        C  109   3.204   2.538   2.794
    1C        C  110   3.412   2.493   2.917
    1C        C  111   3.273   2.518   2.915
    1C        C  112   3.484   2.487   3.039
    1C        C  113   3.413   2.499   3.161
    1C        C  114   3.625   2.497   3.280
    1C        C  115   3.484   2.488   3.282
    1C        C  116   3.695   2.510   3.402
    1C        C  117   3.626   2.503   3.526
    1C        C  118   3.831   2.548   3.645
    1C        C  119   3.694   2.512   3.649
    1C        C  120   3.897   2.574   3.767
    1C        C  121   3.835   2.548   3.891
    1C        C  122   4.023   2.647   4.012
    1C        C  123   3.897   2.582   4.013
    1C        C  124   4.089   2.673   4.134
    1C        C  125   4.029   2.637   4.256
    1C        C  126   4.198   2.767   4.377
    1C        C  127   4.089   2.678   4.377
    1C        C  128   4.248   2.820   4.499
    1C        C  129   4.198   2.769   4.621
    1C        C  130   4.332   2.934   4.739
    1C        C  131   4.246   2.821   4.743
    1C        C  132   4.363   3.000   4.859
    1C        C  133   4.285   2.966   4.970
    1C        C  134   3.178   2.477   2.080
    1C        C  135   3.043   2.515   2.084
    1C        C  136   3.262   2.476   2.192
    1C        C  137   3.194   2.513   2.310
    1C        C  138   3.408   2.478   2.428
    1C        C  139   3.268   2.496   2.429
    1C        C  140   3.480   2.481   2.549
    1C        C  141   3.411   2.493   2.672
    1C        C  142   3.621   2.503   2.790
    1C        C  143   3.481   2.489   2.794
    1C        C  144   3.692   2.512   2.912
    1C        C  145   3.624   2.498   3.036
    1C        C  146   3.831   2.545   3.157
    1C        C  147   3.695   2.506   3.158
    1C        C  148   3.900   2.571   3.278
    1C        C  149   3.831   2.547   3.399
    1C        C  150   4.023   2.633   3.525
    1C        C  151   3.896   2.572   3.522
    1C        C  152   4.083   2.676   3.646
    1C        C  153   4.022   2.641   3.768
    1C        C  154   4.196   2.765   3.887
    1C        C  155   4.081   2.683   3.889
    1C        C  156   4.248   2.812   4.010
    1C        C  157   4.200   2.761   4.133
    1C        C  158   4.341   2.923   4.254
    1C        C  159   4.250   2.815   4.254
    1C        C  160   4.381   2.985   4.374
    1C        C  161   4.337   2.929   4.496
    1C        C  162   4.440   3.117   4.615
    1C        C  163   4.370   2.994   4.617
    1C        C  164   4.469   3.184   4.736
    1C        C  165   4.432   3.124   4.858
    1C        C  166   4.513   3.319   4.972
    1C        C  167   4.478   3.184   4.975
    1C        C  168   3.479   2.431   2.072
    1C        C  169   3.402   2.455   2.187
    1C        C  170   3.619   2.467   2.306
    1C        C  171   3.477   2.462   2.306
    1C        C  172   3.692   2.491   2.425
    1C        C  173   3.621   2.492   2.547
    1C        C  174   3.826   2.553   2.667
    1C        C  175   3.692   2.511   2.668
    1C        C  176   3.894   2.570   2.789
    1C        C  177   3.829   2.544   2.912
    1C        C  178   4.025   2.626   3.033
    1C        C  179   3.898   2.564   3.034
    1C        C  180   4.088   2.662   3.155
    1C        C  181   4.026   2.635   3.279
    1C        C  182   4.201   2.748   3.397
    1C        C  183   4.085   2.667   3.403
    1C        C  184   4.248   2.802   3.519
    1C        C  185   4.197   2.759   3.643
    1C        C  186   4.340   2.919   3.764
    1C        C  187   4.252   2.808   3.764
    1C        C  188   4.381   2.976   3.887
    1C        C  189   4.342   2.917   4.009
    1C        C  190   4.450   3.101   4.129
    1C        C  191   4.384   2.976   4.130
    1C        C  192   4.476   3.171   4.249
    1C        C  193   4.446   3.110   4.373
    1C        C  194   4.509   3.317   4.493
    1C        C  195   4.472   3.180   4.493
    1C        C  196   4.523   3.389   4.614
    1C        C  197   4.508   3.321   4.737
    1C        C  198   4.558   3.536   4.851
    1C        C  199   4.532   3.395   4.856
    1C        C  200   4.586   3.620   4.964
    1C        C  201   3.619   2.417   2.072
    1C        C  202   3.828   2.511   2.184
    1C        C  203   3.693   2.464   2.185
    1C        C  204   3.899   2.540   2.304
    1C        C  205   3.830   2.520   2.425
    1C        C  206   4.024   2.618   2.543
    1C        C  207   3.897   2.556   2.544
    1C        C  208   4.084   2.658   2.665
    1C        C  209   4.021   2.632   2.788
    1C        C  210   4.200   2.744   2.906
    1C        C  211   4.083   2.665   2.911
    1C        C  212   4.251   2.796   3.027
    1C        C  213   4.198   2.750   3.150
    1C        C  214   4.341   2.905   3.274
    1C        C  215   4.249   2.797   3.273
    1C        C  216   4.377   2.968   3.395
    1C        C  217   4.337   2.912   3.518
    1C        C  218   4.437   3.101   3.640
    1C        C  219   4.375   2.975   3.639
    1C        C  220   4.469   3.165   3.762
    1C        C  221   4.444   3.102   3.886
    1C        C  222   4.503   3.307   4.002
    1C        C  223   4.471   3.170   4.007
    1C        C  224   4.513   3.377   4.124
    1C        C  225   4.511   3.308   4.248
    1C        C  226   4.527   3.523   4.368
    1C        C  227   4.517   3.382   4.368
    1C        C  228   4.522   3.597   4.487
    1C        C  229   4.529   3.530   4.611
    1C        C  230   4.506   3.744   4.729
    1C        C  231   4.543   3.607   4.729
    1C        C  232   4.496   3.821   4.848
    1C        C  233   4.544   3.753   4.961
    1C        C  234   4.019   2.606   2.063
    1C        C  235   3.894   2.544   2.065
    1C        C  236   4.085   2.648   2.180
    1C        C  237   4.023   2.610   2.301
    1C        C  238   4.199   2.737   2.420
    1C        C  239   4.083   2.655   2.421
    1C        C  240   4.254   2.786   2.541
    1C        C  241   4.198   2.741   2.663
    1C        C  242   4.341   2.902   2.785
    1C        C  243   4.251   2.793   2.783
    1C        C  244   4.383   2.960   2.907
    1C        C  245   4.340   2.905   3.029
    1C        C  246   4.441   3.090   3.148
    1C        C  247   4.382   2.962   3.152
    1C        C  248   4.461   3.158   3.270
    1C        C  249   4.431   3.099   3.394
    1C        C  250   4.491   3.302   3.514
    1C        C  251   4.459   3.165   3.516
    1C        C  252   4.504   3.370   3.637
    1C        C  253   4.503   3.303   3.761
    1C        C  254   4.527   3.518   3.878
    1C        C  255   4.521   3.377   3.880
    1C        C  256   4.522   3.588   4.001
    1C        C  257   4.518   3.518   4.124
    1C        C  258   4.490   3.730   4.241
    1C        C  259   4.517   3.591   4.245
    1C        C  260   4.468   3.801   4.361
    1C        C  261   4.490   3.735   4.484
    1C        C  262   4.427   3.938   4.603
    1C        C  263   4.478   3.806   4.605
    1C        C  264   4.398   4.008   4.722
    1C        C  265   4.434   3.948   4.844
    1C        C  266   4.324   4.133   4.961
    1C        C  267   4.395   4.013   4.962
    1C        C  268   4.266   2.771   2.062
    1C        C  269   4.201   2.727   2.179
    1C        C  270   4.349   2.886   2.300
    1C        C  271   4.257   2.777   2.298
    1C        C  272   4.387   2.953   2.418
    1C        C  273   4.344   2.894   2.540
    1C        C  274   4.443   3.083   2.660
    1C        C  275   4.380   2.957   2.661
    1C        C  276   4.471   3.151   2.781
    1C        C  277   4.448   3.086   2.904
    1C        C  278   4.508   3.290   3.023
    1C        C  279   4.475   3.153   3.026
    1C        C  280   4.509   3.361   3.145
    1C        C  281   4.501   3.294   3.269
    1C        C  282   4.510   3.508   3.390
    1C        C  283   4.510   3.367   3.390
    1C        C  284   4.507   3.581   3.511
    1C        C  285   4.510   3.511   3.635
    1C        C  286   4.492   3.725   3.754
    1C        C  287   4.517   3.586   3.755
    1C        C  288   4.469   3.793   3.875
    1C        C  289   4.491   3.725   3.997
    1C        C  290   4.423   3.929   4.115
    1C        C  291   4.473   3.797   4.118
    1C        C  292   4.392   3.994   4.237
    1C        C  293   4.423   3.935   4.361
    1C        C  294   4.324   4.125   4.478
    1C        C  295   4.395   4.003   4.482
    1C        C  296   4.288   4.188   4.599
    1C        C  297   4.329   4.133   4.723
    1C        C  298   4.204   4.314   4.839
    1C        C  299   4.286   4.197   4.843
    1C        C  300   4.169   4.403   4.946
    1C        C  301   4.352   2.880   2.063
    1C        C  302   4.470   3.067   2.175
    1C        C  303   4.400   2.943   2.179
    1C        C  304   4.479   3.143   2.295
    1C        C  305   4.448   3.080   2.418
    1C        C  306   4.510   3.285   2.536
    1C        C  307   4.479   3.147   2.539
    1C        C  308   4.514   3.357   2.657
    1C        C  309   4.504   3.288   2.780
    1C        C  310   4.528   3.501   2.900
    1C        C  311   4.521   3.360   2.900
    1C        C  312   4.516   3.572   3.022
    1C        C  313   4.516   3.502   3.145
    1C        C  314   4.490   3.715   3.265
    1C        C  315   4.511   3.575   3.265
    1C        C  316   4.470   3.786   3.385
    1C        C  317   4.487   3.720   3.509
    1C        C  318   4.421   3.922   3.629
    1C        C  319   4.473   3.791   3.630
    1C        C  320   4.386   3.985   3.750
    1C        C  321   4.415   3.924   3.874
    1C        C  322   4.314   4.114   3.990
    1C        C  323   4.385   3.992   3.994
    1C        C  324   4.278   4.172   4.113
    1C        C  325   4.320   4.115   4.235
    1C        C  326   4.185   4.282   4.355
    1C        C  327   4.283   4.180   4.355
    1C        C  328   4.136   4.336   4.476
    1C        C  329   4.196   4.295   4.597
    1C        C  330   4.032   4.438   4.713
    1C        C  331   4.145   4.353   4.716
    1C        C  332   3.972   4.492   4.829
    1C        C  333   4.052   4.479   4.944
    1C        C  334   4.556   3.268   2.062
    1C        C  335   4.535   3.129   2.064
    1C        C  336   4.541   3.350   2.174
    1C        C  337   4.516   3.280   2.294
    1C        C  338   4.525   3.497   2.411
    1C        C  339   4.522   3.355   2.414
    1C        C  340   4.519   3.568   2.532
    1C        C  341   4.520   3.498   2.655
    1C        C  342   4.493   3.708   2.775
    1C        C  343   4.519   3.570   2.777
    1C        C  344   4.477   3.778   2.897
    1C        C  345   4.490   3.711   3.020
    1C        C  346   4.417   3.912   3.137
    1C        C  347   4.467   3.780   3.141
    1C        C  348   4.391   3.980   3.258
    1C        C  349   4.422   3.919   3.382
    1C        C  350   4.318   4.104   3.503
    1C        C  351   4.394   3.984   3.504
    1C        C  352   4.271   4.163   3.622
    1C        C  353   4.310   4.104   3.745
    1C        C  354   4.176   4.271   3.867
    1C        C  355   4.266   4.162   3.866
    1C        C  356   4.126   4.321   3.989
    1C        C  357   4.180   4.275   4.111
    1C        C  358   4.014   4.407   4.231
    1C        C  359   4.127   4.324   4.233
    1C        C  360   3.953   4.450   4.351
    1C        C  361   4.018   4.414   4.472
    1C        C  362   3.832   4.518   4.593
    1C        C  363   3.960   4.459   4.592
    1C        C  364   3.763   4.547   4.713
    1C        C  365   3.839   4.540   4.832
    1C        C  366   3.631   4.594   4.950
    1C        C  367   3.768   4.572   4.948
    1C        C  368   4.506   3.569   2.057
    1C        C  369   4.525   3.490   2.171
    1C        C  370   4.503   3.708   2.289
    1C        C  371   4.521   3.568   2.289
    1C        C  372   4.491   3.780   2.410
    1C        C  373   4.500   3.708   2.532
    1C        C  374   4.419   3.907   2.650
    1C        C  375   4.474   3.777   2.653
    1C        C  376   4.389   3.972   2.772
    1C        C  377   4.426   3.910   2.893
    1C        C  378   4.320   4.097   3.016
    1C        C  379   4.393   3.976   3.013
    1C        C  380   4.268   4.150   3.136
    1C        C  381   4.312   4.097   3.259
    1C        C  382   4.176   4.259   3.380
    1C        C  383   4.276   4.160   3.381
    1C        C  384   4.123   4.311   3.500
    1C        C  385   4.179   4.271   3.623
    1C        C  386   4.010   4.399   3.743
    1C        C  387   4.128   4.322   3.745
    1C        C  388   3.947   4.435   3.864
    1C        C  389   4.007   4.398   3.986
    1C        C  390   3.820   4.494   4.111
    1C        C  391   3.949   4.437   4.109
    1C        C  392   3.756   4.525   4.232
    1C        C  393   3.825   4.509   4.355
    1C        C  394   3.618   4.561   4.474
    1C        C  395   3.757   4.536   4.475
    1C        C  396   3.547   4.569   4.596
    1C        C  397   3.623   4.566   4.715
    1C        C  398   3.414   4.552   4.836
    1C        C  399   3.551   4.582   4.836
    1C        C  400   3.344   4.517   4.953
    1C        C  401   4.502   3.708   2.050
    1C        C  402   4.455   3.918   2.170
    1C        C  403   4.492   3.781   2.169
    1C        C  404   4.417   3.983   2.289
    1C        C  405   4.444   3.913   2.409
    1C        C  406   4.321   4.091   2.527
    1C        C  407   4.402   3.976   2.528
    1C        C  408   4.275   4.149   2.648
    1C        C  409   4.314   4.091   2.771
    1C        C  410   4.177   4.252   2.892
    1C        C  411   4.275   4.150   2.893
    1C        C  412   4.125   4.303   3.013
    1C        C  413   4.172   4.254   3.136
    1C        C  414   4.003   4.383   3.253
    1C        C  415   4.120   4.304   3.258
    1C        C  416   3.943   4.419   3.375
    1C        C  417   4.004   4.387   3.499
    1C        C  418   3.815   4.482   3.621
    1C        C  419   3.943   4.423   3.621
    1C        C  420   3.750   4.513   3.742
    1C        C  421   3.817   4.491   3.865
    1C        C  422   3.614   4.543   3.986
    1C        C  423   3.753   4.515   3.988
    1C        C  424   3.544   4.550   4.108
    1C        C  425   3.616   4.544   4.230
    1C        C  426   3.406   4.552   4.355
    1C        C  427   3.547   4.558   4.352
    1C        C  428   3.334   4.539   4.477
    1C        C  429   3.407   4.550   4.597
    1C        C  430   3.196   4.518   4.723
    1C        C  431   3.336   4.542   4.719
    1C        C  432   3.126   4.496   4.845
    1C        C  433   3.208   4.492   4.959
    1C        C  434   4.385   4.125   2.058
    1C        C  435   4.448   4.000   2.057
    1C        C  436   4.301   4.165   2.166
    1C        C  437   4.337   4.100   2.287
    1C        C  438   4.180   4.251   2.404
    1C        C  439   4.279   4.151   2.406
    1C        C  440   4.125   4.297   2.526
    1C        C  441   4.177   4.251   2.648
    1C        C  442   4.007   4.379   2.767
    1C        C  443   4.122   4.297   2.770
    1C        C  444   3.945   4.417   2.889
    1C        C  445   4.009   4.384   3.010
    1C        C  446   3.816   4.480   3.132
    1C        C  447   3.945   4.422   3.130
    1C        C  448   3.748   4.503   3.254
    1C        C  449   3.814   4.476   3.376
    1C        C  450   3.611   4.537   3.498
    1C        C  451   3.748   4.503   3.498
    1C        C  452   3.543   4.546   3.621
    1C        C  453   3.611   4.542   3.745
    1C        C  454   3.399   4.547   3.865
    1C        C  455   3.540   4.554   3.866
    1C        C  456   3.333   4.533   3.989
    1C        C  457   3.403   4.540   4.112
    1C        C  458   3.198   4.497   4.237
    1C        C  459   3.334   4.535   4.235
    1C        C  460   3.130   4.483   4.360
    1C        C  461   3.196   4.510   4.481
    1C        C  462   2.997   4.437   4.603
    1C        C  463   3.127   4.493   4.603
    1C        C  464   2.935   4.399   4.724
    1C        C  465   2.992   4.444   4.846
    1C        C  466   2.806   4.338   4.958
    1C        C  467   2.907   4.436   4.960
    1C        C  468   4.124   4.284   2.042
    1C        C  469   4.187   4.251   2.163
    1C        C  470   4.009   4.378   2.280
    1C        C  471   4.127   4.299   2.282
    1C        C  472   3.945   4.416   2.401
    1C        C  473   4.008   4.377   2.521
    1C        C  474   3.818   4.469   2.646
    1C        C  475   3.947   4.412   2.644
    1C        C  476   3.749   4.498   2.765
    1C        C  477   3.818   4.480   2.887
    1C        C  478   3.611   4.526   3.009
    1C        C  479   3.751   4.503   3.009
    1C        C  480   3.540   4.541   3.130
    1C        C  481   3.610   4.534   3.252
    1C        C  482   3.400   4.536   3.378
    1C        C  483   3.541   4.544   3.375
    1C        C  484   3.330   4.532   3.500
    1C        C  485   3.401   4.543   3.622
    1C        C  486   3.193   4.495   3.743
    1C        C  487   3.329   4.534   3.743
    1C        C  488   3.129   4.471   3.867
    1C        C  489   3.196   4.501   3.988
    1C        C  490   3.011   4.408   4.115
    1C        C  491   3.132   4.480   4.113
    1C        C  492   2.945   4.382   4.237
    1C        C  493   3.002   4.421   4.360
    1C        C  494   2.825   4.307   4.482
    1C        C  495   2.938   4.393   4.482
    1C        C  496   2.777   4.254   4.603
    1C        C  497   2.824   4.310   4.724
    1C        C  498   2.669   4.163   4.845
    1C        C  499   2.760   4.271   4.844
    1C        C  500   2.597   4.118   4.957
    1C        C  501   4.006   4.357   2.041
    1C        C  502   3.819   4.469   2.158
    1C        C  503   3.947   4.410   2.157
    1C        C  504   3.748   4.491   2.278
    1C        C  505   3.816   4.473   2.400
    1C        C  506   3.610   4.510   2.522
    1C        C  507   3.749   4.489   2.524
    1C        C  508   3.537   4.524   2.642
    1C        C  509   3.610   4.525   2.763
    1C        C  510   3.400   4.525   2.887
    1C        C  511   3.542   4.531   2.886
    1C        C  512   3.329   4.522   3.009
    1C        C  513   3.398   4.539   3.131
    1C        C  514   3.195   4.491   3.255
    1C        C  515   3.331   4.527   3.254
    1C        C  516   3.127   4.467   3.377
    1C        C  517   3.193   4.498   3.498
    1C        C  518   3.001   4.408   3.623
    1C        C  519   3.128   4.471   3.620
    1C        C  520   2.945   4.367   3.746
    1C        C  521   3.006   4.403   3.868
    1C        C  522   2.841   4.279   3.996
    1C        C  523   2.952   4.366   3.994
    1C        C  524   2.792   4.234   4.120
    1C        C  525   2.834   4.294   4.241
    1C        C  526   2.695   4.134   4.368
    1C        C  527   2.780   4.247   4.363
    1C        C  528   2.652   4.074   4.488
    1C        C  529   2.691   4.141   4.606
    1C        C  530   2.583   3.960   4.733
    1C        C  531   2.641   4.090   4.728
    1C        C  532   2.543   3.900   4.856
    1C        C  533   2.528   3.996   4.961
    1C        C  534   3.618   4.554   2.041
    1C        C  535   3.751   4.510   2.043
    1C        C  536   3.537   4.532   2.157
    1C        C  537   3.608   4.516   2.279
    1C        C  538   3.395   4.518   2.401
    1C        C  539   3.537   4.521   2.401
    1C        C  540   3.325   4.511   2.524
    1C        C  541   3.396   4.517   2.646
    1C        C  542   3.187   4.486   2.767
    1C        C  543   3.325   4.514   2.768
    1C        C  544   3.123   4.464   2.890
    1C        C  545   3.193   4.485   3.011
    1C        C  546   3.003   4.393   3.135
    1C        C  547   3.126   4.463   3.134
    1C        C  548   2.943   4.359   3.259
    1C        C  549   3.002   4.402   3.380
    1C        C  550   2.830   4.279   3.505
    1C        C  551   2.938   4.371   3.502
    1C        C  552   2.781   4.229   3.627
    1C        C  553   2.835   4.278   3.748
    1C        C  554   2.703   4.120   3.876
    1C        C  555   2.788   4.233   3.873
    1C        C  556   2.667   4.061   3.999
    1C        C  557   2.706   4.122   4.121
    1C        C  558   2.601   3.944   4.247
    1C        C  559   2.663   4.071   4.245
    1C        C  560   2.565   3.882   4.369
    1C        C  561   2.585   3.950   4.491
    1C        C  562   2.531   3.749   4.614
    1C        C  563   2.558   3.887   4.615
    1C        C  564   2.519   3.682   4.738
    1C        C  565   2.521   3.759   4.858
    1C        C  566   2.528   3.545   4.979
    1C        C  567   2.523   3.684   4.977
    1C        C  568   3.330   4.473   2.040
    1C        C  569   3.396   4.513   2.157
    1C        C  570   3.186   4.476   2.281
    1C        C  571   3.324   4.511   2.280
    1C        C  572   3.119   4.450   2.403
    1C        C  573   3.188   4.478   2.523
    1C        C  574   2.990   4.402   2.650
    1C        C  575   3.118   4.462   2.645
    1C        C  576   2.932   4.360   2.771
    1C        C  577   2.998   4.397   2.890
    1C        C  578   2.834   4.265   3.017
    1C        C  579   2.942   4.357   3.013
    1C        C  580   2.785   4.215   3.139
    1C        C  581   2.836   4.267   3.260
    1C        C  582   2.697   4.111   3.386
    1C        C  583   2.787   4.220   3.384
    1C        C  584   2.658   4.055   3.510
    1C        C  585   2.694   4.117   3.631
    1C        C  586   2.597   3.933   3.758
    1C        C  587   2.661   4.059   3.756
    1C        C  588   2.572   3.872   3.883
    1C        C  589   2.600   3.937   4.005
    1C        C  590   2.533   3.738   4.129
    1C        C  591   2.573   3.873   4.128
    1C        C  592   2.515   3.672   4.252
    1C        C  593   2.526   3.746   4.372
    1C        C  594   2.515   3.534   4.498
    1C        C  595   2.519   3.675   4.494
    1C        C  596   2.514   3.464   4.620
    1C        C  597   2.519   3.540   4.740
    1C        C  598   2.531   3.327   4.862
    1C        C  599   2.526   3.468   4.861
    1C        C  600   2.533   3.250   4.979
    1C        C  601   3.196   4.440   2.046
    1C        C  602   2.985   4.385   2.163
    1C        C  603   3.119   4.435   2.163
    1C        C  604   2.924   4.355   2.288
    1C        C  605   2.992   4.390   2.407
    1C        C  606   2.820   4.269   2.532
    1C        C  607   2.929   4.358   2.530
    1C        C  608   2.776   4.211   2.653
    1C        C  609   2.827   4.265   2.773
    1C        C  610   2.682   4.113   2.898
    1C        C  611   2.780   4.215   2.897
    1C        C  612   2.646   4.053   3.020
    1C        C  613   2.688   4.112   3.142
    1C        C  614   2.580   3.932   3.267
    1C        C  615   2.648   4.056   3.265
    1C        C  616   2.558   3.866   3.390
    1C        C  617   2.593   3.930   3.512
    1C        C  618   2.527   3.732   3.641
    1C        C  619   2.567   3.868   3.636
    1C        C  620   2.513   3.666   3.764
    1C        C  621   2.531   3.737   3.885
    1C        C  622   2.507   3.526   4.011
    1C        C  623   2.518   3.667   4.007
    1C        C  624   2.513   3.458   4.135
    1C        C  625   2.505   3.531   4.256
    1C        C  626   2.541   3.321   4.379
    1C        C  627   2.515   3.460   4.377
    1C        C  628   2.556   3.252   4.501
    1C        C  629   2.534   3.324   4.620
    1C        C  630   2.602   3.123   4.744
    1C        C  631   2.552   3.256   4.742
    1C        C  632   2.620   3.050   4.865
    1C        C  633   2.566   3.113   4.981
    1C        C  634   2.780   4.307   2.055
    1C        C  635   2.894   4.387   2.052
    1C        C  636   2.749   4.232   2.169
    1C        C  637   2.812   4.268   2.290
    1C        C  638   2.673   4.111   2.410
    1C        C  639   2.760   4.222   2.413
    1C        C  640   2.631   4.053   2.531
    1C        C  641   2.684   4.104   2.652
    1C        C  642   2.580   3.924   2.777
    1C        C  643   2.645   4.050   2.777
    1C        C  644   2.559   3.859   2.901
    1C        C  645   2.585   3.925   3.023
    1C        C  646   2.526   3.725   3.148
    1C        C  647   2.556   3.863   3.147
    1C        C  648   2.511   3.659   3.273
    1C        C  649   2.521   3.730   3.394
    1C        C  650   2.506   3.522   3.519
    1C        C  651   2.513   3.663   3.518
    1C        C  652   2.513   3.455   3.643
    1C        C  653   2.505   3.525   3.766
    1C        C  654   2.530   3.317   3.891
    1C        C  655   2.501   3.456   3.889
    1C        C  656   2.557   3.250   4.013
    1C        C  657   2.542   3.320   4.135
    1C        C  658   2.612   3.120   4.259
    1C        C  659   2.559   3.251   4.257
    1C        C  660   2.644   3.059   4.382
    1C        C  661   2.610   3.122   4.504
    1C        C  662   2.719   2.939   4.627
    1C        C  663   2.639   3.055   4.625
    1C        C  664   2.755   2.879   4.750
    1C        C  665   2.698   2.931   4.869
    1C        C  666   2.748   2.871   4.986
    1C        C  667   2.684   4.026   2.054
    1C        C  668   2.687   4.105   2.170
    1C        C  669   2.591   3.911   2.288
    1C        C  670   2.644   4.044   2.289
    1C        C  671   2.562   3.850   2.412
    1C        C  672   2.583   3.921   2.533
    1C        C  673   2.518   3.720   2.659
    1C        C  674   2.554   3.857   2.656
    1C        C  675   2.506   3.650   2.781
    1C        C  676   2.522   3.723   2.901
    1C        C  677   2.506   3.516   3.030
    1C        C  678   2.511   3.657   3.026
    1C        C  679   2.503   3.446   3.153
    1C        C  680   2.499   3.518   3.275
    1C        C  681   2.523   3.309   3.401
    1C        C  682   2.502   3.449   3.398
    1C        C  683   2.544   3.242   3.523
    1C        C  684   2.534   3.315   3.644
    1C        C  685   2.610   3.121   3.772
    1C        C  686   2.556   3.252   3.769
    1C        C  687   2.642   3.055   3.893
    1C        C  688   2.608   3.119   4.015
    1C        C  689   2.717   2.937   4.139
    1C        C  690   2.641   3.056   4.137
    1C        C  691   2.758   2.878   4.261
    1C        C  692   2.720   2.940   4.383
    1C        C  693   2.759   2.880   4.505
    1C        C  694   2.634   3.895   2.056
    1C        C  695   2.526   3.705   2.176
    1C        C  696   2.578   3.836   2.170
    1C        C  697   2.505   3.640   2.299
    1C        C  698   2.522   3.715   2.418
    1C        C  699   2.490   3.506   2.541
    1C        C  700   2.506   3.646   2.540
    1C        C  701   2.501   3.439   2.665
    1C        C  702   2.503   3.509   2.787
    1C        C  703   2.527   3.301   2.911
    1C        C  704   2.508   3.441   2.910
    1C        C  705   2.543   3.236   3.035
    1C        C  706   2.525   3.306   3.156
    1C        C  707   2.605   3.112   3.282
    1C        C  708   2.544   3.240   3.280
    1C        C  709   2.642   3.054   3.405
    1C        C  710   2.605   3.115   3.527
    1C        C  711   2.719   2.939   3.650
    1C        C  712   2.640   3.056   3.651
    1C        C  713   2.763   2.880   3.770
    1C        C  714   2.721   2.938   3.892
    1C        C  715   2.761   2.884   4.016
    1C        C  716   2.450   3.499   2.062
    1C        C  717   2.493   3.632   2.060
    1C        C  718   2.465   3.423   2.183
    1C        C  719   2.479   3.500   2.302
    1C        C  720   2.508   3.288   2.426
    1C        C  721   2.485   3.428   2.423
    1C        C  722   2.539   3.224   2.547
    1C        C  723   2.523   3.299   2.666
    1C        C  724   2.599   3.102   2.792
    1C        C  725   2.544   3.232   2.789
    1C        C  726   2.634   3.043   2.915
    1C        C  727   2.603   3.108   3.037
    1C        C  728   2.714   2.929   3.159
    1C        C  729   2.636   3.047   3.160
    1C        C  730   2.762   2.880   3.283
    1C        C  731   2.723   2.938   3.406
    1C        C  732   2.764   2.882   3.529
    1C        C  733   2.489   3.199   2.076
    1C        C  734   2.497   3.284   2.187
    1C        C  735   2.584   3.085   2.308
    1C        C  736   2.525   3.214   2.307
    1C        C  737   2.613   3.019   2.430
    1C        C  738   2.593   3.093   2.548
    1C        C  739   2.700   2.912   2.671
    1C        C  740   2.625   3.032   2.672
    1C        C  741   2.746   2.860   2.794
    1C        C  742   2.703   2.921   2.915
    1C        C  743   2.757   2.873   3.037
    1C        C  744   2.544   3.071   2.076
    1C        C  745   2.688   2.899   2.185
    1C        C  746   2.609   3.017   2.187
    1C        C  747   2.729   2.840   2.306
    1C        C  748   2.691   2.901   2.427
    1C        C  749   2.740   2.852   2.550
    1C        C  750   2.738   2.840   2.068
    1C        C  751   3.659   2.291   2.005
    1C        O  752   3.610   2.184   2.050
    1C        O  753   3.695   2.289   1.870
    1C        C  754   4.633   3.048   1.989
    1C        O  755   4.599   3.029   1.869
    1C        O  756   4.771   3.053   2.013
    1C        C  757   4.442   4.228   1.967
    1C        O  758   4.509   4.323   2.015
    1C        O  759   4.386   4.252   1.841
    1C        C  760   3.588   4.663   1.946
    1C        O  761   3.620   4.782   1.973
    1C        O  762   3.576   4.638   1.809
    1C        C  763   2.878   4.512   1.974
    1C        O  764   2.941   4.538   1.868
    1C        O  765   2.786   4.615   1.995
    1C        C  766   2.331   3.481   1.976
    1C        O  767   2.339   3.471   1.851
    1C        O  768   2.204   3.463   2.033
    1C        C  769   4.685   3.589   5.070
    1C        O  770   4.668   3.622   5.190
    1C        O  771   4.811   3.641   5.038
    1C        C  772   4.264   4.446   5.051
    1C        O  773   4.261   4.407   5.171
    1C        O  774   4.357   4.550   5.033
    1C        C  775   4.153   2.524   5.073
    1C        O  776   4.193   2.407   5.050
    1C        O  777   4.162   2.554   5.210
    1C        C  778   2.865   4.555   5.037
    1C        O  779   2.822   4.658   4.977
    1C        O  780   2.857   4.557   5.176
    1C        C  781   2.472   3.043   5.072
    1C        O  782   2.353   3.022   5.036
    1C        O  783   2.476   3.055   5.210
    1C        C  784   2.427   3.989   5.069
    1C        O  785   2.306   3.979   5.037
    1C        O  786   2.461   3.931   5.192
    1C        C  787   2.945   2.415   2.035
    1C        O  788   2.888   2.430   1.924
    1C        O  789   2.911   2.297   2.100
    1C        C  790   3.178   2.376   5.067
    1C        O  791   3.123   2.272   5.023
    1C        O  792   3.210   2.374   5.203
    1C        H  793   4.235   3.046   5.021
    1C        H  794   4.249   2.792   5.065
    1C        H  795   4.515   3.127   5.058
    1C        H  796   4.489   3.370   5.063
    1C        H  797   4.565   3.810   5.049
    1C        H  798   4.457   4.001   5.049
    1C        H  799   4.303   4.180   5.054
    1C        H  800   4.015   4.517   5.037
    1C        H  801   3.797   4.524   5.039
    1C        H  802   3.596   4.645   5.038
    1C        H  803   3.403   4.490   5.038
    1C        H  804   3.174   4.428   5.038
    1C        H  805   3.888   2.500   5.070
    1C        H  806   3.674   2.460   5.071
    1C        H  807   3.004   2.558   5.069
    1C        H  808   3.440   2.435   5.066
    1C        H  809   2.831   2.694   5.065
    1C        H  810   2.700   2.892   5.079
    1C        H  811   2.481   3.291   5.063
    1C        H  812   2.489   3.502   5.069
    1C        H  813   2.486   3.730   5.066
    1C        H  814   2.580   4.190   5.035
    1C        H  815   2.782   4.296   5.053
    1C        H  816   2.733   2.897   1.978
    1C        H  817   2.859   2.690   1.979
    1C        H  818   3.212   2.432   1.989
    1C        H  819   3.429   2.418   1.979
    1C        H  820   3.845   2.522   1.972
    1C        H  821   4.066   2.627   1.970
    1C        H  822   4.270   2.708   1.975
    1C        H  823   4.409   2.889   1.973
    1C        H  824   4.610   3.309   1.980
    1C        H  825   4.478   3.515   1.969
    1C        H  826   4.581   3.745   1.988
    1C        H  827   3.808   4.528   1.955
    1C        H  828   3.975   4.392   1.945
    1C        H  829   4.180   4.285   1.950
    1C        H  830   4.532   3.987   1.990
    1C        H  831   2.587   3.870   1.963
    1C        H  832   2.754   4.049   1.977
    1C        H  833   2.695   4.340   1.998
    1C        H  834   3.385   4.442   1.954
    1C        H  835   3.148   4.396   1.961
    1C        H  836   2.588   3.047   1.981
    1C        H  837   2.426   3.230   1.995
    1C        H  838   2.547   3.661   1.973
    2V3OU   H29  839   2.805   3.549   5.849
    2V3OU   C27  840   2.786   3.503   5.949
    2V3OU   H27  841   2.721   3.564   6.017
    2V3OU   H28  842   2.733   3.405   5.941
    2V3OU   O11  843   2.914   3.479   6.008
    2V3OU   C15  844   2.922   3.400   6.121
    2V3OU   C13  845   3.051   3.376   6.172
    2V3OU   C14  846   3.078   3.271   6.260
    2V3OU   C16  847   2.972   3.192   6.304
    2V3OU    H6  848   2.993   3.107   6.371
    2V3OU   C12  849   3.215   3.233   6.302
    2V3OU    O2  850   3.233   3.128   6.366
    2V3OU   C10  851   3.328   3.313   6.254
    2V3OU    C8  852   3.460   3.272   6.274
    2V3OU   O10  853   3.489   3.153   6.332
    2V3OU   H26  854   3.403   3.108   6.342
    2V3OU    C6  855   3.568   3.350   6.224
    2V3OU    C5  856   3.540   3.466   6.152
    2V3OU    C4  857   3.705   3.291   6.216
    2V3OU    H4  858   3.727   3.227   6.306
    2V3OU    H5  859   3.715   3.230   6.121
    2V3OU    C2  860   3.818   3.395   6.213
    2V3OU    O6  861   3.810   3.478   6.330
    2V3OU   H21  862   3.766   3.550   6.282
    2V3OU    C3  863   3.783   3.495   6.102
    2V3OU    H2  864   3.864   3.572   6.095
    2V3OU    H3  865   3.776   3.438   6.006
    2V3OU   C25  866   3.953   3.325   6.199
    2V3OU    O7  867   4.002   3.290   6.092
    2V3OU   C26  868   4.027   3.294   6.328
    2V3OU   H22  869   4.069   3.390   6.368
    2V3OU   H23  870   4.118   3.232   6.307
    2V3OU    O8  871   3.960   3.212   6.422
    2V3OU   H24  872   3.922   3.269   6.491
    2V3OU    C1  873   3.649   3.564   6.122
    2V3OU    H1  874   3.621   3.615   6.026
    2V3OU    O3  875   3.656   3.654   6.233
    2V3OU   C19  876   3.623   3.793   6.232
    2V3OU    H9  877   3.526   3.816   6.178
    2V3OU    O4  878   3.713   3.853   6.142
    2V3OU   C20  879   3.842   3.876   6.198
    2V3OU   H10  880   3.893   3.776   6.216
    2V3OU   C24  881   3.615   3.859   6.370
    2V3OU   H16  882   3.544   3.802   6.436
    2V3OU   H17  883   3.567   3.960   6.370
    2V3OU   C23  884   3.754   3.875   6.432
    2V3OU   H15  885   3.798   3.770   6.445
    2V3OU    N1  886   3.735   3.956   6.551
    2V3OU   H19  887   3.805   3.925   6.616
    2V3OU   H20  888   3.645   3.934   6.590
    2V3OU   C21  889   3.847   3.949   6.333
    2V3OU   H11  890   3.955   3.930   6.362
    2V3OU    O5  891   3.822   4.089   6.334
    2V3OU   H18  892   3.789   4.108   6.423
    2V3OU   C22  893   3.915   3.949   6.087
    2V3OU   H12  894   3.861   4.044   6.061
    2V3OU   H13  895   3.907   3.890   5.993
    2V3OU   H14  896   4.022   3.965   6.118
    2V3OU   C11  897   3.159   3.473   6.148
    2V3OU    O1  898   3.133   3.590   6.109
    2V3OU    C9  899   3.297   3.433   6.184
    2V3OU    C7  900   3.404   3.504   6.131
    2V3OU    O9  901   3.386   3.619   6.058
    2V3OU   H25  902   3.289   3.627   6.066
    2V3OU   C17  903   2.819   3.315   6.168
    2V3OU    H7  904   2.716   3.346   6.181
    2V3OU   C18  905   2.843   3.211   6.257
    2V3OU    H8  906   2.761   3.149   6.297
    3SOL     OW  907   2.925   3.327   3.679
    3SOL    HW1  908   2.916   3.282   3.590
    3SOL    HW2  909   2.892   3.421   3.672
    4SOL     OW  910   6.554   6.557   1.330
    4SOL    HW1  911   6.575   6.566   1.427
    4SOL    HW2  912   6.619   6.495   1.287
    5SOL     OW  913   4.410   2.606   0.574
    5SOL    HW1  914   4.468   2.587   0.653
    5SOL    HW2  915   4.344   2.531   0.562
    6SOL     OW  916   4.519   1.847   2.105
    6SOL    HW1  917   4.610   1.887   2.117
    6SOL    HW2  918   4.528   1.749   2.086
    7SOL     OW  919   2.138   3.302   4.421
    7SOL    HW1  920   2.123   3.248   4.503
    7SOL    HW2  921   2.056   3.298   4.363
    8SOL     OW  922   0.964   2.510   5.465
    8SOL    HW1  923   0.972   2.580   5.393
    8SOL    HW2  924   0.892   2.537   5.529
    9SOL     OW  925   0.868   1.715   5.815
    9SOL    HW1  926   0.931   1.751   5.746
    9SOL    HW2  927   0.919   1.662   5.882
   10SOL     OW  928   5.455   4.941   1.499
   10SOL    HW1  929   5.429   4.845   1.502
   10SOL    HW2  930   5.444   4.981   1.590
   11SOL     OW  931   2.962   2.190   0.562
   11SOL    HW1  932   2.958   2.182   0.662
   11SOL    HW2  933   2.869   2.199   0.526
   12SOL     OW  934   4.907   5.010   2.052
   12SOL    HW1  935   4.876   5.100   2.082
   12SOL    HW2  936   4.912   4.949   2.131
   13SOL     OW  937   5.319   6.672   1.463
   13SOL    HW1  938   5.295   6.742   1.396
   13SOL    HW2  939   5.295   6.703   1.555
   14SOL     OW  940   4.655   6.389   0.033
   14SOL    HW1  941   4.663   6.297   7.019
   14SOL    HW2  942   4.558   6.414   0.036
   15SOL     OW  943   0.618   5.677   6.314
   15SOL    HW1  944   0.605   5.656   6.411
   15SOL    HW2  945   0.570   5.609   6.259
   16SOL     OW  946   2.238   5.675   4.697
   16SOL    HW1  947   2.173   5.608   4.662
   16SOL    HW2  948   2.230   5.681   4.796
   17SOL     OW  949   6.871   0.685   4.711
   17SOL    HW1  950   6.818   0.723   4.634
   17SOL    HW2  951   6.817   0.693   4.795
   18SOL     OW  952   2.545   0.887   5.556
   18SOL    HW1  953   2.536   0.972   5.608
   18SOL    HW2  954   2.615   0.830   5.598
   19SOL     OW  955   3.104   6.375   2.390
   19SOL    HW1  956   3.121   6.446   2.459
   19SOL    HW2  957   3.036   6.310   2.425
   20SOL     OW  958   0.191   1.597   5.888
   20SOL    HW1  959   0.276   1.633   5.927
   20SOL    HW2  960   0.151   1.666   5.827
   21SOL     OW  961   2.161   3.917   2.440
   21SOL    HW1  962   2.184   3.932   2.536
   21SOL    HW2  963   2.154   3.819   2.423
   22SOL     OW  964   0.839   1.258   0.395
   22SOL    HW1  965   0.789   1.324   0.339
   22SOL    HW2  966   0.873   1.184   0.336
   23SOL     OW  967   6.526   5.152   0.353
   23SOL    HW1  968   6.566   5.061   0.348
   23SOL    HW2  969   6.439   5.148   0.403
   24SOL     OW  970   5.188   1.497   0.212
   24SOL    HW1  971   5.142   1.584   0.227
   24SOL    HW2  972   5.152   1.428   0.275
   25SOL     OW  973   1.651   1.008   4.063
   25SOL    HW1  974   1.551   1.004   4.067
   25SOL    HW2  975   1.681   1.103   4.078
   26SOL     OW  976   1.547   1.272   6.673
   26SOL    HW1  977   1.646   1.274   6.656
   26SOL    HW2  978   1.522   1.184   6.713
   27SOL     OW  979   0.247   0.215   2.993
   27SOL    HW1  980   0.324   0.241   3.051
   27SOL    HW2  981   0.251   0.268   2.908
   28SOL     OW  982   1.257   0.848   6.071
   28SOL    HW1  983   1.309   0.766   6.094
   28SOL    HW2  984   1.284   0.881   5.981
   29SOL     OW  985   5.662   0.327   1.448
   29SOL    HW1  986   5.720   0.251   1.417
   29SOL    HW2  987   5.568   0.295   1.460
   30SOL     OW  988   4.968   0.460   5.111
   30SOL    HW1  989   4.970   0.432   5.207
   30SOL    HW2  990   5.059   0.449   5.071
   31SOL     OW  991   6.731   4.649   4.176
   31SOL    HW1  992   6.803   4.633   4.244
   31SOL    HW2  993   6.756   4.726   4.118
   32SOL     OW  994   2.763   1.027   0.876
   32SOL    HW1  995   2.788   1.123   0.869
   32SOL    HW2  996   2.681   1.018   0.933
   33SOL     OW  997   2.294   5.316   5.500
   33SOL    HW1  998   2.283   5.413   5.521
   33SOL    HW2  999   2.318   5.304   5.404
   34SOL     OW 1000   2.343   5.966   5.429
   34SOL    HW1 1001   2.355   5.908   5.349
   34SOL    HW2 1002   2.247   5.963   5.458
   35SOL     OW 1003   1.195   3.748   5.626
   35SOL    HW1 1004   1.167   3.737   5.530
   35SOL    HW2 1005   1.275   3.691   5.644
   36SOL     OW 1006   6.555   1.274   3.599
   36SOL    HW1 1007   6.586   1.205   3.533
   36SOL    HW2 1008   6.465   1.248   3.635
   37SOL     OW 1009   2.403   6.176   4.478
   37SOL    HW1 1010   2.468   6.148   4.407
   37SOL    HW2 1011   2.405   6.276   4.488
   38SOL     OW 1012   0.976   3.970   2.590
   38SOL    HW1 1013   0.978   3.982   2.689
   38SOL    HW2 1014   1.050   3.908   2.562
   39SOL     OW 1015   6.542   5.124   1.037
   39SOL    HW1 1016   6.471   5.112   0.967
   39SOL    HW2 1017   6.621   5.170   0.997
   40SOL     OW 1018   3.459   0.759   6.969
   40SOL    HW1 1019   3.503   0.749   6.879
   40SOL    HW2 1020   3.497   0.691   0.007
   41SOL     OW 1021   5.080   3.545   1.457
   41SOL    HW1 1022   5.104   3.499   1.542
   41SOL    HW2 1023   5.088   3.644   1.469
   42SOL     OW 1024   2.950   4.209   6.662
   42SOL    HW1 1025   2.862   4.255   6.647
   42SOL    HW2 1026   2.989   4.181   6.574
   43SOL     OW 1027   5.377   0.343   4.828
   43SOL    HW1 1028   5.372   0.276   4.754
   43SOL    HW2 1029   5.464   0.333   4.876
   44SOL     OW 1030   6.816   1.278   6.183
   44SOL    HW1 1031   6.873   1.335   6.124
   44SOL    HW2 1032   6.727   1.264   6.140
   45SOL     OW 1033   2.803   4.579   6.351
   45SOL    HW1 1034   2.759   4.491   6.332
   45SOL    HW2 1035   2.840   4.579   6.443
   46SOL     OW 1036   1.018   4.539   5.253
   46SOL    HW1 1037   0.933   4.588   5.267
   46SOL    HW2 1038   1.004   4.466   5.186
   47SOL     OW 1039   6.046   3.909   0.262
   47SOL    HW1 1040   6.006   3.896   0.353
   47SOL    HW2 1041   6.132   3.858   0.255
   48SOL     OW 1042   6.870   4.008   0.859
   48SOL    HW1 1043   6.834   4.091   0.816
   48SOL    HW2 1044   6.969   4.004   0.848
   49SOL     OW 1045   3.269   2.585   6.227
   49SOL    HW1 1046   3.345   2.628   6.179
   49SOL    HW2 1047   3.304   2.510   6.283
   50SOL     OW 1048   5.214   1.901   0.391
   50SOL    HW1 1049   5.157   1.836   0.341
   50SOL    HW2 1050   5.258   1.963   0.326
   51SOL     OW 1051   0.900   6.366   1.740
   51SOL    HW1 1052   0.866   6.275   1.765
   51SOL    HW2 1053   0.851   6.399   1.659
   52SOL     OW 1054   5.800   1.799   2.157
   52SOL    HW1 1055   5.825   1.821   2.252
   52SOL    HW2 1056   5.722   1.736   2.157
   53SOL     OW 1057   4.252   0.821   0.670
   53SOL    HW1 1058   4.222   0.785   0.759
   53SOL    HW2 1059   4.185   0.886   0.636
   54SOL     OW 1060   6.128   0.607   6.374
   54SOL    HW1 1061   6.048   0.558   6.341
   54SOL    HW2 1062   6.176   0.649   6.296
   55SOL     OW 1063   1.360   3.690   6.114
   55SOL    HW1 1064   1.300   3.646   6.181
   55SOL    HW2 1065   1.385   3.624   6.043
   56SOL     OW 1066   0.606   2.290   6.700
   56SOL    HW1 1067   0.666   2.280   6.779
   56SOL    HW2 1068   0.546   2.210   6.693
   57SOL     OW 1069   4.093   6.167   1.245
   57SOL    HW1 1070   4.090   6.143   1.147
   57SOL    HW2 1071   4.027   6.240   1.263
   58SOL     OW 1072   1.125   0.865   6.846
   58SOL    HW1 1073   1.201   0.924   6.874
   58SOL    HW2 1074   1.044   0.887   6.901
   59SOL     OW 1075   4.052   2.770   6.258
   59SOL    HW1 1076   4.134   2.771   6.315
   59SOL    HW2 1077   3.976   2.810   6.308
   60SOL     OW 1078   6.446   3.398   2.994
   60SOL    HW1 1079   6.463   3.305   3.028
   60SOL    HW2 1080   6.501   3.414   2.913
   61SOL     OW 1081   1.334   5.802   3.111
   61SOL    HW1 1082   1.408   5.742   3.143
   61SOL    HW2 1083   1.301   5.769   3.023
   62SOL     OW 1084   5.804   2.324   3.383
   62SOL    HW1 1085   5.779   2.378   3.464
   62SOL    HW2 1086   5.857   2.381   3.320
   63SOL     OW 1087   4.021   6.895   5.766
   63SOL    HW1 1088   4.017   6.816   5.826
   63SOL    HW2 1089   3.953   6.885   5.693
   64SOL     OW 1090   1.391   2.073   6.056
   64SOL    HW1 1091   1.417   2.157   6.011
   64SOL    HW2 1092   1.300   2.083   6.096
   65SOL     OW 1093   1.254   5.331   4.887
   65SOL    HW1 1094   1.311   5.402   4.928
   65SOL    HW2 1095   1.157   5.357   4.897
   66SOL     OW 1096   4.514   1.628   1.372
   66SOL    HW1 1097   4.540   1.580   1.455
   66SOL    HW2 1098   4.415   1.636   1.367
   67SOL     OW 1099   6.979   3.835   1.231
   67SOL    HW1 1100   6.949   3.754   1.281
   67SOL    HW2 1101   6.987   3.913   1.293
   68SOL     OW 1102   0.313   0.997   6.479
   68SOL    HW1 1103   0.315   1.047   6.566
   68SOL    HW2 1104   0.364   0.912   6.487
   69SOL     OW 1105   1.953   6.153   6.923
   69SOL    HW1 1106   1.926   6.074   6.867
   69SOL    HW2 1107   1.928   6.136   7.019
   70SOL     OW 1108   4.455   5.034   3.116
   70SOL    HW1 1109   4.500   5.100   3.175
   70SOL    HW2 1110   4.370   5.073   3.081
   71SOL     OW 1111   5.011   1.319   5.361
   71SOL    HW1 1112   5.069   1.300   5.282
   71SOL    HW2 1113   4.930   1.370   5.331
   72SOL     OW 1114   0.169   0.672   2.113
   72SOL    HW1 1115   0.267   0.662   2.135
   72SOL    HW2 1116   0.132   0.751   2.161
   73SOL     OW 1117   2.312   1.220   0.983
   73SOL    HW1 1118   2.353   1.305   0.949
   73SOL    HW2 1119   2.359   1.193   1.067
   74SOL     OW 1120   2.585   1.592   0.149
   74SOL    HW1 1121   2.582   1.595   0.050
   74SOL    HW2 1122   2.671   1.629   0.182
   75SOL     OW 1123   2.093   2.263   0.710
   75SOL    HW1 1124   2.039   2.295   0.632
   75SOL    HW2 1125   2.136   2.342   0.755
   76SOL     OW 1126   3.960   4.927   5.850
   76SOL    HW1 1127   3.941   5.022   5.873
   76SOL    HW2 1128   3.876   4.873   5.854
   77SOL     OW 1129   0.663   5.398   4.240
   77SOL    HW1 1130   0.733   5.433   4.303
   77SOL    HW2 1131   0.603   5.335   4.288
   78SOL     OW 1132   5.693   1.719   1.508
   78SOL    HW1 1133   5.727   1.703   1.416
   78SOL    HW2 1134   5.597   1.747   1.504
   79SOL     OW 1135   1.493   4.114   4.101
   79SOL    HW1 1136   1.502   4.014   4.097
   79SOL    HW2 1137   1.402   4.138   4.135
   80SOL     OW 1138   3.553   2.187   5.176
   80SOL    HW1 1139   3.476   2.169   5.114
   80SOL    HW2 1140   3.637   2.150   5.137
   81SOL     OW 1141   3.621   5.353   2.315
   81SOL    HW1 1142   3.542   5.362   2.254
   81SOL    HW2 1143   3.695   5.304   2.267
   82SOL     OW 1144   3.119   0.403   2.313
   82SOL    HW1 1145   3.055   0.370   2.382
   82SOL    HW2 1146   3.209   0.416   2.354
   83SOL     OW 1147   5.576   0.963   4.639
   83SOL    HW1 1148   5.498   0.937   4.582
   83SOL    HW2 1149   5.644   0.891   4.639
   84SOL     OW 1150   5.760   2.974   3.283
   84SOL    HW1 1151   5.839   2.913   3.294
   84SOL    HW2 1152   5.777   3.038   3.208
   85SOL     OW 1153   2.201   5.942   3.177
   85SOL    HW1 1154   2.222   5.897   3.090
   85SOL    HW2 1155   2.258   5.903   3.249
   86SOL     OW 1156   4.734   0.604   0.837
   86SOL    HW1 1157   4.816   0.583   0.891
   86SOL    HW2 1158   4.760   0.618   0.741
   87SOL     OW 1159   3.023   2.832   6.575
   87SOL    HW1 1160   3.032   2.768   6.499
   87SOL    HW2 1161   2.947   2.895   6.558
   88SOL     OW 1162   2.105   2.850   1.560
   88SOL    HW1 1163   2.168   2.791   1.509
   88SOL    HW2 1164   2.015   2.848   1.517
   89SOL     OW 1165   3.408   3.701   5.511
   89SOL    HW1 1166   3.361   3.671   5.594
   89SOL    HW2 1167   3.490   3.645   5.498
   90SOL     OW 1168   6.592   4.120   2.064
   90SOL    HW1 1169   6.579   4.142   2.161
   90SOL    HW2 1170   6.674   4.063   2.054
   91SOL     OW 1171   4.224   6.203   0.590
   91SOL    HW1 1172   4.151   6.250   0.540
   91SOL    HW2 1173   4.195   6.189   0.685
   92SOL     OW 1174   5.936   5.116   6.909
   92SOL    HW1 1175   5.842   5.114   6.873
   92SOL    HW2 1176   5.975   5.024   6.904
   93SOL     OW 1177   2.967   3.768   1.554
   93SOL    HW1 1178   3.011   3.740   1.468
   93SOL    HW2 1179   3.022   3.736   1.631
   94SOL     OW 1180   2.980   1.733   4.298
   94SOL    HW1 1181   3.021   1.688   4.218
   94SOL    HW2 1182   2.924   1.667   4.348
   95SOL     OW 1183   0.596   0.327   3.823
   95SOL    HW1 1184   0.577   0.238   3.782
   95SOL    HW2 1185   0.691   0.353   3.803
   96SOL     OW 1186   0.142   5.405   6.661
   96SOL    HW1 1187   0.221   5.442   6.710
   96SOL    HW2 1188   0.058   5.435   6.705
   97SOL     OW 1189   3.373   4.482   5.348
   97SOL    HW1 1190   3.286   4.454   5.309
   97SOL    HW2 1191   3.358   4.520   5.440
   98SOL     OW 1192   0.539   2.491   4.770
   98SOL    HW1 1193   0.544   2.576   4.718
   98SOL    HW2 1194   0.586   2.418   4.720
   99SOL     OW 1195   4.114   4.572   5.383
   99SOL    HW1 1196   4.037   4.621   5.343
   99SOL    HW2 1197   4.084   4.525   5.466
  100SOL     OW 1198   1.451   0.929   5.291
  100SOL    HW1 1199   1.367   0.938   5.345
  100SOL    HW2 1200   1.429   0.890   5.202
  101SOL     OW 1201   5.283   3.433   2.750
  101SOL    HW1 1202   5.209   3.441   2.817
  101SOL    HW2 1203   5.286   3.516   2.695
  102SOL     OW 1204   3.756   0.198   6.783
  102SOL    HW1 1205   3.744   0.270   6.851
  102SOL    HW2 1206   3.809   0.233   6.706
  103SOL     OW 1207   1.065   1.469   1.776
  103SOL    HW1 1208   1.145   1.419   1.744
  103SOL    HW2 1209   1.094   1.550   1.826
  104SOL     OW 1210   6.380   4.435   1.941
  104SOL    HW1 1211   6.476   4.457   1.923
  104SOL    HW2 1212   6.367   4.336   1.937
  105SOL     OW 1213   0.084   0.402   4.942
  105SOL    HW1 1214   0.157   0.469   4.936
  105SOL    HW2 1215   0.121   0.316   4.979
  106SOL     OW 1216   4.308   2.705   1.628
  106SOL    HW1 1217   4.324   2.802   1.646
  106SOL    HW2 1218   4.378   2.670   1.565
  107SOL     OW 1219   4.620   0.109   1.432
  107SOL    HW1 1220   4.718   0.128   1.429
  107SOL    HW2 1221   4.573   0.182   1.482
  108SOL     OW 1222   3.590   1.878   4.741
  108SOL    HW1 1223   3.497   1.847   4.761
  108SOL    HW2 1224   3.619   1.845   4.651
  109SOL     OW 1225   1.930   1.144   5.447
  109SOL    HW1 1226   1.896   1.112   5.536
  109SOL    HW2 1227   2.015   1.096   5.425
  110SOL     OW 1228   4.014   4.415   5.607
  110SOL    HW1 1229   4.102   4.438   5.649
  110SOL    HW2 1230   4.015   4.320   5.577
  111SOL     OW 1231   5.974   3.639   1.706
  111SOL    HW1 1232   6.028   3.563   1.741
  111SOL    HW2 1233   5.878   3.610   1.698
  112SOL     OW 1234   4.609   6.922   5.009
  112SOL    HW1 1235   4.698   6.892   5.042
  112SOL    HW2 1236   4.585   6.870   4.927
  113SOL     OW 1237   0.521   4.966   2.731
  113SOL    HW1 1238   0.586   4.959   2.807
  113SOL    HW2 1239   0.565   5.011   2.653
  114SOL     OW 1240   0.085   1.876   1.855
  114SOL    HW1 1241   0.094   1.778   1.839
  114SOL    HW2 1242   0.144   1.926   1.792
  115SOL     OW 1243   4.104   0.773   2.551
  115SOL    HW1 1244   4.044   0.853   2.543
  115SOL    HW2 1245   4.198   0.803   2.567
  116SOL     OW 1246   6.831   5.550   1.372
  116SOL    HW1 1247   6.832   5.452   1.392
  116SOL    HW2 1248   6.737   5.579   1.354
  117SOL     OW 1249   2.797   1.877   0.445
  117SOL    HW1 1250   2.792   1.960   0.390
  117SOL    HW2 1251   2.808   1.798   0.385
  118SOL     OW 1252   0.240   2.440   2.140
  118SOL    HW1 1253   0.200   2.360   2.184
  118SOL    HW2 1254   0.204   2.450   2.047
  119SOL     OW 1255   6.324   6.389   4.724
  119SOL    HW1 1256   6.367   6.340   4.800
  119SOL    HW2 1257   6.359   6.482   4.720
  120SOL     OW 1258   4.339   1.713   4.499
  120SOL    HW1 1259   4.321   1.800   4.453
  120SOL    HW2 1260   4.281   1.642   4.459
  121SOL     OW 1261   0.254   5.839   6.287
  121SOL    HW1 1262   0.293   5.765   6.232
  121SOL    HW2 1263   0.195   5.896   6.229
  122SOL     OW 1264   6.514   4.946   6.089
  122SOL    HW1 1265   6.478   5.007   6.018
  122SOL    HW2 1266   6.468   4.857   6.082
  123SOL     OW 1267   0.595   2.762   1.216
  123SOL    HW1 1268   0.591   2.855   1.252
  123SOL    HW2 1269   0.689   2.739   1.192
  124SOL     OW 1270   1.575   3.439   0.346
  124SOL    HW1 1271   1.571   3.485   0.258
  124SOL    HW2 1272   1.618   3.500   0.413
  125SOL     OW 1273   4.232   2.383   0.475
  125SOL    HW1 1274   4.241   2.329   0.559
  125SOL    HW2 1275   4.255   2.326   0.396
  126SOL     OW 1276   3.286   3.168   4.850
  126SOL    HW1 1277   3.313   3.134   4.940
  126SOL    HW2 1278   3.366   3.207   4.804
  127SOL     OW 1279   0.156   4.944   6.010
  127SOL    HW1 1280   0.249   4.946   6.047
  127SOL    HW2 1281   0.157   4.968   5.913
  128SOL     OW 1282   4.340   3.776   6.070
  128SOL    HW1 1283   4.322   3.824   6.156
  128SOL    HW2 1284   4.408   3.826   6.017
  129SOL     OW 1285   0.534   5.077   1.615
  129SOL    HW1 1286   0.489   4.988   1.608
  129SOL    HW2 1287   0.490   5.141   1.552
  130SOL     OW 1288   6.217   3.452   4.764
  130SOL    HW1 1289   6.227   3.366   4.814
  130SOL    HW2 1290   6.144   3.444   4.696
  131SOL     OW 1291   0.754   3.370   3.443
  131SOL    HW1 1292   0.678   3.420   3.483
  131SOL    HW2 1293   0.841   3.408   3.476
  132SOL     OW 1294   4.360   2.760   1.241
  132SOL    HW1 1295   4.390   2.694   1.172
  132SOL    HW2 1296   4.377   2.724   1.332
  133SOL     OW 1297   4.398   4.800   6.110
  133SOL    HW1 1298   4.356   4.872   6.165
  133SOL    HW2 1299   4.456   4.842   6.040
  134SOL     OW 1300   6.151   1.481   0.896
  134SOL    HW1 1301   6.135   1.424   0.816
  134SOL    HW2 1302   6.104   1.568   0.885
  135SOL     OW 1303   4.380   4.702   3.765
  135SOL    HW1 1304   4.450   4.738   3.703
  135SOL    HW2 1305   4.306   4.769   3.775
  136SOL     OW 1306   4.028   6.862   6.174
  136SOL    HW1 1307   4.097   6.833   6.240
  136SOL    HW2 1308   4.034   6.805   6.091
  137SOL     OW 1309   2.300   4.184   6.748
  137SOL    HW1 1310   2.223   4.122   6.761
  137SOL    HW2 1311   2.283   4.242   6.668
  138SOL     OW 1312   1.271   5.302   6.674
  138SOL    HW1 1313   1.253   5.234   6.746
  138SOL    HW2 1314   1.275   5.393   6.715
  139SOL     OW 1315   0.135   0.168   1.269
  139SOL    HW1 1316   0.077   0.249   1.262
  139SOL    HW2 1317   0.148   0.144   1.365
  140SOL     OW 1318   3.751   0.474   1.644
  140SOL    HW1 1319   3.669   0.496   1.698
  140SOL    HW2 1320   3.725   0.415   1.568
  141SOL     OW 1321   0.390   1.690   6.979
  141SOL    HW1 1322   0.414   1.731   0.042
  141SOL    HW2 1323   0.320   1.745   6.935
  142SOL     OW 1324   2.028   3.899   0.558
  142SOL    HW1 1325   2.026   3.960   0.638
  142SOL    HW2 1326   1.993   3.947   0.478
  143SOL     OW 1327   5.020   5.587   1.672
  143SOL    HW1 1328   5.041   5.492   1.692
  143SOL    HW2 1329   5.061   5.646   1.741
  144SOL     OW 1330   3.592   5.358   2.709
  144SOL    HW1 1331   3.508   5.304   2.699
  144SOL    HW2 1332   3.671   5.296   2.714
  145SOL     OW 1333   0.265   5.445   3.405
  145SOL    HW1 1334   0.225   5.495   3.482
  145SOL    HW2 1335   0.361   5.423   3.425
  146SOL     OW 1336   6.637   0.794   5.835
  146SOL    HW1 1337   6.717   0.736   5.820
  146SOL    HW2 1338   6.658   0.861   5.906
  147SOL     OW 1339   6.069   1.058   5.259
  147SOL    HW1 1340   5.988   1.102   5.298
  147SOL    HW2 1341   6.125   1.127   5.212
  148SOL     OW 1342   1.953   6.342   1.571
  148SOL    HW1 1343   1.891   6.384   1.504
  148SOL    HW2 1344   1.939   6.385   1.660
  149SOL     OW 1345   1.241   3.514   4.724
  149SOL    HW1 1346   1.236   3.459   4.807
  149SOL    HW2 1347   1.313   3.479   4.664
  150SOL     OW 1348   4.586   2.175   5.430
  150SOL    HW1 1349   4.577   2.078   5.405
  150SOL    HW2 1350   4.619   2.183   5.524
  151SOL     OW 1351   6.425   2.804   1.450
  151SOL    HW1 1352   6.511   2.828   1.406
  151SOL    HW2 1353   6.412   2.705   1.447
  152SOL     OW 1354   0.051   2.729   1.105
  152SOL    HW1 1355   0.006   2.817   1.099
  152SOL    HW2 1356   7.020   2.659   1.060
  153SOL     OW 1357   1.826   1.806   3.269
  153SOL    HW1 1358   1.734   1.837   3.242
  153SOL    HW2 1359   1.831   1.707   3.260
  154SOL     OW 1360   0.085   1.423   3.517
  154SOL    HW1 1361   0.059   1.406   3.612
  154SOL    HW2 1362   0.173   1.470   3.514
  155SOL     OW 1363   5.529   4.799   3.916
  155SOL    HW1 1364   5.589   4.720   3.904
  155SOL    HW2 1365   5.534   4.857   3.835
  156SOL     OW 1366   4.845   1.102   1.229
  156SOL    HW1 1367   4.855   1.163   1.307
  156SOL    HW2 1368   4.749   1.071   1.222
  157SOL     OW 1369   4.941   0.483   1.264
  157SOL    HW1 1370   4.920   0.574   1.228
  157SOL    HW2 1371   4.889   0.414   1.213
  158SOL     OW 1372   0.797   3.128   4.357
  158SOL    HW1 1373   0.715   3.158   4.308
  158SOL    HW2 1374   0.876   3.132   4.295
  159SOL     OW 1375   6.278   5.313   0.187
  159SOL    HW1 1376   6.297   5.411   0.185
  159SOL    HW2 1377   6.246   5.287   0.278
  160SOL     OW 1378   4.181   1.045   1.033
  160SOL    HW1 1379   4.187   0.946   1.019
  160SOL    HW2 1380   4.226   1.093   0.958
  161SOL     OW 1381   6.757   6.700   0.466
  161SOL    HW1 1382   6.731   6.604   0.450
  161SOL    HW2 1383   6.693   6.760   0.419
  162SOL     OW 1384   4.156   0.257   5.731
  162SOL    HW1 1385   4.146   0.162   5.702
  162SOL    HW2 1386   4.196   0.261   5.822
  163SOL     OW 1387   0.731   3.773   2.888
  163SOL    HW1 1388   0.686   3.699   2.939
  163SOL    HW2 1389   0.786   3.829   2.951
  164SOL     OW 1390   2.041   2.054   2.501
  164SOL    HW1 1391   2.092   2.082   2.419
  164SOL    HW2 1392   2.027   2.133   2.560
  165SOL     OW 1393   0.165   6.845   3.732
  165SOL    HW1 1394   0.199   6.773   3.671
  165SOL    HW2 1395   0.242   6.897   3.768
  166SOL     OW 1396   0.288   4.602   3.885
  166SOL    HW1 1397   0.295   4.679   3.948
  166SOL    HW2 1398   0.248   4.524   3.933
  167SOL     OW 1399   1.452   1.386   3.894
  167SOL    HW1 1400   1.543   1.408   3.927
  167SOL    HW2 1401   1.430   1.442   3.815
  168SOL     OW 1402   3.635   3.902   2.784
  168SOL    HW1 1403   3.571   3.946   2.721
  168SOL    HW2 1404   3.688   3.972   2.832
  169SOL     OW 1405   5.125   2.330   0.155
  169SOL    HW1 1406   5.089   2.302   0.067
  169SOL    HW2 1407   5.223   2.309   0.160
  170SOL     OW 1408   0.066   5.541   1.313
  170SOL    HW1 1409   7.002   5.559   1.355
  170SOL    HW2 1410   0.130   5.509   1.383
  171SOL     OW 1411   3.114   2.805   1.157
  171SOL    HW1 1412   3.063   2.832   1.075
  171SOL    HW2 1413   3.052   2.806   1.236
  172SOL     OW 1414   0.889   0.921   6.976
  172SOL    HW1 1415   0.893   0.940   0.049
  172SOL    HW2 1416   0.810   0.967   6.936
  173SOL     OW 1417   5.876   1.202   4.719
  173SOL    HW1 1418   5.880   1.260   4.637
  173SOL    HW2 1419   5.781   1.179   4.739
  174SOL     OW 1420   5.735   4.128   4.980
  174SOL    HW1 1421   5.716   4.214   4.932
  174SOL    HW2 1422   5.708   4.051   4.923
  175SOL     OW 1423   0.597   6.695   2.859
  175SOL    HW1 1424   0.694   6.694   2.836
  175SOL    HW2 1425   0.571   6.606   2.897
  176SOL     OW 1426   6.576   4.087   0.943
  176SOL    HW1 1427   6.592   4.096   0.845
  176SOL    HW2 1428   6.494   4.138   0.968
  177SOL     OW 1429   6.453   2.064   3.947
  177SOL    HW1 1430   6.440   2.070   4.046
  177SOL    HW2 1431   6.363   2.057   3.902
  178SOL     OW 1432   2.530   5.582   4.702
  178SOL    HW1 1433   2.439   5.625   4.697
  178SOL    HW2 1434   2.521   5.484   4.684
  179SOL     OW 1435   3.532   4.130   1.793
  179SOL    HW1 1436   3.556   4.205   1.731
  179SOL    HW2 1437   3.562   4.153   1.885
  180SOL     OW 1438   4.666   1.657   6.415
  180SOL    HW1 1439   4.600   1.602   6.363
  180SOL    HW2 1440   4.703   1.603   6.491
  181SOL     OW 1441   3.437   1.055   5.989
  181SOL    HW1 1442   3.428   0.985   5.917
  181SOL    HW2 1443   3.346   1.089   6.013
  182SOL     OW 1444   2.712   2.998   5.656
  182SOL    HW1 1445   2.761   2.920   5.617
  182SOL    HW2 1446   2.639   3.026   5.593
  183SOL     OW 1447   3.032   0.912   3.198
  183SOL    HW1 1448   3.093   0.958   3.263
  183SOL    HW2 1449   2.997   0.978   3.133
  184SOL     OW 1450   4.994   5.617   3.303
  184SOL    HW1 1451   4.939   5.679   3.359
  184SOL    HW2 1452   4.934   5.557   3.251
  185SOL     OW 1453   0.582   6.720   4.848
  185SOL    HW1 1454   0.543   6.661   4.777
  185SOL    HW2 1455   0.559   6.682   4.938
  186SOL     OW 1456   3.078   6.019   5.424
  186SOL    HW1 1457   2.982   6.009   5.451
  186SOL    HW2 1458   3.115   5.929   5.399
  187SOL     OW 1459   4.124   6.047   0.960
  187SOL    HW1 1460   4.080   6.095   0.884
  187SOL    HW2 1461   4.217   6.022   0.935
  188SOL     OW 1462   1.436   3.548   3.385
  188SOL    HW1 1463   1.377   3.551   3.303
  188SOL    HW2 1464   1.429   3.635   3.434
  189SOL     OW 1465   5.772   4.757   5.823
  189SOL    HW1 1466   5.765   4.855   5.840
  189SOL    HW2 1467   5.850   4.719   5.874
  190SOL     OW 1468   6.418   6.418   0.666
  190SOL    HW1 1469   6.469   6.483   0.722
  190SOL    HW2 1470   6.352   6.467   0.610
  191SOL     OW 1471   1.828   2.611   5.171
  191SOL    HW1 1472   1.743   2.561   5.191
  191SOL    HW2 1473   1.906   2.548   5.178
  192SOL     OW 1474   0.160   6.237   1.468
  192SOL    HW1 1475   0.219   6.304   1.513
  192SOL    HW2 1476   0.179   6.237   1.370
  193SOL     OW 1477   2.499   0.420   2.032
  193SOL    HW1 1478   2.570   0.364   2.075
  193SOL    HW2 1479   2.528   0.515   2.030
  194SOL     OW 1480   4.092   6.332   2.759
  194SOL    HW1 1481   4.062   6.419   2.721
  194SOL    HW2 1482   4.012   6.276   2.783
  195SOL     OW 1483   2.842   0.604   1.028
  195SOL    HW1 1484   2.892   0.688   1.006
  195SOL    HW2 1485   2.887   0.526   0.984
  196SOL     OW 1486   4.083   2.550   0.840
  196SOL    HW1 1487   4.142   2.471   0.824
  196SOL    HW2 1488   4.033   2.572   0.757
  197SOL     OW 1489   2.070   6.107   0.379
  197SOL    HW1 1490   2.026   6.041   0.440
  197SOL    HW2 1491   2.134   6.163   0.431
  198SOL     OW 1492   4.379   6.822   6.580
  198SOL    HW1 1493   4.470   6.865   6.580
  198SOL    HW2 1494   4.387   6.728   6.611
  199SOL     OW 1495   1.667   0.841   2.389
  199SOL    HW1 1496   1.656   0.940   2.401
  199SOL    HW2 1497   1.608   0.793   2.454
  200SOL     OW 1498   0.984   3.546   4.186
  200SOL    HW1 1499   0.992   3.645   4.196
  200SOL    HW2 1500   0.993   3.502   4.276
  201SOL     OW 1501   4.173   1.593   6.471
  201SOL    HW1 1502   4.100   1.525   6.472
  201SOL    HW2 1503   4.194   1.618   6.376
  202SOL     OW 1504   3.666   0.760   2.914
  202SOL    HW1 1505   3.678   0.811   3.000
  202SOL    HW2 1506   3.724   0.678   2.916
  203SOL     OW 1507   6.015   2.317   0.439
  203SOL    HW1 1508   5.933   2.260   0.431
  203SOL    HW2 1509   6.050   2.337   0.348
  204SOL     OW 1510   2.180   6.519   1.036
  204SOL    HW1 1511   2.223   6.510   1.126
  204SOL    HW2 1512   2.208   6.606   0.995
  205SOL     OW 1513   5.851   0.539   1.411
  205SOL    HW1 1514   5.843   0.590   1.326
  205SOL    HW2 1515   5.769   0.484   1.425
  206SOL     OW 1516   6.654   6.140   1.415
  206SOL    HW1 1517   6.612   6.231   1.409
  206SOL    HW2 1518   6.627   6.086   1.335
  207SOL     OW 1519   5.998   2.054   5.977
  207SOL    HW1 1520   5.907   2.014   5.993
  207SOL    HW2 1521   5.990   2.130   5.913
  208SOL     OW 1522   4.385   4.442   6.831
  208SOL    HW1 1523   4.423   4.430   6.739
  208SOL    HW2 1524   4.306   4.504   6.826
  209SOL     OW 1525   0.128   5.737   3.748
  209SOL    HW1 1526   0.196   5.765   3.680
  209SOL    HW2 1527   0.146   5.783   3.835
  210SOL     OW 1528   4.021   2.161   0.694
  210SOL    HW1 1529   4.056   2.067   0.705
  210SOL    HW2 1530   4.042   2.214   0.776
  211SOL     OW 1531   1.087   3.105   1.623
  211SOL    HW1 1532   1.170   3.154   1.594
  211SOL    HW2 1533   1.078   3.110   1.722
  212SOL     OW 1534   0.325   5.417   4.439
  212SOL    HW1 1535   0.410   5.392   4.392
  212SOL    HW2 1536   0.303   5.512   4.419
  213SOL     OW 1537   3.655   2.659   7.007
  213SOL    HW1 1538   3.686   2.751   6.983
  213SOL    HW2 1539   3.640   2.654   0.081
  214SOL     OW 1540   1.664   6.663   3.349
  214SOL    HW1 1541   1.703   6.755   3.341
  214SOL    HW2 1542   1.734   6.599   3.382
  215SOL     OW 1543   3.799   4.045   2.520
  215SOL    HW1 1544   3.858   4.024   2.598
  215SOL    HW2 1545   3.718   4.093   2.551
  216SOL     OW 1546   2.828   0.114   5.809
  216SOL    HW1 1547   2.863   0.025   5.839
  216SOL    HW2 1548   2.729   0.117   5.823
  217SOL     OW 1549   6.745   2.405   5.008
  217SOL    HW1 1550   6.692   2.329   5.047
  217SOL    HW2 1551   6.683   2.479   4.984
  218SOL     OW 1552   2.441   3.945   5.656
  218SOL    HW1 1553   2.367   3.878   5.669
  218SOL    HW2 1554   2.416   4.030   5.702
  219SOL     OW 1555   3.609   5.196   0.014
  219SOL    HW1 1556   3.577   5.175   6.947
  219SOL    HW2 1557   3.602   5.295   0.029
  220SOL     OW 1558   1.628   4.109   0.737
  220SOL    HW1 1559   1.625   4.141   0.832
  220SOL    HW2 1560   1.537   4.117   0.696
  221SOL     OW 1561   6.011   2.896   4.234
  221SOL    HW1 1562   6.022   2.874   4.137
  221SOL    HW2 1563   5.914   2.895   4.258
  222SOL     OW 1564   1.605   6.157   4.615
  222SOL    HW1 1565   1.629   6.096   4.539
  222SOL    HW2 1566   1.687   6.205   4.647
  223SOL     OW 1567   6.009   5.042   2.374
  223SOL    HW1 1568   5.978   5.070   2.283
  223SOL    HW2 1569   6.089   4.983   2.364
  224SOL     OW 1570   4.305   2.178   2.181
  224SOL    HW1 1571   4.219   2.216   2.216
  224SOL    HW2 1572   4.368   2.253   2.160
  225SOL     OW 1573   4.967   6.807   1.276
  225SOL    HW1 1574   4.924   6.748   1.345
  225SOL    HW2 1575   5.000   6.751   1.200
  226SOL     OW 1576   0.093   5.618   2.431
  226SOL    HW1 1577   0.118   5.715   2.427
  226SOL    HW2 1578   0.176   5.563   2.439
  227SOL     OW 1579   1.280   3.574   3.187
  227SOL    HW1 1580   1.282   3.503   3.117
  227SOL    HW2 1581   1.323   3.657   3.152
  228SOL     OW 1582   4.073   6.639   2.386
  228SOL    HW1 1583   4.135   6.564   2.364
  228SOL    HW2 1584   3.983   6.620   2.347
  229SOL     OW 1585   6.260   5.253   2.917
  229SOL    HW1 1586   6.328   5.180   2.918
  229SOL    HW2 1587   6.168   5.214   2.926
  230SOL     OW 1588   0.790   4.026   6.232
  230SOL    HW1 1589   0.715   3.963   6.210
  230SOL    HW2 1590   0.760   4.120   6.218
  231SOL     OW 1591   0.503   2.059   6.767
  231SOL    HW1 1592   0.503   2.063   6.867
  231SOL    HW2 1593   0.528   1.966   6.738
  232SOL     OW 1594   1.428   3.998   6.386
  232SOL    HW1 1595   1.462   4.009   6.293
  232SOL    HW2 1596   1.345   3.944   6.386
  233SOL     OW 1597   3.210   6.715   6.678
  233SOL    HW1 1598   3.288   6.728   6.740
  233SOL    HW2 1599   3.182   6.619   6.680
  234SOL     OW 1600   2.848   4.992   5.980
  234SOL    HW1 1601   2.812   5.077   6.018
  234SOL    HW2 1602   2.837   4.918   6.046
  235SOL     OW 1603   3.250   3.632   5.723
  235SOL    HW1 1604   3.173   3.687   5.755
  235SOL    HW2 1605   3.222   3.536   5.719
  236SOL     OW 1606   0.110   2.005   6.104
  236SOL    HW1 1607   0.172   2.073   6.066
  236SOL    HW2 1608   0.159   1.948   6.170
  237SOL     OW 1609   6.560   6.605   1.585
  237SOL    HW1 1610   6.534   6.509   1.584
  237SOL    HW2 1611   6.631   6.619   1.655
  238SOL     OW 1612   0.218   1.752   2.529
  238SOL    HW1 1613   0.232   1.811   2.450
  238SOL    HW2 1614   0.122   1.754   2.556
  239SOL     OW 1615   6.711   5.479   0.568
  239SOL    HW1 1616   6.651   5.538   0.623
  239SOL    HW2 1617   6.711   5.387   0.607
  240SOL     OW 1618   0.369   2.188   5.926
  240SOL    HW1 1619   0.465   2.178   5.952
  240SOL    HW2 1620   0.344   2.114   5.863
  241SOL     OW 1621   5.762   2.327   4.276
  241SOL    HW1 1622   5.833   2.350   4.343
  241SOL    HW2 1623   5.766   2.228   4.257
  242SOL     OW 1624   2.947   2.245   4.084
  242SOL    HW1 1625   2.918   2.332   4.045
  242SOL    HW2 1626   2.880   2.215   4.152
  243SOL     OW 1627   4.574   1.535   6.879
  243SOL    HW1 1628   4.643   1.595   6.839
  243SOL    HW2 1629   4.601   1.439   6.867
  244SOL     OW 1630   0.655   1.479   5.704
  244SOL    HW1 1631   0.669   1.572   5.670
  244SOL    HW2 1632   0.563   1.449   5.681
  245SOL     OW 1633   5.142   2.501   3.799
  245SOL    HW1 1634   5.088   2.519   3.881
  245SOL    HW2 1635   5.223   2.448   3.824
  246SOL     OW 1636   4.869   3.144   3.451
  246SOL    HW1 1637   4.843   3.181   3.540
  246SOL    HW2 1638   4.958   3.098   3.458
  247SOL     OW 1639   2.866   0.507   2.847
  247SOL    HW1 1640   2.910   0.545   2.929
  247SOL    HW2 1641   2.904   0.551   2.766
  248SOL     OW 1642   6.879   1.325   2.135
  248SOL    HW1 1643   6.843   1.388   2.204
  248SOL    HW2 1644   6.803   1.289   2.080
  249SOL     OW 1645   1.944   5.449   5.119
  249SOL    HW1 1646   1.951   5.535   5.169
  249SOL    HW2 1647   1.877   5.390   5.163
  250SOL     OW 1648   5.500   2.524   0.035
  250SOL    HW1 1649   5.469   2.618   0.017
  250SOL    HW2 1650   5.578   2.503   7.002
  251SOL     OW 1651   1.839   1.792   0.735
  251SOL    HW1 1652   1.743   1.818   0.744
  251SOL    HW2 1653   1.847   1.717   0.669
  252SOL     OW 1654   0.522   1.681   0.313
  252SOL    HW1 1655   0.588   1.629   0.259
  252SOL    HW2 1656   0.497   1.628   0.394
  253SOL     OW 1657   1.754   4.486   6.226
  253SOL    HW1 1658   1.666   4.528   6.207
  253SOL    HW2 1659   1.827   4.551   6.204
  254SOL     OW 1660   4.860   3.884   6.245
  254SOL    HW1 1661   4.890   3.800   6.200
  254SOL    HW2 1662   4.763   3.875   6.268
  255SOL     OW 1663   4.005   2.177   2.184
  255SOL    HW1 1664   4.030   2.213   2.095
  255SOL    HW2 1665   3.910   2.146   2.182
  256SOL     OW 1666   6.613   5.442   1.638
  256SOL    HW1 1667   6.692   5.436   1.576
  256SOL    HW2 1668   6.560   5.524   1.616
  257SOL     OW 1669   2.560   6.053   6.088
  257SOL    HW1 1670   2.484   6.118   6.083
  257SOL    HW2 1671   2.615   6.059   6.004
  258SOL     OW 1672   4.392   4.604   4.047
  258SOL    HW1 1673   4.321   4.627   4.114
  258SOL    HW2 1674   4.355   4.613   3.955
  259SOL     OW 1675   0.680   2.024   2.608
  259SOL    HW1 1676   0.600   2.061   2.561
  259SOL    HW2 1677   0.691   2.069   2.697
  260SOL     OW 1678   6.987   6.805   5.620
  260SOL    HW1 1679   7.018   6.788   5.527
  260SOL    HW2 1680   6.975   6.718   5.668
  261SOL     OW 1681   0.285   1.142   3.791
  261SOL    HW1 1682   0.305   1.203   3.714
  261SOL    HW2 1683   0.294   1.192   3.877
  262SOL     OW 1684   1.003   4.786   2.148
  262SOL    HW1 1685   1.033   4.766   2.241
  262SOL    HW2 1686   1.082   4.796   2.089
  263SOL     OW 1687   0.462   3.796   4.445
  263SOL    HW1 1688   0.561   3.790   4.432
  263SOL    HW2 1689   0.416   3.785   4.357
  264SOL     OW 1690   3.386   4.483   0.117
  264SOL    HW1 1691   3.333   4.567   0.127
  264SOL    HW2 1692   3.443   4.470   0.198
  265SOL     OW 1693   4.514   5.544   3.510
  265SOL    HW1 1694   4.460   5.599   3.445
  265SOL    HW2 1695   4.584   5.494   3.460
  266SOL     OW 1696   4.113   3.430   0.005
  266SOL    HW1 1697   4.088   3.374   6.951
  266SOL    HW2 1698   4.202   3.402   0.039
  267SOL     OW 1699   1.982   2.415   6.044
  267SOL    HW1 1700   2.007   2.495   5.989
  267SOL    HW2 1701   1.886   2.422   6.072
  268SOL     OW 1702   2.820   4.765   3.817
  268SOL    HW1 1703   2.874   4.819   3.752
  268SOL    HW2 1704   2.773   4.692   3.767
  269SOL     OW 1705   1.986   2.123   5.072
  269SOL    HW1 1706   1.960   2.076   5.157
  269SOL    HW2 1707   2.058   2.190   5.093
  270SOL     OW 1708   4.889   6.443   4.903
  270SOL    HW1 1709   4.802   6.394   4.910
  270SOL    HW2 1710   4.905   6.467   4.807
  271SOL     OW 1711   1.952   1.764   0.112
  271SOL    HW1 1712   1.994   1.749   0.201
  271SOL    HW2 1713   1.854   1.749   0.119
  272SOL     OW 1714   4.602   5.430   0.381
  272SOL    HW1 1715   4.655   5.383   0.452
  272SOL    HW2 1716   4.664   5.481   0.322
  273SOL     OW 1717   2.037   6.460   4.059
  273SOL    HW1 1718   2.121   6.406   4.071
  273SOL    HW2 1719   2.013   6.504   4.145
  274SOL     OW 1720   5.756   2.087   1.276
  274SOL    HW1 1721   5.741   2.182   1.248
  274SOL    HW2 1722   5.842   2.081   1.327
  275SOL     OW 1723   5.154   6.001   5.737
  275SOL    HW1 1724   5.096   5.941   5.682
  275SOL    HW2 1725   5.123   5.998   5.832
  276SOL     OW 1726   0.214   6.994   4.453
  276SOL    HW1 1727   0.301   0.018   4.448
  276SOL    HW2 1728   0.139   0.035   4.458
  277SOL     OW 1729   4.496   2.712   5.552
  277SOL    HW1 1730   4.454   2.729   5.642
  277SOL    HW2 1731   4.440   2.753   5.481
  278SOL     OW 1732   5.645   4.348   3.198
  278SOL    HW1 1733   5.547   4.330   3.198
  278SOL    HW2 1734   5.694   4.261   3.190
  279SOL     OW 1735   0.032   3.389   3.669
  279SOL    HW1 1736   6.960   3.405   3.648
  279SOL    HW2 1737   0.045   3.395   3.768
  280SOL     OW 1738   3.856   1.727   3.697
  280SOL    HW1 1739   3.768   1.681   3.712
  280SOL    HW2 1740   3.930   1.661   3.704
  281SOL     OW 1741   5.164   6.318   5.307
  281SOL    HW1 1742   5.070   6.284   5.313
  281SOL    HW2 1743   5.198   6.306   5.214
  282SOL     OW 1744   0.711   2.793   0.498
  282SOL    HW1 1745   0.623   2.835   0.474
  282SOL    HW2 1746   0.694   2.705   0.544
  283SOL     OW 1747   6.589   3.759   4.109
  283SOL    HW1 1748   6.670   3.816   4.124
  283SOL    HW2 1749   6.613   3.684   4.047
  284SOL     OW 1750   4.979   0.026   2.380
  284SOL    HW1 1751   4.998   0.124   2.371
  284SOL    HW2 1752   5.048   6.999   2.329
  285SOL     OW 1753   3.973   6.404   5.470
  285SOL    HW1 1754   3.946   6.331   5.408
  285SOL    HW2 1755   4.062   6.384   5.510
  286SOL     OW 1756   3.011   4.869   5.499
  286SOL    HW1 1757   3.110   4.877   5.485
  286SOL    HW2 1758   2.966   4.861   5.410
  287SOL     OW 1759   3.632   5.808   6.959
  287SOL    HW1 1760   3.694   5.863   7.015
  287SOL    HW2 1761   3.681   5.729   6.923
  288SOL     OW 1762   4.519   1.646   0.442
  288SOL    HW1 1763   4.451   1.577   0.419
  288SOL    HW2 1764   4.562   1.622   0.529
  289SOL     OW 1765   5.681   4.920   4.642
  289SOL    HW1 1766   5.677   4.830   4.599
  289SOL    HW2 1767   5.591   4.964   4.639
  290SOL     OW 1768   3.248   0.424   5.914
  290SOL    HW1 1769   3.232   0.458   5.822
  290SOL    HW2 1770   3.209   0.332   5.922
  291SOL     OW 1771   4.446   0.784   5.427
  291SOL    HW1 1772   4.392   0.867   5.418
  291SOL    HW2 1773   4.543   0.804   5.413
  292SOL     OW 1774   3.360   0.495   4.089
  292SOL    HW1 1775   3.312   0.409   4.075
  292SOL    HW2 1776   3.394   0.530   4.002
  293SOL     OW 1777   4.786   0.214   2.645
  293SOL    HW1 1778   4.697   0.259   2.640
  293SOL    HW2 1779   4.789   0.153   2.724
  294SOL     OW 1780   6.664   1.117   6.656
  294SOL    HW1 1781   6.743   1.058   6.672
  294SOL    HW2 1782   6.688   1.189   6.590
  295SOL     OW 1783   0.405   0.533   4.977
  295SOL    HW1 1784   0.421   0.590   4.896
  295SOL    HW2 1785   0.401   0.437   4.950
  296SOL     OW 1786   0.637   1.958   1.370
  296SOL    HW1 1787   0.595   1.919   1.288
  296SOL    HW2 1788   0.703   1.892   1.408
  297SOL     OW 1789   5.270   2.942   3.186
  297SOL    HW1 1790   5.244   2.874   3.118
  297SOL    HW2 1791   5.320   3.016   3.142
  298SOL     OW 1792   4.113   1.266   6.130
  298SOL    HW1 1793   4.150   1.338   6.188
  298SOL    HW2 1794   4.027   1.296   6.090
  299SOL     OW 1795   0.657   1.063   6.216
  299SOL    HW1 1796   0.606   1.133   6.267
  299SOL    HW2 1797   0.717   1.014   6.279
  300SOL     OW 1798   4.447   6.422   3.335
  300SOL    HW1 1799   4.433   6.387   3.243
  300SOL    HW2 1800   4.543   6.409   3.362
  301SOL     OW 1801   6.727   5.733   5.789
  301SOL    HW1 1802   6.727   5.782   5.876
  301SOL    HW2 1803   6.763   5.641   5.802
  302SOL     OW 1804   6.909   6.789   2.882
  302SOL    HW1 1805   6.947   6.848   2.953
  302SOL    HW2 1806   6.950   6.812   2.794
  303SOL     OW 1807   5.603   5.948   2.517
  303SOL    HW1 1808   5.567   5.863   2.479
  303SOL    HW2 1809   5.528   6.010   2.539
  304SOL     OW 1810   1.944   6.902   4.560
  304SOL    HW1 1811   1.899   6.985   4.595
  304SOL    HW2 1812   1.884   6.823   4.573
  305SOL     OW 1813   0.932   2.167   1.142
  305SOL    HW1 1814   0.966   2.075   1.126
  305SOL    HW2 1815   0.855   2.185   1.082
  306SOL     OW 1816   0.296   6.749   2.841
  306SOL    HW1 1817   0.276   6.819   2.910
  306SOL    HW2 1818   0.395   6.737   2.834
  307SOL     OW 1819   4.027   3.677   3.210
  307SOL    HW1 1820   3.934   3.712   3.223
  307SOL    HW2 1821   4.078   3.685   3.296
  308SOL     OW 1822   7.013   1.790   2.663
  308SOL    HW1 1823   6.982   1.878   2.629
  308SOL    HW2 1824   6.937   1.725   2.663
  309SOL     OW 1825   2.223   5.104   0.237
  309SOL    HW1 1826   2.322   5.100   0.245
  309SOL    HW2 1827   2.183   5.129   0.325
  310SOL     OW 1828   5.396   6.618   5.021
  310SOL    HW1 1829   5.307   6.574   5.012
  310SOL    HW2 1830   5.462   6.574   4.960
  311SOL     OW 1831   1.340   6.079   1.790
  311SOL    HW1 1832   1.384   5.998   1.830
  311SOL    HW2 1833   1.407   6.154   1.787
  312SOL     OW 1834   3.318   0.871   4.176
  312SOL    HW1 1835   3.396   0.840   4.123
  312SOL    HW2 1836   3.342   0.876   4.273
  313SOL     OW 1837   3.033   3.314   2.754
  313SOL    HW1 1838   3.120   3.269   2.771
  313SOL    HW2 1839   3.030   3.345   2.659
  314SOL     OW 1840   2.713   5.707   6.286
  314SOL    HW1 1841   2.679   5.771   6.354
  314SOL    HW2 1842   2.675   5.730   6.196
  315SOL     OW 1843   5.418   0.533   4.467
  315SOL    HW1 1844   5.385   0.440   4.486
  315SOL    HW2 1845   5.358   0.577   4.401
  316SOL     OW 1846   3.424   1.148   6.742
  316SOL    HW1 1847   3.481   1.075   6.704
  316SOL    HW2 1848   3.467   1.236   6.725
  317SOL     OW 1849   0.481   2.182   1.043
  317SOL    HW1 1850   0.470   2.275   1.078
  317SOL    HW2 1851   0.451   2.179   0.948
  318SOL     OW 1852   1.085   0.365   3.574
  318SOL    HW1 1853   1.067   0.463   3.566
  318SOL    HW2 1854   1.177   0.351   3.611
  319SOL     OW 1855   0.061   0.710   3.279
  319SOL    HW1 1856   0.091   0.623   3.318
  319SOL    HW2 1857   7.002   0.740   3.324
  320SOL     OW 1858   4.975   1.829   0.528
  320SOL    HW1 1859   4.941   1.862   0.616
  320SOL    HW2 1860   5.037   1.897   0.489
  321SOL     OW 1861   4.545   2.906   0.976
  321SOL    HW1 1862   4.607   2.846   0.927
  321SOL    HW2 1863   4.451   2.888   0.946
  322SOL     OW 1864   3.494   2.638   6.496
  322SOL    HW1 1865   3.425   2.710   6.490
  322SOL    HW2 1866   3.453   2.555   6.534
  323SOL     OW 1867   1.398   3.845   2.364
  323SOL    HW1 1868   1.464   3.815   2.433
  323SOL    HW2 1869   1.306   3.839   2.400
  324SOL     OW 1870   0.385   0.044   3.464
  324SOL    HW1 1871   0.451   6.995   3.476
  324SOL    HW2 1872   0.403   0.092   3.379
  325SOL     OW 1873   6.340   3.895   0.543
  325SOL    HW1 1874   6.245   3.885   0.574
  325SOL    HW2 1875   6.402   3.857   0.612
  326SOL     OW 1876   0.103   5.860   0.011
  326SOL    HW1 1877   0.195   5.862   0.051
  326SOL    HW2 1878   0.069   5.953   0.002
  327SOL     OW 1879   4.126   6.169   6.354
  327SOL    HW1 1880   4.184   6.138   6.279
  327SOL    HW2 1881   4.076   6.251   6.326
  328SOL     OW 1882   1.461   4.643   3.374
  328SOL    HW1 1883   1.453   4.544   3.379
  328SOL    HW2 1884   1.432   4.675   3.284
  329SOL     OW 1885   3.228   3.170   2.221
  329SOL    HW1 1886   3.317   3.198   2.184
  329SOL    HW2 1887   3.188   3.100   2.163
  330SOL     OW 1888   2.698   3.565   0.284
  330SOL    HW1 1889   2.685   3.466   0.291
  330SOL    HW2 1890   2.762   3.585   0.210
  331SOL     OW 1891   5.636   4.943   5.229
  331SOL    HW1 1892   5.670   5.022   5.177
  331SOL    HW2 1893   5.700   4.923   5.303
  332SOL     OW 1894   5.953   2.035   3.160
  332SOL    HW1 1895   6.045   2.041   3.123
  332SOL    HW2 1896   5.954   2.062   3.256
  333SOL     OW 1897   3.431   0.084   4.444
  333SOL    HW1 1898   3.429   0.028   4.526
  333SOL    HW2 1899   3.525   0.117   4.428
  334SOL     OW 1900   3.512   3.664   3.571
  334SOL    HW1 1901   3.521   3.584   3.630
  334SOL    HW2 1902   3.574   3.736   3.601
  335SOL     OW 1903   3.488   1.200   1.379
  335SOL    HW1 1904   3.408   1.185   1.437
  335SOL    HW2 1905   3.506   1.117   1.325
  336SOL     OW 1906   4.597   2.065   5.033
  336SOL    HW1 1907   4.622   1.979   5.077
  336SOL    HW2 1908   4.554   2.045   4.945
  337SOL     OW 1909   6.675   0.918   5.503
  337SOL    HW1 1910   6.731   0.867   5.438
  337SOL    HW2 1911   6.732   0.982   5.554
  338SOL     OW 1912   4.228   1.649   1.472
  338SOL    HW1 1913   4.151   1.619   1.415
  338SOL    HW2 1914   4.198   1.657   1.567
  339SOL     OW 1915   4.312   5.175   6.013
  339SOL    HW1 1916   4.267   5.249   6.062
  339SOL    HW2 1917   4.405   5.202   5.989
  340SOL     OW 1918   5.885   2.981   4.765
  340SOL    HW1 1919   5.902   2.910   4.833
  340SOL    HW2 1920   5.833   2.943   4.689
  341SOL     OW 1921   0.009   6.773   2.607
  341SOL    HW1 1922   0.043   6.727   2.525
  341SOL    HW2 1923   0.050   6.864   2.613
  342SOL     OW 1924   4.608   1.968   2.612
  342SOL    HW1 1925   4.546   2.027   2.561
  342SOL    HW2 1926   4.646   2.018   2.690
  343SOL     OW 1927   5.778   0.043   1.355
  343SOL    HW1 1928   5.863   0.042   1.408
  343SOL    HW2 1929   5.705   0.002   1.409
  344SOL     OW 1930   6.842   2.961   1.919
  344SOL    HW1 1931   6.927   2.910   1.906
  344SOL    HW2 1932   6.793   2.969   1.832
  345SOL     OW 1933   6.851   2.618   4.345
  345SOL    HW1 1934   6.895   2.564   4.416
  345SOL    HW2 1935   6.817   2.703   4.384
  346SOL     OW 1936   2.343   6.360   3.273
  346SOL    HW1 1937   2.387   6.362   3.182
  346SOL    HW2 1938   2.256   6.313   3.267
  347SOL     OW 1939   2.479   4.799   0.843
  347SOL    HW1 1940   2.405   4.813   0.908
  347SOL    HW2 1941   2.508   4.888   0.806
  348SOL     OW 1942   4.482   5.018   1.928
  348SOL    HW1 1943   4.482   5.086   2.000
  348SOL    HW2 1944   4.423   5.049   1.853
  349SOL     OW 1945   5.225   4.245   0.452
  349SOL    HW1 1946   5.239   4.265   0.355
  349SOL    HW2 1947   5.174   4.320   0.494
  350SOL     OW 1948   2.380   1.486   6.737
  350SOL    HW1 1949   2.311   1.525   6.676
  350SOL    HW2 1950   2.341   1.405   6.783
  351SOL     OW 1951   3.594   4.136   0.795
  351SOL    HW1 1952   3.629   4.220   0.753
  351SOL    HW2 1953   3.539   4.086   0.728
  352SOL     OW 1954   4.350   0.052   2.361
  352SOL    HW1 1955   4.384   0.004   2.443
  352SOL    HW2 1956   4.297   0.132   2.389
  353SOL     OW 1957   1.916   6.628   0.502
  353SOL    HW1 1958   2.000   6.627   0.448
  353SOL    HW2 1959   1.916   6.709   0.562
  354SOL     OW 1960   0.944   2.445   0.608
  354SOL    HW1 1961   0.908   2.526   0.654
  354SOL    HW2 1962   0.933   2.365   0.667
  355SOL     OW 1963   0.673   2.873   3.470
  355SOL    HW1 1964   0.704   2.966   3.488
  355SOL    HW2 1965   0.746   2.822   3.425
  356SOL     OW 1966   3.016   0.316   5.327
  356SOL    HW1 1967   2.965   0.270   5.399
  356SOL    HW2 1968   2.993   0.413   5.326
  357SOL     OW 1969   6.262   6.695   4.441
  357SOL    HW1 1970   6.224   6.643   4.518
  357SOL    HW2 1971   6.205   6.774   4.422
  358SOL     OW 1972   3.276   5.984   6.336
  358SOL    HW1 1973   3.219   6.014   6.260
  358SOL    HW2 1974   3.318   5.896   6.314
  359SOL     OW 1975   1.599   2.266   1.877
  359SOL    HW1 1976   1.694   2.241   1.858
  359SOL    HW2 1977   1.594   2.364   1.900
  360SOL     OW 1978   2.165   4.506   3.579
  360SOL    HW1 1979   2.183   4.409   3.592
  360SOL    HW2 1980   2.168   4.527   3.481
  361SOL     OW 1981   0.282   1.630   2.109
  361SOL    HW1 1982   0.186   1.622   2.136
  361SOL    HW2 1983   0.329   1.544   2.130
  362SOL     OW 1984   3.775   3.392   2.159
  362SOL    HW1 1985   3.737   3.422   2.246
  362SOL    HW2 1986   3.770   3.466   2.092
  363SOL     OW 1987   4.748   5.283   1.594
  363SOL    HW1 1988   4.838   5.321   1.619
  363SOL    HW2 1989   4.696   5.353   1.546
  364SOL     OW 1990   0.934   0.414   0.187
  364SOL    HW1 1991   0.836   0.392   0.187
  364SOL    HW2 1992   0.957   0.464   0.104
  365SOL     OW 1993   5.520   0.921   4.019
  365SOL    HW1 1994   5.595   0.856   4.008
  365SOL    HW2 1995   5.550   1.012   3.991
  366SOL     OW 1996   5.552   1.741   0.147
  366SOL    HW1 1997   5.506   1.654   0.132
  366SOL    HW2 1998   5.527   1.777   0.237
  367SOL     OW 1999   5.149   0.832   6.671
  367SOL    HW1 2000   5.061   0.877   6.689
  367SOL    HW2 2001   5.195   0.814   6.758
  368SOL     OW 2002   1.376   1.992   5.283
  368SOL    HW1 2003   1.332   1.984   5.193
  368SOL    HW2 2004   1.333   2.067   5.334
  369SOL     OW 2005   5.984   4.533   0.337
  369SOL    HW1 2006   6.059   4.518   0.272
  369SOL    HW2 2007   6.021   4.538   0.430
  370SOL     OW 2008   2.501   2.481   3.168
  370SOL    HW1 2009   2.565   2.448   3.099
  370SOL    HW2 2010   2.411   2.440   3.153
  371SOL     OW 2011   1.134   6.073   6.883
  371SOL    HW1 2012   1.119   6.139   6.809
  371SOL    HW2 2013   1.047   6.033   6.910
  372SOL     OW 2014   2.787   5.727   5.705
  372SOL    HW1 2015   2.875   5.719   5.752
  372SOL    HW2 2016   2.714   5.698   5.766
  373SOL     OW 2017   6.172   4.517   3.003
  373SOL    HW1 2018   6.228   4.434   3.000
  373SOL    HW2 2019   6.160   4.553   2.911
  374SOL     OW 2020   2.884   1.745   2.535
  374SOL    HW1 2021   2.818   1.771   2.606
  374SOL    HW2 2022   2.912   1.827   2.485
  375SOL     OW 2023   1.414   5.744   4.100
  375SOL    HW1 2024   1.425   5.841   4.080
  375SOL    HW2 2025   1.320   5.716   4.081
  376SOL     OW 2026   3.961   0.521   3.585
  376SOL    HW1 2027   4.060   0.522   3.595
  376SOL    HW2 2028   3.918   0.566   3.663
  377SOL     OW 2029   2.099   1.936   6.481
  377SOL    HW1 2030   2.125   1.862   6.543
  377SOL    HW2 2031   2.164   1.941   6.405
  378SOL     OW 2032   3.883   1.606   2.516
  378SOL    HW1 2033   3.928   1.638   2.432
  378SOL    HW2 2034   3.784   1.609   2.503
  379SOL     OW 2035   4.381   2.194   6.197
  379SOL    HW1 2036   4.336   2.116   6.240
  379SOL    HW2 2037   4.336   2.214   6.110
  380SOL     OW 2038   3.958   2.172   0.412
  380SOL    HW1 2039   3.971   2.179   0.511
  380SOL    HW2 2040   3.873   2.219   0.387
  381SOL     OW 2041   2.125   3.812   2.946
  381SOL    HW1 2042   2.034   3.849   2.932
  381SOL    HW2 2043   2.131   3.769   3.036
  382SOL     OW 2044   5.948   0.462   6.804
  382SOL    HW1 2045   5.968   0.506   6.716
  382SOL    HW2 2046   6.001   0.378   6.812
  383SOL     OW 2047   4.529   2.704   0.369
  383SOL    HW1 2048   4.496   2.659   0.452
  383SOL    HW2 2049   4.541   2.802   0.387
  384SOL     OW 2050   6.964   3.973   5.041
  384SOL    HW1 2051   0.038   3.973   5.053
  384SOL    HW2 2052   6.938   3.902   4.976
  385SOL     OW 2053   4.724   3.269   0.353
  385SOL    HW1 2054   4.758   3.248   0.445
  385SOL    HW2 2055   4.716   3.368   0.342
  386SOL     OW 2056   4.578   6.702   4.822
  386SOL    HW1 2057   4.552   6.612   4.858
  386SOL    HW2 2058   4.496   6.749   4.789
  387SOL     OW 2059   2.999   5.804   4.064
  387SOL    HW1 2060   2.913   5.755   4.079
  387SOL    HW2 2061   3.075   5.754   4.106
  388SOL     OW 2062   1.190   4.843   6.547
  388SOL    HW1 2063   1.180   4.745   6.532
  388SOL    HW2 2064   1.203   4.860   6.645
  389SOL     OW 2065   3.085   2.854   1.806
  389SOL    HW1 2066   3.000   2.819   1.769
  389SOL    HW2 2067   3.124   2.923   1.744
  390SOL     OW 2068   2.303   1.090   4.621
  390SOL    HW1 2069   2.221   1.033   4.617
  390SOL    HW2 2070   2.350   1.087   4.532
  391SOL     OW 2071   1.423   2.299   0.306
  391SOL    HW1 2072   1.445   2.380   0.359
  391SOL    HW2 2073   1.504   2.241   0.298
  392SOL     OW 2074   3.451   5.702   3.732
  392SOL    HW1 2075   3.420   5.643   3.658
  392SOL    HW2 2076   3.477   5.791   3.695
  393SOL     OW 2077   6.233   3.835   5.083
  393SOL    HW1 2078   6.137   3.843   5.056
  393SOL    HW2 2079   6.281   3.778   5.017
  394SOL     OW 2080   2.108   1.190   6.137
  394SOL    HW1 2081   2.175   1.115   6.132
  394SOL    HW2 2082   2.021   1.159   6.099
  395SOL     OW 2083   6.367   3.309   1.371
  395SOL    HW1 2084   6.396   3.254   1.292
  395SOL    HW2 2085   6.279   3.276   1.404
  396SOL     OW 2086   3.425   2.791   5.274
  396SOL    HW1 2087   3.473   2.865   5.322
  396SOL    HW2 2088   3.456   2.787   5.179
  397SOL     OW 2089   3.588   1.682   6.941
  397SOL    HW1 2090   3.548   1.595   6.972
  397SOL    HW2 2091   3.557   1.702   6.848
  398SOL     OW 2092   1.225   4.983   2.710
  398SOL    HW1 2093   1.185   5.036   2.634
  398SOL    HW2 2094   1.165   4.991   2.790
  399SOL     OW 2095   5.439   4.733   2.396
  399SOL    HW1 2096   5.482   4.645   2.417
  399SOL    HW2 2097   5.418   4.781   2.481
  400SOL     OW 2098   2.368   4.694   4.595
  400SOL    HW1 2099   2.396   4.777   4.644
  400SOL    HW2 2100   2.439   4.671   4.528
  401SOL     OW 2101   5.486   1.430   0.386
  401SOL    HW1 2102   5.514   1.337   0.411
  401SOL    HW2 2103   5.405   1.456   0.439
  402SOL     OW 2104   6.540   4.609   1.162
  402SOL    HW1 2105   6.579   4.701   1.167
  402SOL    HW2 2106   6.606   4.546   1.121
  403SOL     OW 2107   5.334   3.995   7.001
  403SOL    HW1 2108   5.391   4.072   6.973
  403SOL    HW2 2109   5.240   4.027   7.015
  404SOL     OW 2110   0.436   6.632   4.623
  404SOL    HW1 2111   0.505   6.688   4.577
  404SOL    HW2 2112   0.345   6.654   4.585
  405SOL     OW 2113   0.816   2.634   1.089
  405SOL    HW1 2114   0.895   2.574   1.074
  405SOL    HW2 2115   0.847   2.730   1.091
  406SOL     OW 2116   0.913   2.555   2.757
  406SOL    HW1 2117   0.858   2.596   2.830
  406SOL    HW2 2118   0.996   2.609   2.744
  407SOL     OW 2119   2.632   1.524   3.561
  407SOL    HW1 2120   2.646   1.493   3.468
  407SOL    HW2 2121   2.709   1.582   3.588
  408SOL     OW 2122   1.890   0.797   2.754
  408SOL    HW1 2123   1.890   0.760   2.661
  408SOL    HW2 2124   1.985   0.809   2.784
  409SOL     OW 2125   6.200   3.646   3.887
  409SOL    HW1 2126   6.225   3.743   3.893
  409SOL    HW2 2127   6.280   3.593   3.858
  410SOL     OW 2128   3.081   0.277   6.828
  410SOL    HW1 2129   3.098   0.242   6.920
  410SOL    HW2 2130   3.090   0.376   6.828
  411SOL     OW 2131   0.509   3.401   4.938
  411SOL    HW1 2132   0.437   3.388   4.870
  411SOL    HW2 2133   0.471   3.444   5.020
  412SOL     OW 2134   4.036   0.643   2.132
  412SOL    HW1 2135   4.025   0.645   2.032
  412SOL    HW2 2136   4.093   0.565   2.158
  413SOL     OW 2137   2.437   0.623   2.398
  413SOL    HW1 2138   2.386   0.664   2.474
  413SOL    HW2 2139   2.523   0.585   2.431
  414SOL     OW 2140   4.877   3.590   0.093
  414SOL    HW1 2141   4.968   3.618   0.060
  414SOL    HW2 2142   4.808   3.653   0.057
  415SOL     OW 2143   3.754   6.192   2.413
  415SOL    HW1 2144   3.829   6.156   2.358
  415SOL    HW2 2145   3.789   6.263   2.475
  416SOL     OW 2146   3.758   5.740   6.109
  416SOL    HW1 2147   3.839   5.798   6.116
  416SOL    HW2 2148   3.765   5.666   6.176
  417SOL     OW 2149   5.047   4.851   0.945
  417SOL    HW1 2150   5.117   4.781   0.963
  417SOL    HW2 2151   4.990   4.862   1.027
  418SOL     OW 2152   5.954   4.786   0.551
  418SOL    HW1 2153   5.931   4.883   0.560
  418SOL    HW2 2154   6.041   4.778   0.502
  419SOL     OW 2155   5.758   6.175   0.945
  419SOL    HW1 2156   5.763   6.199   1.042
  419SOL    HW2 2157   5.664   6.183   0.913
  420SOL     OW 2158   4.773   4.001   6.879
  420SOL    HW1 2159   4.854   4.043   6.922
  420SOL    HW2 2160   4.792   3.987   6.782
  421SOL     OW 2161   1.286   5.843   6.530
  421SOL    HW1 2162   1.222   5.835   6.453
  421SOL    HW2 2163   1.271   5.930   6.577
  422SOL     OW 2164   5.814   3.413   6.647
  422SOL    HW1 2165   5.748   3.398   6.573
  422SOL    HW2 2166   5.809   3.337   6.712
  423SOL     OW 2167   1.106   3.232   5.808
  423SOL    HW1 2168   1.050   3.201   5.885
  423SOL    HW2 2169   1.174   3.298   5.840
  424SOL     OW 2170   2.124   3.668   0.421
  424SOL    HW1 2171   2.214   3.635   0.447
  424SOL    HW2 2172   2.100   3.749   0.475
  425SOL     OW 2173   3.341   0.132   1.105
  425SOL    HW1 2174   3.321   0.034   1.098
  425SOL    HW2 2175   3.270   0.177   1.158
  426SOL     OW 2176   6.147   4.062   5.279
  426SOL    HW1 2177   6.172   4.127   5.208
  426SOL    HW2 2178   6.116   3.977   5.237
  427SOL     OW 2179   4.669   3.173   0.956
  427SOL    HW1 2180   4.635   3.079   0.967
  427SOL    HW2 2181   4.604   3.225   0.900
  428SOL     OW 2182   3.229   1.778   5.461
  428SOL    HW1 2183   3.234   1.686   5.423
  428SOL    HW2 2184   3.307   1.793   5.522
  429SOL     OW 2185   2.676   5.471   6.921
  429SOL    HW1 2186   2.759   5.499   6.872
  429SOL    HW2 2187   2.599   5.528   6.893
  430SOL     OW 2188   2.045   6.773   4.965
  430SOL    HW1 2189   2.048   6.674   4.967
  430SOL    HW2 2190   1.950   6.804   4.964
  431SOL     OW 2191   2.965   1.887   6.656
  431SOL    HW1 2192   2.979   1.790   6.641
  431SOL    HW2 2193   2.990   1.912   6.749
  432SOL     OW 2194   0.087   1.304   1.373
  432SOL    HW1 2195   0.026   1.384   1.378
  432SOL    HW2 2196   0.118   1.292   1.279
  433SOL     OW 2197   3.040   5.901   4.603
  433SOL    HW1 2198   3.063   5.804   4.598
  433SOL    HW2 2199   2.949   5.912   4.644
  434SOL     OW 2200   6.149   3.667   1.183
  434SOL    HW1 2201   6.094   3.608   1.124
  434SOL    HW2 2202   6.109   3.669   1.274
  435SOL     OW 2203   3.679   3.579   0.793
  435SOL    HW1 2204   3.664   3.538   0.883
  435SOL    HW2 2205   3.590   3.590   0.747
  436SOL     OW 2206   2.412   0.416   0.401
  436SOL    HW1 2207   2.454   0.380   0.484
  436SOL    HW2 2208   2.406   0.516   0.407
  437SOL     OW 2209   6.711   6.718   5.892
  437SOL    HW1 2210   6.763   6.650   5.840
  437SOL    HW2 2211   6.773   6.784   5.933
  438SOL     OW 2212   2.087   3.070   1.718
  438SOL    HW1 2213   2.067   3.015   1.637
  438SOL    HW2 2214   2.118   3.161   1.690
  439SOL     OW 2215   6.137   4.704   2.336
  439SOL    HW1 2216   6.124   4.738   2.243
  439SOL    HW2 2217   6.078   4.624   2.351
  440SOL     OW 2218   1.233   2.896   3.577
  440SOL    HW1 2219   1.304   2.909   3.508
  440SOL    HW2 2220   1.152   2.857   3.533
  441SOL     OW 2221   1.208   1.028   3.448
  441SOL    HW1 2222   1.121   1.036   3.398
  441SOL    HW2 2223   1.208   1.095   3.523
  442SOL     OW 2224   0.097   4.552   7.010
  442SOL    HW1 2225   0.080   4.542   0.083
  442SOL    HW2 2226   0.159   4.480   6.979
  443SOL     OW 2227   1.100   4.318   5.854
  443SOL    HW1 2228   1.077   4.252   5.926
  443SOL    HW2 2229   1.048   4.297   5.771
  444SOL     OW 2230   4.572   2.996   6.382
  444SOL    HW1 2231   4.564   3.020   6.286
  444SOL    HW2 2232   4.487   3.019   6.429
  445SOL     OW 2233   1.885   4.223   3.285
  445SOL    HW1 2234   1.858   4.141   3.335
  445SOL    HW2 2235   1.984   4.224   3.272
  446SOL     OW 2236   4.086   5.351   4.045
  446SOL    HW1 2237   4.131   5.412   3.980
  446SOL    HW2 2238   4.155   5.312   4.107
  447SOL     OW 2239   0.291   5.688   0.442
  447SOL    HW1 2240   0.235   5.707   0.362
  447SOL    HW2 2241   0.325   5.594   0.438
  448SOL     OW 2242   4.392   1.074   5.630
  448SOL    HW1 2243   4.481   1.037   5.654
  448SOL    HW2 2244   4.370   1.049   5.535
  449SOL     OW 2245   5.670   6.951   4.433
  449SOL    HW1 2246   5.637   6.876   4.376
  449SOL    HW2 2247   5.642   6.936   4.528
  450SOL     OW 2248   6.995   5.992   3.310
  450SOL    HW1 2249   6.962   6.054   3.240
  450SOL    HW2 2250   0.051   6.031   3.354
  451SOL     OW 2251   5.992   2.146   3.938
  451SOL    HW1 2252   6.012   2.197   4.022
  451SOL    HW2 2253   5.985   2.210   3.861
  452SOL     OW 2254   7.023   4.735   6.480
  452SOL    HW1 2255   0.039   4.645   6.472
  452SOL    HW2 2256   0.065   4.806   6.456
  453SOL     OW 2257   2.661   0.432   5.596
  453SOL    HW1 2258   2.568   0.437   5.632
  453SOL    HW2 2259   2.725   0.473   5.661
  454SOL     OW 2260   0.945   5.910   0.257
  454SOL    HW1 2261   1.044   5.897   0.245
  454SOL    HW2 2262   0.919   5.876   0.348
  455SOL     OW 2263   4.815   0.910   5.881
  455SOL    HW1 2264   4.767   0.909   5.794
  455SOL    HW2 2265   4.911   0.889   5.867
  456SOL     OW 2266   4.758   5.555   0.224
  456SOL    HW1 2267   4.837   5.603   0.262
  456SOL    HW2 2268   4.743   5.585   0.130
  457SOL     OW 2269   0.781   5.376   2.155
  457SOL    HW1 2270   0.768   5.278   2.167
  457SOL    HW2 2271   0.777   5.421   2.244
  458SOL     OW 2272   6.702   6.285   5.844
  458SOL    HW1 2273   6.766   6.335   5.901
  458SOL    HW2 2274   6.660   6.211   5.898
  459SOL     OW 2275   1.747   0.247   3.069
  459SOL    HW1 2276   1.836   0.204   3.053
  459SOL    HW2 2277   1.759   0.346   3.080
  460SOL     OW 2278   0.053   1.342   3.776
  460SOL    HW1 2279   6.984   1.310   3.781
  460SOL    HW2 2280   0.071   1.405   3.851
  461SOL     OW 2281   5.073   6.400   5.607
  461SOL    HW1 2282   5.156   6.434   5.563
  461SOL    HW2 2283   5.093   6.313   5.653
  462SOL     OW 2284   3.042   2.790   6.872
  462SOL    HW1 2285   3.068   2.794   6.775
  462SOL    HW2 2286   3.102   2.851   6.924
  463SOL     OW 2287   6.855   5.793   1.715
  463SOL    HW1 2288   6.937   5.803   1.658
  463SOL    HW2 2289   6.801   5.877   1.711
  464SOL     OW 2290   1.612   1.216   5.836
  464SOL    HW1 2291   1.566   1.270   5.907
  464SOL    HW2 2292   1.599   1.261   5.747
  465SOL     OW 2293   6.753   3.170   5.017
  465SOL    HW1 2294   6.687   3.148   5.089
  465SOL    HW2 2295   6.785   3.264   5.030
  466SOL     OW 2296   2.034   0.257   3.193
  466SOL    HW1 2297   2.042   0.354   3.170
  466SOL    HW2 2298   2.076   0.202   3.121
  467SOL     OW 2299   1.786   0.899   4.343
  467SOL    HW1 2300   1.764   0.848   4.260
  467SOL    HW2 2301   1.874   0.869   4.378
  468SOL     OW 2302   3.514   4.234   1.445
  468SOL    HW1 2303   3.422   4.226   1.483
  468SOL    HW2 2304   3.562   4.310   1.487
  469SOL     OW 2305   2.455   4.965   6.854
  469SOL    HW1 2306   2.356   4.967   6.869
  469SOL    HW2 2307   2.501   4.999   6.936
  470SOL     OW 2308   3.664   1.307   2.399
  470SOL    HW1 2309   3.650   1.406   2.388
  470SOL    HW2 2310   3.757   1.290   2.430
  471SOL     OW 2311   2.468   1.554   4.609
  471SOL    HW1 2312   2.384   1.499   4.599
  471SOL    HW2 2313   2.498   1.551   4.704
  472SOL     OW 2314   4.048   4.221   5.226
  472SOL    HW1 2315   4.097   4.170   5.297
  472SOL    HW2 2316   4.104   4.299   5.196
  473SOL     OW 2317   1.119   4.322   3.082
  473SOL    HW1 2318   1.142   4.348   2.988
  473SOL    HW2 2319   1.023   4.346   3.100
  474SOL     OW 2320   4.274   5.012   4.772
  474SOL    HW1 2321   4.289   4.927   4.822
  474SOL    HW2 2322   4.313   5.005   4.680
  475SOL     OW 2323   0.553   6.643   5.927
  475SOL    HW1 2324   0.474   6.692   5.966
  475SOL    HW2 2325   0.635   6.667   5.979
  476SOL     OW 2326   0.022   5.087   2.351
  476SOL    HW1 2327   7.001   5.129   2.272
  476SOL    HW2 2328   0.022   4.987   2.340
  477SOL     OW 2329   1.270   5.530   4.344
  477SOL    HW1 2330   1.292   5.498   4.252
  477SOL    HW2 2331   1.297   5.461   4.411
  478SOL     OW 2332   1.896   5.437   3.432
  478SOL    HW1 2333   1.930   5.531   3.431
  478SOL    HW2 2334   1.868   5.412   3.524
  479SOL     OW 2335   3.350   1.739   1.093
  479SOL    HW1 2336   3.349   1.837   1.075
  479SOL    HW2 2337   3.432   1.716   1.145
  480SOL     OW 2338   1.313   6.637   3.140
  480SOL    HW1 2339   1.280   6.710   3.080
  480SOL    HW2 2340   1.407   6.613   3.115
  481SOL     OW 2341   3.297   6.823   1.643
  481SOL    HW1 2342   3.212   6.773   1.630
  481SOL    HW2 2343   3.353   6.778   1.713
  482SOL     OW 2344   5.735   4.958   1.535
  482SOL    HW1 2345   5.760   4.990   1.444
  482SOL    HW2 2346   5.638   4.931   1.536
  483SOL     OW 2347   5.712   1.651   1.237
  483SOL    HW1 2348   5.616   1.626   1.247
  483SOL    HW2 2349   5.764   1.574   1.201
  484SOL     OW 2350   0.022   1.945   5.425
  484SOL    HW1 2351   0.038   2.012   5.353
  484SOL    HW2 2352   6.964   1.893   5.404
  485SOL     OW 2353   3.709   5.391   1.726
  485SOL    HW1 2354   3.681   5.311   1.780
  485SOL    HW2 2355   3.796   5.425   1.760
  486SOL     OW 2356   0.124   0.561   0.288
  486SOL    HW1 2357   0.162   0.545   0.197
  486SOL    HW2 2358   0.196   0.596   0.348
  487SOL     OW 2359   6.521   2.802   6.557
  487SOL    HW1 2360   6.475   2.714   6.541
  487SOL    HW2 2361   6.505   2.862   6.479
  488SOL     OW 2362   0.477   2.709   2.770
  488SOL    HW1 2363   0.541   2.635   2.788
  488SOL    HW2 2364   0.497   2.747   2.679
  489SOL     OW 2365   3.281   6.173   5.705
  489SOL    HW1 2366   3.222   6.093   5.694
  489SOL    HW2 2367   3.327   6.192   5.618
  490SOL     OW 2368   5.092   6.254   4.553
  490SOL    HW1 2369   5.185   6.270   4.587
  490SOL    HW2 2370   5.096   6.201   4.469
  491SOL     OW 2371   0.257   2.488   3.285
  491SOL    HW1 2372   0.196   2.504   3.363
  491SOL    HW2 2373   0.266   2.573   3.233
  492SOL     OW 2374   1.707   0.798   4.815
  492SOL    HW1 2375   1.768   0.859   4.763
  492SOL    HW2 2376   1.647   0.852   4.873
  493SOL     OW 2377   6.411   4.071   4.055
  493SOL    HW1 2378   6.345   4.006   4.092
  493SOL    HW2 2379   6.375   4.164   4.066
  494SOL     OW 2380   6.541   0.988   0.131
  494SOL    HW1 2381   6.587   0.924   0.070
  494SOL    HW2 2382   6.545   1.080   0.093
  495SOL     OW 2383   4.333   4.566   1.388
  495SOL    HW1 2384   4.338   4.611   1.478
  495SOL    HW2 2385   4.338   4.467   1.401
  496SOL     OW 2386   5.995   3.217   3.802
  496SOL    HW1 2387   6.083   3.248   3.841
  496SOL    HW2 2388   5.920   3.252   3.859
  497SOL     OW 2389   4.391   0.530   4.048
  497SOL    HW1 2390   4.377   0.582   4.132
  497SOL    HW2 2391   4.488   0.527   4.025
  498SOL     OW 2392   1.397   3.250   2.415
  498SOL    HW1 2393   1.456   3.187   2.466
  498SOL    HW2 2394   1.302   3.239   2.446
  499SOL     OW 2395   3.610   1.676   5.120
  499SOL    HW1 2396   3.702   1.657   5.151
  499SOL    HW2 2397   3.577   1.761   5.163
  500SOL     OW 2398   1.131   4.312   2.812
  500SOL    HW1 2399   1.046   4.278   2.772
  500SOL    HW2 2400   1.204   4.245   2.797
  501SOL     OW 2401   0.298   4.630   6.166
  501SOL    HW1 2402   0.209   4.619   6.122
  501SOL    HW2 2403   0.369   4.635   6.096
  502SOL     OW 2404   3.023   5.607   6.419
  502SOL    HW1 2405   2.941   5.572   6.465
  502SOL    HW2 2406   3.019   5.707   6.417
  503SOL     OW 2407   5.322   5.399   4.912
  503SOL    HW1 2408   5.324   5.448   4.825
  503SOL    HW2 2409   5.395   5.331   4.914
  504SOL     OW 2410   2.061   5.837   4.282
  504SOL    HW1 2411   2.008   5.904   4.334
  504SOL    HW2 2412   2.127   5.885   4.223
  505SOL     OW 2413   4.449   0.039   5.519
  505SOL    HW1 2414   4.503   6.984   5.547
  505SOL    HW2 2415   4.363   0.040   5.569
  506SOL     OW 2416   2.610   3.968   6.966
  506SOL    HW1 2417   2.698   3.922   6.983
  506SOL    HW2 2418   2.535   3.905   6.984
  507SOL     OW 2419   2.975   1.330   4.203
  507SOL    HW1 2420   3.063   1.284   4.208
  507SOL    HW2 2421   2.985   1.417   4.155
  508SOL     OW 2422   6.242   4.203   3.768
  508SOL    HW1 2423   6.256   4.125   3.829
  508SOL    HW2 2424   6.265   4.287   3.816
  509SOL     OW 2425   4.505   2.509   1.903
  509SOL    HW1 2426   4.549   2.582   1.850
  509SOL    HW2 2427   4.436   2.464   1.846
  510SOL     OW 2428   0.258   4.118   4.090
  510SOL    HW1 2429   0.341   4.107   4.035
  510SOL    HW2 2430   0.284   4.132   4.186
  511SOL     OW 2431   0.824   6.478   0.915
  511SOL    HW1 2432   0.790   6.458   0.823
  511SOL    HW2 2433   0.772   6.423   0.981
  512SOL     OW 2434   0.323   3.961   6.744
  512SOL    HW1 2435   0.321   4.047   6.796
  512SOL    HW2 2436   0.411   3.916   6.756
  513SOL     OW 2437   0.243   5.610   4.273
  513SOL    HW1 2438   0.216   5.577   4.183
  513SOL    HW2 2439   0.234   5.710   4.276
  514SOL     OW 2440   6.154   1.536   3.919
  514SOL    HW1 2441   6.131   1.491   3.833
  514SOL    HW2 2442   6.193   1.626   3.900
  515SOL     OW 2443   2.121   6.645   0.339
  515SOL    HW1 2444   2.180   6.564   0.341
  515SOL    HW2 2445   2.169   6.721   0.296
  516SOL     OW 2446   1.778   5.124   2.321
  516SOL    HW1 2447   1.805   5.060   2.393
  516SOL    HW2 2448   1.824   5.211   2.336
  517SOL     OW 2449   4.851   0.827   0.232
  517SOL    HW1 2450   4.926   0.761   0.237
  517SOL    HW2 2451   4.820   0.849   0.325
  518SOL     OW 2452   2.331   2.249   0.466
  518SOL    HW1 2453   2.320   2.201   0.554
  518SOL    HW2 2454   2.400   2.201   0.411
  519SOL     OW 2455   0.589   6.323   0.507
  519SOL    HW1 2456   0.627   6.245   0.458
  519SOL    HW2 2457   0.528   6.374   0.447
  520SOL     OW 2458   5.990   4.539   4.784
  520SOL    HW1 2459   5.930   4.617   4.794
  520SOL    HW2 2460   6.004   4.495   4.873
  521SOL     OW 2461   6.911   1.066   0.866
  521SOL    HW1 2462   6.927   1.029   0.958
  521SOL    HW2 2463   6.858   1.000   0.813
  522SOL     OW 2464   3.653   3.491   5.078
  522SOL    HW1 2465   3.565   3.480   5.125
  522SOL    HW2 2466   3.721   3.527   5.141
  523SOL     OW 2467   6.811   6.227   4.961
  523SOL    HW1 2468   6.765   6.242   4.873
  523SOL    HW2 2469   6.800   6.309   5.018
  524SOL     OW 2470   3.429   1.453   5.652
  524SOL    HW1 2471   3.464   1.459   5.558
  524SOL    HW2 2472   3.493   1.402   5.708
  525SOL     OW 2473   2.626   3.319   6.733
  525SOL    HW1 2474   2.657   3.406   6.695
  525SOL    HW2 2475   2.686   3.292   6.809
  526SOL     OW 2476   4.178   5.994   4.813
  526SOL    HW1 2477   4.218   5.959   4.898
  526SOL    HW2 2478   4.119   5.924   4.773
  527SOL     OW 2479   0.943   2.040   6.342
  527SOL    HW1 2480   0.869   2.095   6.302
  527SOL    HW2 2481   0.936   1.946   6.308
  528SOL     OW 2482   2.627   0.314   4.913
  528SOL    HW1 2483   2.677   0.396   4.941
  528SOL    HW2 2484   2.689   0.236   4.909
  529SOL     OW 2485   0.065   4.711   4.299
  529SOL    HW1 2486   7.011   4.652   4.287
  529SOL    HW2 2487   0.057   4.763   4.383
  530SOL     OW 2488   1.713   3.135   5.754
  530SOL    HW1 2489   1.779   3.072   5.795
  530SOL    HW2 2490   1.748   3.167   5.666
  531SOL     OW 2491   6.834   0.135   0.771
  531SOL    HW1 2492   6.893   0.103   0.846
  531SOL    HW2 2493   6.748   0.084   0.772
  532SOL     OW 2494   1.583   1.066   5.490
  532SOL    HW1 2495   1.654   1.126   5.452
  532SOL    HW2 2496   1.541   1.013   5.416
  533SOL     OW 2497   5.381   6.669   4.354
  533SOL    HW1 2498   5.459   6.720   4.318
  533SOL    HW2 2499   5.362   6.699   4.448
  534SOL     OW 2500   4.022   6.177   1.867
  534SOL    HW1 2501   4.009   6.187   1.768
  534SOL    HW2 2502   3.979   6.093   1.898
  535SOL     OW 2503   0.008   3.552   3.407
  535SOL    HW1 2504   0.080   3.534   3.473
  535SOL    HW2 2505   0.046   3.555   3.314
  536SOL     OW 2506   1.338   5.539   0.759
  536SOL    HW1 2507   1.260   5.577   0.808
  536SOL    HW2 2508   1.418   5.539   0.819
  537SOL     OW 2509   2.618   0.304   2.604
  537SOL    HW1 2510   2.665   0.378   2.555
  537SOL    HW2 2511   2.521   0.306   2.582
  538SOL     OW 2512   1.300   4.385   3.658
  538SOL    HW1 2513   1.347   4.468   3.628
  538SOL    HW2 2514   1.202   4.403   3.666
  539SOL     OW 2515   1.421   4.712   1.491
  539SOL    HW1 2516   1.470   4.634   1.451
  539SOL    HW2 2517   1.332   4.720   1.448
  540SOL     OW 2518   1.556   2.537   1.653
  540SOL    HW1 2519   1.477   2.595   1.674
  540SOL    HW2 2520   1.544   2.497   1.562
  541SOL     OW 2521   3.866   5.463   4.945
  541SOL    HW1 2522   3.872   5.373   4.900
  541SOL    HW2 2523   3.955   5.507   4.943
  542SOL     OW 2524   6.263   5.728   6.796
  542SOL    HW1 2525   6.297   5.748   6.704
  542SOL    HW2 2526   6.215   5.640   6.795
  543SOL     OW 2527   0.096   6.129   0.018
  543SOL    HW1 2528   0.111   6.154   6.948
  543SOL    HW2 2529   0.134   6.200   0.077
  544SOL     OW 2530   1.031   5.384   0.144
  544SOL    HW1 2531   0.998   5.289   0.149
  544SOL    HW2 2532   0.982   5.432   0.071
  545SOL     OW 2533   3.472   2.023   3.837
  545SOL    HW1 2534   3.523   1.938   3.847
  545SOL    HW2 2535   3.374   2.003   3.831
  546SOL     OW 2536   1.323   3.754   0.338
  546SOL    HW1 2537   1.314   3.789   0.245
  546SOL    HW2 2538   1.393   3.806   0.387
  547SOL     OW 2539   3.120   2.857   0.216
  547SOL    HW1 2540   3.092   2.775   0.166
  547SOL    HW2 2541   3.074   2.859   0.305
  548SOL     OW 2542   3.547   3.267   4.741
  548SOL    HW1 2543   3.496   3.330   4.683
  548SOL    HW2 2544   3.644   3.268   4.716
  549SOL     OW 2545   6.602   3.560   1.730
  549SOL    HW1 2546   6.619   3.566   1.828
  549SOL    HW2 2547   6.688   3.562   1.680
  550SOL     OW 2548   6.624   4.027   1.340
  550SOL    HW1 2549   6.554   3.958   1.356
  550SOL    HW2 2550   6.582   4.113   1.313
  551SOL     OW 2551   6.849   2.002   6.640
  551SOL    HW1 2552   6.866   2.082   6.698
  551SOL    HW2 2553   6.866   1.919   6.692
  552SOL     OW 2554   4.635   5.852   0.665
  552SOL    HW1 2555   4.564   5.845   0.594
  552SOL    HW2 2556   4.678   5.942   0.659
  553SOL     OW 2557   1.310   1.751   1.447
  553SOL    HW1 2558   1.348   1.835   1.408
  553SOL    HW2 2559   1.283   1.767   1.542
  554SOL     OW 2560   5.172   5.941   5.289
  554SOL    HW1 2561   5.159   5.844   5.306
  554SOL    HW2 2562   5.108   5.994   5.344
  555SOL     OW 2563   1.917   4.197   4.580
  555SOL    HW1 2564   1.834   4.180   4.633
  555SOL    HW2 2565   1.947   4.291   4.593
  556SOL     OW 2566   5.680   3.491   2.975
  556SOL    HW1 2567   5.587   3.472   3.008
  556SOL    HW2 2568   5.678   3.570   2.913
  557SOL     OW 2569   0.301   5.421   6.392
  557SOL    HW1 2570   0.371   5.373   6.339
  557SOL    HW2 2571   0.273   5.363   6.469
  558SOL     OW 2572   4.157   4.054   5.439
  558SOL    HW1 2573   4.115   4.111   5.510
  558SOL    HW2 2574   4.131   3.959   5.453
  559SOL     OW 2575   5.647   6.015   6.040
  559SOL    HW1 2576   5.743   6.017   6.015
  559SOL    HW2 2577   5.591   6.005   5.958
  560SOL     OW 2578   4.143   6.626   6.807
  560SOL    HW1 2579   4.140   6.725   6.820
  560SOL    HW2 2580   4.095   6.602   6.723
  561SOL     OW 2581   5.438   6.406   0.819
  561SOL    HW1 2582   5.365   6.378   0.757
  561SOL    HW2 2583   5.404   6.481   0.877
  562SOL     OW 2584   6.534   0.818   6.241
  562SOL    HW1 2585   6.553   0.722   6.261
  562SOL    HW2 2586   6.450   0.846   6.288
  563SOL     OW 2587   3.353   6.839   5.158
  563SOL    HW1 2588   3.398   6.922   5.125
  563SOL    HW2 2589   3.412   6.793   5.225
  564SOL     OW 2590   0.251   1.842   6.759
  564SOL    HW1 2591   0.173   1.896   6.790
  564SOL    HW2 2592   0.291   1.886   6.679
  565SOL     OW 2593   4.660   4.279   5.198
  565SOL    HW1 2594   4.582   4.256   5.256
  565SOL    HW2 2595   4.627   4.305   5.107
  566SOL     OW 2596   5.305   5.120   2.221
  566SOL    HW1 2597   5.225   5.088   2.272
  566SOL    HW2 2598   5.322   5.216   2.241
  567SOL     OW 2599   3.967   3.967   4.627
  567SOL    HW1 2600   4.004   3.919   4.548
  567SOL    HW2 2601   4.042   4.003   4.683
  568SOL     OW 2602   2.058   1.559   5.953
  568SOL    HW1 2603   2.013   1.484   6.001
  568SOL    HW2 2604   2.066   1.638   6.014
  569SOL     OW 2605   2.523   3.774   0.359
  569SOL    HW1 2606   2.464   3.789   0.280
  569SOL    HW2 2607   2.606   3.726   0.331
  570SOL     OW 2608   0.591   6.095   1.222
  570SOL    HW1 2609   0.636   6.022   1.170
  570SOL    HW2 2610   0.509   6.059   1.266
  571SOL     OW 2611   4.348   5.491   2.862
  571SOL    HW1 2612   4.263   5.543   2.870
  571SOL    HW2 2613   4.327   5.397   2.834
  572SOL     OW 2614   1.808   4.011   4.994
  572SOL    HW1 2615   1.749   4.002   5.074
  572SOL    HW2 2616   1.765   3.966   4.916
  573SOL     OW 2617   4.136   2.395   6.240
  573SOL    HW1 2618   4.217   2.447   6.267
  573SOL    HW2 2619   4.054   2.451   6.257
  574SOL     OW 2620   2.533   1.396   4.378
  574SOL    HW1 2621   2.490   1.438   4.458
  574SOL    HW2 2622   2.519   1.456   4.299
  575SOL     OW 2623   5.001   2.379   6.687
  575SOL    HW1 2624   5.079   2.377   6.624
  575SOL    HW2 2625   4.985   2.473   6.716
  576SOL     OW 2626   0.854   2.094   2.380
  576SOL    HW1 2627   0.835   2.065   2.474
  576SOL    HW2 2628   0.771   2.087   2.325
  577SOL     OW 2629   3.196   2.155   4.165
  577SOL    HW1 2630   3.124   2.216   4.132
  577SOL    HW2 2631   3.175   2.061   4.139
  578SOL     OW 2632   0.533   3.120   4.895
  578SOL    HW1 2633   0.451   3.080   4.937
  578SOL    HW2 2634   0.553   3.209   4.937
  579SOL     OW 2635   3.651   3.267   0.539
  579SOL    HW1 2636   3.722   3.312   0.593
  579SOL    HW2 2637   3.690   3.188   0.491
  580SOL     OW 2638   0.384   6.065   6.696
  580SOL    HW1 2639   0.291   6.090   6.723
  580SOL    HW2 2640   0.448   6.090   6.769
  581SOL     OW 2641   3.790   3.740   2.398
  581SOL    HW1 2642   3.799   3.839   2.398
  581SOL    HW2 2643   3.768   3.709   2.491
  582SOL     OW 2644   6.280   3.896   2.442
  582SOL    HW1 2645   6.362   3.951   2.457
  582SOL    HW2 2646   6.253   3.851   2.528
  583SOL     OW 2647   2.383   5.679   6.572
  583SOL    HW1 2648   2.389   5.579   6.576
  583SOL    HW2 2649   2.299   5.710   6.616
  584SOL     OW 2650   0.798   4.828   5.059
  584SOL    HW1 2651   0.894   4.806   5.078
  584SOL    HW2 2652   0.774   4.798   4.967
  585SOL     OW 2653   6.512   1.500   5.843
  585SOL    HW1 2654   6.466   1.421   5.804
  585SOL    HW2 2655   6.565   1.547   5.773
  586SOL     OW 2656   2.202   6.043   0.721
  586SOL    HW1 2657   2.206   6.130   0.770
  586SOL    HW2 2658   2.111   6.002   0.732
  587SOL     OW 2659   1.176   3.873   6.044
  587SOL    HW1 2660   1.250   3.806   6.050
  587SOL    HW2 2661   1.137   3.871   5.952
  588SOL     OW 2662   2.529   6.902   1.343
  588SOL    HW1 2663   2.445   6.929   1.392
  588SOL    HW2 2664   2.607   6.911   1.404
  589SOL     OW 2665   4.753   5.272   2.005
  589SOL    HW1 2666   4.667   5.242   2.047
  589SOL    HW2 2667   4.740   5.362   1.964
  590SOL     OW 2668   6.451   1.972   1.981
  590SOL    HW1 2669   6.389   2.035   1.935
  590SOL    HW2 2670   6.399   1.903   2.030
  591SOL     OW 2671   3.330   6.844   3.081
  591SOL    HW1 2672   3.403   6.814   3.018
  591SOL    HW2 2673   3.282   6.764   3.116
  592SOL     OW 2674   5.472   0.798   0.083
  592SOL    HW1 2675   5.519   0.766   0.166
  592SOL    HW2 2676   5.519   0.878   0.047
  593SOL     OW 2677   6.363   1.340   4.312
  593SOL    HW1 2678   6.317   1.252   4.325
  593SOL    HW2 2679   6.304   1.413   4.344
  594SOL     OW 2680   5.163   2.995   1.637
  594SOL    HW1 2681   5.094   2.926   1.617
  594SOL    HW2 2682   5.232   2.995   1.565
  595SOL     OW 2683   3.704   0.092   4.333
  595SOL    HW1 2684   3.681   0.189   4.340
  595SOL    HW2 2685   3.721   0.069   4.237
  596SOL     OW 2686   0.740   3.948   2.431
  596SOL    HW1 2687   0.735   3.848   2.438
  596SOL    HW2 2688   0.817   3.981   2.486
  597SOL     OW 2689   3.977   1.990   5.868
  597SOL    HW1 2690   3.959   2.014   5.772
  597SOL    HW2 2691   3.971   2.071   5.925
  598SOL     OW 2692   3.145   4.071   1.393
  598SOL    HW1 2693   3.048   4.093   1.402
  598SOL    HW2 2694   3.162   4.032   1.302
  599SOL     OW 2695   6.839   6.473   3.228
  599SOL    HW1 2696   6.928   6.462   3.184
  599SOL    HW2 2697   6.767   6.473   3.157
  600SOL     OW 2698   2.324   1.007   0.783
  600SOL    HW1 2699   2.302   1.083   0.844
  600SOL    HW2 2700   2.399   1.034   0.723
  601SOL     OW 2701   3.018   4.942   3.581
  601SOL    HW1 2702   2.957   5.021   3.575
  601SOL    HW2 2703   3.101   4.959   3.528
  602SOL     OW 2704   0.198   0.559   1.787
  602SOL    HW1 2705   0.243   0.602   1.866
  602SOL    HW2 2706   0.264   0.550   1.712
  603SOL     OW 2707   4.290   2.347   2.902
  603SOL    HW1 2708   4.215   2.334   2.966
  603SOL    HW2 2709   4.263   2.314   2.811
  604SOL     OW 2710   0.702   4.323   5.439
  604SOL    HW1 2711   0.624   4.324   5.377
  604SOL    HW2 2712   0.782   4.287   5.390
  605SOL     OW 2713   5.903   6.876   4.739
  605SOL    HW1 2714   5.998   6.861   4.767
  605SOL    HW2 2715   5.846   6.802   4.774
  606SOL     OW 2716   3.612   0.006   2.942
  606SOL    HW1 2717   3.632   0.047   3.031
  606SOL    HW2 2718   3.555   0.068   2.888
  607SOL     OW 2719   4.263   1.039   3.708
  607SOL    HW1 2720   4.240   0.985   3.789
  607SOL    HW2 2721   4.337   1.102   3.729
  608SOL     OW 2722   4.837   1.989   1.685
  608SOL    HW1 2723   4.831   2.068   1.746
  608SOL    HW2 2724   4.818   2.018   1.592
  609SOL     OW 2725   2.984   3.508   4.033
  609SOL    HW1 2726   2.972   3.585   4.096
  609SOL    HW2 2727   3.014   3.427   4.084
  610SOL     OW 2728   5.893   1.568   4.371
  610SOL    HW1 2729   5.976   1.568   4.315
  610SOL    HW2 2730   5.816   1.602   4.317
  611SOL     OW 2731   6.211   0.352   0.470
  611SOL    HW1 2732   6.310   0.334   0.469
  611SOL    HW2 2733   6.162   0.271   0.441
  612SOL     OW 2734   3.227   5.290   5.810
  612SOL    HW1 2735   3.227   5.230   5.730
  612SOL    HW2 2736   3.157   5.360   5.799
  613SOL     OW 2737   3.285   1.986   6.870
  613SOL    HW1 2738   3.328   2.073   6.846
  613SOL    HW2 2739   3.342   1.939   6.938
  614SOL     OW 2740   5.245   3.609   0.861
  614SOL    HW1 2741   5.218   3.514   0.846
  614SOL    HW2 2742   5.303   3.640   0.785
  615SOL     OW 2743   5.265   6.864   1.263
  615SOL    HW1 2744   5.174   6.848   1.225
  615SOL    HW2 2745   5.334   6.847   1.194
  616SOL     OW 2746   5.456   0.844   4.877
  616SOL    HW1 2747   5.516   0.897   4.816
  616SOL    HW2 2748   5.470   0.746   4.861
  617SOL     OW 2749   0.201   5.669   5.465
  617SOL    HW1 2750   0.210   5.718   5.552
  617SOL    HW2 2751   0.255   5.584   5.469
  618SOL     OW 2752   5.801   4.772   6.909
  618SOL    HW1 2753   5.745   4.816   6.980
  618SOL    HW2 2754   5.896   4.800   6.921
  619SOL     OW 2755   2.730   6.835   5.829
  619SOL    HW1 2756   2.823   6.802   5.812
  619SOL    HW2 2757   2.665   6.781   5.775
  620SOL     OW 2758   5.412   1.718   2.436
  620SOL    HW1 2759   5.376   1.755   2.521
  620SOL    HW2 2760   5.472   1.640   2.455
  621SOL     OW 2761   2.817   0.381   6.515
  621SOL    HW1 2762   2.831   0.393   6.416
  621SOL    HW2 2763   2.853   0.461   6.563
  622SOL     OW 2764   0.491   2.939   5.577
  622SOL    HW1 2765   0.536   2.867   5.525
  622SOL    HW2 2766   0.524   3.029   5.547
  623SOL     OW 2767   6.174   0.067   3.626
  623SOL    HW1 2768   6.235   0.100   3.698
  623SOL    HW2 2769   6.082   0.103   3.641
  624SOL     OW 2770   6.907   0.640   6.117
  624SOL    HW1 2771   6.855   0.649   6.032
  624SOL    HW2 2772   7.001   0.671   6.102
  625SOL     OW 2773   3.274   1.210   0.986
  625SOL    HW1 2774   3.238   1.281   0.925
  625SOL    HW2 2775   3.373   1.217   0.990
  626SOL     OW 2776   6.698   5.805   3.698
  626SOL    HW1 2777   6.744   5.874   3.642
  626SOL    HW2 2778   6.679   5.843   3.789
  627SOL     OW 2779   6.199   6.356   0.271
  627SOL    HW1 2780   6.150   6.284   0.222
  627SOL    HW2 2781   6.233   6.423   0.205
  628SOL     OW 2782   4.011   4.902   6.147
  628SOL    HW1 2783   4.043   4.835   6.080
  628SOL    HW2 2784   4.089   4.945   6.192
  629SOL     OW 2785   1.384   6.719   0.065
  629SOL    HW1 2786   1.321   6.793   0.041
  629SOL    HW2 2787   1.378   6.700   0.162
  630SOL     OW 2788   6.292   1.040   1.409
  630SOL    HW1 2789   6.370   1.010   1.463
  630SOL    HW2 2790   6.320   1.058   1.315
  631SOL     OW 2791   1.628   2.684   3.798
  631SOL    HW1 2792   1.637   2.768   3.745
  631SOL    HW2 2793   1.702   2.621   3.775
  632SOL     OW 2794   3.233   4.205   0.763
  632SOL    HW1 2795   3.311   4.233   0.708
  632SOL    HW2 2796   3.164   4.278   0.762
  633SOL     OW 2797   1.485   5.235   0.739
  633SOL    HW1 2798   1.405   5.287   0.768
  633SOL    HW2 2799   1.456   5.160   0.679
  634SOL     OW 2800   3.022   3.089   4.552
  634SOL    HW1 2801   3.048   3.005   4.600
  634SOL    HW2 2802   3.026   3.166   4.615
  635SOL     OW 2803   5.915   0.011   6.489
  635SOL    HW1 2804   5.936   0.068   6.568
  635SOL    HW2 2805   5.954   6.945   6.501
  636SOL     OW 2806   2.807   0.523   5.367
  636SOL    HW1 2807   2.736   0.591   5.350
  636SOL    HW2 2808   2.777   0.461   5.439
  637SOL     OW 2809   0.266   1.209   2.908
  637SOL    HW1 2810   0.172   1.199   2.876
  637SOL    HW2 2811   0.266   1.247   3.000
  638SOL     OW 2812   6.344   3.053   4.976
  638SOL    HW1 2813   6.417   2.995   5.013
  638SOL    HW2 2814   6.279   3.074   5.049
  639SOL     OW 2815   5.860   4.429   2.172
  639SOL    HW1 2816   5.933   4.495   2.152
  639SOL    HW2 2817   5.869   4.349   2.114
  640SOL     OW 2818   0.097   2.760   2.444
  640SOL    HW1 2819   0.123   2.777   2.539
  640SOL    HW2 2820   0.151   2.683   2.409
  641SOL     OW 2821   2.493   5.071   4.419
  641SOL    HW1 2822   2.591   5.074   4.438
  641SOL    HW2 2823   2.463   4.975   4.415
  642SOL     OW 2824   0.478   5.045   4.826
  642SOL    HW1 2825   0.459   5.038   4.728
  642SOL    HW2 2826   0.423   5.118   4.866
  643SOL     OW 2827   3.938   5.249   0.553
  643SOL    HW1 2828   3.952   5.185   0.628
  643SOL    HW2 2829   3.908   5.199   0.472
  644SOL     OW 2830   0.011   6.660   5.358
  644SOL    HW1 2831   0.003   6.671   5.259
  644SOL    HW2 2832   0.105   6.635   5.381
  645SOL     OW 2833   4.090   5.478   2.517
  645SOL    HW1 2834   4.162   5.496   2.450
  645SOL    HW2 2835   4.051   5.565   2.547
  646SOL     OW 2836   3.616   2.148   4.549
  646SOL    HW1 2837   3.627   2.169   4.646
  646SOL    HW2 2838   3.519   2.151   4.525
  647SOL     OW 2839   3.898   2.575   6.122
  647SOL    HW1 2840   3.973   2.639   6.107
  647SOL    HW2 2841   3.827   2.619   6.178
  648SOL     OW 2842   6.234   1.365   3.457
  648SOL    HW1 2843   6.251   1.268   3.474
  648SOL    HW2 2844   6.311   1.403   3.405
  649SOL     OW 2845   2.786   5.424   0.134
  649SOL    HW1 2846   2.752   5.462   0.048
  649SOL    HW2 2847   2.798   5.497   0.200
  650SOL     OW 2848   0.180   3.451   1.108
  650SOL    HW1 2849   0.231   3.534   1.133
  650SOL    HW2 2850   0.101   3.441   1.169
  651SOL     OW 2851   0.788   0.648   3.934
  651SOL    HW1 2852   0.873   0.697   3.914
  651SOL    HW2 2853   0.726   0.655   3.857
  652SOL     OW 2854   4.160   5.329   0.863
  652SOL    HW1 2855   4.086   5.296   0.922
  652SOL    HW2 2856   4.156   5.429   0.858
  653SOL     OW 2857   1.739   6.418   2.186
  653SOL    HW1 2858   1.788   6.346   2.136
  653SOL    HW2 2859   1.802   6.493   2.207
  654SOL     OW 2860   0.725   0.029   5.617
  654SOL    HW1 2861   0.803   6.992   5.629
  654SOL    HW2 2862   0.674   0.003   5.535
  655SOL     OW 2863   0.570   4.045   1.517
  655SOL    HW1 2864   0.528   4.011   1.601
  655SOL    HW2 2865   0.646   3.985   1.491
  656SOL     OW 2866   2.797   6.116   6.829
  656SOL    HW1 2867   2.889   6.115   6.792
  656SOL    HW2 2868   2.741   6.181   6.779
  657SOL     OW 2869   3.856   3.586   3.656
  657SOL    HW1 2870   3.932   3.602   3.720
  657SOL    HW2 2871   3.815   3.674   3.631
  658SOL     OW 2872   0.929   1.696   4.014
  658SOL    HW1 2873   0.968   1.609   4.044
  658SOL    HW2 2874   0.855   1.723   4.075
  659SOL     OW 2875   1.867   5.705   6.711
  659SOL    HW1 2876   1.834   5.614   6.736
  659SOL    HW2 2877   1.853   5.719   6.612
  660SOL     OW 2878   5.151   4.739   2.752
  660SOL    HW1 2879   5.209   4.803   2.701
  660SOL    HW2 2880   5.208   4.666   2.790
  661SOL     OW 2881   4.250   5.537   3.717
  661SOL    HW1 2882   4.184   5.468   3.686
  661SOL    HW2 2883   4.332   5.492   3.752
  662SOL     OW 2884   4.891   3.353   6.993
  662SOL    HW1 2885   4.979   3.330   6.952
  662SOL    HW2 2886   4.903   3.427   0.035
  663SOL     OW 2887   6.755   4.164   0.249
  663SOL    HW1 2888   6.679   4.227   0.266
  663SOL    HW2 2889   6.804   4.191   0.167
  664SOL     OW 2890   1.545   0.013   6.378
  664SOL    HW1 2891   1.553   6.952   6.329
  664SOL    HW2 2892   1.628   0.030   6.431
  665SOL     OW 2893   3.270   4.904   2.825
  665SOL    HW1 2894   3.318   4.848   2.758
  665SOL    HW2 2895   3.175   4.874   2.832
  666SOL     OW 2896   3.211   1.039   6.870
  666SOL    HW1 2897   3.229   0.941   6.877
  666SOL    HW2 2898   3.286   1.084   6.821
  667SOL     OW 2899   1.343   3.497   2.204
  667SOL    HW1 2900   1.320   3.401   2.186
  667SOL    HW2 2901   1.405   3.502   2.282
  668SOL     OW 2902   5.354   0.211   0.270
  668SOL    HW1 2903   5.427   0.266   0.229
  668SOL    HW2 2904   5.366   0.115   0.243
  669SOL     OW 2905   0.987   5.759   2.475
  669SOL    HW1 2906   0.946   5.850   2.479
  669SOL    HW2 2907   1.086   5.767   2.476
  670SOL     OW 2908   3.301   3.549   3.194
  670SOL    HW1 2909   3.249   3.469   3.224
  670SOL    HW2 2910   3.300   3.619   3.266
  671SOL     OW 2911   1.771   0.044   6.520
  671SOL    HW1 2912   1.727   7.020   6.595
  671SOL    HW2 2913   1.866   0.063   6.544
  672SOL     OW 2914   1.237   2.504   2.901
  672SOL    HW1 2915   1.303   2.454   2.957
  672SOL    HW2 2916   1.175   2.439   2.856
  673SOL     OW 2917   4.804   0.219   0.167
  673SOL    HW1 2918   4.886   0.169   0.192
  673SOL    HW2 2919   4.773   0.274   0.245
  674SOL     OW 2920   0.060   2.081   4.695
  674SOL    HW1 2921   0.125   2.012   4.662
  674SOL    HW2 2922   0.026   2.135   4.618
  675SOL     OW 2923   6.097   6.804   3.954
  675SOL    HW1 2924   6.132   6.792   4.047
  675SOL    HW2 2925   6.015   6.861   3.956
  676SOL     OW 2926   2.365   5.208   4.183
  676SOL    HW1 2927   2.397   5.162   4.265
  676SOL    HW2 2928   2.276   5.251   4.200
  677SOL     OW 2929   5.046   0.050   0.882
  677SOL    HW1 2930   5.093   0.116   0.824
  677SOL    HW2 2931   5.059   6.983   0.844
  678SOL     OW 2932   2.483   0.952   5.994
  678SOL    HW1 2933   2.578   0.984   5.999
  678SOL    HW2 2934   2.482   0.854   5.977
  679SOL     OW 2935   6.582   0.655   2.272
  679SOL    HW1 2936   6.675   0.621   2.282
  679SOL    HW2 2937   6.526   0.586   2.226
  680SOL     OW 2938   5.907   4.266   4.669
  680SOL    HW1 2939   5.844   4.311   4.732
  680SOL    HW2 2940   5.955   4.336   4.616
  681SOL     OW 2941   1.558   6.897   2.478
  681SOL    HW1 2942   1.575   6.986   2.435
  681SOL    HW2 2943   1.507   6.839   2.415
  682SOL     OW 2944   0.176   0.096   6.425
  682SOL    HW1 2945   0.153   0.000   6.438
  682SOL    HW2 2946   0.099   0.143   6.381
  683SOL     OW 2947   5.232   1.954   0.650
  683SOL    HW1 2948   5.170   2.032   0.648
  683SOL    HW2 2949   5.225   1.904   0.564
  684SOL     OW 2950   0.351   5.612   6.165
  684SOL    HW1 2951   0.332   5.627   6.068
  684SOL    HW2 2952   0.425   5.545   6.174
  685SOL     OW 2953   6.299   1.230   6.788
  685SOL    HW1 2954   6.385   1.281   6.797
  685SOL    HW2 2955   6.317   1.141   6.748
  686SOL     OW 2956   5.615   4.805   3.232
  686SOL    HW1 2957   5.665   4.816   3.319
  686SOL    HW2 2958   5.665   4.742   3.173
  687SOL     OW 2959   5.992   2.266   5.400
  687SOL    HW1 2960   5.997   2.249   5.498
  687SOL    HW2 2961   5.897   2.257   5.369
  688SOL     OW 2962   0.060   3.107   4.764
  688SOL    HW1 2963   0.093   3.184   4.819
  688SOL    HW2 2964   7.003   3.069   4.805
  689SOL     OW 2965   6.021   4.139   4.890
  689SOL    HW1 2966   5.971   4.077   4.951
  689SOL    HW2 2967   5.967   4.155   4.807
  690SOL     OW 2968   0.580   3.235   4.231
  690SOL    HW1 2969   0.582   3.226   4.131
  690SOL    HW2 2970   0.496   3.194   4.266
  691SOL     OW 2971   6.858   2.790   0.013
  691SOL    HW1 2972   6.836   2.820   6.946
  691SOL    HW2 2973   6.929   2.720   0.009
  692SOL     OW 2974   2.601   6.868   3.048
  692SOL    HW1 2975   2.656   6.786   3.064
  692SOL    HW2 2976   2.538   6.882   3.124
  693SOL     OW 2977   6.724   1.487   2.316
  693SOL    HW1 2978   6.783   1.470   2.395
  693SOL    HW2 2979   6.701   1.584   2.311
  694SOL     OW 2980   1.663   0.217   2.326
  694SOL    HW1 2981   1.669   0.282   2.251
  694SOL    HW2 2982   1.615   0.259   2.403
  695SOL     OW 2983   4.245   5.632   6.282
  695SOL    HW1 2984   4.250   5.642   6.382
  695SOL    HW2 2985   4.151   5.611   6.256
  696SOL     OW 2986   5.215   6.518   2.480
  696SOL    HW1 2987   5.256   6.439   2.434
  696SOL    HW2 2988   5.277   6.552   2.550
  697SOL     OW 2989   1.243   3.867   3.709
  697SOL    HW1 2990   1.275   3.956   3.744
  697SOL    HW2 2991   1.285   3.794   3.763
  698SOL     OW 2992   4.897   5.839   4.171
  698SOL    HW1 2993   4.972   5.818   4.107
  698SOL    HW2 2994   4.877   5.937   4.167
  699SOL     OW 2995   1.090   4.068   0.037
  699SOL    HW1 2996   1.031   3.998   7.022
  699SOL    HW2 2997   1.038   4.153   0.050
  700SOL     OW 2998   2.133   1.325   4.354
  700SOL    HW1 2999   2.157   1.243   4.302
  700SOL    HW2 3000   2.183   1.403   4.317
  701SOL     OW 3001   1.017   4.498   6.178
  701SOL    HW1 3002   0.973   4.587   6.188
  701SOL    HW2 3003   1.071   4.497   6.094
  702SOL     OW 3004   5.131   5.961   5.018
  702SOL    HW1 3005   5.146   5.869   4.981
  702SOL    HW2 3006   5.135   5.958   5.118
  703SOL     OW 3007   4.361   3.904   6.922
  703SOL    HW1 3008   4.418   3.865   6.849
  703SOL    HW2 3009   4.353   3.838   6.997
  704SOL     OW 3010   2.566   0.859   1.559
  704SOL    HW1 3011   2.627   0.863   1.480
  704SOL    HW2 3012   2.510   0.775   1.553
  705SOL     OW 3013   6.736   1.976   4.006
  705SOL    HW1 3014   6.649   1.928   4.019
  705SOL    HW2 3015   6.773   1.952   3.916
  706SOL     OW 3016   4.941   2.320   4.062
  706SOL    HW1 3017   4.856   2.357   4.026
  706SOL    HW2 3018   4.973   2.246   4.002
  707SOL     OW 3019   4.874   2.201   2.408
  707SOL    HW1 3020   4.783   2.242   2.394
  707SOL    HW2 3021   4.943   2.273   2.410
  708SOL     OW 3022   4.233   0.450   2.112
  708SOL    HW1 3023   4.292   0.388   2.162
  708SOL    HW2 3024   4.225   0.420   2.017
  709SOL     OW 3025   0.657   5.054   6.903
  709SOL    HW1 3026   0.608   5.141   6.903
  709SOL    HW2 3027   0.608   4.988   6.961
  710SOL     OW 3028   3.002   3.538   2.526
  710SOL    HW1 3029   2.950   3.505   2.447
  710SOL    HW2 3030   3.091   3.571   2.495
  711SOL     OW 3031   1.428   1.113   4.443
  711SOL    HW1 3032   1.341   1.073   4.414
  711SOL    HW2 3033   1.480   1.046   4.496
  712SOL     OW 3034   1.186   3.907   1.921
  712SOL    HW1 3035   1.209   3.996   1.882
  712SOL    HW2 3036   1.265   3.871   1.970
  713SOL     OW 3037   3.722   3.838   3.623
  713SOL    HW1 3038   3.809   3.884   3.643
  713SOL    HW2 3039   3.648   3.905   3.629
  714SOL     OW 3040   5.050   4.810   5.754
  714SOL    HW1 3041   5.146   4.791   5.733
  714SOL    HW2 3042   5.041   4.902   5.790
  715SOL     OW 3043   4.561   1.366   6.507
  715SOL    HW1 3044   4.573   1.268   6.524
  715SOL    HW2 3045   4.643   1.415   6.535
  716SOL     OW 3046   6.891   4.996   1.943
  716SOL    HW1 3047   6.935   5.067   1.999
  716SOL    HW2 3048   6.810   5.034   1.899
  717SOL     OW 3049   6.190   2.909   6.767
  717SOL    HW1 3050   6.117   2.881   6.830
  717SOL    HW2 3051   6.195   2.846   6.690
  718SOL     OW 3052   2.444   3.535   0.091
  718SOL    HW1 3053   2.520   3.571   0.145
  718SOL    HW2 3054   2.466   3.540   7.019
  719SOL     OW 3055   5.185   5.182   0.281
  719SOL    HW1 3056   5.131   5.207   0.361
  719SOL    HW2 3057   5.204   5.084   0.283
  720SOL     OW 3058   2.515   0.698   6.214
  720SOL    HW1 3059   2.449   0.637   6.259
  720SOL    HW2 3060   2.588   0.721   6.277
  721SOL     OW 3061   1.608   6.282   5.784
  721SOL    HW1 3062   1.608   6.360   5.721
  721SOL    HW2 3063   1.513   6.257   5.805
  722SOL     OW 3064   4.331   6.818   5.804
  722SOL    HW1 3065   4.302   6.843   5.712
  722SOL    HW2 3066   4.310   6.892   5.867
  723SOL     OW 3067   1.757   3.273   1.969
  723SOL    HW1 3068   1.692   3.329   1.918
  723SOL    HW2 3069   1.842   3.325   1.981
  724SOL     OW 3070   6.472   0.564   4.596
  724SOL    HW1 3071   6.413   0.483   4.589
  724SOL    HW2 3072   6.415   0.645   4.610
  725SOL     OW 3073   2.862   4.740   1.114
  725SOL    HW1 3074   2.779   4.746   1.169
  725SOL    HW2 3075   2.879   4.644   1.090
  726SOL     OW 3076   4.610   6.723   6.236
  726SOL    HW1 3077   4.611   6.802   6.175
  726SOL    HW2 3078   4.663   6.649   6.196
  727SOL     OW 3079   2.336   4.603   3.933
  727SOL    HW1 3080   2.311   4.685   3.882
  727SOL    HW2 3081   2.341   4.525   3.871
  728SOL     OW 3082   0.076   2.717   5.104
  728SOL    HW1 3083   0.173   2.714   5.083
  728SOL    HW2 3084   0.031   2.636   5.065
  729SOL     OW 3085   3.195   0.452   0.809
  729SOL    HW1 3086   3.102   0.426   0.835
  729SOL    HW2 3087   3.210   0.548   0.833
  730SOL     OW 3088   5.553   1.143   5.084
  730SOL    HW1 3089   5.639   1.177   5.120
  730SOL    HW2 3090   5.483   1.146   5.157
  731SOL     OW 3091   6.739   3.239   3.984
  731SOL    HW1 3092   6.647   3.272   4.007
  731SOL    HW2 3093   6.735   3.140   3.967
  732SOL     OW 3094   6.651   2.973   2.511
  732SOL    HW1 3095   6.728   2.912   2.492
  732SOL    HW2 3096   6.686   3.063   2.538
  733SOL     OW 3097   4.092   4.784   4.265
  733SOL    HW1 3098   4.076   4.784   4.364
  733SOL    HW2 3099   4.158   4.855   4.241
  734SOL     OW 3100   0.449   4.742   0.227
  734SOL    HW1 3101   0.435   4.804   0.304
  734SOL    HW2 3102   0.401   4.656   0.244
  735SOL     OW 3103   2.618   5.001   6.630
  735SOL    HW1 3104   2.632   5.100   6.623
  735SOL    HW2 3105   2.550   4.983   6.701
  736SOL     OW 3106   5.940   0.829   3.175
  736SOL    HW1 3107   5.860   0.772   3.190
  736SOL    HW2 3108   5.996   0.790   3.102
  737SOL     OW 3109   5.670   3.876   0.284
  737SOL    HW1 3110   5.584   3.856   0.238
  737SOL    HW2 3111   5.710   3.960   0.246
  738SOL     OW 3112   0.714   4.566   3.234
  738SOL    HW1 3113   0.774   4.646   3.240
  738SOL    HW2 3114   0.632   4.590   3.182
  739SOL     OW 3115   4.464   6.270   6.919
  739SOL    HW1 3116   4.403   6.340   6.959
  739SOL    HW2 3117   4.506   6.306   6.836
  740SOL     OW 3118   5.847   0.151   1.106
  740SOL    HW1 3119   5.810   0.126   1.195
  740SOL    HW2 3120   5.803   0.235   1.074
  741SOL     OW 3121   2.583   0.390   3.983
  741SOL    HW1 3122   2.604   0.390   4.081
  741SOL    HW2 3123   2.565   0.297   3.952
  742SOL     OW 3124   1.880   0.148   2.474
  742SOL    HW1 3125   1.804   0.184   2.422
  742SOL    HW2 3126   1.892   0.051   2.454
  743SOL     OW 3127   2.110   3.665   4.283
  743SOL    HW1 3128   2.208   3.678   4.293
  743SOL    HW2 3129   2.068   3.658   4.374
  744SOL     OW 3130   0.415   5.918   1.337
  744SOL    HW1 3131   0.401   5.858   1.416
  744SOL    HW2 3132   0.340   5.906   1.272
  745SOL     OW 3133   1.819   5.725   3.081
  745SOL    HW1 3134   1.830   5.739   2.982
  745SOL    HW2 3135   1.795   5.812   3.124
  746SOL     OW 3136   2.692   0.536   4.221
  746SOL    HW1 3137   2.681   0.582   4.309
  746SOL    HW2 3138   2.732   0.598   4.155
  747SOL     OW 3139   6.313   4.669   1.708
  747SOL    HW1 3140   6.371   4.651   1.629
  747SOL    HW2 3141   6.252   4.591   1.724
  748SOL     OW 3142   3.883   2.927   2.461
  748SOL    HW1 3143   3.874   2.855   2.392
  748SOL    HW2 3144   3.948   2.996   2.429
  749SOL     OW 3145   6.884   1.458   5.393
  749SOL    HW1 3146   6.818   1.384   5.404
  749SOL    HW2 3147   6.932   1.472   5.480
  750SOL     OW 3148   2.847   4.157   1.354
  750SOL    HW1 3149   2.836   4.069   1.401
  750SOL    HW2 3150   2.769   4.173   1.295
  751SOL     OW 3151   4.726   1.407   0.609
  751SOL    HW1 3152   4.654   1.372   0.549
  751SOL    HW2 3153   4.800   1.446   0.554
  752SOL     OW 3154   4.574   1.213   1.561
  752SOL    HW1 3155   4.626   1.247   1.640
  752SOL    HW2 3156   4.482   1.252   1.562
  753SOL     OW 3157   2.857   1.478   2.428
  753SOL    HW1 3158   2.835   1.575   2.439
  753SOL    HW2 3159   2.772   1.426   2.416
  754SOL     OW 3160   4.851   5.699   7.009
  754SOL    HW1 3161   4.950   5.684   7.010
  754SOL    HW2 3162   4.833   5.797   6.998
  755SOL     OW 3163   0.050   6.488   3.121
  755SOL    HW1 3164   0.075   6.392   3.109
  755SOL    HW2 3165   0.052   6.535   3.033
  756SOL     OW 3166   3.793   6.918   3.630
  756SOL    HW1 3167   3.789   6.982   3.708
  756SOL    HW2 3168   3.811   6.970   3.546
  757SOL     OW 3169   6.574   0.983   4.932
  757SOL    HW1 3170   6.624   1.010   5.015
  757SOL    HW2 3171   6.606   1.039   4.855
  758SOL     OW 3172   4.357   2.106   1.831
  758SOL    HW1 3173   4.323   2.194   1.797
  758SOL    HW2 3174   4.430   2.123   1.898
  759SOL     OW 3175   1.783   1.195   0.518
  759SOL    HW1 3176   1.858   1.137   0.552
  759SOL    HW2 3177   1.784   1.282   0.566
  760SOL     OW 3178   4.554   2.068   5.904
  760SOL    HW1 3179   4.537   1.999   5.975
  760SOL    HW2 3180   4.651   2.072   5.884
  761SOL     OW 3181   5.816   2.088   6.913
  761SOL    HW1 3182   5.799   2.004   6.964
  761SOL    HW2 3183   5.901   2.079   6.861
  762SOL     OW 3184   1.973   5.301   3.996
  762SOL    HW1 3185   2.008   5.261   4.081
  762SOL    HW2 3186   1.913   5.378   4.018
  763SOL     OW 3187   5.745   5.160   6.643
  763SOL    HW1 3188   5.686   5.111   6.707
  763SOL    HW2 3189   5.705   5.250   6.623
  764SOL     OW 3190   4.362   1.215   2.692
  764SOL    HW1 3191   4.437   1.154   2.715
  764SOL    HW2 3192   4.287   1.201   2.757
  765SOL     OW 3193   6.991   6.539   3.845
  765SOL    HW1 3194   7.004   6.441   3.858
  765SOL    HW2 3195   0.021   6.590   3.911
  766SOL     OW 3196   0.229   6.339   0.152
  766SOL    HW1 3197   0.322   6.323   0.185
  766SOL    HW2 3198   0.231   6.407   0.079
  767SOL     OW 3199   6.252   0.045   1.726
  767SOL    HW1 3200   6.168   0.062   1.777
  767SOL    HW2 3201   6.287   6.979   1.748
  768SOL     OW 3202   3.343   6.243   3.261
  768SOL    HW1 3203   3.300   6.207   3.344
  768SOL    HW2 3204   3.401   6.321   3.285
  769SOL     OW 3205   3.064   0.534   6.741
  769SOL    HW1 3206   3.134   0.507   6.675
  769SOL    HW2 3207   2.981   0.562   6.692
  770SOL     OW 3208   3.527   5.001   3.454
  770SOL    HW1 3209   3.525   4.964   3.361
  770SOL    HW2 3210   3.612   4.975   3.499
  771SOL     OW 3211   0.216   5.610   4.019
  771SOL    HW1 3212   0.312   5.639   4.015
  771SOL    HW2 3213   0.195   5.550   3.942
  772SOL     OW 3214   6.559   4.530   4.799
  772SOL    HW1 3215   6.470   4.563   4.831
  772SOL    HW2 3216   6.593   4.461   4.862
  773SOL     OW 3217   0.226   3.631   1.493
  773SOL    HW1 3218   0.258   3.718   1.455
  773SOL    HW2 3219   0.250   3.557   1.431
  774SOL     OW 3220   1.529   1.210   1.121
  774SOL    HW1 3221   1.605   1.164   1.166
  774SOL    HW2 3222   1.547   1.215   1.023
  775SOL     OW 3223   1.361   2.115   4.076
  775SOL    HW1 3224   1.324   2.198   4.034
  775SOL    HW2 3225   1.292   2.074   4.136
  776SOL     OW 3226   2.376   0.335   5.659
  776SOL    HW1 3227   2.295   0.295   5.702
  776SOL    HW2 3228   2.381   0.304   5.564
  777SOL     OW 3229   4.313   0.312   0.515
  777SOL    HW1 3230   4.287   0.408   0.513
  777SOL    HW2 3231   4.405   0.302   0.478
  778SOL     OW 3232   3.982   6.283   3.844
  778SOL    HW1 3233   4.044   6.216   3.885
  778SOL    HW2 3234   4.028   6.372   3.840
  779SOL     OW 3235   1.170   1.221   2.174
  779SOL    HW1 3236   1.194   1.150   2.240
  779SOL    HW2 3237   1.089   1.192   2.122
  780SOL     OW 3238   5.195   3.447   5.116
  780SOL    HW1 3239   5.231   3.530   5.158
  780SOL    HW2 3240   5.108   3.467   5.071
  781SOL     OW 3241   0.849   1.805   6.258
  781SOL    HW1 3242   0.760   1.792   6.303
  781SOL    HW2 3243   0.905   1.723   6.269
  782SOL     OW 3244   0.390   4.179   0.538
  782SOL    HW1 3245   0.333   4.098   0.545
  782SOL    HW2 3246   0.480   4.160   0.578
  783SOL     OW 3247   2.833   4.116   0.764
  783SOL    HW1 3248   2.748   4.087   0.719
  783SOL    HW2 3249   2.850   4.057   0.843
  784SOL     OW 3250   5.377   6.696   3.599
  784SOL    HW1 3251   5.306   6.627   3.586
  784SOL    HW2 3252   5.402   6.701   3.695
  785SOL     OW 3253   6.070   2.254   4.177
  785SOL    HW1 3254   6.167   2.246   4.202
  785SOL    HW2 3255   6.019   2.291   4.255
  786SOL     OW 3256   6.458   0.088   0.020
  786SOL    HW1 3257   6.505   0.163   7.000
  786SOL    HW2 3258   6.364   0.115   0.041
  787SOL     OW 3259   4.020   1.446   6.775
  787SOL    HW1 3260   3.986   1.423   6.867
  787SOL    HW2 3261   4.116   1.422   6.768
  788SOL     OW 3262   0.942   4.303   4.076
  788SOL    HW1 3263   0.861   4.313   4.018
  788SOL    HW2 3264   1.016   4.259   4.025
  789SOL     OW 3265   5.877   3.522   1.119
  789SOL    HW1 3266   5.790   3.494   1.079
  789SOL    HW2 3267   5.860   3.577   1.202
  790SOL     OW 3268   3.371   0.965   4.498
  790SOL    HW1 3269   3.426   1.011   4.428
  790SOL    HW2 3270   3.335   1.033   4.562
  791SOL     OW 3271   3.900   2.163   4.466
  791SOL    HW1 3272   3.812   2.202   4.495
  791SOL    HW2 3273   3.899   2.064   4.481
  792SOL     OW 3274   5.854   0.143   3.369
  792SOL    HW1 3275   5.776   0.204   3.353
  792SOL    HW2 3276   5.852   0.068   3.303
  793SOL     OW 3277   6.572   6.956   5.858
  793SOL    HW1 3278   6.482   6.979   5.895
  793SOL    HW2 3279   6.585   6.857   5.863
  794SOL     OW 3280   3.511   5.333   4.905
  794SOL    HW1 3281   3.513   5.239   4.941
  794SOL    HW2 3282   3.592   5.350   4.850
  795SOL     OW 3283   5.211   4.449   6.149
  795SOL    HW1 3284   5.122   4.493   6.163
  795SOL    HW2 3285   5.270   4.468   6.226
  796SOL     OW 3286   1.007   2.173   6.041
  796SOL    HW1 3287   0.937   2.103   6.056
  796SOL    HW2 3288   1.031   2.176   5.944
  797SOL     OW 3289   6.464   2.188   4.791
  797SOL    HW1 3290   6.522   2.266   4.768
  797SOL    HW2 3291   6.373   2.200   4.751
  798SOL     OW 3292   5.927   0.700   5.437
  798SOL    HW1 3293   6.018   0.731   5.408
  798SOL    HW2 3294   5.936   0.611   5.483
  799SOL     OW 3295   6.929   3.281   3.263
  799SOL    HW1 3296   6.875   3.295   3.180
  799SOL    HW2 3297   6.971   3.367   3.291
  800SOL     OW 3298   0.120   1.213   1.931
  800SOL    HW1 3299   0.033   1.169   1.951
  800SOL    HW2 3300   0.110   1.271   1.850
  801SOL     OW 3301   0.280   2.100   3.884
  801SOL    HW1 3302   0.353   2.034   3.862
  801SOL    HW2 3303   0.245   2.081   3.976
  802SOL     OW 3304   5.540   1.072   1.072
  802SOL    HW1 3305   5.450   1.041   1.104
  802SOL    HW2 3306   5.558   1.164   1.105
  803SOL     OW 3307   1.585   0.078   4.856
  803SOL    HW1 3308   1.548   0.102   4.946
  803SOL    HW2 3309   1.514   0.031   4.803
  804SOL     OW 3310   6.120   6.926   0.895
  804SOL    HW1 3311   6.050   6.860   0.922
  804SOL    HW2 3312   6.203   6.877   0.866
  805SOL     OW 3313   1.499   3.359   6.096
  805SOL    HW1 3314   1.519   3.262   6.085
  805SOL    HW2 3315   1.492   3.382   6.193
  806SOL     OW 3316   4.948   0.880   0.737
  806SOL    HW1 3317   4.875   0.934   0.695
  806SOL    HW2 3318   4.966   0.913   0.830
  807SOL     OW 3319   1.417   0.357   3.030
  807SOL    HW1 3320   1.476   0.279   3.049
  807SOL    HW2 3321   1.448   0.437   3.082
  808SOL     OW 3322   6.131   3.214   5.176
  808SOL    HW1 3323   6.213   3.259   5.212
  808SOL    HW2 3324   6.109   3.251   5.085
  809SOL     OW 3325   0.778   5.071   6.271
  809SOL    HW1 3326   0.686   5.104   6.289
  809SOL    HW2 3327   0.817   5.034   6.355
  810SOL     OW 3328   6.593   4.774   6.620
  810SOL    HW1 3329   6.629   4.722   6.542
  810SOL    HW2 3330   6.517   4.831   6.589
  811SOL     OW 3331   4.712   5.241   3.681
  811SOL    HW1 3332   4.734   5.150   3.716
  811SOL    HW2 3333   4.797   5.289   3.658
  812SOL     OW 3334   0.781   0.226   2.621
  812SOL    HW1 3335   0.831   0.179   2.693
  812SOL    HW2 3336   0.689   0.188   2.614
  813SOL     OW 3337   5.818   5.665   2.300
  813SOL    HW1 3338   5.805   5.573   2.338
  813SOL    HW2 3339   5.908   5.699   2.326
  814SOL     OW 3340   5.747   5.596   1.743
  814SOL    HW1 3341   5.729   5.638   1.831
  814SOL    HW2 3342   5.681   5.629   1.676
  815SOL     OW 3343   0.452   2.526   0.232
  815SOL    HW1 3344   0.451   2.490   0.325
  815SOL    HW2 3345   0.542   2.565   0.212
  816SOL     OW 3346   6.234   0.622   1.302
  816SOL    HW1 3347   6.182   0.605   1.218
  816SOL    HW2 3348   6.330   0.637   1.279
  817SOL     OW 3349   1.205   2.061   1.989
  817SOL    HW1 3350   1.184   2.047   2.086
  817SOL    HW2 3351   1.123   2.041   1.935
  818SOL     OW 3352   6.780   1.445   1.669
  818SOL    HW1 3353   6.871   1.411   1.694
  818SOL    HW2 3354   6.743   1.391   1.594
  819SOL     OW 3355   0.291   4.472   3.252
  819SOL    HW1 3356   0.338   4.385   3.237
  819SOL    HW2 3357   0.340   4.526   3.320
  820SOL     OW 3358   1.176   3.388   4.956
  820SOL    HW1 3359   1.169   3.290   4.938
  820SOL    HW2 3360   1.232   3.403   5.037
  821SOL     OW 3361   1.090   3.540   0.986
  821SOL    HW1 3362   1.083   3.483   1.068
  821SOL    HW2 3363   1.149   3.619   1.005
  822SOL     OW 3364   1.653   3.628   5.072
  822SOL    HW1 3365   1.721   3.631   5.145
  822SOL    HW2 3366   1.623   3.533   5.059
  823SOL     OW 3367   3.272   3.320   0.836
  823SOL    HW1 3368   3.356   3.285   0.793
  823SOL    HW2 3369   3.208   3.245   0.849
  824SOL     OW 3370   6.080   2.346   5.725
  824SOL    HW1 3371   6.145   2.275   5.696
  824SOL    HW2 3372   6.125   2.435   5.720
  825SOL     OW 3373   1.270   4.158   1.848
  825SOL    HW1 3374   1.360   4.160   1.805
  825SOL    HW2 3375   1.232   4.250   1.852
  826SOL     OW 3376   0.653   4.412   5.884
  826SOL    HW1 3377   0.710   4.465   5.822
  826SOL    HW2 3378   0.710   4.373   5.957
  827SOL     OW 3379   3.884   6.129   0.473
  827SOL    HW1 3380   3.947   6.051   0.479
  827SOL    HW2 3381   3.838   6.142   0.561
  828SOL     OW 3382   5.976   6.856   6.138
  828SOL    HW1 3383   5.974   6.760   6.110
  828SOL    HW2 3384   5.886   6.882   6.174
  829SOL     OW 3385   3.836   3.022   4.708
  829SOL    HW1 3386   3.935   3.025   4.698
  829SOL    HW2 3387   3.793   3.024   4.617
  830SOL     OW 3388   5.196   3.709   5.726
  830SOL    HW1 3389   5.264   3.782   5.717
  830SOL    HW2 3390   5.205   3.646   5.649
  831SOL     OW 3391   6.637   6.968   5.095
  831SOL    HW1 3392   6.736   6.971   5.108
  831SOL    HW2 3393   6.599   0.033   5.112
  832SOL     OW 3394   2.293   1.109   5.873
  832SOL    HW1 3395   2.347   1.077   5.951
  832SOL    HW2 3396   2.336   1.079   5.788
  833SOL     OW 3397   1.098   6.948   5.523
  833SOL    HW1 3398   1.016   6.922   5.473
  833SOL    HW2 3399   1.077   7.023   5.586
  834SOL     OW 3400   3.328   4.589   5.603
  834SOL    HW1 3401   3.311   4.653   5.677
  834SOL    HW2 3402   3.408   4.532   5.625
  835SOL     OW 3403   4.165   0.718   3.324
  835SOL    HW1 3404   4.250   0.675   3.354
  835SOL    HW2 3405   4.143   0.794   3.386
  836SOL     OW 3406   1.990   0.611   0.264
  836SOL    HW1 3407   2.022   0.704   0.282
  836SOL    HW2 3408   2.016   0.551   0.341
  837SOL     OW 3409   3.780   0.799   5.248
  837SOL    HW1 3410   3.726   0.884   5.246
  837SOL    HW2 3411   3.802   0.776   5.343
  838SOL     OW 3412   1.359   4.581   2.490
  838SOL    HW1 3413   1.372   4.634   2.573
  838SOL    HW2 3414   1.341   4.485   2.514
  839SOL     OW 3415   3.289   0.895   1.768
  839SOL    HW1 3416   3.287   0.807   1.719
  839SOL    HW2 3417   3.206   0.946   1.747
  840SOL     OW 3418   0.605   1.723   6.404
  840SOL    HW1 3419   0.606   1.642   6.345
  840SOL    HW2 3420   0.521   1.774   6.388
  841SOL     OW 3421   0.342   3.535   0.883
  841SOL    HW1 3422   0.287   3.490   0.954
  841SOL    HW2 3423   0.298   3.620   0.856
  842SOL     OW 3424   3.481   5.248   3.579
  842SOL    HW1 3425   3.503   5.163   3.531
  842SOL    HW2 3426   3.526   5.325   3.533
  843SOL     OW 3427   6.590   3.865   2.405
  843SOL    HW1 3428   6.641   3.787   2.440
  843SOL    HW2 3429   6.570   3.929   2.480
  844SOL     OW 3430   5.230   5.733   0.471
  844SOL    HW1 3431   5.255   5.640   0.497
  844SOL    HW2 3432   5.314   5.786   0.452
  845SOL     OW 3433   1.847   5.201   4.395
  845SOL    HW1 3434   1.786   5.129   4.428
  845SOL    HW2 3435   1.940   5.182   4.426
  846SOL     OW 3436   5.377   2.770   0.112
  846SOL    HW1 3437   5.446   2.825   0.159
  846SOL    HW2 3438   5.292   2.771   0.165
  847SOL     OW 3439   5.468   3.656   2.295
  847SOL    HW1 3440   5.460   3.755   2.286
  847SOL    HW2 3441   5.535   3.623   2.228
  848SOL     OW 3442   6.409   0.297   5.511
  848SOL    HW1 3443   6.422   0.202   5.539
  848SOL    HW2 3444   6.412   0.357   5.591
  849SOL     OW 3445   0.972   5.163   4.316
  849SOL    HW1 3446   0.907   5.151   4.242
  849SOL    HW2 3447   1.059   5.119   4.292
  850SOL     OW 3448   3.802   0.666   3.385
  850SOL    HW1 3449   3.811   0.593   3.452
  850SOL    HW2 3450   3.866   0.651   3.310
  851SOL     OW 3451   0.548   0.526   5.209
  851SOL    HW1 3452   0.490   0.525   5.128
  851SOL    HW2 3453   0.590   0.616   5.218
  852SOL     OW 3454   2.895   4.303   6.099
  852SOL    HW1 3455   2.864   4.285   6.006
  852SOL    HW2 3456   2.821   4.347   6.151
  853SOL     OW 3457   1.630   3.605   1.120
  853SOL    HW1 3458   1.562   3.554   1.172
  853SOL    HW2 3459   1.633   3.571   1.026
  854SOL     OW 3460   6.316   5.350   1.992
  854SOL    HW1 3461   6.404   5.388   2.020
  854SOL    HW2 3462   6.289   5.391   1.905
  855SOL     OW 3463   5.376   0.079   1.268
  855SOL    HW1 3464   5.329   7.017   1.285
  855SOL    HW2 3465   5.433   0.070   1.186
  856SOL     OW 3466   1.559   0.923   4.579
  856SOL    HW1 3467   1.562   0.841   4.637
  856SOL    HW2 3468   1.646   0.934   4.532
  857SOL     OW 3469   6.424   3.884   1.445
  857SOL    HW1 3470   6.327   3.904   1.453
  857SOL    HW2 3471   6.464   3.876   1.536
  858SOL     OW 3472   3.328   3.839   1.164
  858SOL    HW1 3473   3.408   3.880   1.119
  858SOL    HW2 3474   3.352   3.816   1.258
  859SOL     OW 3475   0.290   4.930   0.688
  859SOL    HW1 3476   0.206   4.925   0.634
  859SOL    HW2 3477   0.278   4.879   0.773
  860SOL     OW 3478   2.086   4.909   0.902
  860SOL    HW1 3479   2.109   4.996   0.946
  860SOL    HW2 3480   1.990   4.909   0.876
  861SOL     OW 3481   3.797   4.870   6.316
  861SOL    HW1 3482   3.877   4.853   6.260
  861SOL    HW2 3483   3.723   4.808   6.290
  862SOL     OW 3484   4.701   4.256   3.808
  862SOL    HW1 3485   4.765   4.296   3.873
  862SOL    HW2 3486   4.629   4.322   3.786
  863SOL     OW 3487   5.646   1.282   0.638
  863SOL    HW1 3488   5.564   1.302   0.691
  863SOL    HW2 3489   5.638   1.190   0.598
  864SOL     OW 3490   6.550   4.197   2.322
  864SOL    HW1 3491   6.539   4.291   2.353
  864SOL    HW2 3492   6.491   4.136   2.375
  865SOL     OW 3493   1.742   0.516   3.898
  865SOL    HW1 3494   1.811   0.516   3.970
  865SOL    HW2 3495   1.682   0.437   3.909
  866SOL     OW 3496   3.555   1.196   0.946
  866SOL    HW1 3497   3.552   1.120   0.881
  866SOL    HW2 3498   3.621   1.175   1.018
  867SOL     OW 3499   1.765   1.860   5.973
  867SOL    HW1 3500   1.679   1.828   6.012
  867SOL    HW2 3501   1.806   1.928   6.033
  868SOL     OW 3502   5.948   2.736   3.376
  868SOL    HW1 3503   5.956   2.721   3.474
  868SOL    HW2 3504   6.038   2.728   3.333
  869SOL     OW 3505   6.808   4.116   1.668
  869SOL    HW1 3506   6.794   4.041   1.733
  869SOL    HW2 3507   6.903   4.113   1.635
  870SOL     OW 3508   6.722   2.468   0.688
  870SOL    HW1 3509   6.627   2.500   0.686
  870SOL    HW2 3510   6.783   2.544   0.709
  871SOL     OW 3511   5.838   4.225   0.513
  871SOL    HW1 3512   5.922   4.228   0.568
  871SOL    HW2 3513   5.802   4.318   0.502
  872SOL     OW 3514   5.926   1.940   2.371
  872SOL    HW1 3515   5.922   1.954   2.470
  872SOL    HW2 3516   5.893   2.021   2.324
  873SOL     OW 3517   4.466   6.827   5.221
  873SOL    HW1 3518   4.497   6.732   5.226
  873SOL    HW2 3519   4.505   6.871   5.140
  874SOL     OW 3520   0.325   3.617   6.214
  874SOL    HW1 3521   0.388   3.602   6.139
  874SOL    HW2 3522   0.357   3.694   6.270
  875SOL     OW 3523   5.885   5.036   6.432
  875SOL    HW1 3524   5.958   4.992   6.485
  875SOL    HW2 3525   5.816   5.072   6.495
  876SOL     OW 3526   1.033   1.981   0.907
  876SOL    HW1 3527   1.068   2.016   0.820
  876SOL    HW2 3528   0.934   1.998   0.913
  877SOL     OW 3529   6.131   6.104   0.166
  877SOL    HW1 3530   6.042   6.069   0.197
  877SOL    HW2 3531   6.131   6.110   0.066
  878SOL     OW 3532   3.445   2.360   0.297
  878SOL    HW1 3533   3.405   2.430   0.355
  878SOL    HW2 3534   3.402   2.362   0.207
  879SOL     OW 3535   4.086   2.188   2.435
  879SOL    HW1 3536   4.109   2.099   2.474
  879SOL    HW2 3537   4.046   2.176   2.344
  880SOL     OW 3538   4.392   5.573   1.409
  880SOL    HW1 3539   4.318   5.613   1.355
  880SOL    HW2 3540   4.451   5.646   1.445
  881SOL     OW 3541   4.267   5.272   4.257
  881SOL    HW1 3542   4.343   5.316   4.208
  881SOL    HW2 3543   4.241   5.328   4.335
  882SOL     OW 3544   0.952   2.133   4.063
  882SOL    HW1 3545   0.863   2.161   4.027
  882SOL    HW2 3546   1.018   2.126   3.989
  883SOL     OW 3547   3.884   4.384   0.090
  883SOL    HW1 3548   3.942   4.365   0.011
  883SOL    HW2 3549   3.788   4.371   0.064
  884SOL     OW 3550   4.177   3.791   1.745
  884SOL    HW1 3551   4.234   3.709   1.747
  884SOL    HW2 3552   4.126   3.798   1.831
  885SOL     OW 3553   4.502   6.159   6.553
  885SOL    HW1 3554   4.570   6.206   6.610
  885SOL    HW2 3555   4.428   6.222   6.531
  886SOL     OW 3556   3.912   1.908   6.461
  886SOL    HW1 3557   3.900   1.848   6.541
  886SOL    HW2 3558   3.913   2.003   6.491
  887SOL     OW 3559   5.502   0.044   6.085
  887SOL    HW1 3560   5.506   0.102   6.004
  887SOL    HW2 3561   5.561   0.082   6.156
  888SOL     OW 3562   6.813   5.977   3.528
  888SOL    HW1 3563   6.879   5.978   3.453
  888SOL    HW2 3564   6.799   6.070   3.562
  889SOL     OW 3565   1.414   0.003   4.632
  889SOL    HW1 3566   1.357   0.065   4.578
  889SOL    HW2 3567   1.358   6.981   4.699
  890SOL     OW 3568   1.708   4.532   2.233
  890SOL    HW1 3569   1.741   4.463   2.168
  890SOL    HW2 3570   1.609   4.540   2.225
  891SOL     OW 3571   5.783   3.578   6.192
  891SOL    HW1 3572   5.768   3.676   6.207
  891SOL    HW2 3573   5.857   3.547   6.253
  892SOL     OW 3574   2.194   5.407   1.620
  892SOL    HW1 3575   2.270   5.435   1.562
  892SOL    HW2 3576   2.229   5.366   1.704
  893SOL     OW 3577   1.779   6.462   1.389
  893SOL    HW1 3578   1.843   6.536   1.369
  893SOL    HW2 3579   1.691   6.481   1.347
  894SOL     OW 3580   1.117   5.019   3.809
  894SOL    HW1 3581   1.168   5.100   3.838
  894SOL    HW2 3582   1.139   4.998   3.714
  895SOL     OW 3583   2.198   0.738   4.778
  895SOL    HW1 3584   2.273   0.785   4.824
  895SOL    HW2 3585   2.147   0.803   4.722
  896SOL     OW 3586   5.455   0.071   3.399
  896SOL    HW1 3587   5.372   0.021   3.425
  896SOL    HW2 3588   5.533   0.009   3.401
  897SOL     OW 3589   4.799   1.873   6.113
  897SOL    HW1 3590   4.745   1.951   6.145
  897SOL    HW2 3591   4.738   1.797   6.091
  898SOL     OW 3592   5.625   5.516   3.863
  898SOL    HW1 3593   5.543   5.472   3.827
  898SOL    HW2 3594   5.603   5.561   3.949
  899SOL     OW 3595   1.313   4.351   0.122
  899SOL    HW1 3596   1.274   4.330   0.032
  899SOL    HW2 3597   1.382   4.422   0.112
  900SOL     OW 3598   0.543   5.690   3.456
  900SOL    HW1 3599   0.613   5.755   3.426
  900SOL    HW2 3600   0.533   5.694   3.555
  901SOL     OW 3601   5.869   1.802   3.370
  901SOL    HW1 3602   5.777   1.841   3.366
  901SOL    HW2 3603   5.914   1.830   3.455
  902SOL     OW 3604   0.825   6.131   0.134
  902SOL    HW1 3605   0.870   6.047   0.165
  902SOL    HW2 3606   0.885   6.209   0.151
  903SOL     OW 3607   0.556   5.008   6.480
  903SOL    HW1 3608   0.485   4.943   6.455
  903SOL    HW2 3609   0.627   4.962   6.533
  904SOL     OW 3610   1.834   0.883   3.639
  904SOL    HW1 3611   1.906   0.856   3.703
  904SOL    HW2 3612   1.745   0.855   3.675
  905SOL     OW 3613   6.155   1.712   5.302
  905SOL    HW1 3614   6.180   1.615   5.304
  905SOL    HW2 3615   6.231   1.765   5.263
  906SOL     OW 3616   6.622   4.192   5.408
  906SOL    HW1 3617   6.578   4.157   5.325
  906SOL    HW2 3618   6.571   4.159   5.488
  907SOL     OW 3619   0.094   3.132   1.564
  907SOL    HW1 3620   0.052   3.154   1.652
  907SOL    HW2 3621   0.156   3.055   1.574
  908SOL     OW 3622   2.393   0.771   2.940
  908SOL    HW1 3623   2.335   0.779   2.859
  908SOL    HW2 3624   2.364   0.838   3.008
  909SOL     OW 3625   4.441   0.174   1.106
  909SOL    HW1 3626   4.473   0.269   1.113
  909SOL    HW2 3627   4.511   0.113   1.143
  910SOL     OW 3628   1.987   1.606   1.731
  910SOL    HW1 3629   1.958   1.681   1.671
  910SOL    HW2 3630   1.929   1.604   1.813
  911SOL     OW 3631   0.194   3.821   0.755
  911SOL    HW1 3632   0.138   3.818   0.838
  911SOL    HW2 3633   0.270   3.884   0.768
  912SOL     OW 3634   0.772   0.452   6.095
  912SOL    HW1 3635   0.774   0.487   6.189
  912SOL    HW2 3636   0.768   0.352   6.097
  913SOL     OW 3637   1.900   1.124   1.821
  913SOL    HW1 3638   1.884   1.036   1.866
  913SOL    HW2 3639   1.838   1.193   1.858
  914SOL     OW 3640   2.783   6.050   2.631
  914SOL    HW1 3641   2.735   6.137   2.641
  914SOL    HW2 3642   2.761   5.991   2.709
  915SOL     OW 3643   1.426   2.515   0.447
  915SOL    HW1 3644   1.416   2.613   0.431
  915SOL    HW2 3645   1.356   2.484   0.510
  916SOL     OW 3646   1.678   3.081   2.213
  916SOL    HW1 3647   1.740   3.156   2.233
  916SOL    HW2 3648   1.588   3.117   2.190
  917SOL     OW 3649   3.309   1.819   6.626
  917SOL    HW1 3650   3.299   1.876   6.707
  917SOL    HW2 3651   3.249   1.854   6.553
  918SOL     OW 3652   0.498   0.923   5.394
  918SOL    HW1 3653   0.405   0.891   5.381
  918SOL    HW2 3654   0.534   0.887   5.480
  919SOL     OW 3655   1.848   6.730   0.977
  919SOL    HW1 3656   1.852   6.638   0.938
  919SOL    HW2 3657   1.769   6.736   1.038
  920SOL     OW 3658   1.939   1.096   3.523
  920SOL    HW1 3659   2.028   1.115   3.564
  920SOL    HW2 3660   1.900   1.013   3.565
  921SOL     OW 3661   4.561   4.341   0.409
  921SOL    HW1 3662   4.579   4.363   0.313
  921SOL    HW2 3663   4.572   4.242   0.423
  922SOL     OW 3664   2.034   5.013   6.288
  922SOL    HW1 3665   2.104   4.955   6.246
  922SOL    HW2 3666   2.065   5.108   6.287
  923SOL     OW 3667   3.738   1.439   6.736
  923SOL    HW1 3668   3.664   1.412   6.675
  923SOL    HW2 3669   3.729   1.536   6.758
  924SOL     OW 3670   6.861   4.544   2.504
  924SOL    HW1 3671   6.946   4.537   2.451
  924SOL    HW2 3672   6.838   4.641   2.518
  925SOL     OW 3673   6.889   1.750   3.002
  925SOL    HW1 3674   6.927   1.714   3.088
  925SOL    HW2 3675   6.923   1.842   2.987
  926SOL     OW 3676   5.295   6.436   0.313
  926SOL    HW1 3677   5.283   6.367   0.384
  926SOL    HW2 3678   5.389   6.432   0.278
  927SOL     OW 3679   4.770   5.528   4.757
  927SOL    HW1 3680   4.805   5.456   4.696
  927SOL    HW2 3681   4.670   5.526   4.756
  928SOL     OW 3682   0.533   1.280   1.264
  928SOL    HW1 3683   0.627   1.300   1.291
  928SOL    HW2 3684   0.472   1.347   1.307
  929SOL     OW 3685   0.286   2.466   2.604
  929SOL    HW1 3686   0.309   2.527   2.680
  929SOL    HW2 3687   0.298   2.515   2.518
  930SOL     OW 3688   5.456   5.366   2.553
  930SOL    HW1 3689   5.541   5.313   2.553
  930SOL    HW2 3690   5.434   5.393   2.646
  931SOL     OW 3691   1.855   3.053   1.847
  931SOL    HW1 3692   1.832   3.130   1.907
  931SOL    HW2 3693   1.946   3.068   1.808
  932SOL     OW 3694   4.617   6.502   1.198
  932SOL    HW1 3695   4.617   6.559   1.116
  932SOL    HW2 3696   4.528   6.508   1.242
  933SOL     OW 3697   1.370   6.261   4.287
  933SOL    HW1 3698   1.454   6.223   4.249
  933SOL    HW2 3699   1.297   6.193   4.280
  934SOL     OW 3700   3.004   0.838   5.701
  934SOL    HW1 3701   3.012   0.770   5.775
  934SOL    HW2 3702   3.027   0.795   5.614
  935SOL     OW 3703   1.664   3.554   5.718
  935SOL    HW1 3704   1.573   3.580   5.750
  935SOL    HW2 3705   1.719   3.524   5.796
  936SOL     OW 3706   0.439   1.898   1.552
  936SOL    HW1 3707   0.480   1.833   1.617
  936SOL    HW2 3708   0.506   1.919   1.480
  937SOL     OW 3709   5.215   2.341   3.300
  937SOL    HW1 3710   5.295   2.387   3.261
  937SOL    HW2 3711   5.154   2.410   3.339
  938SOL     OW 3712   6.767   1.175   6.915
  938SOL    HW1 3713   6.701   1.190   6.841
  938SOL    HW2 3714   6.860   1.183   6.878
  939SOL     OW 3715   6.409   0.678   5.181
  939SOL    HW1 3716   6.384   0.584   5.205
  939SOL    HW2 3717   6.417   0.733   5.265
  940SOL     OW 3718   0.347   0.649   4.021
  940SOL    HW1 3719   0.353   0.745   4.048
  940SOL    HW2 3720   0.261   0.633   3.972
  941SOL     OW 3721   5.669   2.527   5.583
  941SOL    HW1 3722   5.704   2.433   5.589
  941SOL    HW2 3723   5.600   2.542   5.653
  942SOL     OW 3724   4.748   0.649   5.621
  942SOL    HW1 3725   4.684   0.586   5.577
  942SOL    HW2 3726   4.788   0.709   5.551
  943SOL     OW 3727   5.348   1.878   6.950
  943SOL    HW1 3728   5.389   1.862   6.860
  943SOL    HW2 3729   5.411   1.847   7.021
  944SOL     OW 3730   5.229   4.328   4.934
  944SOL    HW1 3731   5.236   4.245   4.989
  944SOL    HW2 3732   5.320   4.355   4.902
  945SOL     OW 3733   5.536   3.522   5.848
  945SOL    HW1 3734   5.442   3.532   5.880
  945SOL    HW2 3735   5.543   3.442   5.790
  946SOL     OW 3736   5.613   3.402   6.335
  946SOL    HW1 3737   5.668   3.456   6.272
  946SOL    HW2 3738   5.594   3.312   6.295
  947SOL     OW 3739   1.018   2.651   5.226
  947SOL    HW1 3740   0.938   2.699   5.190
  947SOL    HW2 3741   1.043   2.576   5.164
  948SOL     OW 3742   4.042   1.902   0.456
  948SOL    HW1 3743   4.020   1.992   0.418
  948SOL    HW2 3744   4.027   1.903   0.555
  949SOL     OW 3745   5.733   5.872   6.424
  949SOL    HW1 3746   5.670   5.929   6.371
  949SOL    HW2 3747   5.801   5.931   6.467
  950SOL     OW 3748   3.883   5.493   0.710
  950SOL    HW1 3749   3.896   5.422   0.641
  950SOL    HW2 3750   3.972   5.528   0.739
  951SOL     OW 3751   0.394   2.662   4.079
  951SOL    HW1 3752   0.366   2.734   4.015
  951SOL    HW2 3753   0.316   2.632   4.133
  952SOL     OW 3754   5.068   1.308   1.501
  952SOL    HW1 3755   4.973   1.333   1.482
  952SOL    HW2 3756   5.129   1.369   1.450
  953SOL     OW 3757   3.629   6.679   5.978
  953SOL    HW1 3758   3.645   6.774   6.008
  953SOL    HW2 3759   3.532   6.666   5.961
  954SOL     OW 3760   0.040   7.012   1.594
  954SOL    HW1 3761   7.023   0.010   1.506
  954SOL    HW2 3762   0.131   0.029   1.599
  955SOL     OW 3763   0.388   7.016   2.142
  955SOL    HW1 3764   0.389   0.091   2.142
  955SOL    HW2 3765   0.328   6.983   2.069
  956SOL     OW 3766   1.163   2.695   0.513
  956SOL    HW1 3767   1.157   2.603   0.474
  956SOL    HW2 3768   1.154   2.762   0.439
  957SOL     OW 3769   2.100   6.518   4.925
  957SOL    HW1 3770   2.070   6.425   4.905
  957SOL    HW2 3771   2.200   6.520   4.931
  958SOL     OW 3772   4.918   2.482   0.553
  958SOL    HW1 3773   4.909   2.455   0.649
  958SOL    HW2 3774   4.921   2.400   0.495
  959SOL     OW 3775   1.683   3.624   1.681
  959SOL    HW1 3776   1.756   3.671   1.730
  959SOL    HW2 3777   1.629   3.570   1.745
  960SOL     OW 3778   1.539   5.534   5.438
  960SOL    HW1 3779   1.536   5.508   5.534
  960SOL    HW2 3780   1.511   5.630   5.428
  961SOL     OW 3781   3.886   6.977   0.526
  961SOL    HW1 3782   3.878   0.047   0.557
  961SOL    HW2 3783   3.801   6.949   0.483
  962SOL     OW 3784   1.321   6.562   4.072
  962SOL    HW1 3785   1.309   6.622   4.152
  962SOL    HW2 3786   1.300   6.468   4.097
  963SOL     OW 3787   6.212   0.067   2.116
  963SOL    HW1 3788   6.262   0.098   2.197
  963SOL    HW2 3789   6.262   7.017   2.073
  964SOL     OW 3790   5.323   3.287   1.089
  964SOL    HW1 3791   5.294   3.217   1.154
  964SOL    HW2 3792   5.332   3.375   1.136
  965SOL     OW 3793   1.287   1.735   0.172
  965SOL    HW1 3794   1.310   1.829   0.197
  965SOL    HW2 3795   1.350   1.702   0.103
  966SOL     OW 3796   6.873   2.562   1.908
  966SOL    HW1 3797   6.865   2.595   2.002
  966SOL    HW2 3798   6.843   2.466   1.904
  967SOL     OW 3799   0.803   6.229   2.246
  967SOL    HW1 3800   0.888   6.240   2.194
  967SOL    HW2 3801   0.818   6.258   2.340
  968SOL     OW 3802   6.795   4.209   1.098
  968SOL    HW1 3803   6.722   4.159   1.050
  968SOL    HW2 3804   6.827   4.155   1.175
  969SOL     OW 3805   3.980   6.508   6.652
  969SOL    HW1 3806   3.961   6.467   6.562
  969SOL    HW2 3807   3.984   6.437   6.721
  970SOL     OW 3808   4.715   2.637   5.407
  970SOL    HW1 3809   4.716   2.547   5.364
  970SOL    HW2 3810   4.635   2.645   5.467
  971SOL     OW 3811   7.021   2.793   0.512
  971SOL    HW1 3812   6.992   2.821   0.420
  971SOL    HW2 3813   0.042   2.870   0.556
  972SOL     OW 3814   5.817   6.439   0.662
  972SOL    HW1 3815   5.720   6.444   0.687
  972SOL    HW2 3816   5.865   6.380   0.726
  973SOL     OW 3817   5.381   3.524   5.388
  973SOL    HW1 3818   5.459   3.501   5.446
  973SOL    HW2 3819   5.374   3.624   5.379
  974SOL     OW 3820   2.907   1.034   5.013
  974SOL    HW1 3821   2.877   1.118   5.059
  974SOL    HW2 3822   2.859   0.955   5.053
  975SOL     OW 3823   3.187   6.604   5.458
  975SOL    HW1 3824   3.249   6.569   5.528
  975SOL    HW2 3825   3.146   6.690   5.490
  976SOL     OW 3826   7.019   5.727   3.455
  976SOL    HW1 3827   0.057   5.760   3.526
  976SOL    HW2 3828   7.023   5.788   3.376
  977SOL     OW 3829   1.335   2.674   1.694
  977SOL    HW1 3830   1.264   2.719   1.640
  977SOL    HW2 3831   1.294   2.627   1.772
  978SOL     OW 3832   5.783   3.379   4.753
  978SOL    HW1 3833   5.719   3.315   4.797
  978SOL    HW2 3834   5.736   3.427   4.679
  979SOL     OW 3835   6.113   1.709   3.653
  979SOL    HW1 3836   6.067   1.623   3.676
  979SOL    HW2 3837   6.210   1.691   3.634
  980SOL     OW 3838   6.666   0.381   4.574
  980SOL    HW1 3839   6.611   0.464   4.586
  980SOL    HW2 3840   6.755   0.405   4.536
  981SOL     OW 3841   6.897   3.297   5.646
  981SOL    HW1 3842   6.967   3.242   5.600
  981SOL    HW2 3843   6.934   3.330   5.733
  982SOL     OW 3844   1.740   3.358   1.488
  982SOL    HW1 3845   1.702   3.271   1.520
  982SOL    HW2 3846   1.667   3.426   1.482
  983SOL     OW 3847   5.872   2.015   2.644
  983SOL    HW1 3848   5.859   2.111   2.617
  983SOL    HW2 3849   5.843   2.003   2.739
  984SOL     OW 3850   4.926   2.231   5.348
  984SOL    HW1 3851   4.827   2.240   5.363
  984SOL    HW2 3852   4.943   2.202   5.254
  985SOL     OW 3853   2.649   5.028   0.769
  985SOL    HW1 3854   2.701   4.999   0.849
  985SOL    HW2 3855   2.657   5.128   0.758
  986SOL     OW 3856   4.052   4.738   0.052
  986SOL    HW1 3857   4.053   4.662   7.012
  986SOL    HW2 3858   4.050   4.825   0.002
  987SOL     OW 3859   3.565   6.764   2.588
  987SOL    HW1 3860   3.469   6.764   2.559
  987SOL    HW2 3861   3.576   6.699   2.663
  988SOL     OW 3862   3.178   3.025   1.634
  988SOL    HW1 3863   3.215   3.034   1.541
  988SOL    HW2 3864   3.159   3.116   1.671
  989SOL     OW 3865   0.467   0.117   4.488
  989SOL    HW1 3866   0.504   0.128   4.395
  989SOL    HW2 3867   0.444   0.207   4.525
  990SOL     OW 3868   4.975   6.123   2.786
  990SOL    HW1 3869   4.921   6.196   2.743
  990SOL    HW2 3870   5.068   6.156   2.804
  991SOL     OW 3871   6.232   1.266   5.136
  991SOL    HW1 3872   6.329   1.278   5.116
  991SOL    HW2 3873   6.182   1.248   5.052
  992SOL     OW 3874   6.946   3.066   1.360
  992SOL    HW1 3875   6.992   3.100   1.442
  992SOL    HW2 3876   6.854   3.033   1.384
  993SOL     OW 3877   3.694   5.674   4.368
  993SOL    HW1 3878   3.715   5.593   4.422
  993SOL    HW2 3879   3.615   5.655   4.310
  994SOL     OW 3880   2.940   3.664   1.883
  994SOL    HW1 3881   3.032   3.661   1.843
  994SOL    HW2 3882   2.874   3.627   1.817
  995SOL     OW 3883   0.480   1.342   4.968
  995SOL    HW1 3884   0.570   1.359   5.007
  995SOL    HW2 3885   0.413   1.327   5.041
  996SOL     OW 3886   0.871   3.476   1.297
  996SOL    HW1 3887   0.878   3.574   1.277
  996SOL    HW2 3888   0.808   3.462   1.374
  997SOL     OW 3889   0.279   0.902   0.998
  997SOL    HW1 3890   0.353   0.851   0.954
  997SOL    HW2 3891   0.234   0.960   0.929
  998SOL     OW 3892   4.602   7.005   3.744
  998SOL    HW1 3893   4.658   6.926   3.720
  998SOL    HW2 3894   4.648   0.034   3.815
  999SOL     OW 3895   6.775   5.651   1.919
  999SOL    HW1 3896   6.815   5.716   1.854
  999SOL    HW2 3897   6.778   5.559   1.879
 1000SOL     OW 3898   4.355   2.375   4.540
 1000SOL    HW1 3899   4.277   2.329   4.499
 1000SOL    HW2 3900   4.338   2.391   4.637
 1001SOL     OW 3901   3.823   1.208   5.759
 1001SOL    HW1 3902   3.895   1.154   5.802
 1001SOL    HW2 3903   3.854   1.302   5.747
 1002SOL     OW 3904   0.062   1.321   0.086
 1002SOL    HW1 3905   0.124   1.322   0.165
 1002SOL    HW2 3906   6.992   1.316   0.118
 1003SOL     OW 3907   4.705   4.815   2.950
 1003SOL    HW1 3908   4.640   4.809   3.026
 1003SOL    HW2 3909   4.667   4.767   2.871
 1004SOL     OW 3910   6.091   5.464   0.378
 1004SOL    HW1 3911   6.140   5.504   0.300
 1004SOL    HW2 3912   6.022   5.528   0.410
 1005SOL     OW 3913   6.784   5.621   3.480
 1005SOL    HW1 3914   6.749   5.664   3.563
 1005SOL    HW2 3915   6.880   5.645   3.469
 1006SOL     OW 3916   2.413   4.640   0.649
 1006SOL    HW1 3917   2.443   4.544   0.653
 1006SOL    HW2 3918   2.431   4.684   0.737
 1007SOL     OW 3919   1.333   0.792   3.269
 1007SOL    HW1 3920   1.369   0.844   3.347
 1007SOL    HW2 3921   1.409   0.759   3.213
 1008SOL     OW 3922   2.790   2.191   4.318
 1008SOL    HW1 3923   2.719   2.128   4.349
 1008SOL    HW2 3924   2.880   2.154   4.342
 1009SOL     OW 3925   2.650   5.857   5.086
 1009SOL    HW1 3926   2.742   5.875   5.120
 1009SOL    HW2 3927   2.651   5.775   5.029
 1010SOL     OW 3928   4.373   0.923   6.605
 1010SOL    HW1 3929   4.470   0.915   6.584
 1010SOL    HW2 3930   4.320   0.919   6.520
 1011SOL     OW 3931   3.569   5.785   3.965
 1011SOL    HW1 3932   3.512   5.763   4.044
 1011SOL    HW2 3933   3.532   5.740   3.884
 1012SOL     OW 3934   3.576   5.469   0.079
 1012SOL    HW1 3935   3.479   5.493   0.085
 1012SOL    HW2 3936   3.623   5.500   0.162
 1013SOL     OW 3937   0.146   1.045   0.527
 1013SOL    HW1 3938   0.095   1.122   0.490
 1013SOL    HW2 3939   0.147   0.970   0.461
 1014SOL     OW 3940   4.917   0.622   6.389
 1014SOL    HW1 3941   4.916   0.690   6.463
 1014SOL    HW2 3942   4.962   0.662   6.309
 1015SOL     OW 3943   3.746   6.840   4.672
 1015SOL    HW1 3944   3.792   6.872   4.589
 1015SOL    HW2 3945   3.813   6.808   4.738
 1016SOL     OW 3946   4.483   2.420   2.142
 1016SOL    HW1 3947   4.486   2.461   2.050
 1016SOL    HW2 3948   4.514   2.487   2.209
 1017SOL     OW 3949   4.851   1.664   6.845
 1017SOL    HW1 3950   4.778   1.722   6.809
 1017SOL    HW2 3951   4.842   1.571   6.809
 1018SOL     OW 3952   1.366   2.964   1.765
 1018SOL    HW1 3953   1.389   2.868   1.750
 1018SOL    HW2 3954   1.380   3.016   1.680
 1019SOL     OW 3955   5.699   0.982   0.415
 1019SOL    HW1 3956   5.792   1.010   0.391
 1019SOL    HW2 3957   5.670   0.908   0.354
 1020SOL     OW 3958   3.426   2.084   1.244
 1020SOL    HW1 3959   3.394   2.048   1.157
 1020SOL    HW2 3960   3.411   2.015   1.316
 1021SOL     OW 3961   6.522   1.148   0.910
 1021SOL    HW1 3962   6.527   1.234   0.859
 1021SOL    HW2 3963   6.553   1.163   1.004
 1022SOL     OW 3964   3.348   2.350   0.034
 1022SOL    HW1 3965   3.389   2.264   0.005
 1022SOL    HW2 3966   3.386   2.426   7.007
 1023SOL     OW 3967   5.645   0.764   4.377
 1023SOL    HW1 3968   5.546   0.769   4.387
 1023SOL    HW2 3969   5.677   0.841   4.322
 1024SOL     OW 3970   6.319   1.348   4.020
 1024SOL    HW1 3971   6.238   1.405   4.006
 1024SOL    HW2 3972   6.340   1.342   4.117
 1025SOL     OW 3973   3.298   4.479   1.458
 1025SOL    HW1 3974   3.208   4.498   1.419
 1025SOL    HW2 3975   3.296   4.391   1.507
 1026SOL     OW 3976   0.792   3.115   6.608
 1026SOL    HW1 3977   0.879   3.163   6.595
 1026SOL    HW2 3978   0.764   3.121   6.704
 1027SOL     OW 3979   2.419   4.910   2.372
 1027SOL    HW1 3980   2.406   4.813   2.391
 1027SOL    HW2 3981   2.455   4.922   2.280
 1028SOL     OW 3982   0.801   6.390   0.653
 1028SOL    HW1 3983   0.854   6.452   0.596
 1028SOL    HW2 3984   0.717   6.364   0.605
 1029SOL     OW 3985   3.399   0.845   5.343
 1029SOL    HW1 3986   3.423   0.939   5.369
 1029SOL    HW2 3987   3.437   0.825   5.252
 1030SOL     OW 3988   3.775   4.329   5.325
 1030SOL    HW1 3989   3.839   4.259   5.293
 1030SOL    HW2 3990   3.682   4.304   5.299
 1031SOL     OW 3991   2.011   5.432   0.986
 1031SOL    HW1 3992   2.032   5.425   0.888
 1031SOL    HW2 3993   2.092   5.465   1.034
 1032SOL     OW 3994   1.695   1.225   4.618
 1032SOL    HW1 3995   1.718   1.242   4.522
 1032SOL    HW2 3996   1.717   1.305   4.673
 1033SOL     OW 3997   2.592   6.323   3.483
 1033SOL    HW1 3998   2.542   6.402   3.448
 1033SOL    HW2 3999   2.624   6.342   3.576
 1034SOL     OW 4000   1.351   6.562   2.111
 1034SOL    HW1 4001   1.285   6.606   2.050
 1034SOL    HW2 4002   1.404   6.494   2.060
 1035SOL     OW 4003   3.013   0.538   4.044
 1035SOL    HW1 4004   3.059   0.515   3.957
 1035SOL    HW2 4005   2.923   0.576   4.025
 1036SOL     OW 4006   4.301   6.828   6.309
 1036SOL    HW1 4007   4.285   6.803   6.405
 1036SOL    HW2 4008   4.397   6.814   6.287
 1037SOL     OW 4009   2.702   1.952   6.560
 1037SOL    HW1 4010   2.691   1.904   6.473
 1037SOL    HW2 4011   2.796   1.939   6.593
 1038SOL     OW 4012   2.516   1.212   5.402
 1038SOL    HW1 4013   2.502   1.207   5.501
 1038SOL    HW2 4014   2.435   1.176   5.355
 1039SOL     OW 4015   4.340   2.068   3.427
 1039SOL    HW1 4016   4.333   2.166   3.444
 1039SOL    HW2 4017   4.404   2.051   3.351
 1040SOL     OW 4018   5.849   3.935   4.065
 1040SOL    HW1 4019   5.823   3.953   4.160
 1040SOL    HW2 4020   5.814   4.008   4.006
 1041SOL     OW 4021   1.674   6.858   4.365
 1041SOL    HW1 4022   1.665   6.888   4.460
 1041SOL    HW2 4023   1.740   6.916   4.318
 1042SOL     OW 4024   4.888   3.671   0.998
 1042SOL    HW1 4025   4.945   3.746   0.962
 1042SOL    HW2 4026   4.941   3.619   1.065
 1043SOL     OW 4027   3.328   7.011   6.785
 1043SOL    HW1 4028   3.356   6.955   6.862
 1043SOL    HW2 4029   3.257   6.964   6.733
 1044SOL     OW 4030   3.946   3.940   1.929
 1044SOL    HW1 4031   3.962   4.034   1.898
 1044SOL    HW2 4032   4.020   3.912   1.991
 1045SOL     OW 4033   3.716   1.542   3.508
 1045SOL    HW1 4034   3.806   1.534   3.464
 1045SOL    HW2 4035   3.698   1.460   3.561
 1046SOL     OW 4036   3.596   1.075   2.068
 1046SOL    HW1 4037   3.661   0.999   2.066
 1046SOL    HW2 4038   3.639   1.153   2.113
 1047SOL     OW 4039   0.777   5.356   1.805
 1047SOL    HW1 4040   0.688   5.368   1.760
 1047SOL    HW2 4041   0.784   5.419   1.882
 1048SOL     OW 4042   6.419   4.753   5.121
 1048SOL    HW1 4043   6.422   4.850   5.099
 1048SOL    HW2 4044   6.510   4.713   5.107
 1049SOL     OW 4045   0.785   3.418   4.657
 1049SOL    HW1 4046   0.809   3.321   4.657
 1049SOL    HW2 4047   0.690   3.429   4.630
 1050SOL     OW 4048   2.933   0.638   0.117
 1050SOL    HW1 4049   2.942   0.699   0.039
 1050SOL    HW2 4050   3.010   0.651   0.180
 1051SOL     OW 4051   4.718   4.680   2.472
 1051SOL    HW1 4052   4.623   4.690   2.443
 1051SOL    HW2 4053   4.748   4.586   2.456
 1052SOL     OW 4054   3.585   0.332   4.321
 1052SOL    HW1 4055   3.528   0.411   4.344
 1052SOL    HW2 4056   3.669   0.364   4.277
 1053SOL     OW 4057   3.783   5.104   3.299
 1053SOL    HW1 4058   3.806   5.047   3.379
 1053SOL    HW2 4059   3.698   5.072   3.259
 1054SOL     OW 4060   4.048   6.278   4.198
 1054SOL    HW1 4061   4.055   6.269   4.297
 1054SOL    HW2 4062   3.953   6.266   4.170
 1055SOL     OW 4063   4.166   5.781   3.591
 1055SOL    HW1 4064   4.186   5.686   3.616
 1055SOL    HW2 4065   4.131   5.784   3.498
 1056SOL     OW 4066   1.812   5.640   5.757
 1056SOL    HW1 4067   1.732   5.595   5.796
 1056SOL    HW2 4068   1.830   5.603   5.666
 1057SOL     OW 4069   3.770   3.999   1.229
 1057SOL    HW1 4070   3.786   4.046   1.316
 1057SOL    HW2 4071   3.780   3.900   1.242
 1058SOL     OW 4072   3.341   6.948   1.992
 1058SOL    HW1 4073   3.344   0.020   2.015
 1058SOL    HW2 4074   3.360   6.936   1.895
 1059SOL     OW 4075   3.440   0.928   0.531
 1059SOL    HW1 4076   3.363   0.866   0.515
 1059SOL    HW2 4077   3.474   0.962   0.444
 1060SOL     OW 4078   2.154   1.739   4.374
 1060SOL    HW1 4079   2.055   1.738   4.387
 1060SOL    HW2 4080   2.198   1.783   4.452
 1061SOL     OW 4081   3.126   5.821   1.392
 1061SOL    HW1 4082   3.218   5.855   1.377
 1061SOL    HW2 4083   3.068   5.845   1.313
 1062SOL     OW 4084   5.093   4.778   5.237
 1062SOL    HW1 4085   5.190   4.755   5.244
 1062SOL    HW2 4086   5.076   4.828   5.152
 1063SOL     OW 4087   2.539   3.244   5.913
 1063SOL    HW1 4088   2.469   3.239   5.984
 1063SOL    HW2 4089   2.553   3.153   5.873
 1064SOL     OW 4090   0.430   3.570   1.971
 1064SOL    HW1 4091   0.523   3.563   1.934
 1064SOL    HW2 4092   0.364   3.546   1.900
 1065SOL     OW 4093   4.430   4.819   5.444
 1065SOL    HW1 4094   4.530   4.825   5.445
 1065SOL    HW2 4095   4.397   4.822   5.350
 1066SOL     OW 4096   4.083   6.894   3.096
 1066SOL    HW1 4097   4.088   6.909   3.195
 1066SOL    HW2 4098   3.987   6.878   3.070
 1067SOL     OW 4099   2.689   3.328   0.685
 1067SOL    HW1 4100   2.767   3.323   0.623
 1067SOL    HW2 4101   2.709   3.275   0.768
 1068SOL     OW 4102   0.367   4.358   0.932
 1068SOL    HW1 4103   0.349   4.448   0.892
 1068SOL    HW2 4104   0.465   4.339   0.928
 1069SOL     OW 4105   3.469   3.302   1.809
 1069SOL    HW1 4106   3.425   3.366   1.747
 1069SOL    HW2 4107   3.494   3.349   1.894
 1070SOL     OW 4108   2.578   6.760   0.813
 1070SOL    HW1 4109   2.510   6.687   0.801
 1070SOL    HW2 4110   2.670   6.724   0.799
 1071SOL     OW 4111   4.581   5.958   3.841
 1071SOL    HW1 4112   4.567   5.881   3.904
 1071SOL    HW2 4113   4.518   5.949   3.764
 1072SOL     OW 4114   3.470   5.584   2.656
 1072SOL    HW1 4115   3.395   5.567   2.591
 1072SOL    HW2 4116   3.509   5.497   2.686
 1073SOL     OW 4117   2.679   5.444   2.991
 1073SOL    HW1 4118   2.663   5.353   2.953
 1073SOL    HW2 4119   2.777   5.462   2.994
 1074SOL     OW 4120   1.493   5.315   2.335
 1074SOL    HW1 4121   1.581   5.272   2.357
 1074SOL    HW2 4122   1.422   5.244   2.329
 1075SOL     OW 4123   0.703   4.027   2.799
 1075SOL    HW1 4124   0.700   3.927   2.794
 1075SOL    HW2 4125   0.648   4.058   2.876
 1076SOL     OW 4126   0.051   4.362   2.667
 1076SOL    HW1 4127   7.007   4.429   2.690
 1076SOL    HW2 4128   0.139   4.407   2.655
 1077SOL     OW 4129   5.284   0.935   1.462
 1077SOL    HW1 4130   5.312   0.991   1.540
 1077SOL    HW2 4131   5.340   0.852   1.459
 1078SOL     OW 4132   0.629   3.266   1.172
 1078SOL    HW1 4133   0.539   3.245   1.134
 1078SOL    HW2 4134   0.644   3.365   1.171
 1079SOL     OW 4135   2.378   5.478   3.027
 1079SOL    HW1 4136   2.434   5.398   3.051
 1079SOL    HW2 4137   2.431   5.539   2.968
 1080SOL     OW 4138   1.536   5.604   3.900
 1080SOL    HW1 4139   1.472   5.634   3.971
 1080SOL    HW2 4140   1.588   5.682   3.867
 1081SOL     OW 4141   1.640   1.443   0.333
 1081SOL    HW1 4142   1.563   1.385   0.359
 1081SOL    HW2 4143   1.709   1.388   0.286
 1082SOL     OW 4144   2.184   6.813   0.631
 1082SOL    HW1 4145   2.119   6.857   0.569
 1082SOL    HW2 4146   2.155   6.829   0.725
 1083SOL     OW 4147   3.635   2.276   1.617
 1083SOL    HW1 4148   3.656   2.184   1.583
 1083SOL    HW2 4149   3.663   2.283   1.713
 1084SOL     OW 4150   6.290   3.168   1.075
 1084SOL    HW1 4151   6.346   3.249   1.061
 1084SOL    HW2 4152   6.199   3.196   1.106
 1085SOL     OW 4153   0.990   4.657   3.006
 1085SOL    HW1 4154   0.967   4.709   3.089
 1085SOL    HW2 4155   0.912   4.601   2.980
 1086SOL     OW 4156   4.255   4.807   2.247
 1086SOL    HW1 4157   4.161   4.810   2.279
 1086SOL    HW2 4158   4.258   4.768   2.154
 1087SOL     OW 4159   3.876   3.720   4.979
 1087SOL    HW1 4160   3.871   3.724   5.079
 1087SOL    HW2 4161   3.822   3.794   4.939
 1088SOL     OW 4162   5.931   4.515   2.751
 1088SOL    HW1 4163   6.025   4.488   2.730
 1088SOL    HW2 4164   5.890   4.557   2.670
 1089SOL     OW 4165   6.293   6.947   3.378
 1089SOL    HW1 4166   6.285   6.972   3.474
 1089SOL    HW2 4167   6.290   6.847   3.369
 1090SOL     OW 4168   1.493   1.849   6.047
 1090SOL    HW1 4169   1.460   1.811   5.960
 1090SOL    HW2 4170   1.468   1.946   6.052
 1091SOL     OW 4171   1.114   2.920   5.225
 1091SOL    HW1 4172   1.114   2.827   5.262
 1091SOL    HW2 4173   1.158   2.920   5.135
 1092SOL     OW 4174   1.923   4.513   1.311
 1092SOL    HW1 4175   1.837   4.520   1.260
 1092SOL    HW2 4176   1.915   4.440   1.379
 1093SOL     OW 4177   0.466   2.386   1.947
 1093SOL    HW1 4178   0.419   2.422   2.027
 1093SOL    HW2 4179   0.474   2.458   1.878
 1094SOL     OW 4180   0.869   6.738   2.083
 1094SOL    HW1 4181   0.777   6.738   2.045
 1094SOL    HW2 4182   0.895   6.832   2.107
 1095SOL     OW 4183   6.361   3.471   5.717
 1095SOL    HW1 4184   6.273   3.422   5.720
 1095SOL    HW2 4185   6.354   3.556   5.769
 1096SOL     OW 4186   3.526   3.625   1.710
 1096SOL    HW1 4187   3.599   3.557   1.706
 1096SOL    HW2 4188   3.554   3.708   1.661
 1097SOL     OW 4189   2.254   4.298   5.515
 1097SOL    HW1 4190   2.281   4.304   5.419
 1097SOL    HW2 4191   2.203   4.380   5.540
 1098SOL     OW 4192   3.934   0.982   2.958
 1098SOL    HW1 4193   4.012   0.953   3.013
 1098SOL    HW2 4194   3.897   0.904   2.908
 1099SOL     OW 4195   3.962   1.191   2.747
 1099SOL    HW1 4196   3.941   1.130   2.671
 1099SOL    HW2 4197   3.947   1.143   2.834
 1100SOL     OW 4198   6.885   0.716   6.948
 1100SOL    HW1 4199   6.888   0.640   7.013
 1100SOL    HW2 4200   6.970   0.718   6.894
 1101SOL     OW 4201   5.811   2.999   1.055
 1101SOL    HW1 4202   5.829   2.909   1.016
 1101SOL    HW2 4203   5.728   3.038   1.014
 1102SOL     OW 4204   0.034   4.252   3.463
 1102SOL    HW1 4205   0.065   4.347   3.463
 1102SOL    HW2 4206   6.963   4.249   3.436
 1103SOL     OW 4207   0.437   3.358   0.705
 1103SOL    HW1 4208   0.391   3.431   0.756
 1103SOL    HW2 4209   0.500   3.399   0.638
 1104SOL     OW 4210   2.691   5.311   5.814
 1104SOL    HW1 4211   2.700   5.263   5.901
 1104SOL    HW2 4212   2.612   5.276   5.764
 1105SOL     OW 4213   4.362   5.330   0.635
 1105SOL    HW1 4214   4.417   5.414   0.632
 1105SOL    HW2 4215   4.309   5.328   0.719
 1106SOL     OW 4216   1.281   1.274   6.481
 1106SOL    HW1 4217   1.230   1.341   6.535
 1106SOL    HW2 4218   1.226   1.190   6.472
 1107SOL     OW 4219   6.968   0.052   0.976
 1107SOL    HW1 4220   6.901   0.098   1.034
 1107SOL    HW2 4221   0.031   0.099   0.983
 1108SOL     OW 4222   0.550   0.720   6.873
 1108SOL    HW1 4223   0.621   0.735   6.804
 1108SOL    HW2 4224   0.460   0.735   6.831
 1109SOL     OW 4225   4.967   0.995   3.658
 1109SOL    HW1 4226   5.017   0.912   3.633
 1109SOL    HW2 4227   5.026   1.075   3.645
 1110SOL     OW 4228   3.117   2.952   2.055
 1110SOL    HW1 4229   3.117   2.917   1.961
 1110SOL    HW2 4230   3.135   2.876   2.118
 1111SOL     OW 4231   4.761   0.256   6.591
 1111SOL    HW1 4232   4.858   0.236   6.598
 1111SOL    HW2 4233   4.715   0.230   6.677
 1112SOL     OW 4234   1.000   1.501   2.965
 1112SOL    HW1 4235   1.049   1.504   3.052
 1112SOL    HW2 4236   0.973   1.406   2.945
 1113SOL     OW 4237   5.856   4.198   2.021
 1113SOL    HW1 4238   5.891   4.203   1.927
 1113SOL    HW2 4239   5.868   4.105   2.056
 1114SOL     OW 4240   6.007   1.136   5.598
 1114SOL    HW1 4241   5.968   1.150   5.507
 1114SOL    HW2 4242   5.959   1.061   5.643
 1115SOL     OW 4243   3.630   4.390   0.679
 1115SOL    HW1 4244   3.724   4.362   0.695
 1115SOL    HW2 4245   3.598   4.446   0.756
 1116SOL     OW 4246   3.662   6.459   5.783
 1116SOL    HW1 4247   3.638   6.541   5.836
 1116SOL    HW2 4248   3.660   6.379   5.842
 1117SOL     OW 4249   2.404   2.756   0.778
 1117SOL    HW1 4250   2.367   2.849   0.772
 1117SOL    HW2 4251   2.399   2.713   0.687
 1118SOL     OW 4252   1.595   3.354   2.753
 1118SOL    HW1 4253   1.646   3.372   2.837
 1118SOL    HW2 4254   1.534   3.276   2.766
 1119SOL     OW 4255   2.965   3.764   2.682
 1119SOL    HW1 4256   2.983   3.835   2.614
 1119SOL    HW2 4257   2.973   3.674   2.640
 1120SOL     OW 4258   5.031   1.166   4.420
 1120SOL    HW1 4259   4.979   1.144   4.502
 1120SOL    HW2 4260   5.009   1.100   4.348
 1121SOL     OW 4261   5.324   3.191   2.601
 1121SOL    HW1 4262   5.388   3.196   2.525
 1121SOL    HW2 4263   5.328   3.275   2.654
 1122SOL     OW 4264   4.420   4.845   0.219
 1122SOL    HW1 4265   4.489   4.772   0.221
 1122SOL    HW2 4266   4.372   4.849   0.306
 1123SOL     OW 4267   3.737   0.836   2.077
 1123SOL    HW1 4268   3.757   0.771   2.004
 1123SOL    HW2 4269   3.739   0.788   2.165
 1124SOL     OW 4270   0.897   4.856   4.660
 1124SOL    HW1 4271   0.954   4.829   4.582
 1124SOL    HW2 4272   0.854   4.944   4.640
 1125SOL     OW 4273   3.369   3.413   4.622
 1125SOL    HW1 4274   3.312   3.464   4.686
 1125SOL    HW2 4275   3.313   3.383   4.544
 1126SOL     OW 4276   6.615   0.137   2.672
 1126SOL    HW1 4277   6.627   0.065   2.741
 1126SOL    HW2 4278   6.518   0.159   2.664
 1127SOL     OW 4279   1.848   5.314   6.460
 1127SOL    HW1 4280   1.926   5.329   6.521
 1127SOL    HW2 4281   1.776   5.265   6.509
 1128SOL     OW 4282   2.497   1.660   3.862
 1128SOL    HW1 4283   2.494   1.565   3.830
 1128SOL    HW2 4284   2.459   1.665   3.954
 1129SOL     OW 4285   4.622   0.073   6.359
 1129SOL    HW1 4286   4.554   0.006   6.328
 1129SOL    HW2 4287   4.578   0.161   6.374
 1130SOL     OW 4288   0.081   5.505   6.192
 1130SOL    HW1 4289   0.040   5.596   6.185
 1130SOL    HW2 4290   0.169   5.511   6.238
 1131SOL     OW 4291   0.734   5.208   5.217
 1131SOL    HW1 4292   0.684   5.185   5.133
 1131SOL    HW2 4293   0.806   5.141   5.233
 1132SOL     OW 4294   5.200   0.382   5.045
 1132SOL    HW1 4295   5.250   0.356   4.963
 1132SOL    HW2 4296   5.256   0.362   5.126
 1133SOL     OW 4297   6.880   2.561   0.325
 1133SOL    HW1 4298   6.803   2.514   0.282
 1133SOL    HW2 4299   6.910   2.636   0.267
 1134SOL     OW 4300   6.439   2.345   5.590
 1134SOL    HW1 4301   6.527   2.385   5.615
 1134SOL    HW2 4302   6.371   2.417   5.582
 1135SOL     OW 4303   6.120   1.509   4.204
 1135SOL    HW1 4304   6.058   1.496   4.126
 1135SOL    HW2 4305   6.177   1.589   4.188
 1136SOL     OW 4306   3.621   5.469   3.968
 1136SOL    HW1 4307   3.706   5.460   4.021
 1136SOL    HW2 4308   3.634   5.536   3.895
 1137SOL     OW 4309   1.201   1.074   6.217
 1137SOL    HW1 4310   1.269   1.126   6.166
 1137SOL    HW2 4311   1.183   0.987   6.171
 1138SOL     OW 4312   0.360   4.258   5.809
 1138SOL    HW1 4313   0.368   4.346   5.856
 1138SOL    HW2 4314   0.383   4.270   5.713
 1139SOL     OW 4315   1.224   6.460   1.248
 1139SOL    HW1 4316   1.282   6.382   1.270
 1139SOL    HW2 4317   1.270   6.516   1.179
 1140SOL     OW 4318   3.922   1.452   3.949
 1140SOL    HW1 4319   3.969   1.496   3.873
 1140SOL    HW2 4320   3.970   1.368   3.974
 1141SOL     OW 4321   6.839   6.035   5.361
 1141SOL    HW1 4322   6.817   5.956   5.419
 1141SOL    HW2 4323   6.926   6.074   5.389
 1142SOL     OW 4324   5.982   0.814   4.224
 1142SOL    HW1 4325   5.900   0.757   4.228
 1142SOL    HW2 4326   6.061   0.760   4.252
 1143SOL     OW 4327   4.767   1.964   2.054
 1143SOL    HW1 4328   4.824   1.955   2.135
 1143SOL    HW2 4329   4.795   1.897   1.986
 1144SOL     OW 4330   1.657   6.865   5.540
 1144SOL    HW1 4331   1.651   6.859   5.640
 1144SOL    HW2 4332   1.669   6.961   5.514
 1145SOL     OW 4333   1.891   5.026   5.039
 1145SOL    HW1 4334   1.904   4.928   5.053
 1145SOL    HW2 4335   1.800   5.043   5.001
 1146SOL     OW 4336   6.378   1.909   1.046
 1146SOL    HW1 4337   6.327   1.842   1.100
 1146SOL    HW2 4338   6.363   1.892   0.949
 1147SOL     OW 4339   6.837   3.132   2.240
 1147SOL    HW1 4340   6.801   3.039   2.241
 1147SOL    HW2 4341   6.764   3.196   2.264
 1148SOL     OW 4342   4.702   0.993   6.824
 1148SOL    HW1 4343   4.787   0.984   6.876
 1148SOL    HW2 4344   4.625   0.990   6.887
 1149SOL     OW 4345   6.367   2.507   3.443
 1149SOL    HW1 4346   6.296   2.443   3.472
 1149SOL    HW2 4347   6.437   2.513   3.514
 1150SOL     OW 4348   0.902   5.269   5.599
 1150SOL    HW1 4349   0.992   5.306   5.622
 1150SOL    HW2 4350   0.882   5.190   5.657
 1151SOL     OW 4351   3.753   5.571   6.909
 1151SOL    HW1 4352   3.667   5.554   6.957
 1151SOL    HW2 4353   3.829   5.532   6.961
 1152SOL     OW 4354   0.457   1.275   4.582
 1152SOL    HW1 4355   0.432   1.220   4.662
 1152SOL    HW2 4356   0.381   1.335   4.557
 1153SOL     OW 4357   2.621   4.579   2.892
 1153SOL    HW1 4358   2.693   4.512   2.912
 1153SOL    HW2 4359   2.661   4.659   2.848
 1154SOL     OW 4360   1.982   4.032   2.069
 1154SOL    HW1 4361   1.907   4.047   2.005
 1154SOL    HW2 4362   2.041   3.958   2.036
 1155SOL     OW 4363   3.812   6.516   2.348
 1155SOL    HW1 4364   3.823   6.509   2.447
 1155SOL    HW2 4365   3.722   6.555   2.327
 1156SOL     OW 4366   1.039   1.598   3.581
 1156SOL    HW1 4367   1.002   1.690   3.567
 1156SOL    HW2 4368   0.964   1.535   3.602
 1157SOL     OW 4369   0.943   3.624   4.779
 1157SOL    HW1 4370   0.883   3.563   4.728
 1157SOL    HW2 4371   1.037   3.591   4.775
 1158SOL     OW 4372   4.452   6.010   6.850
 1158SOL    HW1 4373   4.418   6.104   6.851
 1158SOL    HW2 4374   4.552   6.011   6.843
 1159SOL     OW 4375   5.368   4.886   2.654
 1159SOL    HW1 4376   5.386   4.981   2.680
 1159SOL    HW2 4377   5.433   4.826   2.698
 1160SOL     OW 4378   2.680   2.734   0.812
 1160SOL    HW1 4379   2.584   2.703   0.812
 1160SOL    HW2 4380   2.740   2.655   0.815
 1161SOL     OW 4381   4.150   0.805   4.412
 1161SOL    HW1 4382   4.220   0.741   4.441
 1161SOL    HW2 4383   4.075   0.805   4.479
 1162SOL     OW 4384   3.953   4.707   1.713
 1162SOL    HW1 4385   3.954   4.801   1.749
 1162SOL    HW2 4386   4.044   4.684   1.679
 1163SOL     OW 4387   4.899   1.477   2.249
 1163SOL    HW1 4388   4.812   1.443   2.214
 1163SOL    HW2 4389   4.885   1.517   2.340
 1164SOL     OW 4390   6.013   3.669   4.118
 1164SOL    HW1 4391   6.058   3.646   4.032
 1164SOL    HW2 4392   5.990   3.766   4.119
 1165SOL     OW 4393   1.444   4.640   2.233
 1165SOL    HW1 4394   1.436   4.651   2.332
 1165SOL    HW2 4395   1.368   4.586   2.198
 1166SOL     OW 4396   3.318   2.459   6.737
 1166SOL    HW1 4397   3.219   2.458   6.755
 1166SOL    HW2 4398   3.343   2.376   6.686
 1167SOL     OW 4399   4.278   2.080   4.972
 1167SOL    HW1 4400   4.183   2.111   4.979
 1167SOL    HW2 4401   4.319   2.077   5.063
 1168SOL     OW 4402   6.086   6.352   3.387
 1168SOL    HW1 4403   6.057   6.425   3.449
 1168SOL    HW2 4404   6.179   6.324   3.411
 1169SOL     OW 4405   0.930   4.122   1.187
 1169SOL    HW1 4406   0.834   4.121   1.215
 1169SOL    HW2 4407   0.949   4.042   1.130
 1170SOL     OW 4408   3.239   0.810   1.112
 1170SOL    HW1 4409   3.303   0.854   1.175
 1170SOL    HW2 4410   3.241   0.857   1.024
 1171SOL     OW 4411   2.836   0.450   0.468
 1171SOL    HW1 4412   2.772   0.496   0.407
 1171SOL    HW2 4413   2.899   0.393   0.415
 1172SOL     OW 4414   2.999   3.502   4.390
 1172SOL    HW1 4415   2.959   3.509   4.481
 1172SOL    HW2 4416   3.075   3.437   4.391
 1173SOL     OW 4417   4.890   0.899   6.479
 1173SOL    HW1 4418   4.989   0.888   6.471
 1173SOL    HW2 4419   4.860   0.977   6.423
 1174SOL     OW 4420   3.329   6.201   0.141
 1174SOL    HW1 4421   3.339   6.172   0.236
 1174SOL    HW2 4422   3.374   6.134   0.081
 1175SOL     OW 4423   0.057   5.380   4.359
 1175SOL    HW1 4424   0.154   5.364   4.376
 1175SOL    HW2 4425   0.034   5.350   4.267
 1176SOL     OW 4426   6.024   3.282   1.111
 1176SOL    HW1 4427   5.951   3.248   1.170
 1176SOL    HW2 4428   6.015   3.381   1.100
 1177SOL     OW 4429   5.992   3.196   0.108
 1177SOL    HW1 4430   6.023   3.283   0.069
 1177SOL    HW2 4431   5.892   3.194   0.109
 1178SOL     OW 4432   5.141   4.026   1.912
 1178SOL    HW1 4433   5.203   4.098   1.880
 1178SOL    HW2 4434   5.193   3.953   1.955
 1179SOL     OW 4435   2.150   5.832   5.926
 1179SOL    HW1 4436   2.059   5.802   5.953
 1179SOL    HW2 4437   2.164   5.814   5.829
 1180SOL     OW 4438   1.949   1.376   3.727
 1180SOL    HW1 4439   1.942   1.276   3.722
 1180SOL    HW2 4440   1.940   1.406   3.822
 1181SOL     OW 4441   1.890   4.216   3.006
 1181SOL    HW1 4442   1.866   4.209   3.103
 1181SOL    HW2 4443   1.909   4.311   2.984
 1182SOL     OW 4444   1.535   3.945   3.248
 1182SOL    HW1 4445   1.633   3.934   3.231
 1182SOL    HW2 4446   1.513   3.913   3.340
 1183SOL     OW 4447   4.414   5.911   0.464
 1183SOL    HW1 4448   4.458   6.000   0.479
 1183SOL    HW2 4449   4.420   5.886   0.367
 1184SOL     OW 4450   3.192   3.341   5.766
 1184SOL    HW1 4451   3.119   3.334   5.699
 1184SOL    HW2 4452   3.241   3.253   5.771
 1185SOL     OW 4453   2.549   1.606   6.902
 1185SOL    HW1 4454   2.486   1.543   6.856
 1185SOL    HW2 4455   2.560   1.688   6.846
 1186SOL     OW 4456   2.937   1.195   5.386
 1186SOL    HW1 4457   2.906   1.289   5.376
 1186SOL    HW2 4458   3.011   1.178   5.321
 1187SOL     OW 4459   0.562   1.452   5.377
 1187SOL    HW1 4460   0.496   1.385   5.342
 1187SOL    HW2 4461   0.583   1.518   5.306
 1188SOL     OW 4462   1.875   0.339   4.620
 1188SOL    HW1 4463   1.910   0.376   4.706
 1188SOL    HW2 4464   1.794   0.391   4.592
 1189SOL     OW 4465   6.835   0.665   0.598
 1189SOL    HW1 4466   6.930   0.678   0.628
 1189SOL    HW2 4467   6.780   0.631   0.674
 1190SOL     OW 4468   3.856   4.797   2.624
 1190SOL    HW1 4469   3.913   4.778   2.544
 1190SOL    HW2 4470   3.910   4.786   2.707
 1191SOL     OW 4471   2.833   4.752   0.446
 1191SOL    HW1 4472   2.779   4.682   0.493
 1191SOL    HW2 4473   2.930   4.727   0.451
 1192SOL     OW 4474   4.486   5.155   2.163
 1192SOL    HW1 4475   4.442   5.232   2.208
 1192SOL    HW2 4476   4.516   5.088   2.231
 1193SOL     OW 4477   4.075   6.909   3.881
 1193SOL    HW1 4478   4.035   6.853   3.809
 1193SOL    HW2 4479   4.025   6.994   3.890
 1194SOL     OW 4480   6.660   0.761   1.453
 1194SOL    HW1 4481   6.581   0.705   1.477
 1194SOL    HW2 4482   6.711   0.716   1.380
 1195SOL     OW 4483   3.381   6.592   6.860
 1195SOL    HW1 4484   3.450   6.542   6.808
 1195SOL    HW2 4485   3.350   6.536   6.937
 1196SOL     OW 4486   0.707   5.293   3.036
 1196SOL    HW1 4487   0.630   5.325   2.982
 1196SOL    HW2 4488   0.784   5.274   2.975
 1197SOL     OW 4489   3.201   5.127   6.504
 1197SOL    HW1 4490   3.248   5.046   6.537
 1197SOL    HW2 4491   3.237   5.208   6.551
 1198SOL     OW 4492   3.610   1.571   2.414
 1198SOL    HW1 4493   3.600   1.659   2.368
 1198SOL    HW2 4494   3.521   1.543   2.452
 1199SOL     OW 4495   3.106   3.618   3.578
 1199SOL    HW1 4496   3.049   3.663   3.509
 1199SOL    HW2 4497   3.050   3.595   3.658
 1200SOL     OW 4498   4.016   3.434   1.046
 1200SOL    HW1 4499   3.920   3.408   1.055
 1200SOL    HW2 4500   4.075   3.360   1.078
 1201SOL     OW 4501   0.955   1.156   4.536
 1201SOL    HW1 4502   0.967   1.244   4.582
 1201SOL    HW2 4503   0.884   1.103   4.583
 1202SOL     OW 4504   5.857   0.114   4.746
 1202SOL    HW1 4505   5.870   0.029   4.695
 1202SOL    HW2 4506   5.829   0.092   4.840
 1203SOL     OW 4507   6.217   6.444   1.691
 1203SOL    HW1 4508   6.126   6.468   1.725
 1203SOL    HW2 4509   6.225   6.474   1.596
 1204SOL     OW 4510   1.443   6.454   6.860
 1204SOL    HW1 4511   1.517   6.478   6.923
 1204SOL    HW2 4512   1.382   6.533   6.850
 1205SOL     OW 4513   0.832   2.765   5.069
 1205SOL    HW1 4514   0.736   2.761   5.097
 1205SOL    HW2 4515   0.837   2.798   4.975
 1206SOL     OW 4516   0.254   1.930   4.629
 1206SOL    HW1 4517   0.338   1.978   4.654
 1206SOL    HW2 4518   0.274   1.833   4.616
 1207SOL     OW 4519   6.001   5.966   6.470
 1207SOL    HW1 4520   6.034   5.877   6.500
 1207SOL    HW2 4521   6.076   6.033   6.475
 1208SOL     OW 4522   3.815   3.736   2.917
 1208SOL    HW1 4523   3.785   3.826   2.950
 1208SOL    HW2 4524   3.914   3.739   2.898
 1209SOL     OW 4525   6.884   4.304   4.728
 1209SOL    HW1 4526   6.824   4.229   4.697
 1209SOL    HW2 4527   6.963   4.310   4.667
 1210SOL     OW 4528   3.171   6.919   2.637
 1210SOL    HW1 4529   3.144   6.980   2.563
 1210SOL    HW2 4530   3.181   6.826   2.602
 1211SOL     OW 4531   1.441   2.952   3.350
 1211SOL    HW1 4532   1.511   2.934   3.280
 1211SOL    HW2 4533   1.469   3.030   3.406
 1212SOL     OW 4534   1.405   3.473   3.843
 1212SOL    HW1 4535   1.469   3.533   3.889
 1212SOL    HW2 4536   1.316   3.477   3.890
 1213SOL     OW 4537   5.770   2.599   5.040
 1213SOL    HW1 4538   5.779   2.606   5.139
 1213SOL    HW2 4539   5.680   2.633   5.012
 1214SOL     OW 4540   1.505   2.484   2.622
 1214SOL    HW1 4541   1.484   2.487   2.524
 1214SOL    HW2 4542   1.603   2.469   2.635
 1215SOL     OW 4543   0.106   5.403   2.111
 1215SOL    HW1 4544   0.085   5.501   2.106
 1215SOL    HW2 4545   0.192   5.390   2.160
 1216SOL     OW 4546   2.731   0.939   1.354
 1216SOL    HW1 4547   2.674   0.892   1.287
 1216SOL    HW2 4548   2.827   0.911   1.342
 1217SOL     OW 4549   2.032   1.577   2.378
 1217SOL    HW1 4550   2.039   1.572   2.477
 1217SOL    HW2 4551   2.000   1.668   2.351
 1218SOL     OW 4552   0.265   3.247   3.248
 1218SOL    HW1 4553   0.242   3.243   3.345
 1218SOL    HW2 4554   0.323   3.169   3.225
 1219SOL     OW 4555   2.562   6.040   3.991
 1219SOL    HW1 4556   2.489   6.092   3.948
 1219SOL    HW2 4557   2.608   5.983   3.923
 1220SOL     OW 4558   5.770   4.358   2.883
 1220SOL    HW1 4559   5.674   4.361   2.858
 1220SOL    HW2 4560   5.825   4.403   2.813
 1221SOL     OW 4561   4.862   3.763   5.903
 1221SOL    HW1 4562   4.921   3.733   5.978
 1221SOL    HW2 4563   4.897   3.728   5.816
 1222SOL     OW 4564   6.183   4.939   1.783
 1222SOL    HW1 4565   6.224   4.848   1.785
 1222SOL    HW2 4566   6.102   4.939   1.725
 1223SOL     OW 4567   6.433   5.017   5.053
 1223SOL    HW1 4568   6.359   5.067   5.008
 1223SOL    HW2 4569   6.516   5.022   4.997
 1224SOL     OW 4570   4.878   4.848   1.194
 1224SOL    HW1 4571   4.801   4.793   1.161
 1224SOL    HW2 4572   4.948   4.787   1.232
 1225SOL     OW 4573   3.682   1.985   6.660
 1225SOL    HW1 4574   3.661   2.060   6.598
 1225SOL    HW2 4575   3.625   1.906   6.637
 1226SOL     OW 4576   5.515   5.450   0.892
 1226SOL    HW1 4577   5.570   5.505   0.829
 1226SOL    HW2 4578   5.507   5.357   0.858
 1227SOL     OW 4579   4.806   4.504   6.501
 1227SOL    HW1 4580   4.806   4.411   6.539
 1227SOL    HW2 4581   4.712   4.535   6.489
 1228SOL     OW 4582   3.580   4.153   4.506
 1228SOL    HW1 4583   3.544   4.246   4.510
 1228SOL    HW2 4584   3.520   4.092   4.557
 1229SOL     OW 4585   2.510   5.903   2.974
 1229SOL    HW1 4586   2.528   5.913   3.072
 1229SOL    HW2 4587   2.593   5.922   2.923
 1230SOL     OW 4588   5.978   5.462   1.193
 1230SOL    HW1 4589   5.968   5.377   1.142
 1230SOL    HW2 4590   5.931   5.536   1.143
 1231SOL     OW 4591   1.888   1.532   6.335
 1231SOL    HW1 4592   1.890   1.624   6.296
 1231SOL    HW2 4593   1.982   1.499   6.345
 1232SOL     OW 4594   2.929   1.541   5.105
 1232SOL    HW1 4595   2.875   1.563   5.023
 1232SOL    HW2 4596   2.958   1.626   5.149
 1233SOL     OW 4597   6.943   5.568   4.829
 1233SOL    HW1 4598   6.902   5.637   4.770
 1233SOL    HW2 4599   0.006   5.539   4.790
 1234SOL     OW 4600   6.234   4.569   6.837
 1234SOL    HW1 4601   6.300   4.540   6.767
 1234SOL    HW2 4602   6.171   4.493   6.857
 1235SOL     OW 4603   6.155   4.663   0.862
 1235SOL    HW1 4604   6.225   4.675   0.932
 1235SOL    HW2 4605   6.086   4.598   0.895
 1236SOL     OW 4606   1.381   1.213   2.007
 1236SOL    HW1 4607   1.295   1.230   2.054
 1236SOL    HW2 4608   1.374   1.245   1.912
 1237SOL     OW 4609   0.844   0.180   4.356
 1237SOL    HW1 4610   0.908   0.150   4.285
 1237SOL    HW2 4611   0.888   0.248   4.414
 1238SOL     OW 4612   0.727   0.637   4.690
 1238SOL    HW1 4613   0.718   0.689   4.775
 1238SOL    HW2 4614   0.755   0.699   4.616
 1239SOL     OW 4615   4.840   5.198   3.973
 1239SOL    HW1 4616   4.887   5.284   3.958
 1239SOL    HW2 4617   4.780   5.206   4.053
 1240SOL     OW 4618   0.546   3.814   1.186
 1240SOL    HW1 4619   0.505   3.904   1.168
 1240SOL    HW2 4620   0.586   3.813   1.278
 1241SOL     OW 4621   4.236   4.952   5.826
 1241SOL    HW1 4622   4.261   5.024   5.890
 1241SOL    HW2 4623   4.138   4.937   5.829
 1242SOL     OW 4624   2.397   5.284   0.897
 1242SOL    HW1 4625   2.388   5.236   0.810
 1242SOL    HW2 4626   2.489   5.323   0.904
 1243SOL     OW 4627   0.989   3.455   3.554
 1243SOL    HW1 4628   0.953   3.501   3.635
 1243SOL    HW2 4629   1.075   3.409   3.578
 1244SOL     OW 4630   6.441   0.166   5.031
 1244SOL    HW1 4631   6.423   0.146   4.935
 1244SOL    HW2 4632   6.483   0.256   5.040
 1245SOL     OW 4633   4.882   6.461   0.982
 1245SOL    HW1 4634   4.890   6.405   1.064
 1245SOL    HW2 4635   4.955   6.530   0.982
 1246SOL     OW 4636   5.416   1.754   1.055
 1246SOL    HW1 4637   5.369   1.770   1.141
 1246SOL    HW2 4638   5.455   1.840   1.022
 1247SOL     OW 4639   6.194   6.571   3.029
 1247SOL    HW1 4640   6.191   6.520   2.943
 1247SOL    HW2 4641   6.275   6.629   3.031
 1248SOL     OW 4642   0.853   6.545   4.505
 1248SOL    HW1 4643   0.816   6.615   4.443
 1248SOL    HW2 4644   0.952   6.542   4.497
 1249SOL     OW 4645   5.756   5.746   6.066
 1249SOL    HW1 4646   5.705   5.825   6.100
 1249SOL    HW2 4647   5.854   5.767   6.064
 1250SOL     OW 4648   0.835   4.084   4.888
 1250SOL    HW1 4649   0.772   4.156   4.860
 1250SOL    HW2 4650   0.783   4.009   4.930
 1251SOL     OW 4651   3.018   0.274   2.820
 1251SOL    HW1 4652   3.109   0.258   2.859
 1251SOL    HW2 4653   2.975   0.351   2.867
 1252SOL     OW 4654   2.410   5.372   6.573
 1252SOL    HW1 4655   2.339   5.324   6.521
 1252SOL    HW2 4656   2.493   5.316   6.575
 1253SOL     OW 4657   2.766   6.615   6.810
 1253SOL    HW1 4658   2.826   6.665   6.747
 1253SOL    HW2 4659   2.708   6.679   6.860
 1254SOL     OW 4660   6.763   1.412   3.081
 1254SOL    HW1 4661   6.703   1.337   3.108
 1254SOL    HW2 4662   6.720   1.499   3.103
 1255SOL     OW 4663   6.120   1.835   5.548
 1255SOL    HW1 4664   6.138   1.787   5.462
 1255SOL    HW2 4665   6.115   1.770   5.623
 1256SOL     OW 4666   0.701   5.667   4.217
 1256SOL    HW1 4667   0.684   5.574   4.186
 1256SOL    HW2 4668   0.628   5.696   4.279
 1257SOL     OW 4669   0.217   6.425   3.719
 1257SOL    HW1 4670   0.204   6.483   3.800
 1257SOL    HW2 4671   0.140   6.361   3.712
 1258SOL     OW 4672   4.630   5.873   6.685
 1258SOL    HW1 4673   4.616   5.776   6.665
 1258SOL    HW2 4674   4.676   5.916   6.607
 1259SOL     OW 4675   5.348   0.527   5.404
 1259SOL    HW1 4676   5.328   0.442   5.356
 1259SOL    HW2 4677   5.437   0.519   5.450
 1260SOL     OW 4678   2.997   1.129   1.365
 1260SOL    HW1 4679   3.005   1.030   1.360
 1260SOL    HW2 4680   2.906   1.154   1.399
 1261SOL     OW 4681   0.173   4.562   4.974
 1261SOL    HW1 4682   0.095   4.561   4.912
 1261SOL    HW2 4683   0.210   4.655   4.979
 1262SOL     OW 4684   4.518   5.803   1.561
 1262SOL    HW1 4685   4.555   5.811   1.654
 1262SOL    HW2 4686   4.513   5.893   1.519
 1263SOL     OW 4687   6.338   1.700   0.627
 1263SOL    HW1 4688   6.376   1.792   0.635
 1263SOL    HW2 4689   6.302   1.671   0.716
 1264SOL     OW 4690   6.330   2.653   4.613
 1264SOL    HW1 4691   6.267   2.683   4.542
 1264SOL    HW2 4692   6.281   2.598   4.681
 1265SOL     OW 4693   6.549   5.599   4.956
 1265SOL    HW1 4694   6.465   5.602   4.902
 1265SOL    HW2 4695   6.549   5.518   5.015
 1266SOL     OW 4696   2.446   0.623   3.952
 1266SOL    HW1 4697   2.501   0.540   3.959
 1266SOL    HW2 4698   2.502   0.697   3.915
 1267SOL     OW 4699   6.976   4.582   2.843
 1267SOL    HW1 4700   6.909   4.638   2.794
 1267SOL    HW2 4701   6.956   4.585   2.941
 1268SOL     OW 4702   6.015   4.397   6.941
 1268SOL    HW1 4703   5.956   4.425   6.866
 1268SOL    HW2 4704   5.973   4.319   6.989
 1269SOL     OW 4705   6.669   5.077   6.261
 1269SOL    HW1 4706   6.600   5.040   6.198
 1269SOL    HW2 4707   6.760   5.047   6.232
 1270SOL     OW 4708   1.521   2.056   4.418
 1270SOL    HW1 4709   1.534   1.986   4.349
 1270SOL    HW2 4710   1.520   2.014   4.509
 1271SOL     OW 4711   4.920   2.841   3.272
 1271SOL    HW1 4712   4.925   2.744   3.299
 1271SOL    HW2 4713   4.935   2.899   3.352
 1272SOL     OW 4714   6.590   6.966   1.503
 1272SOL    HW1 4715   6.511   6.905   1.494
 1272SOL    HW2 4716   6.673   6.915   1.480
 1273SOL     OW 4717   2.672   6.356   6.361
 1273SOL    HW1 4718   2.706   6.391   6.273
 1273SOL    HW2 4719   2.692   6.258   6.367
 1274SOL     OW 4720   5.338   2.170   2.119
 1274SOL    HW1 4721   5.356   2.194   2.024
 1274SOL    HW2 4722   5.388   2.087   2.143
 1275SOL     OW 4723   4.069   1.745   4.047
 1275SOL    HW1 4724   4.122   1.660   4.055
 1275SOL    HW2 4725   4.038   1.756   3.952
 1276SOL     OW 4726   6.011   0.275   3.058
 1276SOL    HW1 4727   5.974   0.360   3.095
 1276SOL    HW2 4728   6.066   0.229   3.128
 1277SOL     OW 4729   0.637   1.614   5.151
 1277SOL    HW1 4730   0.687   1.573   5.074
 1277SOL    HW2 4731   0.568   1.677   5.116
 1278SOL     OW 4732   2.661   1.653   5.758
 1278SOL    HW1 4733   2.728   1.627   5.828
 1278SOL    HW2 4734   2.595   1.717   5.797
 1279SOL     OW 4735   2.330   4.823   0.470
 1279SOL    HW1 4736   2.374   4.757   0.532
 1279SOL    HW2 4737   2.277   4.888   0.524
 1280SOL     OW 4738   1.902   6.155   2.899
 1280SOL    HW1 4739   1.973   6.164   2.969
 1280SOL    HW2 4740   1.824   6.212   2.923
 1281SOL     OW 4741   0.446   6.725   4.073
 1281SOL    HW1 4742   0.440   6.816   4.113
 1281SOL    HW2 4743   0.532   6.717   4.022
 1282SOL     OW 4744   1.225   0.017   2.273
 1282SOL    HW1 4745   1.195   6.956   2.314
 1282SOL    HW2 4746   1.323   0.014   2.256
 1283SOL     OW 4747   5.080   4.543   4.919
 1283SOL    HW1 4748   5.110   4.451   4.941
 1283SOL    HW2 4749   4.997   4.564   4.971
 1284SOL     OW 4750   2.697   1.830   2.749
 1284SOL    HW1 4751   2.668   1.769   2.822
 1284SOL    HW2 4752   2.616   1.877   2.711
 1285SOL     OW 4753   5.785   2.635   6.276
 1285SOL    HW1 4754   5.852   2.655   6.205
 1285SOL    HW2 4755   5.733   2.719   6.297
 1286SOL     OW 4756   6.099   6.195   1.747
 1286SOL    HW1 4757   6.161   6.265   1.710
 1286SOL    HW2 4758   6.091   6.207   1.846
 1287SOL     OW 4759   6.136   4.855   6.002
 1287SOL    HW1 4760   6.204   4.801   6.053
 1287SOL    HW2 4761   6.092   4.920   6.063
 1288SOL     OW 4762   6.849   2.382   3.459
 1288SOL    HW1 4763   6.860   2.293   3.413
 1288SOL    HW2 4764   6.802   2.369   3.546
 1289SOL     OW 4765   6.848   5.436   2.417
 1289SOL    HW1 4766   6.870   5.497   2.493
 1289SOL    HW2 4767   6.888   5.472   2.333
 1290SOL     OW 4768   0.356   6.391   1.203
 1290SOL    HW1 4769   0.456   6.390   1.204
 1290SOL    HW2 4770   0.322   6.435   1.286
 1291SOL     OW 4771   1.611   6.837   0.604
 1291SOL    HW1 4772   1.648   6.754   0.561
 1291SOL    HW2 4773   1.573   6.896   0.533
 1292SOL     OW 4774   0.864   6.506   6.303
 1292SOL    HW1 4775   0.855   6.604   6.322
 1292SOL    HW2 4776   0.927   6.465   6.369
 1293SOL     OW 4777   6.745   2.817   5.593
 1293SOL    HW1 4778   6.766   2.901   5.644
 1293SOL    HW2 4779   6.824   2.792   5.537
 1294SOL     OW 4780   0.341   1.631   2.764
 1294SOL    HW1 4781   0.382   1.699   2.825
 1294SOL    HW2 4782   0.333   1.670   2.672
 1295SOL     OW 4783   4.988   3.231   1.566
 1295SOL    HW1 4784   5.047   3.161   1.607
 1295SOL    HW2 4785   4.915   3.253   1.631
 1296SOL     OW 4786   3.699   2.481   6.766
 1296SOL    HW1 4787   3.689   2.411   6.838
 1296SOL    HW2 4788   3.676   2.571   6.804
 1297SOL     OW 4789   6.545   1.350   6.805
 1297SOL    HW1 4790   6.535   1.306   6.895
 1297SOL    HW2 4791   6.569   1.282   6.737
 1298SOL     OW 4792   6.115   2.942   3.580
 1298SOL    HW1 4793   6.179   3.018   3.573
 1298SOL    HW2 4794   6.024   2.972   3.552
 1299SOL     OW 4795   1.143   3.905   4.580
 1299SOL    HW1 4796   1.155   3.811   4.546
 1299SOL    HW2 4797   1.176   3.911   4.674
 1300SOL     OW 4798   2.947   3.085   1.431
 1300SOL    HW1 4799   2.958   2.990   1.461
 1300SOL    HW2 4800   2.929   3.143   1.511
 1301SOL     OW 4801   0.442   0.745   2.939
 1301SOL    HW1 4802   0.516   0.724   3.002
 1301SOL    HW2 4803   0.441   0.844   2.920
 1302SOL     OW 4804   2.751   5.893   5.514
 1302SOL    HW1 4805   2.780   5.833   5.589
 1302SOL    HW2 4806   2.720   5.837   5.437
 1303SOL     OW 4807   3.999   0.417   1.096
 1303SOL    HW1 4808   4.014   0.333   1.149
 1303SOL    HW2 4809   3.983   0.493   1.159
 1304SOL     OW 4810   3.434   0.597   6.033
 1304SOL    HW1 4811   3.392   0.530   5.971
 1304SOL    HW2 4812   3.510   0.554   6.081
 1305SOL     OW 4813   5.880   6.685   4.503
 1305SOL    HW1 4814   5.954   6.637   4.551
 1305SOL    HW2 4815   5.877   6.780   4.534
 1306SOL     OW 4816   1.057   4.740   4.456
 1306SOL    HW1 4817   1.151   4.709   4.467
 1306SOL    HW2 4818   1.037   4.755   4.359
 1307SOL     OW 4819   1.865   2.073   4.549
 1307SOL    HW1 4820   1.887   2.169   4.535
 1307SOL    HW2 4821   1.861   2.054   4.647
 1308SOL     OW 4822   4.786   6.107   3.015
 1308SOL    HW1 4823   4.722   6.093   2.940
 1308SOL    HW2 4824   4.873   6.063   2.993
 1309SOL     OW 4825   5.913   2.821   5.001
 1309SOL    HW1 4826   5.874   2.729   5.003
 1309SOL    HW2 4827   5.848   2.886   5.041
 1310SOL     OW 4828   5.099   3.693   5.341
 1310SOL    HW1 4829   5.113   3.790   5.358
 1310SOL    HW2 4830   5.160   3.639   5.399
 1311SOL     OW 4831   5.524   5.270   5.293
 1311SOL    HW1 4832   5.592   5.239   5.226
 1311SOL    HW2 4833   5.542   5.226   5.381
 1312SOL     OW 4834   6.612   0.008   2.385
 1312SOL    HW1 4835   6.614   6.933   2.386
 1312SOL    HW2 4836   6.632   0.043   2.476
 1313SOL     OW 4837   3.438   4.909   5.334
 1313SOL    HW1 4838   3.347   4.875   5.356
 1313SOL    HW2 4839   3.489   4.926   5.418
 1314SOL     OW 4840   5.474   1.478   5.233
 1314SOL    HW1 4841   5.510   1.500   5.143
 1314SOL    HW2 4842   5.399   1.413   5.225
 1315SOL     OW 4843   2.321   0.539   3.227
 1315SOL    HW1 4844   2.403   0.510   3.177
 1315SOL    HW2 4845   2.250   0.565   3.163
 1316SOL     OW 4846   3.021   6.492   2.174
 1316SOL    HW1 4847   3.085   6.561   2.141
 1316SOL    HW2 4848   3.059   6.450   2.257
 1317SOL     OW 4849   0.011   4.788   3.966
 1317SOL    HW1 4850   0.081   4.834   3.911
 1317SOL    HW2 4851   0.055   4.735   4.039
 1318SOL     OW 4852   0.445   6.116   1.622
 1318SOL    HW1 4853   0.421   6.020   1.607
 1318SOL    HW2 4854   0.527   6.139   1.571
 1319SOL     OW 4855   6.115   0.893   0.407
 1319SOL    HW1 4856   6.191   0.947   0.372
 1319SOL    HW2 4857   6.089   0.823   0.340
 1320SOL     OW 4858   5.269   5.674   5.583
 1320SOL    HW1 4859   5.202   5.692   5.511
 1320SOL    HW2 4860   5.333   5.603   5.552
 1321SOL     OW 4861   2.918   1.676   6.976
 1321SOL    HW1 4862   2.905   1.617   6.897
 1321SOL    HW2 4863   2.954   1.765   6.947
 1322SOL     OW 4864   5.710   1.106   5.778
 1322SOL    HW1 4865   5.737   1.054   5.697
 1322SOL    HW2 4866   5.726   1.203   5.762
 1323SOL     OW 4867   5.956   0.782   3.625
 1323SOL    HW1 4868   5.909   0.826   3.702
 1323SOL    HW2 4869   5.894   0.718   3.580
 1324SOL     OW 4870   1.074   3.717   0.465
 1324SOL    HW1 4871   1.163   3.732   0.423
 1324SOL    HW2 4872   1.087   3.685   0.559
 1325SOL     OW 4873   3.455   5.461   3.109
 1325SOL    HW1 4874   3.454   5.515   3.194
 1325SOL    HW2 4875   3.429   5.367   3.130
 1326SOL     OW 4876   4.690   4.263   4.296
 1326SOL    HW1 4877   4.733   4.175   4.316
 1326SOL    HW2 4878   4.716   4.293   4.205
 1327SOL     OW 4879   3.225   5.931   3.226
 1327SOL    HW1 4880   3.318   5.961   3.245
 1327SOL    HW2 4881   3.209   5.933   3.127
 1328SOL     OW 4882   1.875   2.070   0.139
 1328SOL    HW1 4883   1.941   2.125   0.190
 1328SOL    HW2 4884   1.887   1.973   0.162
 1329SOL     OW 4885   0.759   0.526   1.397
 1329SOL    HW1 4886   0.735   0.586   1.474
 1329SOL    HW2 4887   0.857   0.505   1.400
 1330SOL     OW 4888   5.148   6.589   0.712
 1330SOL    HW1 4889   5.147   6.654   0.636
 1330SOL    HW2 4890   5.187   6.502   0.681
 1331SOL     OW 4891   7.024   1.128   2.483
 1331SOL    HW1 4892   6.932   1.158   2.455
 1331SOL    HW2 4893   0.065   1.156   2.413
 1332SOL     OW 4894   3.757   1.439   1.103
 1332SOL    HW1 4895   3.701   1.360   1.077
 1332SOL    HW2 4896   3.820   1.412   1.176
 1333SOL     OW 4897   4.025   3.148   4.538
 1333SOL    HW1 4898   4.012   3.096   4.453
 1333SOL    HW2 4899   4.066   3.237   4.517
 1334SOL     OW 4900   0.518   4.268   3.262
 1334SOL    HW1 4901   0.616   4.263   3.240
 1334SOL    HW2 4902   0.466   4.216   3.194
 1335SOL     OW 4903   2.465   5.141   2.021
 1335SOL    HW1 4904   2.523   5.199   1.965
 1335SOL    HW2 4905   2.454   5.182   2.112
 1336SOL     OW 4906   0.369   0.357   4.609
 1336SOL    HW1 4907   0.300   0.302   4.564
 1336SOL    HW2 4908   0.327   0.440   4.646
 1337SOL     OW 4909   2.823   0.655   6.644
 1337SOL    HW1 4910   2.790   0.684   6.554
 1337SOL    HW2 4911   2.758   0.588   6.683
 1338SOL     OW 4912   3.555   5.825   0.766
 1338SOL    HW1 4913   3.462   5.799   0.790
 1338SOL    HW2 4914   3.592   5.762   0.698
 1339SOL     OW 4915   0.210   4.799   5.315
 1339SOL    HW1 4916   0.300   4.840   5.300
 1339SOL    HW2 4917   0.209   4.749   5.402
 1340SOL     OW 4918   1.945   1.181   6.409
 1340SOL    HW1 4919   1.873   1.151   6.346
 1340SOL    HW2 4920   2.025   1.211   6.356
 1341SOL     OW 4921   5.710   1.634   3.785
 1341SOL    HW1 4922   5.738   1.711   3.842
 1341SOL    HW2 4923   5.686   1.667   3.693
 1342SOL     OW 4924   0.653   6.462   1.438
 1342SOL    HW1 4925   0.682   6.369   1.461
 1342SOL    HW2 4926   0.674   6.481   1.342
 1343SOL     OW 4927   3.539   5.002   3.186
 1343SOL    HW1 4928   3.519   4.978   3.091
 1343SOL    HW2 4929   3.476   5.073   3.217
 1344SOL     OW 4930   5.646   1.452   2.850
 1344SOL    HW1 4931   5.552   1.456   2.883
 1344SOL    HW2 4932   5.677   1.544   2.824
 1345SOL     OW 4933   1.274   6.893   3.602
 1345SOL    HW1 4934   1.344   6.838   3.646
 1345SOL    HW2 4935   1.237   6.959   3.669
 1346SOL     OW 4936   0.380   0.950   4.040
 1346SOL    HW1 4937   0.327   1.006   3.976
 1346SOL    HW2 4938   0.477   0.955   4.016
 1347SOL     OW 4939   4.966   0.703   3.564
 1347SOL    HW1 4940   5.047   0.702   3.506
 1347SOL    HW2 4941   4.892   0.752   3.518
 1348SOL     OW 4942   4.416   5.779   4.437
 1348SOL    HW1 4943   4.437   5.857   4.378
 1348SOL    HW2 4944   4.318   5.761   4.434
 1349SOL     OW 4945   5.005   2.590   0.204
 1349SOL    HW1 4946   4.925   2.579   0.145
 1349SOL    HW2 4947   5.067   2.513   0.191
 1350SOL     OW 4948   3.478   0.081   5.237
 1350SOL    HW1 4949   3.551   0.118   5.180
 1350SOL    HW2 4950   3.400   0.143   5.235
 1351SOL     OW 4951   1.147   1.636   4.572
 1351SOL    HW1 4952   1.221   1.597   4.519
 1351SOL    HW2 4953   1.185   1.694   4.644
 1352SOL     OW 4954   0.792   6.648   4.040
 1352SOL    HW1 4955   0.758   6.663   3.948
 1352SOL    HW2 4956   0.727   6.593   4.093
 1353SOL     OW 4957   1.708   2.791   4.187
 1353SOL    HW1 4958   1.718   2.704   4.140
 1353SOL    HW2 4959   1.633   2.785   4.254
 1354SOL     OW 4960   0.410   6.503   0.408
 1354SOL    HW1 4961   0.392   6.561   0.328
 1354SOL    HW2 4962   0.325   6.488   0.458
 1355SOL     OW 4963   4.430   3.264   0.282
 1355SOL    HW1 4964   4.518   3.236   0.319
 1355SOL    HW2 4965   4.380   3.317   0.351
 1356SOL     OW 4966   2.960   3.166   1.944
 1356SOL    HW1 4967   3.015   3.103   1.999
 1356SOL    HW2 4968   2.931   3.242   2.001
 1357SOL     OW 4969   2.822   2.984   5.961
 1357SOL    HW1 4970   2.799   3.080   5.944
 1357SOL    HW2 4971   2.844   2.938   5.875
 1358SOL     OW 4972   2.253   3.645   5.941
 1358SOL    HW1 4973   2.237   3.720   5.877
 1358SOL    HW2 4974   2.166   3.599   5.962
 1359SOL     OW 4975   6.824   1.266   0.157
 1359SOL    HW1 4976   6.750   1.261   0.224
 1359SOL    HW2 4977   6.787   1.296   0.069
 1360SOL     OW 4978   3.289   3.148   4.157
 1360SOL    HW1 4979   3.277   3.071   4.219
 1360SOL    HW2 4980   3.386   3.173   4.152
 1361SOL     OW 4981   1.020   5.911   1.175
 1361SOL    HW1 4982   1.059   6.003   1.172
 1361SOL    HW2 4983   0.997   5.888   1.270
 1362SOL     OW 4984   2.689   2.303   6.030
 1362SOL    HW1 4985   2.735   2.320   5.943
 1362SOL    HW2 4986   2.734   2.355   6.103
 1363SOL     OW 4987   0.024   6.565   1.624
 1363SOL    HW1 4988   0.097   6.622   1.586
 1363SOL    HW2 4989   7.004   6.515   1.551
 1364SOL     OW 4990   0.620   4.128   0.663
 1364SOL    HW1 4991   0.673   4.053   0.624
 1364SOL    HW2 4992   0.681   4.204   0.685
 1365SOL     OW 4993   0.550   3.743   5.618
 1365SOL    HW1 4994   0.596   3.825   5.583
 1365SOL    HW2 4995   0.513   3.763   5.709
 1366SOL     OW 4996   4.489   0.617   0.958
 1366SOL    HW1 4997   4.404   0.594   0.910
 1366SOL    HW2 4998   4.566   0.615   0.895
 1367SOL     OW 4999   1.396   6.890   4.261
 1367SOL    HW1 5000   1.492   6.917   4.271
 1367SOL    HW2 5001   1.377   6.815   4.325
 1368SOL     OW 5002   1.364   6.652   5.053
 1368SOL    HW1 5003   1.267   6.672   5.051
 1368SOL    HW2 5004   1.403   6.683   5.140
 1369SOL     OW 5005   2.712   5.889   3.798
 1369SOL    HW1 5006   2.779   5.816   3.810
 1369SOL    HW2 5007   2.665   5.878   3.710
 1370SOL     OW 5008   6.807   2.354   2.949
 1370SOL    HW1 5009   6.869   2.418   2.993
 1370SOL    HW2 5010   6.713   2.373   2.979
 1371SOL     OW 5011   5.887   1.950   5.552
 1371SOL    HW1 5012   5.980   1.916   5.561
 1371SOL    HW2 5013   5.833   1.923   5.632
 1372SOL     OW 5014   5.936   2.738   0.907
 1372SOL    HW1 5015   6.010   2.672   0.921
 1372SOL    HW2 5016   5.974   2.823   0.870
 1373SOL     OW 5017   5.593   2.492   1.675
 1373SOL    HW1 5018   5.521   2.427   1.700
 1373SOL    HW2 5019   5.597   2.499   1.575
 1374SOL     OW 5020   4.492   3.782   1.536
 1374SOL    HW1 5021   4.449   3.766   1.447
 1374SOL    HW2 5022   4.433   3.746   1.608
 1375SOL     OW 5023   5.542   4.937   4.200
 1375SOL    HW1 5024   5.487   4.860   4.167
 1375SOL    HW2 5025   5.630   4.902   4.233
 1376SOL     OW 5026   2.867   4.810   6.176
 1376SOL    HW1 5027   2.941   4.864   6.216
 1376SOL    HW2 5028   2.849   4.730   6.232
 1377SOL     OW 5029   2.230   1.532   2.714
 1377SOL    HW1 5030   2.233   1.487   2.803
 1377SOL    HW2 5031   2.275   1.474   2.646
 1378SOL     OW 5032   5.360   2.350   3.893
 1378SOL    HW1 5033   5.390   2.334   3.799
 1378SOL    HW2 5034   5.408   2.428   3.931
 1379SOL     OW 5035   4.628   5.666   0.924
 1379SOL    HW1 5036   4.674   5.678   0.836
 1379SOL    HW2 5037   4.692   5.689   0.998
 1380SOL     OW 5038   7.018   5.946   2.646
 1380SOL    HW1 5039   0.031   5.866   2.601
 1380SOL    HW2 5040   6.946   5.985   2.588
 1381SOL     OW 5041   6.129   2.273   6.315
 1381SOL    HW1 5042   6.176   2.186   6.328
 1381SOL    HW2 5043   6.196   2.346   6.304
 1382SOL     OW 5044   4.434   2.636   0.072
 1382SOL    HW1 5045   4.476   2.598   0.155
 1382SOL    HW2 5046   4.459   2.732   0.063
 1383SOL     OW 5047   6.785   0.364   1.153
 1383SOL    HW1 5048   6.701   0.404   1.116
 1383SOL    HW2 5049   6.797   0.272   1.117
 1384SOL     OW 5050   6.552   1.662   2.042
 1384SOL    HW1 5051   6.482   1.714   2.090
 1384SOL    HW2 5052   6.513   1.576   2.009
 1385SOL     OW 5053   0.684   5.673   1.077
 1385SOL    HW1 5054   0.727   5.763   1.083
 1385SOL    HW2 5055   0.705   5.620   1.159
 1386SOL     OW 5056   2.210   5.978   4.073
 1386SOL    HW1 5057   2.123   5.955   4.028
 1386SOL    HW2 5058   2.286   5.948   4.015
 1387SOL     OW 5059   2.526   6.108   1.710
 1387SOL    HW1 5060   2.570   6.021   1.687
 1387SOL    HW2 5061   2.534   6.125   1.808
 1388SOL     OW 5062   0.188   0.893   1.886
 1388SOL    HW1 5063   0.257   0.822   1.899
 1388SOL    HW2 5064   0.167   0.936   1.974
 1389SOL     OW 5065   6.381   1.083   2.142
 1389SOL    HW1 5066   6.389   1.181   2.159
 1389SOL    HW2 5067   6.319   1.067   2.065
 1390SOL     OW 5068   1.233   1.601   4.846
 1390SOL    HW1 5069   1.307   1.551   4.802
 1390SOL    HW2 5070   1.255   1.616   4.943
 1391SOL     OW 5071   0.198   3.239   3.518
 1391SOL    HW1 5072   0.202   3.158   3.577
 1391SOL    HW2 5073   0.149   3.312   3.565
 1392SOL     OW 5074   5.033   4.620   4.648
 1392SOL    HW1 5075   5.059   4.590   4.740
 1392SOL    HW2 5076   4.935   4.605   4.635
 1393SOL     OW 5077   3.047   6.329   6.062
 1393SOL    HW1 5078   3.114   6.393   6.023
 1393SOL    HW2 5079   3.090   6.240   6.077
 1394SOL     OW 5080   1.375   5.991   6.139
 1394SOL    HW1 5081   1.376   6.073   6.082
 1394SOL    HW2 5082   1.427   6.007   6.222
 1395SOL     OW 5083   3.564   4.452   5.648
 1395SOL    HW1 5084   3.621   4.533   5.633
 1395SOL    HW2 5085   3.622   4.372   5.660
 1396SOL     OW 5086   6.153   6.266   4.002
 1396SOL    HW1 5087   6.222   6.335   4.022
 1396SOL    HW2 5088   6.180   6.179   4.040
 1397SOL     OW 5089   4.390   5.859   5.359
 1397SOL    HW1 5090   4.339   5.876   5.443
 1397SOL    HW2 5091   4.348   5.783   5.310
 1398SOL     OW 5092   2.133   1.098   4.201
 1398SOL    HW1 5093   2.162   1.077   4.108
 1398SOL    HW2 5094   2.100   1.014   4.245
 1399SOL     OW 5095   3.075   6.288   1.410
 1399SOL    HW1 5096   3.147   6.316   1.473
 1399SOL    HW2 5097   3.028   6.207   1.447
 1400SOL     OW 5098   2.317   6.876   2.384
 1400SOL    HW1 5099   2.268   6.937   2.446
 1400SOL    HW2 5100   2.303   6.781   2.413
 1401SOL     OW 5101   6.500   1.089   4.510
 1401SOL    HW1 5102   6.551   1.112   4.593
 1401SOL    HW2 5103   6.507   1.165   4.445
 1402SOL     OW 5104   7.020   3.232   0.332
 1402SOL    HW1 5105   7.022   3.264   0.426
 1402SOL    HW2 5106   6.934   3.183   0.315
 1403SOL     OW 5107   3.257   1.034   2.530
 1403SOL    HW1 5108   3.299   1.115   2.490
 1403SOL    HW2 5109   3.297   0.952   2.490
 1404SOL     OW 5110   5.263   1.549   0.553
 1404SOL    HW1 5111   5.167   1.551   0.582
 1404SOL    HW2 5112   5.313   1.625   0.596
 1405SOL     OW 5113   2.729   3.115   0.862
 1405SOL    HW1 5114   2.663   3.047   0.897
 1405SOL    HW2 5115   2.762   3.171   0.938
 1406SOL     OW 5116   1.382   3.873   1.177
 1406SOL    HW1 5117   1.478   3.849   1.191
 1406SOL    HW2 5118   1.359   3.953   1.233
 1407SOL     OW 5119   6.166   2.961   3.009
 1407SOL    HW1 5120   6.247   2.905   3.026
 1407SOL    HW2 5121   6.105   2.955   3.089
 1408SOL     OW 5122   6.375   7.010   6.498
 1408SOL    HW1 5123   6.364   6.927   6.444
 1408SOL    HW2 5124   6.293   0.041   6.489
 1409SOL     OW 5125   0.685   1.571   4.352
 1409SOL    HW1 5126   0.717   1.644   4.291
 1409SOL    HW2 5127   0.721   1.483   4.320
 1410SOL     OW 5128   0.311   2.817   0.153
 1410SOL    HW1 5129   0.248   2.742   0.175
 1410SOL    HW2 5130   0.373   2.788   0.080
 1411SOL     OW 5131   1.836   6.903   1.357
 1411SOL    HW1 5132   1.910   6.947   1.307
 1411SOL    HW2 5133   1.769   6.867   1.293
 1412SOL     OW 5134   1.277   3.114   0.455
 1412SOL    HW1 5135   1.217   3.061   0.396
 1412SOL    HW2 5136   1.354   3.150   0.402
 1413SOL     OW 5137   2.887   0.033   4.339
 1413SOL    HW1 5138   2.810   7.006   4.376
 1413SOL    HW2 5139   2.854   0.115   4.294
 1414SOL     OW 5140   2.347   1.261   1.465
 1414SOL    HW1 5141   2.381   1.354   1.480
 1414SOL    HW2 5142   2.325   1.219   1.553
 1415SOL     OW 5143   4.429   5.928   5.929
 1415SOL    HW1 5144   4.363   5.966   5.864
 1415SOL    HW2 5145   4.461   6.001   5.989
 1416SOL     OW 5146   4.326   6.010   2.242
 1416SOL    HW1 5147   4.355   5.927   2.290
 1416SOL    HW2 5148   4.306   6.082   2.309
 1417SOL     OW 5149   3.078   2.254   5.897
 1417SOL    HW1 5150   3.034   2.333   5.940
 1417SOL    HW2 5151   3.164   2.283   5.855
 1418SOL     OW 5152   3.513   4.130   2.655
 1418SOL    HW1 5153   3.426   4.122   2.605
 1418SOL    HW2 5154   3.495   4.159   2.749
 1419SOL     OW 5155   5.006   6.652   5.245
 1419SOL    HW1 5156   4.942   6.599   5.301
 1419SOL    HW2 5157   5.067   6.704   5.305
 1420SOL     OW 5158   0.447   5.849   2.223
 1420SOL    HW1 5159   0.546   5.838   2.228
 1420SOL    HW2 5160   0.405   5.762   2.199
 1421SOL     OW 5161   3.614   1.293   2.674
 1421SOL    HW1 5162   3.583   1.296   2.579
 1421SOL    HW2 5163   3.616   1.198   2.705
 1422SOL     OW 5164   2.696   6.477   0.028
 1422SOL    HW1 5165   2.654   6.544   0.089
 1422SOL    HW2 5166   2.746   6.525   6.980
 1423SOL     OW 5167   4.603   0.387   2.724
 1423SOL    HW1 5168   4.658   0.471   2.725
 1423SOL    HW2 5169   4.575   0.365   2.817
 1424SOL     OW 5170   6.378   4.731   3.074
 1424SOL    HW1 5171   6.309   4.769   3.135
 1424SOL    HW2 5172   6.347   4.737   2.979
 1425SOL     OW 5173   2.219   0.162   4.820
 1425SOL    HW1 5174   2.182   0.208   4.739
 1425SOL    HW2 5175   2.144   0.129   4.877
 1426SOL     OW 5176   1.012   1.800   5.603
 1426SOL    HW1 5177   1.084   1.853   5.559
 1426SOL    HW2 5178   1.036   1.703   5.603
 1427SOL     OW 5179   6.024   0.516   4.628
 1427SOL    HW1 5180   5.981   0.596   4.587
 1427SOL    HW2 5181   6.084   0.545   4.703
 1428SOL     OW 5182   5.212   1.055   0.179
 1428SOL    HW1 5183   5.192   1.125   0.111
 1428SOL    HW2 5184   5.311   1.046   0.190
 1429SOL     OW 5185   6.024   0.584   0.488
 1429SOL    HW1 5186   6.070   0.495   0.481
 1429SOL    HW2 5187   6.016   0.625   0.397
 1430SOL     OW 5188   2.171   4.958   3.789
 1430SOL    HW1 5189   2.079   4.943   3.753
 1430SOL    HW2 5190   2.224   4.874   3.780
 1431SOL     OW 5191   1.679   0.584   0.917
 1431SOL    HW1 5192   1.755   0.618   0.972
 1431SOL    HW2 5193   1.712   0.558   0.826
 1432SOL     OW 5194   2.161   0.922   1.787
 1432SOL    HW1 5195   2.259   0.905   1.797
 1432SOL    HW2 5196   2.147   1.002   1.728
 1433SOL     OW 5197   4.774   0.995   3.825
 1433SOL    HW1 5198   4.850   0.993   3.760
 1433SOL    HW2 5199   4.790   1.068   3.892
 1434SOL     OW 5200   1.233   0.913   5.451
 1434SOL    HW1 5201   1.182   0.986   5.498
 1434SOL    HW2 5202   1.227   0.830   5.506
 1435SOL     OW 5203   0.182   1.810   3.398
 1435SOL    HW1 5204   0.202   1.793   3.302
 1435SOL    HW2 5205   0.202   1.906   3.420
 1436SOL     OW 5206   4.125   3.718   0.833
 1436SOL    HW1 5207   4.217   3.730   0.871
 1436SOL    HW2 5208   4.060   3.707   0.908
 1437SOL     OW 5209   3.945   1.272   2.367
 1437SOL    HW1 5210   3.948   1.349   2.303
 1437SOL    HW2 5211   4.026   1.215   2.352
 1438SOL     OW 5212   2.204   0.252   1.244
 1438SOL    HW1 5213   2.219   0.248   1.343
 1438SOL    HW2 5214   2.289   0.229   1.197
 1439SOL     OW 5215   0.298   5.876   2.509
 1439SOL    HW1 5216   0.272   5.935   2.433
 1439SOL    HW2 5217   0.348   5.797   2.474
 1440SOL     OW 5218   2.525   3.435   1.677
 1440SOL    HW1 5219   2.447   3.418   1.738
 1440SOL    HW2 5220   2.534   3.359   1.613
 1441SOL     OW 5221   5.217   6.339   0.676
 1441SOL    HW1 5222   5.147   6.297   0.734
 1441SOL    HW2 5223   5.239   6.277   0.601
 1442SOL     OW 5224   5.412   5.914   0.835
 1442SOL    HW1 5225   5.337   5.849   0.850
 1442SOL    HW2 5226   5.498   5.863   0.830
 1443SOL     OW 5227   0.331   2.877   2.945
 1443SOL    HW1 5228   0.391   2.844   2.872
 1443SOL    HW2 5229   0.248   2.916   2.905
 1444SOL     OW 5230   6.311   4.804   6.603
 1444SOL    HW1 5231   6.341   4.800   6.698
 1444SOL    HW2 5232   6.255   4.886   6.589
 1445SOL     OW 5233   1.148   3.472   1.288
 1445SOL    HW1 5234   1.173   3.564   1.318
 1445SOL    HW2 5235   1.048   3.462   1.291
 1446SOL     OW 5236   6.354   6.796   0.807
 1446SOL    HW1 5237   6.363   6.699   0.831
 1446SOL    HW2 5238   6.394   6.812   0.717
 1447SOL     OW 5239   6.140   5.135   4.540
 1447SOL    HW1 5240   6.081   5.067   4.586
 1447SOL    HW2 5241   6.234   5.103   4.542
 1448SOL     OW 5242   1.286   3.113   5.633
 1448SOL    HW1 5243   1.246   3.119   5.541
 1448SOL    HW2 5244   1.222   3.150   5.700
 1449SOL     OW 5245   2.071   3.214   3.584
 1449SOL    HW1 5246   2.111   3.303   3.564
 1449SOL    HW2 5247   2.084   3.193   3.681
 1450SOL     OW 5248   2.495   2.586   3.865
 1450SOL    HW1 5249   2.479   2.499   3.911
 1450SOL    HW2 5250   2.593   2.605   3.863
 1451SOL     OW 5251   2.723   0.837   2.690
 1451SOL    HW1 5252   2.782   0.855   2.611
 1451SOL    HW2 5253   2.779   0.802   2.765
 1452SOL     OW 5254   4.969   2.760   6.447
 1452SOL    HW1 5255   5.006   2.841   6.493
 1452SOL    HW2 5256   5.013   2.750   6.358
 1453SOL     OW 5257   0.001   4.733   5.500
 1453SOL    HW1 5258   0.008   4.749   5.401
 1453SOL    HW2 5259   6.966   4.802   5.540
 1454SOL     OW 5260   3.727   2.147   3.571
 1454SOL    HW1 5261   3.802   2.179   3.513
 1454SOL    HW2 5262   3.752   2.061   3.615
 1455SOL     OW 5263   0.473   5.769   1.860
 1455SOL    HW1 5264   0.511   5.699   1.920
 1455SOL    HW2 5265   0.408   5.825   1.912
 1456SOL     OW 5266   6.509   4.888   4.552
 1456SOL    HW1 5267   6.485   4.927   4.463
 1456SOL    HW2 5268   6.431   4.838   4.589
 1457SOL     OW 5269   1.067   5.547   6.076
 1457SOL    HW1 5270   1.026   5.551   6.167
 1457SOL    HW2 5271   1.165   5.525   6.084
 1458SOL     OW 5272   5.109   5.137   5.234
 1458SOL    HW1 5273   5.166   5.069   5.281
 1458SOL    HW2 5274   5.166   5.214   5.206
 1459SOL     OW 5275   5.499   6.771   5.399
 1459SOL    HW1 5276   5.569   6.840   5.418
 1459SOL    HW2 5277   5.534   6.704   5.334
 1460SOL     OW 5278   1.310   6.369   4.916
 1460SOL    HW1 5279   1.311   6.458   4.871
 1460SOL    HW2 5280   1.386   6.364   4.981
 1461SOL     OW 5281   6.507   3.199   3.776
 1461SOL    HW1 5282   6.574   3.129   3.751
 1461SOL    HW2 5283   6.496   3.200   3.876
 1462SOL     OW 5284   0.671   0.768   1.905
 1462SOL    HW1 5285   0.711   0.753   1.995
 1462SOL    HW2 5286   0.706   0.853   1.866
 1463SOL     OW 5287   2.130   5.473   0.092
 1463SOL    HW1 5288   2.049   5.439   0.140
 1463SOL    HW2 5289   2.193   5.514   0.158
 1464SOL     OW 5290   1.357   3.751   3.923
 1464SOL    HW1 5291   1.437   3.802   3.954
 1464SOL    HW2 5292   1.321   3.696   3.998
 1465SOL     OW 5293   0.535   2.968   3.754
 1465SOL    HW1 5294   0.553   2.998   3.660
 1465SOL    HW2 5295   0.611   2.913   3.787
 1466SOL     OW 5296   5.509   2.494   2.342
 1466SOL    HW1 5297   5.458   2.535   2.418
 1466SOL    HW2 5298   5.563   2.417   2.376
 1467SOL     OW 5299   0.870   0.964   4.144
 1467SOL    HW1 5300   0.920   0.881   4.167
 1467SOL    HW2 5301   0.829   1.002   4.227
 1468SOL     OW 5302   2.807   5.292   2.577
 1468SOL    HW1 5303   2.888   5.344   2.605
 1468SOL    HW2 5304   2.726   5.350   2.584
 1469SOL     OW 5305   5.997   3.936   2.910
 1469SOL    HW1 5306   5.930   4.005   2.936
 1469SOL    HW2 5307   5.962   3.845   2.935
 1470SOL     OW 5308   6.203   1.255   1.787
 1470SOL    HW1 5309   6.286   1.272   1.734
 1470SOL    HW2 5310   6.128   1.308   1.750
 1471SOL     OW 5311   4.393   6.439   1.364
 1471SOL    HW1 5312   4.442   6.411   1.446
 1471SOL    HW2 5313   4.382   6.539   1.363
 1472SOL     OW 5314   1.953   0.240   5.993
 1472SOL    HW1 5315   1.955   0.340   6.000
 1472SOL    HW2 5316   1.938   0.201   6.084
 1473SOL     OW 5317   1.355   5.518   3.716
 1473SOL    HW1 5318   1.405   5.558   3.792
 1473SOL    HW2 5319   1.366   5.576   3.635
 1474SOL     OW 5320   2.590   5.049   1.221
 1474SOL    HW1 5321   2.502   5.004   1.231
 1474SOL    HW2 5322   2.635   5.017   1.137
 1475SOL     OW 5323   5.675   0.151   6.291
 1475SOL    HW1 5324   5.688   0.153   6.391
 1475SOL    HW2 5325   5.747   0.205   6.248
 1476SOL     OW 5326   4.556   0.882   0.646
 1476SOL    HW1 5327   4.464   0.845   0.662
 1476SOL    HW2 5328   4.571   0.961   0.706
 1477SOL     OW 5329   3.614   4.953   1.583
 1477SOL    HW1 5330   3.617   4.954   1.483
 1477SOL    HW2 5331   3.532   5.001   1.614
 1478SOL     OW 5332   4.783   5.178   6.808
 1478SOL    HW1 5333   4.755   5.235   6.886
 1478SOL    HW2 5334   4.862   5.123   6.834
 1479SOL     OW 5335   3.883   3.680   1.634
 1479SOL    HW1 5336   3.841   3.756   1.584
 1479SOL    HW2 5337   3.980   3.697   1.647
 1480SOL     OW 5338   3.275   0.538   4.644
 1480SOL    HW1 5339   3.229   0.613   4.597
 1480SOL    HW2 5340   3.292   0.464   4.579
 1481SOL     OW 5341   5.611   2.435   6.204
 1481SOL    HW1 5342   5.704   2.471   6.198
 1481SOL    HW2 5343   5.591   2.380   6.123
 1482SOL     OW 5344   5.297   1.034   1.225
 1482SOL    HW1 5345   5.234   1.111   1.219
 1482SOL    HW2 5346   5.282   0.986   1.312
 1483SOL     OW 5347   5.752   1.083   6.687
 1483SOL    HW1 5348   5.845   1.109   6.663
 1483SOL    HW2 5349   5.735   1.103   6.784
 1484SOL     OW 5350   3.909   5.780   4.971
 1484SOL    HW1 5351   3.984   5.774   5.037
 1484SOL    HW2 5352   3.828   5.733   5.006
 1485SOL     OW 5353   5.417   2.877   3.645
 1485SOL    HW1 5354   5.318   2.888   3.649
 1485SOL    HW2 5355   5.451   2.914   3.558
 1486SOL     OW 5356   4.664   6.517   3.744
 1486SOL    HW1 5357   4.569   6.526   3.715
 1486SOL    HW2 5358   4.672   6.443   3.811
 1487SOL     OW 5359   6.428   0.779   0.493
 1487SOL    HW1 5360   6.357   0.843   0.462
 1487SOL    HW2 5361   6.478   0.819   0.570
 1488SOL     OW 5362   6.685   1.766   2.497
 1488SOL    HW1 5363   6.726   1.814   2.419
 1488SOL    HW2 5364   6.755   1.710   2.542
 1489SOL     OW 5365   3.562   4.453   0.318
 1489SOL    HW1 5366   3.615   4.375   0.287
 1489SOL    HW2 5367   3.612   4.501   0.390
 1490SOL     OW 5368   6.891   2.486   2.398
 1490SOL    HW1 5369   6.900   2.480   2.498
 1490SOL    HW2 5370   6.823   2.419   2.367
 1491SOL     OW 5371   6.107   2.632   3.867
 1491SOL    HW1 5372   6.017   2.657   3.903
 1491SOL    HW2 5373   6.175   2.637   3.940
 1492SOL     OW 5374   6.435   1.528   3.383
 1492SOL    HW1 5375   6.441   1.618   3.340
 1492SOL    HW2 5376   6.527   1.490   3.393
 1493SOL     OW 5377   5.312   2.153   6.158
 1493SOL    HW1 5378   5.355   2.065   6.173
 1493SOL    HW2 5379   5.291   2.196   6.246
 1494SOL     OW 5380   6.371   4.496   5.890
 1494SOL    HW1 5381   6.343   4.535   5.803
 1494SOL    HW2 5382   6.442   4.426   5.875
 1495SOL     OW 5383   0.025   4.070   3.949
 1495SOL    HW1 5384   0.100   4.066   4.016
 1495SOL    HW2 5385   0.011   3.979   3.910
 1496SOL     OW 5386   6.180   5.943   5.974
 1496SOL    HW1 5387   6.231   5.907   5.897
 1496SOL    HW2 5388   6.240   6.000   6.030
 1497SOL     OW 5389   5.988   2.921   2.741
 1497SOL    HW1 5390   5.939   2.943   2.657
 1497SOL    HW2 5391   6.082   2.956   2.735
 1498SOL     OW 5392   3.422   3.885   0.760
 1498SOL    HW1 5393   3.423   3.826   0.680
 1498SOL    HW2 5394   3.335   3.876   0.808
 1499SOL     OW 5395   0.755   4.690   4.818
 1499SOL    HW1 5396   0.750   4.600   4.774
 1499SOL    HW2 5397   0.805   4.754   4.759
 1500SOL     OW 5398   0.859   6.060   1.754
 1500SOL    HW1 5399   0.815   5.991   1.696
 1500SOL    HW2 5400   0.810   6.065   1.841
 1501SOL     OW 5401   5.514   2.095   0.554
 1501SOL    HW1 5402   5.595   2.078   0.609
 1501SOL    HW2 5403   5.434   2.053   0.598
 1502SOL     OW 5404   6.572   0.030   6.207
 1502SOL    HW1 5405   6.549   6.959   6.220
 1502SOL    HW2 5406   6.667   0.045   6.235
 1503SOL     OW 5407   6.895   4.845   1.114
 1503SOL    HW1 5408   6.945   4.776   1.168
 1503SOL    HW2 5409   6.939   4.934   1.126
 1504SOL     OW 5410   1.921   6.980   2.245
 1504SOL    HW1 5411   1.997   6.963   2.183
 1504SOL    HW2 5412   1.835   6.957   2.200
 1505SOL     OW 5413   5.925   5.444   4.733
 1505SOL    HW1 5414   5.919   5.440   4.833
 1505SOL    HW2 5415   5.886   5.360   4.694
 1506SOL     OW 5416   0.400   1.516   0.997
 1506SOL    HW1 5417   0.415   1.553   0.906
 1506SOL    HW2 5418   0.417   1.417   0.996
 1507SOL     OW 5419   1.380   2.828   3.999
 1507SOL    HW1 5420   1.427   2.891   4.061
 1507SOL    HW2 5421   1.443   2.755   3.971
 1508SOL     OW 5422   1.637   0.492   1.206
 1508SOL    HW1 5423   1.670   0.552   1.134
 1508SOL    HW2 5424   1.700   0.415   1.216
 1509SOL     OW 5425   4.908   1.111   4.673
 1509SOL    HW1 5426   4.876   1.025   4.713
 1509SOL    HW2 5427   4.862   1.187   4.719
 1510SOL     OW 5428   3.596   6.117   4.567
 1510SOL    HW1 5429   3.616   6.186   4.498
 1510SOL    HW2 5430   3.537   6.157   4.637
 1511SOL     OW 5431   2.895   3.508   5.117
 1511SOL    HW1 5432   2.854   3.527   5.207
 1511SOL    HW2 5433   2.823   3.480   5.053
 1512SOL     OW 5434   5.481   6.805   1.072
 1512SOL    HW1 5435   5.577   6.782   1.055
 1512SOL    HW2 5436   5.456   6.888   1.022
 1513SOL     OW 5437   2.632   6.980   6.031
 1513SOL    HW1 5438   2.719   6.996   6.078
 1513SOL    HW2 5439   2.648   6.930   5.946
 1514SOL     OW 5440   2.894   2.905   6.207
 1514SOL    HW1 5441   2.854   2.939   6.122
 1514SOL    HW2 5442   2.826   2.910   6.280
 1515SOL     OW 5443   4.679   1.185   2.367
 1515SOL    HW1 5444   4.714   1.235   2.287
 1515SOL    HW2 5445   4.749   1.184   2.439
 1516SOL     OW 5446   5.782   0.485   5.130
 1516SOL    HW1 5447   5.881   0.498   5.133
 1516SOL    HW2 5448   5.740   0.533   5.207
 1517SOL     OW 5449   3.600   6.078   3.809
 1517SOL    HW1 5450   3.617   6.030   3.895
 1517SOL    HW2 5451   3.572   6.013   3.739
 1518SOL     OW 5452   0.912   2.938   0.133
 1518SOL    HW1 5453   0.917   2.847   0.092
 1518SOL    HW2 5454   0.820   2.953   0.171
 1519SOL     OW 5455   6.962   4.988   6.808
 1519SOL    HW1 5456   6.943   4.898   6.768
 1519SOL    HW2 5457   6.926   5.059   6.749
 1520SOL     OW 5458   0.461   6.470   3.081
 1520SOL    HW1 5459   0.434   6.450   2.987
 1520SOL    HW2 5460   0.480   6.385   3.129
 1521SOL     OW 5461   2.191   5.007   5.869
 1521SOL    HW1 5462   2.182   5.104   5.849
 1521SOL    HW2 5463   2.283   4.988   5.902
 1522SOL     OW 5464   5.734   6.078   4.260
 1522SOL    HW1 5465   5.663   6.121   4.315
 1522SOL    HW2 5466   5.792   6.148   4.219
 1523SOL     OW 5467   3.765   6.410   0.780
 1523SOL    HW1 5468   3.762   6.451   0.871
 1523SOL    HW2 5469   3.793   6.479   0.713
 1524SOL     OW 5470   2.678   1.621   2.927
 1524SOL    HW1 5471   2.726   1.557   2.867
 1524SOL    HW2 5472   2.621   1.570   2.992
 1525SOL     OW 5473   5.600   3.465   6.891
 1525SOL    HW1 5474   5.582   3.378   6.845
 1525SOL    HW2 5475   5.573   3.541   6.832
 1526SOL     OW 5476   1.103   1.251   0.205
 1526SOL    HW1 5477   1.013   1.213   0.185
 1526SOL    HW2 5478   1.148   1.196   0.275
 1527SOL     OW 5479   4.427   2.026   3.910
 1527SOL    HW1 5480   4.371   2.015   3.992
 1527SOL    HW2 5481   4.382   1.983   3.832
 1528SOL     OW 5482   3.622   3.681   2.187
 1528SOL    HW1 5483   3.662   3.750   2.127
 1528SOL    HW2 5484   3.672   3.680   2.274
 1529SOL     OW 5485   4.110   1.335   5.641
 1529SOL    HW1 5486   4.200   1.354   5.600
 1529SOL    HW2 5487   4.103   1.238   5.663
 1530SOL     OW 5488   3.155   6.365   0.992
 1530SOL    HW1 5489   3.152   6.267   0.972
 1530SOL    HW2 5490   3.069   6.392   1.036
 1531SOL     OW 5491   4.407   6.701   4.146
 1531SOL    HW1 5492   4.414   6.783   4.088
 1531SOL    HW2 5493   4.373   6.727   4.236
 1532SOL     OW 5494   3.330   5.712   6.230
 1532SOL    HW1 5495   3.330   5.647   6.306
 1532SOL    HW2 5496   3.351   5.664   6.145
 1533SOL     OW 5497   6.137   5.543   1.401
 1533SOL    HW1 5498   6.069   5.495   1.346
 1533SOL    HW2 5499   6.206   5.478   1.433
 1534SOL     OW 5500   3.567   4.914   6.542
 1534SOL    HW1 5501   3.535   5.008   6.547
 1534SOL    HW2 5502   3.568   4.884   6.446
 1535SOL     OW 5503   5.530   5.306   4.142
 1535SOL    HW1 5504   5.573   5.394   4.158
 1535SOL    HW2 5505   5.596   5.244   4.099
 1536SOL     OW 5506   4.731   2.952   6.147
 1536SOL    HW1 5507   4.808   2.997   6.191
 1536SOL    HW2 5508   4.699   2.876   6.204
 1537SOL     OW 5509   2.907   5.213   3.032
 1537SOL    HW1 5510   2.811   5.188   3.019
 1537SOL    HW2 5511   2.921   5.307   3.001
 1538SOL     OW 5512   2.653   1.349   0.235
 1538SOL    HW1 5513   2.592   1.289   0.182
 1538SOL    HW2 5514   2.630   1.444   0.216
 1539SOL     OW 5515   6.053   3.325   0.358
 1539SOL    HW1 5516   6.055   3.264   0.279
 1539SOL    HW2 5517   5.969   3.380   0.355
 1540SOL     OW 5518   3.378   6.815   4.424
 1540SOL    HW1 5519   3.283   6.829   4.397
 1540SOL    HW2 5520   3.406   6.888   4.487
 1541SOL     OW 5521   3.744   3.146   5.296
 1541SOL    HW1 5522   3.662   3.125   5.350
 1541SOL    HW2 5523   3.719   3.161   5.201
 1542SOL     OW 5524   0.329   6.786   2.274
 1542SOL    HW1 5525   0.333   6.778   2.374
 1542SOL    HW2 5526   0.360   6.878   2.247
 1543SOL     OW 5527   3.296   4.520   0.515
 1543SOL    HW1 5528   3.304   4.507   0.613
 1543SOL    HW2 5529   3.350   4.450   0.467
 1544SOL     OW 5530   3.868   3.319   4.184
 1544SOL    HW1 5531   3.808   3.359   4.115
 1544SOL    HW2 5532   3.813   3.296   4.265
 1545SOL     OW 5533   5.927   6.208   1.956
 1545SOL    HW1 5534   5.905   6.115   1.924
 1545SOL    HW2 5535   5.843   6.258   1.975
 1546SOL     OW 5536   5.184   0.068   5.856
 1546SOL    HW1 5537   5.160   0.105   5.946
 1546SOL    HW2 5538   5.278   0.092   5.834
 1547SOL     OW 5539   2.009   3.292   6.425
 1547SOL    HW1 5540   1.943   3.279   6.351
 1547SOL    HW2 5541   2.082   3.352   6.394
 1548SOL     OW 5542   6.159   1.959   0.222
 1548SOL    HW1 5543   6.216   1.879   0.202
 1548SOL    HW2 5544   6.202   2.014   0.293
 1549SOL     OW 5545   4.569   0.778   4.926
 1549SOL    HW1 5546   4.572   0.723   5.009
 1549SOL    HW2 5547   4.659   0.776   4.882
 1550SOL     OW 5548   3.858   2.950   4.054
 1550SOL    HW1 5549   3.766   2.919   4.030
 1550SOL    HW2 5550   3.904   2.985   3.972
 1551SOL     OW 5551   6.345   4.713   6.087
 1551SOL    HW1 5552   6.355   4.696   6.185
 1551SOL    HW2 5553   6.377   4.633   6.036
 1552SOL     OW 5554   1.848   4.269   1.441
 1552SOL    HW1 5555   1.834   4.293   1.537
 1552SOL    HW2 5556   1.924   4.205   1.433
 1553SOL     OW 5557   1.499   1.731   5.788
 1553SOL    HW1 5558   1.589   1.692   5.805
 1553SOL    HW2 5559   1.494   1.763   5.693
 1554SOL     OW 5560   2.891   1.524   3.857
 1554SOL    HW1 5561   2.905   1.443   3.801
 1554SOL    HW2 5562   2.840   1.593   3.805
 1555SOL     OW 5563   6.685   3.798   5.913
 1555SOL    HW1 5564   6.745   3.778   5.835
 1555SOL    HW2 5565   6.656   3.893   5.909
 1556SOL     OW 5566   1.957   0.789   6.023
 1556SOL    HW1 5567   1.886   0.734   6.068
 1556SOL    HW2 5568   2.044   0.739   6.027
 1557SOL     OW 5569   0.084   2.826   6.515
 1557SOL    HW1 5570   0.048   2.755   6.576
 1557SOL    HW2 5571   0.166   2.866   6.555
 1558SOL     OW 5572   0.598   6.973   4.754
 1558SOL    HW1 5573   0.616   6.881   4.787
 1558SOL    HW2 5574   0.655   6.992   4.675
 1559SOL     OW 5575   1.320   1.904   6.449
 1559SOL    HW1 5576   1.347   1.834   6.384
 1559SOL    HW2 5577   1.256   1.865   6.515
 1560SOL     OW 5578   6.781   0.078   6.799
 1560SOL    HW1 5579   6.707   0.094   6.734
 1560SOL    HW2 5580   6.826   0.164   6.821
 1561SOL     OW 5581   5.883   5.998   2.538
 1561SOL    HW1 5582   5.921   5.998   2.446
 1561SOL    HW2 5583   5.784   5.983   2.534
 1562SOL     OW 5584   5.945   0.941   3.426
 1562SOL    HW1 5585   5.943   0.904   3.332
 1562SOL    HW2 5586   5.950   0.865   3.491
 1563SOL     OW 5587   4.141   6.928   5.043
 1563SOL    HW1 5588   4.175   6.848   4.993
 1563SOL    HW2 5589   4.217   6.980   5.080
 1564SOL     OW 5590   1.269   1.925   2.523
 1564SOL    HW1 5591   1.343   1.858   2.521
 1564SOL    HW2 5592   1.253   1.961   2.431
 1565SOL     OW 5593   5.758   4.502   1.838
 1565SOL    HW1 5594   5.746   4.460   1.748
 1565SOL    HW2 5595   5.674   4.552   1.863
 1566SOL     OW 5596   5.751   4.607   3.098
 1566SOL    HW1 5597   5.850   4.604   3.112
 1566SOL    HW2 5598   5.714   4.514   3.102
 1567SOL     OW 5599   6.544   5.707   5.228
 1567SOL    HW1 5600   6.539   5.607   5.233
 1567SOL    HW2 5601   6.453   5.746   5.240
 1568SOL     OW 5602   0.424   6.837   0.516
 1568SOL    HW1 5603   0.515   6.847   0.476
 1568SOL    HW2 5604   0.356   6.832   0.443
 1569SOL     OW 5605   3.688   6.377   4.748
 1569SOL    HW1 5606   3.726   6.294   4.788
 1569SOL    HW2 5607   3.600   6.357   4.706
 1570SOL     OW 5608   3.698   2.016   1.577
 1570SOL    HW1 5609   3.677   2.004   1.674
 1570SOL    HW2 5610   3.685   1.929   1.529
 1571SOL     OW 5611   6.765   4.471   1.101
 1571SOL    HW1 5612   6.749   4.375   1.125
 1571SOL    HW2 5613   6.819   4.476   1.017
 1572SOL     OW 5614   1.499   6.336   2.057
 1572SOL    HW1 5615   1.466   6.249   2.094
 1572SOL    HW2 5616   1.586   6.360   2.101
 1573SOL     OW 5617   3.740   0.005   0.835
 1573SOL    HW1 5618   3.819   6.987   0.793
 1573SOL    HW2 5619   3.765   0.097   0.867
 1574SOL     OW 5620   6.207   2.830   2.365
 1574SOL    HW1 5621   6.275   2.890   2.406
 1574SOL    HW2 5622   6.115   2.865   2.384
 1575SOL     OW 5623   3.271   2.509   0.472
 1575SOL    HW1 5624   3.320   2.511   0.559
 1575SOL    HW2 5625   3.296   2.589   0.418
 1576SOL     OW 5626   6.549   5.985   3.920
 1576SOL    HW1 5627   6.477   5.948   3.860
 1576SOL    HW2 5628   6.532   5.956   4.014
 1577SOL     OW 5629   1.332   0.631   0.315
 1577SOL    HW1 5630   1.366   0.557   0.258
 1577SOL    HW2 5631   1.398   0.707   0.315
 1578SOL     OW 5632   5.789   5.452   4.399
 1578SOL    HW1 5633   5.820   5.546   4.384
 1578SOL    HW2 5634   5.689   5.449   4.391
 1579SOL     OW 5635   0.673   0.110   3.661
 1579SOL    HW1 5636   0.763   0.146   3.686
 1579SOL    HW2 5637   0.684   0.029   3.604
 1580SOL     OW 5638   3.335   4.085   5.714
 1580SOL    HW1 5639   3.266   4.146   5.674
 1580SOL    HW2 5640   3.418   4.087   5.657
 1581SOL     OW 5641   6.505   4.173   4.296
 1581SOL    HW1 5642   6.488   4.135   4.205
 1581SOL    HW2 5643   6.547   4.263   4.288
 1582SOL     OW 5644   5.937   5.242   4.315
 1582SOL    HW1 5645   5.959   5.197   4.402
 1582SOL    HW2 5646   5.888   5.327   4.333
 1583SOL     OW 5647   1.980   2.503   2.937
 1583SOL    HW1 5648   1.900   2.557   2.964
 1583SOL    HW2 5649   1.952   2.408   2.921
 1584SOL     OW 5650   2.160   0.507   6.513
 1584SOL    HW1 5651   2.097   0.548   6.580
 1584SOL    HW2 5652   2.118   0.425   6.474
 1585SOL     OW 5653   6.190   1.450   5.341
 1585SOL    HW1 5654   6.197   1.364   5.291
 1585SOL    HW2 5655   6.252   1.448   5.420
 1586SOL     OW 5656   3.702   4.046   3.030
 1586SOL    HW1 5657   3.693   3.963   3.085
 1586SOL    HW2 5658   3.656   4.122   3.077
 1587SOL     OW 5659   2.383   6.645   6.484
 1587SOL    HW1 5660   2.438   6.658   6.401
 1587SOL    HW2 5661   2.443   6.630   6.562
 1588SOL     OW 5662   6.155   3.912   1.430
 1588SOL    HW1 5663   6.121   3.818   1.435
 1588SOL    HW2 5664   6.077   3.975   1.432
 1589SOL     OW 5665   5.025   4.138   3.986
 1589SOL    HW1 5666   5.104   4.080   4.005
 1589SOL    HW2 5667   5.024   4.215   4.049
 1590SOL     OW 5668   1.610   0.714   6.030
 1590SOL    HW1 5669   1.653   0.668   5.952
 1590SOL    HW2 5670   1.589   0.808   6.006
 1591SOL     OW 5671   0.042   4.476   1.489
 1591SOL    HW1 5672   0.033   4.538   1.566
 1591SOL    HW2 5673   7.004   4.503   1.417
 1592SOL     OW 5674   2.901   3.602   3.316
 1592SOL    HW1 5675   2.913   3.530   3.247
 1592SOL    HW2 5676   2.806   3.604   3.346
 1593SOL     OW 5677   0.996   5.412   4.903
 1593SOL    HW1 5678   1.039   5.502   4.902
 1593SOL    HW2 5679   0.951   5.398   4.991
 1594SOL     OW 5680   0.287   4.805   3.284
 1594SOL    HW1 5681   0.348   4.736   3.324
 1594SOL    HW2 5682   0.215   4.827   3.350
 1595SOL     OW 5683   0.327   5.263   6.041
 1595SOL    HW1 5684   0.320   5.254   6.140
 1595SOL    HW2 5685   0.393   5.197   6.006
 1596SOL     OW 5686   3.125   5.056   6.780
 1596SOL    HW1 5687   3.039   5.106   6.767
 1596SOL    HW2 5688   3.154   5.062   6.875
 1597SOL     OW 5689   2.697   0.000   0.873
 1597SOL    HW1 5690   2.691   6.931   0.842
 1597SOL    HW2 5691   2.740   0.003   0.963
 1598SOL     OW 5692   0.141   5.518   1.611
 1598SOL    HW1 5693   0.230   5.477   1.631
 1598SOL    HW2 5694   0.072   5.481   1.673
 1599SOL     OW 5695   3.275   5.077   0.006
 1599SOL    HW1 5696   3.247   5.148   0.070
 1599SOL    HW2 5697   3.359   5.105   6.984
 1600SOL     OW 5698   3.222   1.530   5.355
 1600SOL    HW1 5699   3.248   1.444   5.400
 1600SOL    HW2 5700   3.293   1.556   5.289
 1601SOL     OW 5701   1.473   4.708   4.718
 1601SOL    HW1 5702   1.380   4.744   4.730
 1601SOL    HW2 5703   1.484   4.677   4.623
 1602SOL     OW 5704   0.272   5.091   2.762
 1602SOL    HW1 5705   0.291   5.149   2.682
 1602SOL    HW2 5706   0.349   5.029   2.778
 1603SOL     OW 5707   5.931   6.742   1.030
 1603SOL    HW1 5708   5.864   6.767   0.960
 1603SOL    HW2 5709   5.890   6.753   1.120
 1604SOL     OW 5710   0.545   5.453   5.030
 1604SOL    HW1 5711   0.556   5.497   4.941
 1604SOL    HW2 5712   0.627   5.469   5.086
 1605SOL     OW 5713   4.957   6.387   2.742
 1605SOL    HW1 5714   5.037   6.445   2.757
 1605SOL    HW2 5715   4.878   6.444   2.721
 1606SOL     OW 5716   4.566   0.127   5.894
 1606SOL    HW1 5717   4.503   0.191   5.850
 1606SOL    HW2 5718   4.597   0.059   5.828
 1607SOL     OW 5719   4.819   2.343   0.867
 1607SOL    HW1 5720   4.794   2.290   0.786
 1607SOL    HW2 5721   4.813   2.285   0.948
 1608SOL     OW 5722   2.337   0.147   0.691
 1608SOL    HW1 5723   2.363   0.134   0.786
 1608SOL    HW2 5724   2.362   0.065   0.638
 1609SOL     OW 5725   5.168   1.282   5.587
 1609SOL    HW1 5726   5.245   1.346   5.589
 1609SOL    HW2 5727   5.108   1.305   5.510
 1610SOL     OW 5728   5.518   6.224   4.361
 1610SOL    HW1 5729   5.469   6.296   4.313
 1610SOL    HW2 5730   5.453   6.157   4.396
 1611SOL     OW 5731   3.575   3.605   1.073
 1611SOL    HW1 5732   3.626   3.578   1.155
 1611SOL    HW2 5733   3.484   3.563   1.075
 1612SOL     OW 5734   3.440   1.437   4.406
 1612SOL    HW1 5735   3.417   1.354   4.357
 1612SOL    HW2 5736   3.540   1.443   4.415
 1613SOL     OW 5737   1.932   6.488   0.880
 1613SOL    HW1 5738   1.962   6.459   0.788
 1613SOL    HW2 5739   2.009   6.479   0.943
 1614SOL     OW 5740   0.291   2.958   6.605
 1614SOL    HW1 5741   0.352   2.954   6.684
 1614SOL    HW2 5742   0.323   3.028   6.541
 1615SOL     OW 5743   6.306   5.164   6.344
 1615SOL    HW1 5744   6.313   5.183   6.246
 1615SOL    HW2 5745   6.370   5.091   6.368
 1616SOL     OW 5746   2.225   1.904   5.840
 1616SOL    HW1 5747   2.140   1.893   5.789
 1616SOL    HW2 5748   2.250   2.001   5.844
 1617SOL     OW 5749   4.724   0.630   4.249
 1617SOL    HW1 5750   4.754   0.608   4.156
 1617SOL    HW2 5751   4.624   0.638   4.251
 1618SOL     OW 5752   5.743   2.351   1.208
 1618SOL    HW1 5753   5.754   2.348   1.109
 1618SOL    HW2 5754   5.829   2.382   1.250
 1619SOL     OW 5755   1.638   3.148   4.727
 1619SOL    HW1 5756   1.694   3.174   4.806
 1619SOL    HW2 5757   1.694   3.094   4.664
 1620SOL     OW 5758   4.036   5.648   1.488
 1620SOL    HW1 5759   4.098   5.651   1.409
 1620SOL    HW2 5760   4.089   5.659   1.572
 1621SOL     OW 5761   2.193   1.512   1.544
 1621SOL    HW1 5762   2.198   1.413   1.558
 1621SOL    HW2 5763   2.160   1.556   1.628
 1622SOL     OW 5764   2.188   2.172   4.607
 1622SOL    HW1 5765   2.121   2.205   4.540
 1622SOL    HW2 5766   2.270   2.140   4.560
 1623SOL     OW 5767   2.595   2.410   5.032
 1623SOL    HW1 5768   2.515   2.353   5.049
 1623SOL    HW2 5769   2.677   2.353   5.031
 1624SOL     OW 5770   2.520   0.358   0.653
 1624SOL    HW1 5771   2.468   0.416   0.715
 1624SOL    HW2 5772   2.481   0.266   0.652
 1625SOL     OW 5773   6.939   5.210   2.126
 1625SOL    HW1 5774   6.850   5.250   2.102
 1625SOL    HW2 5775   7.009   5.281   2.125
 1626SOL     OW 5776   1.710   2.919   5.976
 1626SOL    HW1 5777   1.712   2.862   6.058
 1626SOL    HW2 5778   1.637   2.987   5.985
 1627SOL     OW 5779   5.199   3.117   3.728
 1627SOL    HW1 5780   5.104   3.147   3.731
 1627SOL    HW2 5781   5.230   3.113   3.633
 1628SOL     OW 5782   2.964   2.999   0.492
 1628SOL    HW1 5783   2.883   2.956   0.533
 1628SOL    HW2 5784   3.038   2.932   0.485
 1629SOL     OW 5785   4.479   2.004   3.199
 1629SOL    HW1 5786   4.471   2.054   3.113
 1629SOL    HW2 5787   4.576   1.996   3.223
 1630SOL     OW 5788   0.431   5.048   4.548
 1630SOL    HW1 5789   0.451   4.951   4.533
 1630SOL    HW2 5790   0.333   5.065   4.535
 1631SOL     OW 5791   0.309   6.706   5.589
 1631SOL    HW1 5792   0.351   6.785   5.633
 1631SOL    HW2 5793   0.299   6.632   5.656
 1632SOL     OW 5794   5.894   0.127   1.602
 1632SOL    HW1 5795   5.813   0.168   1.645
 1632SOL    HW2 5796   5.955   0.199   1.572
 1633SOL     OW 5797   5.637   2.715   3.386
 1633SOL    HW1 5798   5.546   2.755   3.400
 1633SOL    HW2 5799   5.684   2.764   3.314
 1634SOL     OW 5800   3.382   0.921   0.162
 1634SOL    HW1 5801   3.413   0.876   0.079
 1634SOL    HW2 5802   3.461   0.944   0.219
 1635SOL     OW 5803   0.953   4.928   4.015
 1635SOL    HW1 5804   0.895   5.001   4.049
 1635SOL    HW2 5805   1.013   4.963   3.943
 1636SOL     OW 5806   2.702   6.727   1.158
 1636SOL    HW1 5807   2.664   6.744   1.249
 1636SOL    HW2 5808   2.748   6.639   1.157
 1637SOL     OW 5809   6.889   3.102   2.572
 1637SOL    HW1 5810   6.896   3.183   2.513
 1637SOL    HW2 5811   6.953   3.032   2.540
 1638SOL     OW 5812   1.655   3.150   5.237
 1638SOL    HW1 5813   1.727   3.118   5.298
 1638SOL    HW2 5814   1.602   3.221   5.282
 1639SOL     OW 5815   4.589   4.740   2.715
 1639SOL    HW1 5816   4.510   4.682   2.691
 1639SOL    HW2 5817   4.658   4.732   2.644
 1640SOL     OW 5818   6.191   0.306   1.212
 1640SOL    HW1 5819   6.115   0.371   1.206
 1640SOL    HW2 5820   6.170   0.225   1.157
 1641SOL     OW 5821   6.891   2.494   5.561
 1641SOL    HW1 5822   6.910   2.414   5.504
 1641SOL    HW2 5823   6.914   2.577   5.511
 1642SOL     OW 5824   0.196   2.045   1.656
 1642SOL    HW1 5825   0.197   2.142   1.634
 1642SOL    HW2 5826   0.280   2.003   1.622
 1643SOL     OW 5827   3.488   0.754   6.432
 1643SOL    HW1 5828   3.535   0.672   6.465
 1643SOL    HW2 5829   3.514   0.770   6.336
 1644SOL     OW 5830   3.429   0.854   1.344
 1644SOL    HW1 5831   3.477   0.788   1.402
 1644SOL    HW2 5832   3.347   0.887   1.392
 1645SOL     OW 5833   2.142   6.439   5.830
 1645SOL    HW1 5834   2.044   6.447   5.811
 1645SOL    HW2 5835   2.181   6.366   5.775
 1646SOL     OW 5836   0.839   3.605   0.906
 1646SOL    HW1 5837   0.934   3.580   0.925
 1646SOL    HW2 5838   0.824   3.603   0.807
 1647SOL     OW 5839   5.980   2.664   3.637
 1647SOL    HW1 5840   6.029   2.674   3.724
 1647SOL    HW2 5841   5.915   2.588   3.643
 1648SOL     OW 5842   4.664   0.082   2.366
 1648SOL    HW1 5843   4.763   0.065   2.359
 1648SOL    HW2 5844   4.629   0.043   2.451
 1649SOL     OW 5845   3.328   7.009   2.856
 1649SOL    HW1 5846   3.307   6.966   2.944
 1649SOL    HW2 5847   3.263   6.978   2.787
 1650SOL     OW 5848   3.217   6.658   4.184
 1650SOL    HW1 5849   3.178   6.723   4.248
 1650SOL    HW2 5850   3.313   6.679   4.168
 1651SOL     OW 5851   1.552   6.342   1.041
 1651SOL    HW1 5852   1.613   6.355   0.962
 1651SOL    HW2 5853   1.458   6.328   1.008
 1652SOL     OW 5854   2.820   2.811   1.693
 1652SOL    HW1 5855   2.760   2.735   1.719
 1652SOL    HW2 5856   2.830   2.814   1.594
 1653SOL     OW 5857   1.637   4.980   0.622
 1653SOL    HW1 5858   1.677   5.063   0.661
 1653SOL    HW2 5859   1.552   5.003   0.575
 1654SOL     OW 5860   0.310   2.323   3.542
 1654SOL    HW1 5861   0.331   2.350   3.636
 1654SOL    HW2 5862   0.356   2.384   3.479
 1655SOL     OW 5863   5.307   4.962   5.880
 1655SOL    HW1 5864   5.346   4.880   5.837
 1655SOL    HW2 5865   5.381   5.024   5.906
 1656SOL     OW 5866   0.591   4.026   3.445
 1656SOL    HW1 5867   0.554   3.946   3.397
 1656SOL    HW2 5868   0.595   4.104   3.382
 1657SOL     OW 5869   0.890   0.111   5.238
 1657SOL    HW1 5870   0.812   0.173   5.230
 1657SOL    HW2 5871   0.956   0.149   5.302
 1658SOL     OW 5872   6.414   5.822   2.600
 1658SOL    HW1 5873   6.319   5.795   2.619
 1658SOL    HW2 5874   6.420   5.857   2.507
 1659SOL     OW 5875   4.732   2.244   5.689
 1659SOL    HW1 5876   4.789   2.324   5.668
 1659SOL    HW2 5877   4.784   2.181   5.747
 1660SOL     OW 5878   1.783   5.979   3.135
 1660SOL    HW1 5879   1.865   6.033   3.117
 1660SOL    HW2 5880   1.704   6.039   3.143
 1661SOL     OW 5881   3.028   0.286   2.542
 1661SOL    HW1 5882   3.005   0.284   2.639
 1661SOL    HW2 5883   3.082   0.204   2.519
 1662SOL     OW 5884   0.070   0.226   3.438
 1662SOL    HW1 5885   0.113   0.157   3.497
 1662SOL    HW2 5886   0.069   0.192   3.344
 1663SOL     OW 5887   2.792   6.840   3.689
 1663SOL    HW1 5888   2.828   6.749   3.705
 1663SOL    HW2 5889   2.715   6.857   3.751
 1664SOL     OW 5890   2.575   5.838   4.413
 1664SOL    HW1 5891   2.482   5.841   4.450
 1664SOL    HW2 5892   2.637   5.801   4.482
 1665SOL     OW 5893   0.696   0.332   4.847
 1665SOL    HW1 5894   0.729   0.299   4.758
 1665SOL    HW2 5895   0.600   0.306   4.859
 1666SOL     OW 5896   5.887   2.999   6.537
 1666SOL    HW1 5897   5.834   2.979   6.455
 1666SOL    HW2 5898   5.868   2.930   6.607
 1667SOL     OW 5899   6.322   0.578   6.145
 1667SOL    HW1 5900   6.225   0.552   6.136
 1667SOL    HW2 5901   6.364   0.582   6.054
 1668SOL     OW 5902   3.196   1.129   5.234
 1668SOL    HW1 5903   3.287   1.125   5.193
 1668SOL    HW2 5904   3.145   1.207   5.196
 1669SOL     OW 5905   5.628   6.374   5.954
 1669SOL    HW1 5906   5.685   6.341   5.878
 1669SOL    HW2 5907   5.534   6.385   5.923
 1670SOL     OW 5908   5.955   3.915   5.836
 1670SOL    HW1 5909   5.990   3.832   5.881
 1670SOL    HW2 5910   5.901   3.889   5.756
 1671SOL     OW 5911   5.614   4.881   0.076
 1671SOL    HW1 5912   5.630   4.858   0.172
 1671SOL    HW2 5913   5.544   4.820   0.038
 1672SOL     OW 5914   2.575   5.339   2.238
 1672SOL    HW1 5915   2.501   5.289   2.282
 1672SOL    HW2 5916   2.663   5.296   2.258
 1673SOL     OW 5917   6.765   1.890   3.734
 1673SOL    HW1 5918   6.735   1.950   3.660
 1673SOL    HW2 5919   6.728   1.798   3.720
 1674SOL     OW 5920   1.658   5.085   6.567
 1674SOL    HW1 5921   1.702   5.027   6.497
 1674SOL    HW2 5922   1.628   5.028   6.643
 1675SOL     OW 5923   4.972   2.744   0.496
 1675SOL    HW1 5924   4.982   2.650   0.528
 1675SOL    HW2 5925   5.031   2.759   0.417
 1676SOL     OW 5926   2.324   0.822   3.434
 1676SOL    HW1 5927   2.231   0.786   3.437
 1676SOL    HW2 5928   2.388   0.756   3.473
 1677SOL     OW 5929   6.385   0.440   5.271
 1677SOL    HW1 5930   6.409   0.398   5.359
 1677SOL    HW2 5931   6.458   0.423   5.205
 1678SOL     OW 5932   4.607   6.993   1.199
 1678SOL    HW1 5933   4.665   6.914   1.217
 1678SOL    HW2 5934   4.609   0.029   1.278
 1679SOL     OW 5935   6.310   4.141   0.480
 1679SOL    HW1 5936   6.212   4.148   0.496
 1679SOL    HW2 5937   6.339   4.045   0.486
 1680SOL     OW 5938   1.065   2.228   5.017
 1680SOL    HW1 5939   0.999   2.240   4.942
 1680SOL    HW2 5940   1.016   2.206   5.101
 1681SOL     OW 5941   5.887   5.696   1.070
 1681SOL    HW1 5942   5.879   5.688   0.970
 1681SOL    HW2 5943   5.896   5.793   1.095
 1682SOL     OW 5944   6.631   3.676   5.326
 1682SOL    HW1 5945   6.536   3.650   5.346
 1682SOL    HW2 5946   6.683   3.675   5.411
 1683SOL     OW 5947   6.337   6.055   6.720
 1683SOL    HW1 5948   6.371   5.967   6.686
 1683SOL    HW2 5949   6.292   6.104   6.645
 1684SOL     OW 5950   0.370   5.727   4.590
 1684SOL    HW1 5951   0.467   5.701   4.586
 1684SOL    HW2 5952   0.335   5.710   4.682
 1685SOL     OW 5953   1.537   1.994   0.349
 1685SOL    HW1 5954   1.519   2.000   0.250
 1685SOL    HW2 5955   1.521   1.900   0.379
 1686SOL     OW 5956   1.836   5.975   6.756
 1686SOL    HW1 5957   1.824   5.877   6.766
 1686SOL    HW2 5958   1.837   6.000   6.660
 1687SOL     OW 5959   1.681   6.914   1.745
 1687SOL    HW1 5960   1.605   6.917   1.810
 1687SOL    HW2 5961   1.662   6.845   1.675
 1688SOL     OW 5962   0.067   1.867   3.918
 1688SOL    HW1 5963   0.041   1.909   4.005
 1688SOL    HW2 5964   0.074   1.937   3.847
 1689SOL     OW 5965   3.407   1.517   2.555
 1689SOL    HW1 5966   3.354   1.433   2.554
 1689SOL    HW2 5967   3.349   1.593   2.583
 1690SOL     OW 5968   0.481   2.084   0.779
 1690SOL    HW1 5969   0.464   1.987   0.800
 1690SOL    HW2 5970   0.396   2.125   0.745
 1691SOL     OW 5971   4.374   4.555   2.640
 1691SOL    HW1 5972   4.429   4.475   2.667
 1691SOL    HW2 5973   4.330   4.537   2.552
 1692SOL     OW 5974   1.489   0.576   3.538
 1692SOL    HW1 5975   1.508   0.660   3.589
 1692SOL    HW2 5976   1.574   0.530   3.516
 1693SOL     OW 5977   2.690   2.360   3.999
 1693SOL    HW1 5978   2.600   2.328   4.029
 1693SOL    HW2 5979   2.702   2.339   3.902
 1694SOL     OW 5980   4.653   6.264   5.677
 1694SOL    HW1 5981   4.687   6.260   5.771
 1694SOL    HW2 5982   4.555   6.282   5.677
 1695SOL     OW 5983   2.612   1.410   6.064
 1695SOL    HW1 5984   2.667   1.493   6.059
 1695SOL    HW2 5985   2.516   1.434   6.082
 1696SOL     OW 5986   3.113   5.411   1.527
 1696SOL    HW1 5987   3.076   5.319   1.514
 1696SOL    HW2 5988   3.148   5.445   1.440
 1697SOL     OW 5989   1.122   1.064   1.783
 1697SOL    HW1 5990   1.218   1.092   1.778
 1697SOL    HW2 5991   1.092   1.063   1.878
 1698SOL     OW 5992   5.366   1.733   0.716
 1698SOL    HW1 5993   5.305   1.812   0.712
 1698SOL    HW2 5994   5.461   1.763   0.705
 1699SOL     OW 5995   2.465   4.000   0.981
 1699SOL    HW1 5996   2.497   3.906   0.973
 1699SOL    HW2 5997   2.367   4.000   1.002
 1700SOL     OW 5998   6.775   2.846   4.499
 1700SOL    HW1 5999   6.717   2.923   4.527
 1700SOL    HW2 6000   6.770   2.774   4.568
 1701SOL     OW 6001   6.019   3.327   4.928
 1701SOL    HW1 6002   5.942   3.332   4.864
 1701SOL    HW2 6003   6.072   3.411   4.921
 1702SOL     OW 6004   4.879   2.913   1.804
 1702SOL    HW1 6005   4.838   2.948   1.720
 1702SOL    HW2 6006   4.836   2.958   1.883
 1703SOL     OW 6007   2.059   4.016   0.125
 1703SOL    HW1 6008   2.124   4.092   0.123
 1703SOL    HW2 6009   2.007   4.018   0.210
 1704SOL     OW 6010   0.995   1.055   2.042
 1704SOL    HW1 6011   0.920   1.059   2.108
 1704SOL    HW2 6012   1.011   0.961   2.014
 1705SOL     OW 6013   4.049   3.331   2.194
 1705SOL    HW1 6014   3.958   3.364   2.168
 1705SOL    HW2 6015   4.096   3.402   2.247
 1706SOL     OW 6016   2.628   0.498   6.760
 1706SOL    HW1 6017   2.531   0.480   6.781
 1706SOL    HW2 6018   2.685   0.467   6.836
 1707SOL     OW 6019   6.285   1.384   3.100
 1707SOL    HW1 6020   6.317   1.450   3.032
 1707SOL    HW2 6021   6.214   1.426   3.156
 1708SOL     OW 6022   0.256   4.619   2.187
 1708SOL    HW1 6023   0.297   4.543   2.137
 1708SOL    HW2 6024   0.263   4.703   2.133
 1709SOL     OW 6025   3.803   5.972   4.348
 1709SOL    HW1 6026   3.752   5.887   4.361
 1709SOL    HW2 6027   3.880   5.975   4.412
 1710SOL     OW 6028   0.404   6.025   4.032
 1710SOL    HW1 6029   0.470   6.089   4.072
 1710SOL    HW2 6030   0.360   6.069   3.953
 1711SOL     OW 6031   2.103   4.522   5.556
 1711SOL    HW1 6032   2.026   4.542   5.616
 1711SOL    HW2 6033   2.091   4.570   5.469
 1712SOL     OW 6034   1.439   4.774   0.992
 1712SOL    HW1 6035   1.430   4.864   0.949
 1712SOL    HW2 6036   1.525   4.731   0.963
 1713SOL     OW 6037   1.710   3.171   0.306
 1713SOL    HW1 6038   1.624   3.221   0.318
 1713SOL    HW2 6039   1.785   3.224   0.346
 1714SOL     OW 6040   3.810   1.896   0.890
 1714SOL    HW1 6041   3.733   1.934   0.839
 1714SOL    HW2 6042   3.802   1.922   0.986
 1715SOL     OW 6043   0.409   3.230   3.902
 1715SOL    HW1 6044   0.435   3.273   3.815
 1715SOL    HW2 6045   0.437   3.134   3.901
 1716SOL     OW 6046   0.150   6.937   0.086
 1716SOL    HW1 6047   0.179   6.878   0.011
 1716SOL    HW2 6048   0.142   0.006   0.054
 1717SOL     OW 6049   3.370   0.379   6.952
 1717SOL    HW1 6050   3.353   0.309   7.021
 1717SOL    HW2 6051   3.434   0.447   6.988
 1718SOL     OW 6052   1.304   5.062   5.597
 1718SOL    HW1 6053   1.241   4.987   5.576
 1718SOL    HW2 6054   1.359   5.038   5.677
 1719SOL     OW 6055   2.421   3.456   1.366
 1719SOL    HW1 6056   2.435   3.454   1.267
 1719SOL    HW2 6057   2.390   3.366   1.397
 1720SOL     OW 6058   6.687   1.313   1.937
 1720SOL    HW1 6059   6.743   1.375   1.882
 1720SOL    HW2 6060   6.683   1.224   1.892
 1721SOL     OW 6061   2.115   6.270   3.365
 1721SOL    HW1 6062   2.121   6.364   3.399
 1721SOL    HW2 6063   2.124   6.207   3.442
 1722SOL     OW 6064   5.795   6.703   2.035
 1722SOL    HW1 6065   5.719   6.665   2.086
 1722SOL    HW2 6066   5.777   6.695   1.937
 1723SOL     OW 6067   6.255   1.398   2.193
 1723SOL    HW1 6068   6.304   1.395   2.106
 1723SOL    HW2 6069   6.163   1.434   2.179
 1724SOL     OW 6070   4.838   0.476   0.045
 1724SOL    HW1 6071   4.921   0.516   0.084
 1724SOL    HW2 6072   4.824   0.385   0.084
 1725SOL     OW 6073   4.186   5.226   2.175
 1725SOL    HW1 6074   4.199   5.242   2.077
 1725SOL    HW2 6075   4.243   5.149   2.205
 1726SOL     OW 6076   0.148   5.038   4.478
 1726SOL    HW1 6077   0.086   5.115   4.494
 1726SOL    HW2 6078   0.123   4.962   4.539
 1727SOL     OW 6079   3.556   2.995   5.449
 1727SOL    HW1 6080   3.475   3.023   5.500
 1727SOL    HW2 6081   3.622   2.953   5.511
 1728SOL     OW 6082   4.590   4.522   3.481
 1728SOL    HW1 6083   4.689   4.522   3.463
 1728SOL    HW2 6084   4.549   4.441   3.440
 1729SOL     OW 6085   1.884   3.224   2.917
 1729SOL    HW1 6086   1.948   3.279   2.864
 1729SOL    HW2 6087   1.832   3.164   2.856
 1730SOL     OW 6088   5.532   2.351   4.468
 1730SOL    HW1 6089   5.617   2.330   4.420
 1730SOL    HW2 6090   5.461   2.286   4.441
 1731SOL     OW 6091   1.036   5.712   0.497
 1731SOL    HW1 6092   0.938   5.692   0.490
 1731SOL    HW2 6093   1.084   5.671   0.419
 1732SOL     OW 6094   0.384   4.926   6.780
 1732SOL    HW1 6095   0.397   4.894   6.686
 1732SOL    HW2 6096   0.309   4.876   6.822
 1733SOL     OW 6097   1.410   4.107   0.943
 1733SOL    HW1 6098   1.360   4.071   0.864
 1733SOL    HW2 6099   1.462   4.034   0.986
 1734SOL     OW 6100   4.777   2.951   1.530
 1734SOL    HW1 6101   4.803   3.043   1.562
 1734SOL    HW2 6102   4.719   2.960   1.448
 1735SOL     OW 6103   5.847   6.034   1.402
 1735SOL    HW1 6104   5.772   5.971   1.383
 1735SOL    HW2 6105   5.912   5.992   1.466
 1736SOL     OW 6106   3.164   3.859   0.865
 1736SOL    HW1 6107   3.104   3.803   0.923
 1736SOL    HW2 6108   3.122   3.869   0.775
 1737SOL     OW 6109   1.422   6.029   4.007
 1737SOL    HW1 6110   1.340   6.079   4.036
 1737SOL    HW2 6111   1.408   5.993   3.915
 1738SOL     OW 6112   1.032   1.927   1.274
 1738SOL    HW1 6113   1.025   1.853   1.340
 1738SOL    HW2 6114   1.066   2.010   1.320
 1739SOL     OW 6115   4.357   2.104   5.694
 1739SOL    HW1 6116   4.418   2.063   5.762
 1739SOL    HW2 6117   4.379   2.201   5.684
 1740SOL     OW 6118   0.973   1.023   5.852
 1740SOL    HW1 6119   0.961   0.965   5.932
 1740SOL    HW2 6120   0.886   1.034   5.805
 1741SOL     OW 6121   2.225   0.905   2.445
 1741SOL    HW1 6122   2.164   0.873   2.372
 1741SOL    HW2 6123   2.186   0.985   2.489
 1742SOL     OW 6124   6.071   6.515   4.615
 1742SOL    HW1 6125   6.164   6.498   4.647
 1742SOL    HW2 6126   6.045   6.445   4.549
 1743SOL     OW 6127   4.629   1.249   0.363
 1743SOL    HW1 6128   4.580   1.162   0.375
 1743SOL    HW2 6129   4.592   1.298   0.284
 1744SOL     OW 6130   3.111   0.485   1.427
 1744SOL    HW1 6131   3.086   0.393   1.456
 1744SOL    HW2 6132   3.063   0.552   1.485
 1745SOL     OW 6133   6.678   3.091   4.359
 1745SOL    HW1 6134   6.738   3.170   4.348
 1745SOL    HW2 6135   6.616   3.107   4.437
 1746SOL     OW 6136   2.755   0.586   5.808
 1746SOL    HW1 6137   2.827   0.633   5.859
 1746SOL    HW2 6138   2.668   0.597   5.855
 1747SOL     OW 6139   4.654   0.821   6.585
 1747SOL    HW1 6140   4.744   0.854   6.555
 1747SOL    HW2 6141   4.650   0.821   6.685
 1748SOL     OW 6142   6.244   1.761   1.831
 1748SOL    HW1 6143   6.339   1.737   1.853
 1748SOL    HW2 6144   6.221   1.728   1.740
 1749SOL     OW 6145   4.633   6.931   6.570
 1749SOL    HW1 6146   4.639   6.947   6.668
 1749SOL    HW2 6147   4.673   7.008   6.521
 1750SOL     OW 6148   4.901   0.434   3.643
 1750SOL    HW1 6149   4.830   0.377   3.602
 1750SOL    HW2 6150   4.900   0.525   3.601
 1751SOL     OW 6151   1.785   5.915   3.917
 1751SOL    HW1 6152   1.835   5.842   3.965
 1751SOL    HW2 6153   1.775   5.994   3.977
 1752SOL     OW 6154   6.606   2.508   0.263
 1752SOL    HW1 6155   6.607   2.448   0.343
 1752SOL    HW2 6156   6.517   2.554   0.257
 1753SOL     OW 6157   2.677   0.004   2.246
 1753SOL    HW1 6158   2.725   0.058   2.315
 1753SOL    HW2 6159   2.580   0.028   2.248
 1754SOL     OW 6160   3.805   2.477   1.236
 1754SOL    HW1 6161   3.822   2.466   1.334
 1754SOL    HW2 6162   3.753   2.561   1.220
 1755SOL     OW 6163   5.157   3.322   0.236
 1755SOL    HW1 6164   5.138   3.358   0.144
 1755SOL    HW2 6165   5.246   3.356   0.267
 1756SOL     OW 6166   5.837   5.791   4.491
 1756SOL    HW1 6167   5.807   5.735   4.568
 1756SOL    HW2 6168   5.934   5.774   4.473
 1757SOL     OW 6169   3.370   0.535   5.177
 1757SOL    HW1 6170   3.292   0.591   5.207
 1757SOL    HW2 6171   3.369   0.527   5.078
 1758SOL     OW 6172   2.400   1.099   3.494
 1758SOL    HW1 6173   2.429   1.143   3.410
 1758SOL    HW2 6174   2.346   1.018   3.473
 1759SOL     OW 6175   0.547   5.426   6.148
 1759SOL    HW1 6176   0.627   5.409   6.090
 1759SOL    HW2 6177   0.525   5.342   6.199
 1760SOL     OW 6178   5.493   0.620   2.385
 1760SOL    HW1 6179   5.574   0.678   2.372
 1760SOL    HW2 6180   5.487   0.593   2.481
 1761SOL     OW 6181   6.239   2.793   1.228
 1761SOL    HW1 6182   6.308   2.830   1.291
 1761SOL    HW2 6183   6.161   2.855   1.225
 1762SOL     OW 6184   5.788   2.194   0.358
 1762SOL    HW1 6185   5.692   2.219   0.372
 1762SOL    HW2 6186   5.803   2.100   0.389
 1763SOL     OW 6187   2.006   4.130   3.657
 1763SOL    HW1 6188   1.914   4.145   3.695
 1763SOL    HW2 6189   2.068   4.102   3.731
 1764SOL     OW 6190   6.384   3.105   4.267
 1764SOL    HW1 6191   6.422   3.015   4.291
 1764SOL    HW2 6192   6.296   3.093   4.222
 1765SOL     OW 6193   2.436   2.810   6.317
 1765SOL    HW1 6194   2.516   2.749   6.317
 1765SOL    HW2 6195   2.362   2.768   6.265
 1766SOL     OW 6196   6.138   3.413   5.442
 1766SOL    HW1 6197   6.128   3.511   5.423
 1766SOL    HW2 6198   6.227   3.382   5.408
 1767SOL     OW 6199   5.638   3.928   1.799
 1767SOL    HW1 6200   5.723   3.966   1.762
 1767SOL    HW2 6201   5.605   3.987   1.873
 1768SOL     OW 6202   5.875   6.299   4.144
 1768SOL    HW1 6203   5.967   6.306   4.106
 1768SOL    HW2 6204   5.808   6.325   4.074
 1769SOL     OW 6205   5.740   1.339   3.528
 1769SOL    HW1 6206   5.731   1.423   3.475
 1769SOL    HW2 6207   5.750   1.261   3.465
 1770SOL     OW 6208   3.223   5.428   4.882
 1770SOL    HW1 6209   3.194   5.514   4.924
 1770SOL    HW2 6210   3.323   5.424   4.878
 1771SOL     OW 6211   4.952   6.281   6.462
 1771SOL    HW1 6212   4.871   6.240   6.419
 1771SOL    HW2 6213   4.923   6.343   6.535
 1772SOL     OW 6214   3.490   6.395   2.620
 1772SOL    HW1 6215   3.439   6.468   2.665
 1772SOL    HW2 6216   3.432   6.353   2.550
 1773SOL     OW 6217   0.946   5.539   6.968
 1773SOL    HW1 6218   0.958   5.504   6.876
 1773SOL    HW2 6219   0.956   5.639   6.968
 1774SOL     OW 6220   3.483   5.013   1.940
 1774SOL    HW1 6221   3.525   4.925   1.961
 1774SOL    HW2 6222   3.385   5.000   1.923
 1775SOL     OW 6223   0.560   4.576   1.643
 1775SOL    HW1 6224   0.640   4.551   1.588
 1775SOL    HW2 6225   0.584   4.573   1.740
 1776SOL     OW 6226   3.435   5.709   4.879
 1776SOL    HW1 6227   3.415   5.806   4.862
 1776SOL    HW2 6228   3.350   5.657   4.878
 1777SOL     OW 6229   3.203   5.560   6.912
 1777SOL    HW1 6230   3.251   5.496   6.971
 1777SOL    HW2 6231   3.136   5.611   6.966
 1778SOL     OW 6232   6.584   3.822   5.627
 1778SOL    HW1 6233   6.568   3.921   5.625
 1778SOL    HW2 6234   6.503   3.774   5.595
 1779SOL     OW 6235   3.449   6.977   5.808
 1779SOL    HW1 6236   3.467   6.974   5.710
 1779SOL    HW2 6237   3.513   0.014   5.852
 1780SOL     OW 6238   3.141   3.539   6.477
 1780SOL    HW1 6239   3.077   3.614   6.459
 1780SOL    HW2 6240   3.094   3.466   6.525
 1781SOL     OW 6241   3.955   5.156   3.040
 1781SOL    HW1 6242   3.902   5.111   3.113
 1781SOL    HW2 6243   3.946   5.255   3.049
 1782SOL     OW 6244   3.626   2.005   4.310
 1782SOL    HW1 6245   3.558   2.055   4.257
 1782SOL    HW2 6246   3.632   2.045   4.402
 1783SOL     OW 6247   1.773   5.422   0.084
 1783SOL    HW1 6248   1.753   5.399   7.014
 1783SOL    HW2 6249   1.703   5.382   0.143
 1784SOL     OW 6250   3.523   6.690   5.385
 1784SOL    HW1 6251   3.595   6.623   5.404
 1784SOL    HW2 6252   3.465   6.699   5.466
 1785SOL     OW 6253   6.224   4.304   2.218
 1785SOL    HW1 6254   6.289   4.378   2.240
 1785SOL    HW2 6255   6.152   4.340   2.159
 1786SOL     OW 6256   3.566   2.607   0.967
 1786SOL    HW1 6257   3.535   2.512   0.958
 1786SOL    HW2 6258   3.573   2.631   1.064
 1787SOL     OW 6259   3.624   0.400   6.105
 1787SOL    HW1 6260   3.721   0.427   6.105
 1787SOL    HW2 6261   3.590   0.397   6.199
 1788SOL     OW 6262   1.912   4.583   5.729
 1788SOL    HW1 6263   1.949   4.669   5.762
 1788SOL    HW2 6264   1.906   4.518   5.805
 1789SOL     OW 6265   5.792   1.098   0.045
 1789SOL    HW1 6266   5.827   1.154   0.120
 1789SOL    HW2 6267   5.803   1.001   0.069
 1790SOL     OW 6268   3.695   0.023   3.222
 1790SOL    HW1 6269   3.714   0.119   3.200
 1790SOL    HW2 6270   3.604   0.015   3.261
 1791SOL     OW 6271   0.337   6.772   2.567
 1791SOL    HW1 6272   0.292   6.744   2.651
 1791SOL    HW2 6273   0.333   6.872   2.558
 1792SOL     OW 6274   1.100   3.462   5.583
 1792SOL    HW1 6275   1.020   3.515   5.613
 1792SOL    HW2 6276   1.082   3.365   5.597
 1793SOL     OW 6277   0.181   0.500   3.373
 1793SOL    HW1 6278   0.261   0.475   3.427
 1793SOL    HW2 6279   0.135   0.417   3.342
 1794SOL     OW 6280   4.673   6.185   6.342
 1794SOL    HW1 6281   4.606   6.149   6.408
 1794SOL    HW2 6282   4.707   6.110   6.286
 1795SOL     OW 6283   0.267   3.263   0.314
 1795SOL    HW1 6284   0.236   3.357   0.303
 1795SOL    HW2 6285   0.193   3.200   0.292
 1796SOL     OW 6286   3.440   0.297   6.672
 1796SOL    HW1 6287   3.374   0.301   6.747
 1796SOL    HW2 6288   3.532   0.311   6.708
 1797SOL     OW 6289   0.324   0.378   0.884
 1797SOL    HW1 6290   0.417   0.359   0.852
 1797SOL    HW2 6291   0.267   0.406   0.807
 1798SOL     OW 6292   5.901   2.501   3.198
 1798SOL    HW1 6293   5.915   2.583   3.252
 1798SOL    HW2 6294   5.987   2.473   3.156
 1799SOL     OW 6295   1.647   1.824   6.543
 1799SOL    HW1 6296   1.637   1.725   6.529
 1799SOL    HW2 6297   1.714   1.859   6.477
 1800SOL     OW 6298   4.017   5.432   2.238
 1800SOL    HW1 6299   4.059   5.493   2.171
 1800SOL    HW2 6300   4.056   5.340   2.230
 1801SOL     OW 6301   5.688   0.005   0.796
 1801SOL    HW1 6302   5.659   6.943   0.834
 1801SOL    HW2 6303   5.737   0.058   0.866
 1802SOL     OW 6304   5.186   5.395   4.104
 1802SOL    HW1 6305   5.257   5.464   4.087
 1802SOL    HW2 6306   5.107   5.414   4.046
 1803SOL     OW 6307   6.247   5.570   1.071
 1803SOL    HW1 6308   6.184   5.613   1.136
 1803SOL    HW2 6309   6.246   5.471   1.083
 1804SOL     OW 6310   3.390   3.228   5.351
 1804SOL    HW1 6311   3.297   3.208   5.381
 1804SOL    HW2 6312   3.453   3.214   5.427
 1805SOL     OW 6313   4.751   2.854   6.808
 1805SOL    HW1 6314   4.709   2.864   6.898
 1805SOL    HW2 6315   4.782   2.944   6.776
 1806SOL     OW 6316   0.886   6.887   1.053
 1806SOL    HW1 6317   0.952   6.889   1.128
 1806SOL    HW2 6318   0.872   6.980   1.019
 1807SOL     OW 6319   5.586   1.328   5.461
 1807SOL    HW1 6320   5.533   1.397   5.410
 1807SOL    HW2 6321   5.601   1.361   5.554
 1808SOL     OW 6322   1.747   4.918   3.906
 1808SOL    HW1 6323   1.780   4.885   3.994
 1808SOL    HW2 6324   1.653   4.887   3.891
 1809SOL     OW 6325   3.355   6.881   6.227
 1809SOL    HW1 6326   3.452   6.893   6.248
 1809SOL    HW2 6327   3.304   6.859   6.311
 1810SOL     OW 6328   3.211   6.128   2.725
 1810SOL    HW1 6329   3.298   6.154   2.766
 1810SOL    HW2 6330   3.221   6.042   2.675
 1811SOL     OW 6331   5.884   5.294   3.134
 1811SOL    HW1 6332   5.819   5.295   3.210
 1811SOL    HW2 6333   5.853   5.358   3.064
 1812SOL     OW 6334   4.164   5.348   6.154
 1812SOL    HW1 6335   4.193   5.346   6.250
 1812SOL    HW2 6336   4.066   5.369   6.149
 1813SOL     OW 6337   6.361   4.830   5.828
 1813SOL    HW1 6338   6.325   4.768   5.758
 1813SOL    HW2 6339   6.332   4.798   5.918
 1814SOL     OW 6340   4.927   6.746   1.856
 1814SOL    HW1 6341   4.920   6.647   1.840
 1814SOL    HW2 6342   4.999   6.765   1.923
 1815SOL     OW 6343   0.226   0.913   2.735
 1815SOL    HW1 6344   0.194   1.006   2.755
 1815SOL    HW2 6345   0.311   0.896   2.785
 1816SOL     OW 6346   0.708   4.458   6.993
 1816SOL    HW1 6347   0.752   4.368   6.995
 1816SOL    HW2 6348   0.770   4.526   0.008
 1817SOL     OW 6349   2.085   5.729   1.966
 1817SOL    HW1 6350   1.987   5.714   1.966
 1817SOL    HW2 6351   2.110   5.790   2.041
 1818SOL     OW 6352   2.372   0.908   3.178
 1818SOL    HW1 6353   2.449   0.968   3.200
 1818SOL    HW2 6354   2.336   0.867   3.262
 1819SOL     OW 6355   1.704   4.348   1.758
 1819SOL    HW1 6356   1.638   4.418   1.785
 1819SOL    HW2 6357   1.791   4.392   1.734
 1820SOL     OW 6358   5.444   6.926   2.613
 1820SOL    HW1 6359   5.373   6.909   2.681
 1820SOL    HW2 6360   5.515   6.985   2.653
 1821SOL     OW 6361   2.676   2.029   3.063
 1821SOL    HW1 6362   2.757   2.040   3.005
 1821SOL    HW2 6363   2.694   2.071   3.152
 1822SOL     OW 6364   3.465   3.281   1.508
 1822SOL    HW1 6365   3.518   3.260   1.589
 1822SOL    HW2 6366   3.442   3.197   1.460
 1823SOL     OW 6367   4.131   0.150   2.740
 1823SOL    HW1 6368   4.173   0.060   2.745
 1823SOL    HW2 6369   4.188   0.211   2.686
 1824SOL     OW 6370   5.438   2.797   1.647
 1824SOL    HW1 6371   5.435   2.757   1.555
 1824SOL    HW2 6372   5.362   2.763   1.701
 1825SOL     OW 6373   1.250   1.045   1.208
 1825SOL    HW1 6374   1.305   1.032   1.126
 1825SOL    HW2 6375   1.285   0.986   1.281
 1826SOL     OW 6376   3.024   6.480   6.657
 1826SOL    HW1 6377   3.019   6.517   6.564
 1826SOL    HW2 6378   3.044   6.383   6.654
 1827SOL     OW 6379   6.371   6.795   1.535
 1827SOL    HW1 6380   6.406   6.703   1.554
 1827SOL    HW2 6381   6.277   6.789   1.502
 1828SOL     OW 6382   1.797   2.007   0.430
 1828SOL    HW1 6383   1.717   1.990   0.373
 1828SOL    HW2 6384   1.867   1.938   0.411
 1829SOL     OW 6385   6.144   5.799   1.305
 1829SOL    HW1 6386   6.239   5.830   1.302
 1829SOL    HW2 6387   6.141   5.706   1.342
 1830SOL     OW 6388   5.290   6.143   3.822
 1830SOL    HW1 6389   5.330   6.219   3.772
 1830SOL    HW2 6390   5.196   6.165   3.847
 1831SOL     OW 6391   4.869   0.803   3.267
 1831SOL    HW1 6392   4.921   0.809   3.182
 1831SOL    HW2 6393   4.894   0.880   3.326
 1832SOL     OW 6394   5.530   2.636   0.360
 1832SOL    HW1 6395   5.436   2.619   0.391
 1832SOL    HW2 6396   5.539   2.603   0.266
 1833SOL     OW 6397   5.710   1.916   5.748
 1833SOL    HW1 6398   5.752   1.890   5.834
 1833SOL    HW2 6399   5.656   1.839   5.713
 1834SOL     OW 6400   2.934   3.370   0.945
 1834SOL    HW1 6401   2.981   3.283   0.926
 1834SOL    HW2 6402   2.973   3.442   0.887
 1835SOL     OW 6403   1.624   4.325   0.327
 1835SOL    HW1 6404   1.701   4.375   0.288
 1835SOL    HW2 6405   1.541   4.380   0.319
 1836SOL     OW 6406   0.694   5.891   0.754
 1836SOL    HW1 6407   0.638   5.959   0.706
 1836SOL    HW2 6408   0.737   5.934   0.833
 1837SOL     OW 6409   1.342   2.825   5.025
 1837SOL    HW1 6410   1.381   2.831   5.117
 1837SOL    HW2 6411   1.399   2.877   4.961
 1838SOL     OW 6412   6.988   2.759   4.144
 1838SOL    HW1 6413   0.039   2.699   4.116
 1838SOL    HW2 6414   6.941   2.718   4.222
 1839SOL     OW 6415   6.640   2.517   5.670
 1839SOL    HW1 6416   6.731   2.510   5.629
 1839SOL    HW2 6417   6.646   2.503   5.768
 1840SOL     OW 6418   1.384   5.011   0.882
 1840SOL    HW1 6419   1.296   5.055   0.900
 1840SOL    HW2 6420   1.458   5.077   0.898
 1841SOL     OW 6421   1.951   2.845   3.668
 1841SOL    HW1 6422   1.994   2.759   3.641
 1841SOL    HW2 6423   1.874   2.864   3.608
 1842SOL     OW 6424   1.032   4.550   0.001
 1842SOL    HW1 6425   0.997   4.628   6.974
 1842SOL    HW2 6426   1.083   4.490   6.965
 1843SOL     OW 6427   3.332   1.811   4.756
 1843SOL    HW1 6428   3.276   1.887   4.722
 1843SOL    HW2 6429   3.287   1.767   4.832
 1844SOL     OW 6430   5.183   3.452   4.014
 1844SOL    HW1 6431   5.130   3.504   3.948
 1844SOL    HW2 6432   5.223   3.514   4.081
 1845SOL     OW 6433   4.410   0.476   0.067
 1845SOL    HW1 6434   4.452   0.389   0.043
 1845SOL    HW2 6435   4.413   0.538   7.013
 1846SOL     OW 6436   2.951   1.474   5.430
 1846SOL    HW1 6437   3.012   1.501   5.356
 1846SOL    HW2 6438   2.881   1.545   5.443
 1847SOL     OW 6439   1.333   6.939   0.445
 1847SOL    HW1 6440   1.421   6.977   0.416
 1847SOL    HW2 6441   1.283   7.007   0.498
 1848SOL     OW 6442   3.372   6.863   2.434
 1848SOL    HW1 6443   3.344   6.819   2.348
 1848SOL    HW2 6444   3.425   6.945   2.412
 1849SOL     OW 6445   2.553   1.349   6.368
 1849SOL    HW1 6446   2.461   1.321   6.394
 1849SOL    HW2 6447   2.561   1.350   6.269
 1850SOL     OW 6448   5.986   1.391   1.701
 1850SOL    HW1 6449   5.980   1.421   1.605
 1850SOL    HW2 6450   5.910   1.330   1.721
 1851SOL     OW 6451   6.467   3.120   3.072
 1851SOL    HW1 6452   6.540   3.063   3.035
 1851SOL    HW2 6453   6.472   3.118   3.172
 1852SOL     OW 6454   5.387   3.150   6.909
 1852SOL    HW1 6455   5.389   3.242   6.870
 1852SOL    HW2 6456   5.424   3.085   6.843
 1853SOL     OW 6457   1.904   4.436   0.479
 1853SOL    HW1 6458   1.887   4.451   0.382
 1853SOL    HW2 6459   1.821   4.458   0.531
 1854SOL     OW 6460   3.195   5.947   3.896
 1854SOL    HW1 6461   3.268   5.913   3.955
 1854SOL    HW2 6462   3.108   5.939   3.944
 1855SOL     OW 6463   5.111   4.571   1.813
 1855SOL    HW1 6464   5.207   4.550   1.831
 1855SOL    HW2 6465   5.080   4.643   1.876
 1856SOL     OW 6466   4.910   2.495   5.732
 1856SOL    HW1 6467   4.956   2.483   5.644
 1856SOL    HW2 6468   4.838   2.564   5.723
 1857SOL     OW 6469   4.749   1.410   3.202
 1857SOL    HW1 6470   4.819   1.477   3.175
 1857SOL    HW2 6471   4.680   1.456   3.258
 1858SOL     OW 6472   5.135   4.190   3.718
 1858SOL    HW1 6473   5.073   4.245   3.662
 1858SOL    HW2 6474   5.097   4.179   3.809
 1859SOL     OW 6475   5.764   1.520   3.317
 1859SOL    HW1 6476   5.758   1.472   3.229
 1859SOL    HW2 6477   5.800   1.612   3.301
 1860SOL     OW 6478   4.519   1.744   4.890
 1860SOL    HW1 6479   4.440   1.735   4.951
 1860SOL    HW2 6480   4.506   1.822   4.830
 1861SOL     OW 6481   5.667   6.289   2.659
 1861SOL    HW1 6482   5.629   6.217   2.718
 1861SOL    HW2 6483   5.754   6.258   2.622
 1862SOL     OW 6484   2.005   1.810   0.403
 1862SOL    HW1 6485   2.097   1.772   0.391
 1862SOL    HW2 6486   1.962   1.770   0.484
 1863SOL     OW 6487   2.654   3.238   1.513
 1863SOL    HW1 6488   2.701   3.184   1.583
 1863SOL    HW2 6489   2.612   3.177   1.446
 1864SOL     OW 6490   1.023   6.459   4.085
 1864SOL    HW1 6491   0.973   6.375   4.106
 1864SOL    HW2 6492   0.958   6.531   4.061
 1865SOL     OW 6493   4.584   2.119   6.721
 1865SOL    HW1 6494   4.579   2.194   6.786
 1865SOL    HW2 6495   4.592   2.155   6.628
 1866SOL     OW 6496   4.969   5.441   2.800
 1866SOL    HW1 6497   4.918   5.509   2.747
 1866SOL    HW2 6498   5.064   5.470   2.808
 1867SOL     OW 6499   1.018   4.271   6.704
 1867SOL    HW1 6500   0.930   4.313   6.682
 1867SOL    HW2 6501   1.053   4.223   6.624
 1868SOL     OW 6502   5.965   3.906   5.059
 1868SOL    HW1 6503   5.891   3.923   4.995
 1868SOL    HW2 6504   5.926   3.880   5.148
 1869SOL     OW 6505   6.330   1.304   4.706
 1869SOL    HW1 6506   6.287   1.252   4.780
 1869SOL    HW2 6507   6.314   1.258   4.619
 1870SOL     OW 6508   2.142   4.677   4.440
 1870SOL    HW1 6509   2.149   4.703   4.344
 1870SOL    HW2 6510   2.232   4.685   4.483
 1871SOL     OW 6511   1.234   0.321   0.637
 1871SOL    HW1 6512   1.332   0.310   0.653
 1871SOL    HW2 6513   1.212   0.419   0.632
 1872SOL     OW 6514   2.472   5.003   0.318
 1872SOL    HW1 6515   2.542   5.059   0.361
 1872SOL    HW2 6516   2.438   4.934   0.382
 1873SOL     OW 6517   4.704   1.741   0.247
 1873SOL    HW1 6518   4.763   1.664   0.222
 1873SOL    HW2 6519   4.625   1.708   0.297
 1874SOL     OW 6520   0.779   3.084   2.444
 1874SOL    HW1 6521   0.768   2.994   2.401
 1874SOL    HW2 6522   0.739   3.154   2.384
 1875SOL     OW 6523   1.029   6.689   0.121
 1875SOL    HW1 6524   1.017   6.723   0.214
 1875SOL    HW2 6525   1.096   6.615   0.121
 1876SOL     OW 6526   2.178   6.793   4.726
 1876SOL    HW1 6527   2.114   6.859   4.686
 1876SOL    HW2 6528   2.142   6.762   4.814
 1877SOL     OW 6529   0.461   6.781   3.488
 1877SOL    HW1 6530   0.465   6.727   3.403
 1877SOL    HW2 6531   0.380   6.754   3.540
 1878SOL     OW 6532   5.794   2.752   5.721
 1878SOL    HW1 6533   5.883   2.748   5.768
 1878SOL    HW2 6534   5.777   2.666   5.675
 1879SOL     OW 6535   1.501   4.608   5.639
 1879SOL    HW1 6536   1.424   4.580   5.582
 1879SOL    HW2 6537   1.585   4.605   5.585
 1880SOL     OW 6538   5.922   0.473   5.625
 1880SOL    HW1 6539   5.983   0.446   5.700
 1880SOL    HW2 6540   5.830   0.488   5.661
 1881SOL     OW 6541   6.968   2.222   6.803
 1881SOL    HW1 6542   6.930   2.256   6.889
 1881SOL    HW2 6543   0.003   2.292   6.764
 1882SOL     OW 6544   0.963   5.591   6.308
 1882SOL    HW1 6545   0.867   5.617   6.320
 1882SOL    HW2 6546   0.980   5.504   6.354
 1883SOL     OW 6547   6.983   1.985   4.153
 1883SOL    HW1 6548   6.996   1.901   4.206
 1883SOL    HW2 6549   6.885   2.000   4.138
 1884SOL     OW 6550   6.862   2.939   1.075
 1884SOL    HW1 6551   6.782   2.945   1.134
 1884SOL    HW2 6552   6.835   2.903   0.986
 1885SOL     OW 6553   1.870   1.670   4.480
 1885SOL    HW1 6554   1.854   1.752   4.425
 1885SOL    HW2 6555   1.855   1.692   4.576
 1886SOL     OW 6556   1.143   6.978   3.359
 1886SOL    HW1 6557   1.194   6.912   3.415
 1886SOL    HW2 6558   1.206   0.019   3.318
 1887SOL     OW 6559   1.878   6.488   5.786
 1887SOL    HW1 6560   1.848   6.514   5.878
 1887SOL    HW2 6561   1.800   6.457   5.732
 1888SOL     OW 6562   2.623   1.071   2.861
 1888SOL    HW1 6563   2.637   0.981   2.819
 1888SOL    HW2 6564   2.691   1.135   2.826
 1889SOL     OW 6565   0.165   3.500   3.183
 1889SOL    HW1 6566   0.209   3.413   3.206
 1889SOL    HW2 6567   0.146   3.503   3.085
 1890SOL     OW 6568   0.795   5.484   3.979
 1890SOL    HW1 6569   0.883   5.461   4.019
 1890SOL    HW2 6570   0.764   5.409   3.921
 1891SOL     OW 6571   3.718   3.197   3.508
 1891SOL    HW1 6572   3.749   3.286   3.475
 1891SOL    HW2 6573   3.797   3.136   3.518
 1892SOL     OW 6574   0.748   0.785   2.663
 1892SOL    HW1 6575   0.780   0.859   2.723
 1892SOL    HW2 6576   0.697   0.824   2.586
 1893SOL     OW 6577   3.820   3.325   4.652
 1893SOL    HW1 6578   3.894   3.258   4.645
 1893SOL    HW2 6579   3.853   3.415   4.624
 1894SOL     OW 6580   3.024   3.230   4.173
 1894SOL    HW1 6581   2.984   3.182   4.252
 1894SOL    HW2 6582   3.123   3.239   4.185
 1895SOL     OW 6583   1.897   6.024   0.148
 1895SOL    HW1 6584   1.902   5.935   0.102
 1895SOL    HW2 6585   1.964   6.027   0.223
 1896SOL     OW 6586   5.514   2.704   1.143
 1896SOL    HW1 6587   5.593   2.724   1.202
 1896SOL    HW2 6588   5.524   2.752   1.056
 1897SOL     OW 6589   1.683   4.130   4.689
 1897SOL    HW1 6590   1.643   4.143   4.780
 1897SOL    HW2 6591   1.620   4.076   4.633
 1898SOL     OW 6592   1.544   6.403   3.470
 1898SOL    HW1 6593   1.551   6.481   3.408
 1898SOL    HW2 6594   1.629   6.393   3.522
 1899SOL     OW 6595   0.265   0.538   2.435
 1899SOL    HW1 6596   0.286   0.630   2.469
 1899SOL    HW2 6597   0.307   0.470   2.496
 1900SOL     OW 6598   2.434   0.190   0.042
 1900SOL    HW1 6599   2.428   0.173   0.140
 1900SOL    HW2 6600   2.400   0.282   0.022
 1901SOL     OW 6601   2.820   3.636   1.145
 1901SOL    HW1 6602   2.895   3.642   1.078
 1901SOL    HW2 6603   2.756   3.564   1.116
 1902SOL     OW 6604   1.025   0.089   4.156
 1902SOL    HW1 6605   1.010   0.140   4.072
 1902SOL    HW2 6606   0.997   7.019   4.142
 1903SOL     OW 6607   1.038   2.423   4.105
 1903SOL    HW1 6608   1.081   2.417   4.016
 1903SOL    HW2 6609   1.098   2.382   4.174
 1904SOL     OW 6610   6.074   5.636   1.661
 1904SOL    HW1 6611   5.983   5.618   1.698
 1904SOL    HW2 6612   6.076   5.613   1.564
 1905SOL     OW 6613   0.485   1.382   4.147
 1905SOL    HW1 6614   0.535   1.319   4.206
 1905SOL    HW2 6615   0.436   1.449   4.203
 1906SOL     OW 6616   1.724   6.965   5.195
 1906SOL    HW1 6617   1.747   0.016   5.257
 1906SOL    HW2 6618   1.625   6.960   5.183
 1907SOL     OW 6619   5.656   2.843   0.473
 1907SOL    HW1 6620   5.709   2.814   0.553
 1907SOL    HW2 6621   5.608   2.764   0.435
 1908SOL     OW 6622   3.075   1.315   1.144
 1908SOL    HW1 6623   3.052   1.275   1.233
 1908SOL    HW2 6624   3.161   1.277   1.111
 1909SOL     OW 6625   6.493   5.134   4.712
 1909SOL    HW1 6626   6.537   5.222   4.692
 1909SOL    HW2 6627   6.520   5.067   4.643
 1910SOL     OW 6628   0.675   6.185   5.338
 1910SOL    HW1 6629   0.643   6.134   5.258
 1910SOL    HW2 6630   0.666   6.128   5.420
 1911SOL     OW 6631   6.682   5.144   3.914
 1911SOL    HW1 6632   6.603   5.205   3.909
 1911SOL    HW2 6633   6.711   5.136   4.010
 1912SOL     OW 6634   3.240   5.198   1.795
 1912SOL    HW1 6635   3.311   5.237   1.735
 1912SOL    HW2 6636   3.233   5.254   1.878
 1913SOL     OW 6637   3.731   4.206   6.723
 1913SOL    HW1 6638   3.720   4.135   6.653
 1913SOL    HW2 6639   3.720   4.165   6.814
 1914SOL     OW 6640   2.989   4.666   6.551
 1914SOL    HW1 6641   2.957   4.760   6.558
 1914SOL    HW2 6642   3.089   4.665   6.550
 1915SOL     OW 6643   4.141   2.467   5.834
 1915SOL    HW1 6644   4.164   2.561   5.861
 1915SOL    HW2 6645   4.042   2.457   5.833
 1916SOL     OW 6646   3.932   0.975   2.517
 1916SOL    HW1 6647   3.834   0.957   2.516
 1916SOL    HW2 6648   3.955   1.036   2.440
 1917SOL     OW 6649   2.172   4.151   1.636
 1917SOL    HW1 6650   2.230   4.175   1.558
 1917SOL    HW2 6651   2.219   4.083   1.692
 1918SOL     OW 6652   5.789   2.397   3.813
 1918SOL    HW1 6653   5.721   2.328   3.788
 1918SOL    HW2 6654   5.769   2.433   3.904
 1919SOL     OW 6655   6.592   2.472   6.976
 1919SOL    HW1 6656   6.594   2.450   0.049
 1919SOL    HW2 6657   6.567   2.568   6.964
 1920SOL     OW 6658   4.696   2.988   1.217
 1920SOL    HW1 6659   4.650   2.943   1.140
 1920SOL    HW2 6660   4.795   2.993   1.199
 1921SOL     OW 6661   2.591   2.657   6.921
 1921SOL    HW1 6662   2.498   2.621   6.914
 1921SOL    HW2 6663   2.651   2.608   6.857
 1922SOL     OW 6664   3.257   3.156   2.673
 1922SOL    HW1 6665   3.264   3.064   2.635
 1922SOL    HW2 6666   3.252   3.222   2.598
 1923SOL     OW 6667   3.986   0.806   4.638
 1923SOL    HW1 6668   3.921   0.820   4.714
 1923SOL    HW2 6669   4.044   0.887   4.629
 1924SOL     OW 6670   4.582   1.144   6.624
 1924SOL    HW1 6671   4.520   1.166   6.700
 1924SOL    HW2 6672   4.640   1.067   6.650
 1925SOL     OW 6673   1.420   3.484   1.261
 1925SOL    HW1 6674   1.323   3.466   1.273
 1925SOL    HW2 6675   1.453   3.540   1.336
 1926SOL     OW 6676   3.904   0.386   1.396
 1926SOL    HW1 6677   3.957   0.461   1.435
 1926SOL    HW2 6678   3.943   0.299   1.427
 1927SOL     OW 6679   1.956   5.054   1.258
 1927SOL    HW1 6680   1.935   5.089   1.350
 1927SOL    HW2 6681   1.989   4.960   1.265
 1928SOL     OW 6682   5.028   4.519   3.121
 1928SOL    HW1 6683   5.022   4.429   3.164
 1928SOL    HW2 6684   5.034   4.508   3.022
 1929SOL     OW 6685   3.124   0.061   3.147
 1929SOL    HW1 6686   3.154   0.114   3.226
 1929SOL    HW2 6687   3.160   6.993   3.154
 1930SOL     OW 6688   4.050   3.381   0.278
 1930SOL    HW1 6689   3.968   3.426   0.314
 1930SOL    HW2 6690   4.047   3.383   0.178
 1931SOL     OW 6691   6.716   2.195   4.453
 1931SOL    HW1 6692   6.700   2.130   4.527
 1931SOL    HW2 6693   6.675   2.283   4.477
 1932SOL     OW 6694   4.619   2.277   2.372
 1932SOL    HW1 6695   4.590   2.325   2.289
 1932SOL    HW2 6696   4.544   2.220   2.405
 1933SOL     OW 6697   0.906   0.930   1.012
 1933SOL    HW1 6698   0.885   1.005   1.074
 1933SOL    HW2 6699   0.884   0.843   1.055
 1934SOL     OW 6700   0.051   0.548   6.577
 1934SOL    HW1 6701   0.021   0.636   6.539
 1934SOL    HW2 6702   0.016   0.473   6.520
 1935SOL     OW 6703   6.542   4.870   3.774
 1935SOL    HW1 6704   6.637   4.902   3.784
 1935SOL    HW2 6705   6.492   4.889   3.858
 1936SOL     OW 6706   4.653   2.711   5.963
 1936SOL    HW1 6707   4.679   2.703   5.867
 1936SOL    HW2 6708   4.735   2.719   6.020
 1937SOL     OW 6709   6.244   5.107   6.803
 1937SOL    HW1 6710   6.326   5.099   6.861
 1937SOL    HW2 6711   6.166   5.132   6.860
 1938SOL     OW 6712   6.787   2.809   6.733
 1938SOL    HW1 6713   6.793   2.748   6.655
 1938SOL    HW2 6714   6.696   2.803   6.773
 1939SOL     OW 6715   1.027   0.432   4.761
 1939SOL    HW1 6716   1.043   0.339   4.794
 1939SOL    HW2 6717   0.974   0.483   4.828
 1940SOL     OW 6718   0.190   5.299   0.747
 1940SOL    HW1 6719   0.188   5.241   0.828
 1940SOL    HW2 6720   0.245   5.381   0.765
 1941SOL     OW 6721   5.636   1.493   4.611
 1941SOL    HW1 6722   5.727   1.487   4.569
 1941SOL    HW2 6723   5.631   1.575   4.668
 1942SOL     OW 6724   6.336   4.168   2.010
 1942SOL    HW1 6725   6.318   4.210   2.099
 1942SOL    HW2 6726   6.425   4.121   2.012
 1943SOL     OW 6727   0.796   2.344   3.337
 1943SOL    HW1 6728   0.872   2.379   3.282
 1943SOL    HW2 6729   0.724   2.414   3.343
 1944SOL     OW 6730   0.680   3.135   3.520
 1944SOL    HW1 6731   0.698   3.214   3.462
 1944SOL    HW2 6732   0.612   3.159   3.589
 1945SOL     OW 6733   4.698   1.295   1.793
 1945SOL    HW1 6734   4.733   1.380   1.831
 1945SOL    HW2 6735   4.651   1.243   1.864
 1946SOL     OW 6736   6.686   6.165   1.010
 1946SOL    HW1 6737   6.605   6.137   0.960
 1946SOL    HW2 6738   6.763   6.173   0.946
 1947SOL     OW 6739   6.164   4.918   3.152
 1947SOL    HW1 6740   6.230   4.967   3.208
 1947SOL    HW2 6741   6.117   4.982   3.092
 1948SOL     OW 6742   5.375   3.314   3.909
 1948SOL    HW1 6743   5.316   3.277   3.837
 1948SOL    HW2 6744   5.329   3.391   3.953
 1949SOL     OW 6745   3.531   4.649   6.556
 1949SOL    HW1 6746   3.556   4.746   6.557
 1949SOL    HW2 6747   3.553   4.608   6.645
 1950SOL     OW 6748   3.755   3.717   3.283
 1950SOL    HW1 6749   3.729   3.763   3.368
 1950SOL    HW2 6750   3.681   3.728   3.216
 1951SOL     OW 6751   6.112   5.012   5.752
 1951SOL    HW1 6752   6.188   5.040   5.693
 1951SOL    HW2 6753   6.144   4.943   5.818
 1952SOL     OW 6754   6.148   5.769   0.012
 1952SOL    HW1 6755   6.070   5.831   0.011
 1952SOL    HW2 6756   6.186   5.762   6.946
 1953SOL     OW 6757   0.704   1.024   6.814
 1953SOL    HW1 6758   0.693   1.004   6.716
 1953SOL    HW2 6759   0.623   1.071   6.848
 1954SOL     OW 6760   4.785   6.916   1.690
 1954SOL    HW1 6761   4.822   6.851   1.756
 1954SOL    HW2 6762   4.839   7.000   1.691
 1955SOL     OW 6763   0.114   2.455   3.889
 1955SOL    HW1 6764   0.195   2.408   3.852
 1955SOL    HW2 6765   0.141   2.508   3.969
 1956SOL     OW 6766   5.399   0.649   1.932
 1956SOL    HW1 6767   5.392   0.592   2.014
 1956SOL    HW2 6768   5.435   0.739   1.958
 1957SOL     OW 6769   6.722   2.542   4.129
 1957SOL    HW1 6770   6.675   2.454   4.135
 1957SOL    HW2 6771   6.771   2.559   4.215
 1958SOL     OW 6772   4.125   1.636   0.486
 1958SOL    HW1 6773   4.059   1.586   0.541
 1958SOL    HW2 6774   4.089   1.727   0.465
 1959SOL     OW 6775   0.909   2.279   5.380
 1959SOL    HW1 6776   0.924   2.363   5.431
 1959SOL    HW2 6777   0.824   2.235   5.411
 1960SOL     OW 6778   5.685   4.344   4.088
 1960SOL    HW1 6779   5.760   4.298   4.040
 1960SOL    HW2 6780   5.599   4.297   4.068
 1961SOL     OW 6781   0.562   3.541   3.509
 1961SOL    HW1 6782   0.505   3.555   3.428
 1961SOL    HW2 6783   0.544   3.614   3.575
 1962SOL     OW 6784   0.778   0.534   2.773
 1962SOL    HW1 6785   0.747   0.586   2.693
 1962SOL    HW2 6786   0.698   0.501   2.824
 1963SOL     OW 6787   0.469   2.658   7.002
 1963SOL    HW1 6788   0.547   2.637   6.943
 1963SOL    HW2 6789   0.462   2.588   0.048
 1964SOL     OW 6790   5.402   3.673   0.609
 1964SOL    HW1 6791   5.360   3.698   0.522
 1964SOL    HW2 6792   5.500   3.690   0.605
 1965SOL     OW 6793   5.972   4.400   3.536
 1965SOL    HW1 6794   5.915   4.325   3.569
 1965SOL    HW2 6795   6.062   4.365   3.512
 1966SOL     OW 6796   1.180   4.357   6.902
 1966SOL    HW1 6797   1.108   4.315   6.847
 1966SOL    HW2 6798   1.269   4.337   6.861
 1967SOL     OW 6799   6.284   3.246   4.488
 1967SOL    HW1 6800   6.311   3.209   4.399
 1967SOL    HW2 6801   6.197   3.207   4.515
 1968SOL     OW 6802   2.699   1.656   4.966
 1968SOL    HW1 6803   2.658   1.736   5.009
 1968SOL    HW2 6804   2.740   1.683   4.879
 1969SOL     OW 6805   1.927   6.193   0.996
 1969SOL    HW1 6806   1.928   6.267   1.064
 1969SOL    HW2 6807   1.902   6.107   1.042
 1970SOL     OW 6808   5.355   5.635   4.315
 1970SOL    HW1 6809   5.299   5.586   4.381
 1970SOL    HW2 6810   5.428   5.683   4.362
 1971SOL     OW 6811   1.647   5.091   4.970
 1971SOL    HW1 6812   1.637   5.173   4.914
 1971SOL    HW2 6813   1.565   5.079   5.026
 1972SOL     OW 6814   6.049   2.183   2.827
 1972SOL    HW1 6815   6.074   2.090   2.798
 1972SOL    HW2 6816   6.100   2.206   2.910
 1973SOL     OW 6817   3.227   2.535   1.140
 1973SOL    HW1 6818   3.245   2.558   1.236
 1973SOL    HW2 6819   3.193   2.615   1.092
 1974SOL     OW 6820   2.297   6.353   4.794
 1974SOL    HW1 6821   2.387   6.350   4.837
 1974SOL    HW2 6822   2.291   6.434   4.735
 1975SOL     OW 6823   2.056   2.617   3.548
 1975SOL    HW1 6824   2.139   2.668   3.524
 1975SOL    HW2 6825   2.013   2.583   3.465
 1976SOL     OW 6826   0.932   0.659   5.328
 1976SOL    HW1 6827   0.959   0.689   5.420
 1976SOL    HW2 6828   0.835   0.677   5.314
 1977SOL     OW 6829   2.013   4.262   6.268
 1977SOL    HW1 6830   1.920   4.229   6.253
 1977SOL    HW2 6831   2.015   4.318   6.351
 1978SOL     OW 6832   3.032   0.072   2.153
 1978SOL    HW1 6833   2.984   0.160   2.152
 1978SOL    HW2 6834   2.975   0.002   2.109
 1979SOL     OW 6835   6.159   4.423   6.055
 1979SOL    HW1 6836   6.235   4.436   5.992
 1979SOL    HW2 6837   6.097   4.353   6.018
 1980SOL     OW 6838   3.552   0.766   0.899
 1980SOL    HW1 6839   3.639   0.718   0.884
 1980SOL    HW2 6840   3.506   0.728   0.979
 1981SOL     OW 6841   3.789   1.878   2.584
 1981SOL    HW1 6842   3.754   1.883   2.491
 1981SOL    HW2 6843   3.856   1.803   2.590
 1982SOL     OW 6844   0.891   2.930   5.833
 1982SOL    HW1 6845   0.793   2.909   5.834
 1982SOL    HW2 6846   0.903   3.027   5.815
 1983SOL     OW 6847   0.501   0.919   2.222
 1983SOL    HW1 6848   0.424   0.938   2.281
 1983SOL    HW2 6849   0.495   0.825   2.188
 1984SOL     OW 6850   4.710   3.194   5.795
 1984SOL    HW1 6851   4.666   3.137   5.864
 1984SOL    HW2 6852   4.760   3.268   5.841
 1985SOL     OW 6853   6.644   3.370   3.427
 1985SOL    HW1 6854   6.659   3.437   3.355
 1985SOL    HW2 6855   6.730   3.354   3.476
 1986SOL     OW 6856   2.975   3.701   2.260
 1986SOL    HW1 6857   2.944   3.639   2.188
 1986SOL    HW2 6858   2.931   3.677   2.346
 1987SOL     OW 6859   2.051   1.203   1.322
 1987SOL    HW1 6860   2.072   1.200   1.420
 1987SOL    HW2 6861   2.057   1.297   1.289
 1988SOL     OW 6862   0.735   1.782   1.552
 1988SOL    HW1 6863   0.761   1.706   1.612
 1988SOL    HW2 6864   0.704   1.859   1.608
 1989SOL     OW 6865   2.987   5.072   4.642
 1989SOL    HW1 6866   3.020   5.166   4.644
 1989SOL    HW2 6867   3.059   5.011   4.673
 1990SOL     OW 6868   3.974   0.569   6.935
 1990SOL    HW1 6869   4.006   0.561   6.840
 1990SOL    HW2 6870   4.042   0.530   6.996
 1991SOL     OW 6871   2.659   5.348   1.551
 1991SOL    HW1 6872   2.735   5.412   1.560
 1991SOL    HW2 6873   2.575   5.398   1.535
 1992SOL     OW 6874   1.105   6.626   2.740
 1992SOL    HW1 6875   1.065   6.536   2.760
 1992SOL    HW2 6876   1.190   6.614   2.689
 1993SOL     OW 6877   2.450   2.136   2.989
 1993SOL    HW1 6878   2.386   2.060   2.978
 1993SOL    HW2 6879   2.536   2.101   3.025
 1994SOL     OW 6880   3.925   2.559   0.604
 1994SOL    HW1 6881   3.929   2.514   0.514
 1994SOL    HW2 6882   3.832   2.555   0.639
 1995SOL     OW 6883   5.594   1.793   4.221
 1995SOL    HW1 6884   5.582   1.853   4.141
 1995SOL    HW2 6885   5.522   1.812   4.288
 1996SOL     OW 6886   4.590   0.863   1.075
 1996SOL    HW1 6887   4.526   0.800   1.030
 1996SOL    HW2 6888   4.672   0.813   1.103
 1997SOL     OW 6889   3.420   1.174   4.304
 1997SOL    HW1 6890   3.361   1.230   4.246
 1997SOL    HW2 6891   3.493   1.134   4.249
 1998SOL     OW 6892   2.300   3.961   1.804
 1998SOL    HW1 6893   2.320   4.038   1.865
 1998SOL    HW2 6894   2.378   3.946   1.743
 1999SOL     OW 6895   0.664   0.197   0.026
 1999SOL    HW1 6896   0.756   0.201   7.012
 1999SOL    HW2 6897   0.671   0.194   0.126
 2000SOL     OW 6898   4.265   4.388   5.751
 2000SOL    HW1 6899   4.298   4.437   5.832
 2000SOL    HW2 6900   4.237   4.296   5.777
 2001SOL     OW 6901   1.965   2.199   1.555
 2001SOL    HW1 6902   1.868   2.177   1.541
 2001SOL    HW2 6903   1.981   2.218   1.652
 2002SOL     OW 6904   0.001   5.654   0.862
 2002SOL    HW1 6905   0.076   5.701   0.909
 2002SOL    HW2 6906   6.948   5.715   0.855
 2003SOL     OW 6907   5.643   5.177   2.443
 2003SOL    HW1 6908   5.684   5.167   2.534
 2003SOL    HW2 6909   5.614   5.087   2.410
 2004SOL     OW 6910   3.551   6.713   2.985
 2004SOL    HW1 6911   3.638   6.744   2.947
 2004SOL    HW2 6912   3.561   6.621   3.022
 2005SOL     OW 6913   1.395   6.087   0.385
 2005SOL    HW1 6914   1.411   6.181   0.353
 2005SOL    HW2 6915   1.481   6.037   0.382
 2006SOL     OW 6916   5.711   6.387   2.230
 2006SOL    HW1 6917   5.759   6.359   2.314
 2006SOL    HW2 6918   5.661   6.471   2.247
 2007SOL     OW 6919   5.199   4.672   6.402
 2007SOL    HW1 6920   5.109   4.663   6.358
 2007SOL    HW2 6921   5.270   4.639   6.340
 2008SOL     OW 6922   2.082   3.429   3.320
 2008SOL    HW1 6923   2.153   3.375   3.276
 2008SOL    HW2 6924   2.002   3.371   3.337
 2009SOL     OW 6925   6.290   6.818   2.636
 2009SOL    HW1 6926   6.242   6.875   2.569
 2009SOL    HW2 6927   6.224   6.759   2.682
 2010SOL     OW 6928   6.932   1.943   2.061
 2010SOL    HW1 6929   6.846   1.963   2.016
 2010SOL    HW2 6930   7.000   1.916   1.992
 2011SOL     OW 6931   0.798   0.007   4.566
 2011SOL    HW1 6932   0.878   6.973   4.564
 2011SOL    HW2 6933   0.788   0.054   4.478
 2012SOL     OW 6934   0.615   2.998   1.386
 2012SOL    HW1 6935   0.569   3.081   1.356
 2012SOL    HW2 6936   0.664   3.016   1.471
 2013SOL     OW 6937   0.326   2.720   1.904
 2013SOL    HW1 6938   0.248   2.769   1.865
 2013SOL    HW2 6939   0.333   2.630   1.862
 2014SOL     OW 6940   4.138   1.038   4.621
 2014SOL    HW1 6941   4.230   1.006   4.645
 2014SOL    HW2 6942   4.121   1.126   4.666
 2015SOL     OW 6943   4.162   6.947   1.676
 2015SOL    HW1 6944   4.202   6.982   1.591
 2015SOL    HW2 6945   4.229   6.954   1.750
 2016SOL     OW 6946   1.972   0.646   4.423
 2016SOL    HW1 6947   2.005   0.555   4.402
 2016SOL    HW2 6948   1.913   0.643   4.504
 2017SOL     OW 6949   3.634   6.305   3.667
 2017SOL    HW1 6950   3.604   6.272   3.578
 2017SOL    HW2 6951   3.655   6.227   3.726
 2018SOL     OW 6952   1.264   0.691   4.098
 2018SOL    HW1 6953   1.247   0.593   4.092
 2018SOL    HW2 6954   1.361   0.709   4.084
 2019SOL     OW 6955   5.099   5.244   6.654
 2019SOL    HW1 6956   5.076   5.316   6.718
 2019SOL    HW2 6957   5.017   5.189   6.635
 2020SOL     OW 6958   1.956   6.717   7.006
 2020SOL    HW1 6959   1.874   6.737   6.953
 2020SOL    HW2 6960   1.962   6.619   7.023
 2021SOL     OW 6961   0.162   6.356   4.404
 2021SOL    HW1 6962   0.154   6.419   4.481
 2021SOL    HW2 6963   0.239   6.294   4.419
 2022SOL     OW 6964   2.060   3.473   3.990
 2022SOL    HW1 6965   2.131   3.438   4.052
 2022SOL    HW2 6966   2.099   3.542   3.930
 2023SOL     OW 6967   6.509   6.632   6.729
 2023SOL    HW1 6968   6.491   6.727   6.756
 2023SOL    HW2 6969   6.506   6.574   6.810
 2024SOL     OW 6970   0.468   5.748   4.016
 2024SOL    HW1 6971   0.551   5.730   4.069
 2024SOL    HW2 6972   0.444   5.845   4.023
 2025SOL     OW 6973   1.830   5.575   4.807
 2025SOL    HW1 6974   1.838   5.622   4.719
 2025SOL    HW2 6975   1.877   5.487   4.801
 2026SOL     OW 6976   0.057   0.489   5.874
 2026SOL    HW1 6977   0.147   0.511   5.912
 2026SOL    HW2 6978   0.021   0.407   5.918
 2027SOL     OW 6979   0.146   6.127   2.136
 2027SOL    HW1 6980   0.214   6.131   2.209
 2027SOL    HW2 6981   0.187   6.161   2.051
 2028SOL     OW 6982   3.224   4.895   4.668
 2028SOL    HW1 6983   3.180   4.859   4.586
 2028SOL    HW2 6984   3.222   4.826   4.741
 2029SOL     OW 6985   6.351   2.699   6.234
 2029SOL    HW1 6986   6.384   2.604   6.239
 2029SOL    HW2 6987   6.252   2.699   6.221
 2030SOL     OW 6988   2.542   6.814   2.521
 2030SOL    HW1 6989   2.562   6.717   2.512
 2030SOL    HW2 6990   2.490   6.846   2.442
 2031SOL     OW 6991   0.753   6.121   4.745
 2031SOL    HW1 6992   0.804   6.062   4.682
 2031SOL    HW2 6993   0.658   6.129   4.715
 2032SOL     OW 6994   2.287   2.933   5.904
 2032SOL    HW1 6995   2.253   2.964   5.993
 2032SOL    HW2 6996   2.349   2.856   5.917
 2033SOL     OW 6997   2.252   1.553   0.750
 2033SOL    HW1 6998   2.310   1.519   0.824
 2033SOL    HW2 6999   2.299   1.539   0.662
 2034SOL     OW 7000   0.784   4.598   5.382
 2034SOL    HW1 7001   0.760   4.509   5.420
 2034SOL    HW2 7002   0.703   4.656   5.377
 2035SOL     OW 7003   5.318   6.425   3.318
 2035SOL    HW1 7004   5.404   6.475   3.328
 2035SOL    HW2 7005   5.256   6.477   3.259
 2036SOL     OW 7006   0.388   4.820   6.393
 2036SOL    HW1 7007   0.295   4.851   6.372
 2036SOL    HW2 7008   0.392   4.721   6.386
 2037SOL     OW 7009   0.826   2.340   0.287
 2037SOL    HW1 7010   0.810   2.294   0.374
 2037SOL    HW2 7011   0.902   2.296   0.240
 2038SOL     OW 7012   0.888   0.826   6.037
 2038SOL    HW1 7013   0.924   0.782   6.119
 2038SOL    HW2 7014   0.788   0.822   6.038
 2039SOL     OW 7015   5.173   6.263   3.527
 2039SOL    HW1 7016   5.213   6.296   3.441
 2039SOL    HW2 7017   5.186   6.164   3.534
 2040SOL     OW 7018   2.279   2.115   6.797
 2040SOL    HW1 7019   2.193   2.155   6.763
 2040SOL    HW2 7020   2.339   2.188   6.830
 2041SOL     OW 7021   2.740   0.111   6.459
 2041SOL    HW1 7022   2.739   0.088   6.362
 2041SOL    HW2 7023   2.770   0.205   6.471
 2042SOL     OW 7024   5.864   0.896   5.956
 2042SOL    HW1 7025   5.908   0.876   6.043
 2042SOL    HW2 7026   5.807   0.978   5.965
 2043SOL     OW 7027   0.684   3.820   0.930
 2043SOL    HW1 7028   0.650   3.835   1.023
 2043SOL    HW2 7029   0.734   3.734   0.926
 2044SOL     OW 7030   4.069   0.625   1.324
 2044SOL    HW1 7031   4.160   0.643   1.284
 2044SOL    HW2 7032   4.013   0.707   1.317
 2045SOL     OW 7033   2.253   6.311   4.125
 2045SOL    HW1 7034   2.201   6.269   4.199
 2045SOL    HW2 7035   2.346   6.331   4.157
 2046SOL     OW 7036   0.569   3.192   5.426
 2046SOL    HW1 7037   0.490   3.149   5.383
 2046SOL    HW2 7038   0.646   3.189   5.362
 2047SOL     OW 7039   7.010   0.109   0.567
 2047SOL    HW1 7040   6.951   0.145   0.639
 2047SOL    HW2 7041   0.041   0.034   0.603
 2048SOL     OW 7042   2.065   1.432   4.028
 2048SOL    HW1 7043   2.145   1.457   4.083
 2048SOL    HW2 7044   2.017   1.515   4.000
 2049SOL     OW 7045   4.721   2.767   4.883
 2049SOL    HW1 7046   4.778   2.783   4.803
 2049SOL    HW2 7047   4.641   2.713   4.857
 2050SOL     OW 7048   0.466   0.668   3.415
 2050SOL    HW1 7049   0.500   0.746   3.468
 2050SOL    HW2 7050   0.368   0.677   3.401
 2051SOL     OW 7051   3.079   6.161   0.655
 2051SOL    HW1 7052   3.134   6.091   0.702
 2051SOL    HW2 7053   3.014   6.200   0.720
 2052SOL     OW 7054   1.059   4.144   0.480
 2052SOL    HW1 7055   1.050   4.101   0.571
 2052SOL    HW2 7056   1.155   4.144   0.453
 2053SOL     OW 7057   6.545   5.103   2.680
 2053SOL    HW1 7058   6.526   5.186   2.626
 2053SOL    HW2 7059   6.636   5.069   2.658
 2054SOL     OW 7060   3.297   4.117   2.843
 2054SOL    HW1 7061   3.234   4.039   2.853
 2054SOL    HW2 7062   3.287   4.156   2.752
 2055SOL     OW 7063   3.846   2.655   5.700
 2055SOL    HW1 7064   3.913   2.729   5.700
 2055SOL    HW2 7065   3.845   2.611   5.611
 2056SOL     OW 7066   3.033   5.157   1.464
 2056SOL    HW1 7067   3.057   5.129   1.557
 2056SOL    HW2 7068   2.938   5.132   1.445
 2057SOL     OW 7069   5.709   3.205   4.276
 2057SOL    HW1 7070   5.618   3.239   4.253
 2057SOL    HW2 7071   5.778   3.266   4.236
 2058SOL     OW 7072   6.197   6.502   3.640
 2058SOL    HW1 7073   6.259   6.549   3.577
 2058SOL    HW2 7074   6.249   6.463   3.716
 2059SOL     OW 7075   1.835   1.679   5.382
 2059SOL    HW1 7076   1.744   1.719   5.370
 2059SOL    HW2 7077   1.829   1.599   5.442
 2060SOL     OW 7078   1.896   2.987   6.768
 2060SOL    HW1 7079   1.992   3.012   6.776
 2060SOL    HW2 7080   1.840   3.047   6.826
 2061SOL     OW 7081   1.739   2.685   2.935
 2061SOL    HW1 7082   1.812   2.752   2.945
 2061SOL    HW2 7083   1.666   2.723   2.879
 2062SOL     OW 7084   6.259   4.868   4.195
 2062SOL    HW1 7085   6.273   4.771   4.218
 2062SOL    HW2 7086   6.162   4.890   4.201
 2063SOL     OW 7087   0.709   2.247   3.986
 2063SOL    HW1 7088   0.635   2.297   4.032
 2063SOL    HW2 7089   0.708   2.271   3.889
 2064SOL     OW 7090   0.765   3.158   4.009
 2064SOL    HW1 7091   0.759   3.062   3.982
 2064SOL    HW2 7092   0.854   3.194   3.982
 2065SOL     OW 7093   4.065   3.579   5.794
 2065SOL    HW1 7094   4.016   3.661   5.763
 2065SOL    HW2 7095   4.006   3.499   5.784
 2066SOL     OW 7096   1.330   3.378   5.185
 2066SOL    HW1 7097   1.401   3.440   5.217
 2066SOL    HW2 7098   1.312   3.308   5.254
 2067SOL     OW 7099   6.610   4.832   1.778
 2067SOL    HW1 7100   6.634   4.752   1.834
 2067SOL    HW2 7101   6.524   4.871   1.811
 2068SOL     OW 7102   4.436   0.679   4.290
 2068SOL    HW1 7103   4.399   0.632   4.371
 2068SOL    HW2 7104   4.417   0.777   4.297
 2069SOL     OW 7105   6.821   1.259   3.806
 2069SOL    HW1 7106   6.748   1.271   3.737
 2069SOL    HW2 7107   6.808   1.171   3.852
 2070SOL     OW 7108   1.438   5.037   1.214
 2070SOL    HW1 7109   1.391   4.949   1.219
 2070SOL    HW2 7110   1.499   5.047   1.292
 2071SOL     OW 7111   0.395   2.145   5.557
 2071SOL    HW1 7112   0.373   2.240   5.534
 2071SOL    HW2 7113   0.352   2.121   5.645
 2072SOL     OW 7114   5.738   4.561   5.384
 2072SOL    HW1 7115   5.656   4.505   5.393
 2072SOL    HW2 7116   5.766   4.595   5.474
 2073SOL     OW 7117   3.286   5.581   6.511
 2073SOL    HW1 7118   3.281   5.656   6.578
 2073SOL    HW2 7119   3.199   5.572   6.464
 2074SOL     OW 7120   2.301   4.859   5.654
 2074SOL    HW1 7121   2.305   4.759   5.652
 2074SOL    HW2 7122   2.278   4.890   5.746
 2075SOL     OW 7123   5.792   2.623   1.804
 2075SOL    HW1 7124   5.859   2.569   1.855
 2075SOL    HW2 7125   5.732   2.561   1.753
 2076SOL     OW 7126   6.617   6.451   4.546
 2076SOL    HW1 7127   6.675   6.414   4.473
 2076SOL    HW2 7128   6.573   6.534   4.514
 2077SOL     OW 7129   6.167   4.535   0.133
 2077SOL    HW1 7130   6.266   4.529   0.122
 2077SOL    HW2 7131   6.122   4.470   0.072
 2078SOL     OW 7132   0.809   3.344   5.778
 2078SOL    HW1 7133   0.731   3.367   5.721
 2078SOL    HW2 7134   0.804   3.248   5.805
 2079SOL     OW 7135   5.411   1.059   2.952
 2079SOL    HW1 7136   5.475   1.032   2.880
 2079SOL    HW2 7137   5.461   1.103   3.027
 2080SOL     OW 7138   2.656   3.566   6.382
 2080SOL    HW1 7139   2.595   3.607   6.314
 2080SOL    HW2 7140   2.673   3.470   6.357
 2081SOL     OW 7141   6.479   6.196   1.947
 2081SOL    HW1 7142   6.515   6.187   2.040
 2081SOL    HW2 7143   6.454   6.106   1.912
 2082SOL     OW 7144   6.984   5.313   4.122
 2082SOL    HW1 7145   6.997   5.369   4.040
 2082SOL    HW2 7146   6.929   5.233   4.099
 2083SOL     OW 7147   0.182   6.342   4.138
 2083SOL    HW1 7148   0.147   6.355   4.230
 2083SOL    HW2 7149   0.144   6.258   4.099
 2084SOL     OW 7150   6.742   1.594   1.128
 2084SOL    HW1 7151   6.841   1.597   1.110
 2084SOL    HW2 7152   6.720   1.510   1.178
 2085SOL     OW 7153   6.570   6.207   0.743
 2085SOL    HW1 7154   6.504   6.264   0.693
 2085SOL    HW2 7155   6.522   6.159   0.817
 2086SOL     OW 7156   4.829   0.658   6.876
 2086SOL    HW1 7157   4.798   0.607   6.957
 2086SOL    HW2 7158   4.861   0.748   6.903
 2087SOL     OW 7159   4.023   1.472   0.182
 2087SOL    HW1 7160   4.116   1.478   0.147
 2087SOL    HW2 7161   3.967   1.543   0.141
 2088SOL     OW 7162   0.400   4.549   5.905
 2088SOL    HW1 7163   0.485   4.495   5.910
 2088SOL    HW2 7164   0.409   4.619   5.835
 2089SOL     OW 7165   2.632   4.118   6.244
 2089SOL    HW1 7166   2.643   4.042   6.308
 2089SOL    HW2 7167   2.643   4.084   6.150
 2090SOL     OW 7168   5.110   3.014   6.564
 2090SOL    HW1 7169   5.163   2.944   6.612
 2090SOL    HW2 7170   5.166   3.096   6.552
 2091SOL     OW 7171   5.554   6.315   0.219
 2091SOL    HW1 7172   5.633   6.364   0.181
 2091SOL    HW2 7173   5.563   6.309   0.318
 2092SOL     OW 7174   3.379   3.549   2.244
 2092SOL    HW1 7175   3.320   3.594   2.311
 2092SOL    HW2 7176   3.450   3.612   2.214
 2093SOL     OW 7177   4.010   0.741   1.611
 2093SOL    HW1 7178   4.060   0.814   1.657
 2093SOL    HW2 7179   4.052   0.723   1.522
 2094SOL     OW 7180   5.329   2.026   0.169
 2094SOL    HW1 7181   5.299   1.984   0.084
 2094SOL    HW2 7182   5.360   2.119   0.152
 2095SOL     OW 7183   5.219   5.134   4.166
 2095SOL    HW1 7184   5.213   5.227   4.132
 2095SOL    HW2 7185   5.208   5.070   4.090
 2096SOL     OW 7186   3.864   0.082   2.146
 2096SOL    HW1 7187   3.789   0.095   2.081
 2096SOL    HW2 7188   3.832   0.027   2.223
 2097SOL     OW 7189   0.875   5.838   5.649
 2097SOL    HW1 7190   0.790   5.889   5.646
 2097SOL    HW2 7191   0.863   5.754   5.702
 2098SOL     OW 7192   3.047   6.732   3.929
 2098SOL    HW1 7193   2.963   6.695   3.888
 2098SOL    HW2 7194   3.101   6.658   3.968
 2099SOL     OW 7195   4.012   2.037   6.810
 2099SOL    HW1 7196   4.034   1.966   6.743
 2099SOL    HW2 7197   4.091   2.096   6.822
 2100SOL     OW 7198   4.763   0.412   0.386
 2100SOL    HW1 7199   4.665   0.424   0.370
 2100SOL    HW2 7200   4.795   0.483   0.449
 2101SOL     OW 7201   1.314   0.485   2.559
 2101SOL    HW1 7202   1.269   0.396   2.570
 2101SOL    HW2 7203   1.284   0.546   2.632
 2102SOL     OW 7204   4.068   2.644   1.119
 2102SOL    HW1 7205   4.082   2.589   1.036
 2102SOL    HW2 7206   4.135   2.617   1.189
 2103SOL     OW 7207   1.628   6.218   0.609
 2103SOL    HW1 7208   1.633   6.190   0.513
 2103SOL    HW2 7209   1.665   6.145   0.667
 2104SOL     OW 7210   1.821   3.820   3.226
 2104SOL    HW1 7211   1.867   3.858   3.306
 2104SOL    HW2 7212   1.876   3.837   3.145
 2105SOL     OW 7213   5.653   0.355   4.929
 2105SOL    HW1 7214   5.693   0.390   4.845
 2105SOL    HW2 7215   5.694   0.402   5.007
 2106SOL     OW 7216   4.110   3.179   1.163
 2106SOL    HW1 7217   4.045   3.150   1.092
 2106SOL    HW2 7218   4.103   3.118   1.242
 2107SOL     OW 7219   5.170   4.803   4.889
 2107SOL    HW1 7220   5.155   4.704   4.879
 2107SOL    HW2 7221   5.102   4.840   4.952
 2108SOL     OW 7222   5.123   0.137   5.316
 2108SOL    HW1 7223   5.101   0.168   5.409
 2108SOL    HW2 7224   5.042   0.096   5.275
 2109SOL     OW 7225   2.521   6.304   2.239
 2109SOL    HW1 7226   2.491   6.292   2.145
 2109SOL    HW2 7227   2.598   6.243   2.258
 2110SOL     OW 7228   3.484   6.050   6.998
 2110SOL    HW1 7229   3.530   5.962   7.011
 2110SOL    HW2 7230   3.552   6.119   6.971
 2111SOL     OW 7231   1.152   2.442   5.925
 2111SOL    HW1 7232   1.114   2.532   5.902
 2111SOL    HW2 7233   1.216   2.452   6.002
 2112SOL     OW 7234   0.941   0.140   6.918
 2112SOL    HW1 7235   1.037   0.162   6.933
 2112SOL    HW2 7236   0.925   0.043   6.940
 2113SOL     OW 7237   6.797   1.562   5.081
 2113SOL    HW1 7238   6.836   1.498   5.015
 2113SOL    HW2 7239   6.724   1.516   5.132
 2114SOL     OW 7240   1.811   1.016   5.644
 2114SOL    HW1 7241   1.714   1.018   5.621
 2114SOL    HW2 7242   1.855   0.940   5.596
 2115SOL     OW 7243   6.622   5.576   3.246
 2115SOL    HW1 7244   6.524   5.584   3.262
 2115SOL    HW2 7245   6.670   5.580   3.334
 2116SOL     OW 7246   1.522   1.631   7.024
 2116SOL    HW1 7247   1.476   1.542   7.019
 2116SOL    HW2 7248   1.494   1.688   6.947
 2117SOL     OW 7249   6.494   2.347   2.795
 2117SOL    HW1 7250   6.591   2.328   2.808
 2117SOL    HW2 7251   6.446   2.262   2.773
 2118SOL     OW 7252   0.104   2.152   2.856
 2118SOL    HW1 7253   0.015   2.161   2.900
 2118SOL    HW2 7254   0.129   2.055   2.851
 2119SOL     OW 7255   0.309   2.740   0.579
 2119SOL    HW1 7256   0.375   2.784   0.518
 2119SOL    HW2 7257   0.221   2.787   0.573
 2120SOL     OW 7258   5.595   1.957   0.977
 2120SOL    HW1 7259   5.681   1.935   1.023
 2120SOL    HW2 7260   5.607   2.040   0.922
 2121SOL     OW 7261   1.950   6.661   1.336
 2121SOL    HW1 7262   1.943   6.657   1.237
 2121SOL    HW2 7263   1.922   6.751   1.368
 2122SOL     OW 7264   6.167   0.660   4.318
 2122SOL    HW1 7265   6.174   0.566   4.351
 2122SOL    HW2 7266   6.258   0.701   4.313
 2123SOL     OW 7267   0.998   5.243   3.065
 2123SOL    HW1 7268   0.993   5.335   3.028
 2123SOL    HW2 7269   1.054   5.186   3.005
 2124SOL     OW 7270   4.697   3.252   6.099
 2124SOL    HW1 7271   4.727   3.158   6.114
 2124SOL    HW2 7272   4.597   3.256   6.104
 2125SOL     OW 7273   1.658   5.683   4.219
 2125SOL    HW1 7274   1.648   5.604   4.280
 2125SOL    HW2 7275   1.568   5.707   4.181
 2126SOL     OW 7276   2.815   3.677   0.509
 2126SOL    HW1 7277   2.784   3.639   0.422
 2126SOL    HW2 7278   2.900   3.728   0.495
 2127SOL     OW 7279   1.303   3.203   4.128
 2127SOL    HW1 7280   1.212   3.163   4.140
 2127SOL    HW2 7281   1.324   3.207   4.030
 2128SOL     OW 7282   5.189   2.990   2.459
 2128SOL    HW1 7283   5.234   3.036   2.536
 2128SOL    HW2 7284   5.251   2.921   2.421
 2129SOL     OW 7285   4.790   4.748   4.341
 2129SOL    HW1 7286   4.732   4.669   4.320
 2129SOL    HW2 7287   4.881   4.716   4.368
 2130SOL     OW 7288   2.124   0.425   1.595
 2130SOL    HW1 7289   2.038   0.379   1.575
 2130SOL    HW2 7290   2.124   0.516   1.554
 2131SOL     OW 7291   5.694   0.499   6.199
 2131SOL    HW1 7292   5.717   0.560   6.275
 2131SOL    HW2 7293   5.597   0.476   6.202
 2132SOL     OW 7294   2.795   2.751   0.402
 2132SOL    HW1 7295   2.702   2.790   0.401
 2132SOL    HW2 7296   2.820   2.723   0.310
 2133SOL     OW 7297   3.690   2.253   1.201
 2133SOL    HW1 7298   3.734   2.337   1.170
 2133SOL    HW2 7299   3.635   2.272   1.283
 2134SOL     OW 7300   2.054   6.264   5.145
 2134SOL    HW1 7301   2.034   6.355   5.182
 2134SOL    HW2 7302   2.152   6.252   5.137
 2135SOL     OW 7303   1.207   6.238   4.019
 2135SOL    HW1 7304   1.123   6.253   4.072
 2135SOL    HW2 7305   1.228   6.321   3.966
 2136SOL     OW 7306   1.493   4.802   3.828
 2136SOL    HW1 7307   1.459   4.712   3.801
 2136SOL    HW2 7308   1.488   4.865   3.750
 2137SOL     OW 7309   0.852   1.177   4.874
 2137SOL    HW1 7310   0.850   1.108   4.946
 2137SOL    HW2 7311   0.761   1.183   4.832
 2138SOL     OW 7312   1.072   2.705   5.859
 2138SOL    HW1 7313   1.135   2.724   5.934
 2138SOL    HW2 7314   0.991   2.764   5.868
 2139SOL     OW 7315   3.066   6.852   4.743
 2139SOL    HW1 7316   3.023   6.823   4.829
 2139SOL    HW2 7317   3.156   6.810   4.735
 2140SOL     OW 7318   1.533   5.982   3.519
 2140SOL    HW1 7319   1.630   5.976   3.545
 2140SOL    HW2 7320   1.524   6.034   3.434
 2141SOL     OW 7321   6.534   1.783   6.308
 2141SOL    HW1 7322   6.538   1.720   6.386
 2141SOL    HW2 7323   6.611   1.847   6.313
 2142SOL     OW 7324   3.089   1.142   3.819
 2142SOL    HW1 7325   3.112   1.045   3.811
 2142SOL    HW2 7326   2.991   1.155   3.807
 2143SOL     OW 7327   3.783   6.400   0.113
 2143SOL    HW1 7328   3.842   6.328   0.151
 2143SOL    HW2 7329   3.839   6.478   0.084
 2144SOL     OW 7330   1.042   0.535   1.384
 2144SOL    HW1 7331   1.117   0.516   1.446
 2144SOL    HW2 7332   1.036   0.633   1.367
 2145SOL     OW 7333   3.058   5.829   2.712
 2145SOL    HW1 7334   3.028   5.776   2.633
 2145SOL    HW2 7335   3.006   5.914   2.718
 2146SOL     OW 7336   2.790   2.090   0.873
 2146SOL    HW1 7337   2.740   2.141   0.803
 2146SOL    HW2 7338   2.818   2.001   0.836
 2147SOL     OW 7339   0.034   0.999   5.215
 2147SOL    HW1 7340   0.094   0.918   5.217
 2147SOL    HW2 7341   0.077   1.070   5.160
 2148SOL     OW 7342   5.555   3.595   4.188
 2148SOL    HW1 7343   5.528   3.673   4.244
 2148SOL    HW2 7344   5.497   3.517   4.209
 2149SOL     OW 7345   2.911   0.071   2.956
 2149SOL    HW1 7346   2.988   0.051   3.017
 2149SOL    HW2 7347   2.939   0.140   2.889
 2150SOL     OW 7348   4.033   0.403   3.346
 2150SOL    HW1 7349   4.045   0.465   3.423
 2150SOL    HW2 7350   3.992   0.452   3.269
 2151SOL     OW 7351   3.648   4.129   5.609
 2151SOL    HW1 7352   3.607   4.199   5.549
 2151SOL    HW2 7353   3.653   4.164   5.702
 2152SOL     OW 7354   6.647   6.780   2.344
 2152SOL    HW1 7355   6.745   6.763   2.359
 2152SOL    HW2 7356   6.620   6.743   2.256
 2153SOL     OW 7357   4.910   1.809   3.289
 2153SOL    HW1 7358   4.831   1.801   3.350
 2153SOL    HW2 7359   4.957   1.896   3.307
 2154SOL     OW 7360   4.272   6.375   5.491
 2154SOL    HW1 7361   4.245   6.465   5.457
 2154SOL    HW2 7362   4.334   6.332   5.426
 2155SOL     OW 7363   6.460   4.139   6.870
 2155SOL    HW1 7364   6.493   4.117   6.961
 2155SOL    HW2 7365   6.522   4.099   6.802
 2156SOL     OW 7366   0.098   0.536   1.068
 2156SOL    HW1 7367   0.162   0.468   1.105
 2156SOL    HW2 7368   0.036   0.492   1.003
 2157SOL     OW 7369   6.156   1.000   4.147
 2157SOL    HW1 7370   6.092   0.934   4.185
 2157SOL    HW2 7371   6.217   1.032   4.220
 2158SOL     OW 7372   4.683   0.236   3.586
 2158SOL    HW1 7373   4.602   0.204   3.535
 2158SOL    HW2 7374   4.722   0.159   3.637
 2159SOL     OW 7375   2.144   0.418   5.248
 2159SOL    HW1 7376   2.181   0.417   5.155
 2159SOL    HW2 7377   2.209   0.462   5.310
 2160SOL     OW 7378   2.910   2.590   0.797
 2160SOL    HW1 7379   2.958   2.536   0.866
 2160SOL    HW2 7380   2.918   2.545   0.708
 2161SOL     OW 7381   5.279   2.195   3.524
 2161SOL    HW1 7382   5.324   2.263   3.582
 2161SOL    HW2 7383   5.248   2.238   3.440
 2162SOL     OW 7384   1.599   1.036   0.856
 2162SOL    HW1 7385   1.690   1.003   0.883
 2162SOL    HW2 7386   1.599   1.136   0.852
 2163SOL     OW 7387   2.155   1.921   1.245
 2163SOL    HW1 7388   2.144   1.822   1.249
 2163SOL    HW2 7389   2.192   1.947   1.156
 2164SOL     OW 7390   6.926   6.776   1.094
 2164SOL    HW1 7391   6.983   6.839   1.041
 2164SOL    HW2 7392   6.830   6.795   1.076
 2165SOL     OW 7393   2.799   0.488   1.949
 2165SOL    HW1 7394   2.768   0.534   1.866
 2165SOL    HW2 7395   2.897   0.502   1.960
 2166SOL     OW 7396   6.045   2.757   5.867
 2166SOL    HW1 7397   6.084   2.844   5.896
 2166SOL    HW2 7398   6.096   2.722   5.788
 2167SOL     OW 7399   2.750   1.192   1.458
 2167SOL    HW1 7400   2.716   1.114   1.406
 2167SOL    HW2 7401   2.732   1.276   1.406
 2168SOL     OW 7402   5.787   6.682   4.860
 2168SOL    HW1 7403   5.840   6.650   4.938
 2168SOL    HW2 7404   5.707   6.624   4.847
 2169SOL     OW 7405   6.232   1.644   5.898
 2169SOL    HW1 7406   6.319   1.603   5.869
 2169SOL    HW2 7407   6.168   1.643   5.822
 2170SOL     OW 7408   5.323   4.404   4.430
 2170SOL    HW1 7409   5.248   4.341   4.409
 2170SOL    HW2 7410   5.285   4.490   4.463
 2171SOL     OW 7411   0.126   3.515   0.233
 2171SOL    HW1 7412   0.101   3.609   0.208
 2171SOL    HW2 7413   0.044   3.464   0.257
 2172SOL     OW 7414   2.447   0.124   1.736
 2172SOL    HW1 7415   2.538   0.108   1.774
 2172SOL    HW2 7416   2.427   0.222   1.741
 2173SOL     OW 7417   4.548   2.305   4.864
 2173SOL    HW1 7418   4.626   2.327   4.804
 2173SOL    HW2 7419   4.579   2.246   4.938
 2174SOL     OW 7420   1.443   5.565   4.771
 2174SOL    HW1 7421   1.490   5.642   4.728
 2174SOL    HW2 7422   1.450   5.574   4.871
 2175SOL     OW 7423   1.714   5.911   6.162
 2175SOL    HW1 7424   1.647   5.919   6.236
 2175SOL    HW2 7425   1.666   5.915   6.074
 2176SOL     OW 7426   1.646   2.799   2.583
 2176SOL    HW1 7427   1.746   2.790   2.592
 2176SOL    HW2 7428   1.615   2.741   2.508
 2177SOL     OW 7429   0.469   2.221   1.521
 2177SOL    HW1 7430   0.542   2.169   1.478
 2177SOL    HW2 7431   0.464   2.199   1.618
 2178SOL     OW 7432   6.691   6.400   1.132
 2178SOL    HW1 7433   6.708   6.303   1.117
 2178SOL    HW2 7434   6.778   6.447   1.147
 2179SOL     OW 7435   1.299   3.633   4.152
 2179SOL    HW1 7436   1.238   3.641   4.231
 2179SOL    HW2 7437   1.362   3.557   4.167
 2180SOL     OW 7438   3.816   2.899   1.422
 2180SOL    HW1 7439   3.747   2.877   1.490
 2180SOL    HW2 7440   3.888   2.830   1.424
 2181SOL     OW 7441   3.582   6.567   1.510
 2181SOL    HW1 7442   3.637   6.650   1.520
 2181SOL    HW2 7443   3.545   6.563   1.417
 2182SOL     OW 7444   5.329   2.146   1.087
 2182SOL    HW1 7445   5.285   2.160   1.176
 2182SOL    HW2 7446   5.355   2.234   1.049
 2183SOL     OW 7447   2.861   2.494   0.554
 2183SOL    HW1 7448   2.826   2.563   0.491
 2183SOL    HW2 7449   2.803   2.412   0.548
 2184SOL     OW 7450   4.423   3.137   6.135
 2184SOL    HW1 7451   4.390   3.231   6.129
 2184SOL    HW2 7452   4.346   3.074   6.133
 2185SOL     OW 7453   6.940   6.887   2.053
 2185SOL    HW1 7454   6.997   6.806   2.047
 2185SOL    HW2 7455   6.896   6.904   1.964
 2186SOL     OW 7456   0.230   4.590   2.947
 2186SOL    HW1 7457   0.192   4.577   3.039
 2186SOL    HW2 7458   0.156   4.591   2.880
 2187SOL     OW 7459   6.151   1.487   6.836
 2187SOL    HW1 7460   6.144   1.448   6.927
 2187SOL    HW2 7461   6.192   1.420   6.774
 2188SOL     OW 7462   4.869   1.208   4.010
 2188SOL    HW1 7463   4.846   1.201   4.108
 2188SOL    HW2 7464   4.945   1.271   3.998
 2189SOL     OW 7465   2.877   0.088   6.861
 2189SOL    HW1 7466   2.931   0.168   6.835
 2189SOL    HW2 7467   2.935   0.007   6.862
 2190SOL     OW 7468   5.043   2.476   0.827
 2190SOL    HW1 7469   5.087   2.507   0.911
 2190SOL    HW2 7470   4.954   2.436   0.850
 2191SOL     OW 7471   2.442   1.855   0.242
 2191SOL    HW1 7472   2.351   1.876   0.206
 2191SOL    HW2 7473   2.462   1.758   0.228
 2192SOL     OW 7474   3.791   5.534   2.422
 2192SOL    HW1 7475   3.713   5.478   2.397
 2192SOL    HW2 7476   3.874   5.497   2.381
 2193SOL     OW 7477   6.579   5.870   4.747
 2193SOL    HW1 7478   6.505   5.936   4.764
 2193SOL    HW2 7479   6.636   5.904   4.672
 2194SOL     OW 7480   2.865   0.664   1.565
 2194SOL    HW1 7481   2.864   0.734   1.636
 2194SOL    HW2 7482   2.797   0.594   1.586
 2195SOL     OW 7483   0.814   5.109   2.199
 2195SOL    HW1 7484   0.750   5.045   2.242
 2195SOL    HW2 7485   0.855   5.066   2.119
 2196SOL     OW 7486   4.333   3.135   0.629
 2196SOL    HW1 7487   4.293   3.145   0.721
 2196SOL    HW2 7488   4.282   3.191   0.564
 2197SOL     OW 7489   4.419   4.309   6.534
 2197SOL    HW1 7490   4.344   4.321   6.469
 2197SOL    HW2 7491   4.472   4.228   6.510
 2198SOL     OW 7492   6.226   4.507   0.633
 2198SOL    HW1 7493   6.273   4.557   0.560
 2198SOL    HW2 7494   6.207   4.569   0.709
 2199SOL     OW 7495   4.187   1.203   2.911
 2199SOL    HW1 7496   4.198   1.120   2.965
 2199SOL    HW2 7497   4.100   1.200   2.862
 2200SOL     OW 7498   2.843   6.865   4.573
 2200SOL    HW1 7499   2.922   6.869   4.633
 2200SOL    HW2 7500   2.865   6.808   4.493
 2201SOL     OW 7501   4.748   3.993   3.951
 2201SOL    HW1 7502   4.676   4.060   3.934
 2201SOL    HW2 7503   4.837   4.037   3.939
 2202SOL     OW 7504   4.562   5.729   4.006
 2202SOL    HW1 7505   4.632   5.665   3.972
 2202SOL    HW2 7506   4.575   5.742   4.104
 2203SOL     OW 7507   2.939   1.807   2.921
 2203SOL    HW1 7508   2.860   1.813   2.860
 2203SOL    HW2 7509   3.011   1.753   2.876
 2204SOL     OW 7510   2.641   2.448   0.268
 2204SOL    HW1 7511   2.578   2.483   0.338
 2204SOL    HW2 7512   2.682   2.524   0.219
 2205SOL     OW 7513   2.570   1.140   1.828
 2205SOL    HW1 7514   2.566   1.234   1.793
 2205SOL    HW2 7515   2.556   1.141   1.927
 2206SOL     OW 7516   1.662   2.906   0.056
 2206SOL    HW1 7517   1.693   2.844   7.009
 2206SOL    HW2 7518   1.681   2.866   0.146
 2207SOL     OW 7519   0.512   4.612   4.926
 2207SOL    HW1 7520   0.429   4.660   4.956
 2207SOL    HW2 7521   0.587   4.678   4.916
 2208SOL     OW 7522   6.722   4.895   2.216
 2208SOL    HW1 7523   6.654   4.825   2.235
 2208SOL    HW2 7524   6.699   4.942   2.131
 2209SOL     OW 7525   0.846   0.084   1.684
 2209SOL    HW1 7526   0.837   0.101   1.586
 2209SOL    HW2 7527   0.840   7.011   1.702
 2210SOL     OW 7528   2.071   5.252   3.336
 2210SOL    HW1 7529   2.005   5.326   3.345
 2210SOL    HW2 7530   2.153   5.274   3.389
 2211SOL     OW 7531   0.066   1.477   5.238
 2211SOL    HW1 7532   6.997   1.476   5.271
 2211SOL    HW2 7533   0.079   1.554   5.176
 2212SOL     OW 7534   1.641   6.752   6.451
 2212SOL    HW1 7535   1.702   6.791   6.382
 2212SOL    HW2 7536   1.638   6.813   6.530
 2213SOL     OW 7537   3.422   0.677   3.323
 2213SOL    HW1 7538   3.388   0.600   3.270
 2213SOL    HW2 7539   3.509   0.709   3.286
 2214SOL     OW 7540   4.298   0.564   4.497
 2214SOL    HW1 7541   4.338   0.586   4.586
 2214SOL    HW2 7542   4.266   0.469   4.498
 2215SOL     OW 7543   5.710   2.030   5.224
 2215SOL    HW1 7544   5.661   1.986   5.299
 2215SOL    HW2 7545   5.804   1.995   5.220
 2216SOL     OW 7546   3.035   0.865   2.516
 2216SOL    HW1 7547   3.102   0.938   2.530
 2216SOL    HW2 7548   3.006   0.864   2.421
 2217SOL     OW 7549   4.357   0.954   2.090
 2217SOL    HW1 7550   4.262   0.941   2.118
 2217SOL    HW2 7551   4.385   0.879   2.030
 2218SOL     OW 7552   1.164   0.213   2.950
 2218SOL    HW1 7553   1.224   0.293   2.957
 2218SOL    HW2 7554   1.185   0.163   2.865
 2219SOL     OW 7555   1.117   2.638   2.543
 2219SOL    HW1 7556   1.092   2.541   2.542
 2219SOL    HW2 7557   1.196   2.651   2.604
 2220SOL     OW 7558   0.801   0.512   2.227
 2220SOL    HW1 7559   0.794   0.605   2.191
 2220SOL    HW2 7560   0.744   0.504   2.309
 2221SOL     OW 7561   0.544   0.819   6.486
 2221SOL    HW1 7562   0.593   0.797   6.571
 2221SOL    HW2 7563   0.501   0.737   6.450
 2222SOL     OW 7564   6.345   5.625   3.326
 2222SOL    HW1 7565   6.296   5.573   3.256
 2222SOL    HW2 7566   6.290   5.705   3.352
 2223SOL     OW 7567   6.676   6.399   1.831
 2223SOL    HW1 7568   6.645   6.339   1.905
 2223SOL    HW2 7569   6.765   6.438   1.855
 2224SOL     OW 7570   1.186   4.804   1.327
 2224SOL    HW1 7571   1.096   4.778   1.359
 2224SOL    HW2 7572   1.214   4.744   1.252
 2225SOL     OW 7573   0.467   3.963   0.887
 2225SOL    HW1 7574   0.509   4.025   0.821
 2225SOL    HW2 7575   0.529   3.885   0.902
 2226SOL     OW 7576   4.133   3.789   2.068
 2226SOL    HW1 7577   4.231   3.809   2.065
 2226SOL    HW2 7578   4.109   3.755   2.159
 2227SOL     OW 7579   0.762   2.855   4.372
 2227SOL    HW1 7580   0.771   2.953   4.385
 2227SOL    HW2 7581   0.828   2.807   4.431
 2228SOL     OW 7582   2.990   4.970   4.219
 2228SOL    HW1 7583   2.912   4.950   4.161
 2228SOL    HW2 7584   3.034   5.054   4.189
 2229SOL     OW 7585   5.572   6.518   3.352
 2229SOL    HW1 7586   5.603   6.526   3.447
 2229SOL    HW2 7587   5.635   6.460   3.301
 2230SOL     OW 7588   2.622   5.257   1.827
 2230SOL    HW1 7589   2.717   5.256   1.858
 2230SOL    HW2 7590   2.619   5.240   1.729
 2231SOL     OW 7591   2.628   6.171   1.429
 2231SOL    HW1 7592   2.593   6.169   1.523
 2231SOL    HW2 7593   2.673   6.084   1.409
 2232SOL     OW 7594   5.529   2.634   3.754
 2232SOL    HW1 7595   5.489   2.720   3.723
 2232SOL    HW2 7596   5.591   2.652   3.831
 2233SOL     OW 7597   2.979   1.443   6.103
 2233SOL    HW1 7598   2.998   1.444   6.005
 2233SOL    HW2 7599   2.891   1.398   6.120
 2234SOL     OW 7600   3.577   2.657   1.233
 2234SOL    HW1 7601   3.524   2.737   1.264
 2234SOL    HW2 7602   3.555   2.579   1.291
 2235SOL     OW 7603   2.143   1.957   1.642
 2235SOL    HW1 7604   2.110   1.913   1.725
 2235SOL    HW2 7605   2.070   2.012   1.602
 2236SOL     OW 7606   1.210   4.869   6.259
 2236SOL    HW1 7607   1.218   4.892   6.356
 2236SOL    HW2 7608   1.233   4.950   6.205
 2237SOL     OW 7609   6.225   3.270   3.943
 2237SOL    HW1 7610   6.303   3.331   3.958
 2237SOL    HW2 7611   6.196   3.230   4.030
 2238SOL     OW 7612   6.420   6.080   0.950
 2238SOL    HW1 7613   6.398   6.086   1.047
 2238SOL    HW2 7614   6.335   6.080   0.897
 2239SOL     OW 7615   6.295   5.956   2.141
 2239SOL    HW1 7616   6.310   6.055   2.148
 2239SOL    HW2 7617   6.203   5.939   2.105
 2240SOL     OW 7618   5.856   3.462   1.961
 2240SOL    HW1 7619   5.946   3.466   2.004
 2240SOL    HW2 7620   5.846   3.537   1.896
 2241SOL     OW 7621   0.923   0.328   3.092
 2241SOL    HW1 7622   0.949   0.306   3.186
 2241SOL    HW2 7623   0.992   0.292   3.029
 2242SOL     OW 7624   3.392   1.527   2.159
 2242SOL    HW1 7625   3.472   1.479   2.125
 2242SOL    HW2 7626   3.410   1.626   2.161
 2243SOL     OW 7627   2.672   6.957   5.123
 2243SOL    HW1 7628   2.602   6.983   5.056
 2243SOL    HW2 7629   2.665   7.017   5.203
 2244SOL     OW 7630   2.991   1.361   4.814
 2244SOL    HW1 7631   2.992   1.283   4.876
 2244SOL    HW2 7632   3.043   1.436   4.854
 2245SOL     OW 7633   0.333   1.949   1.949
 2245SOL    HW1 7634   0.358   1.935   2.045
 2245SOL    HW2 7635   0.240   1.917   1.934
 2246SOL     OW 7636   1.785   4.776   5.210
 2246SOL    HW1 7637   1.836   4.754   5.127
 2246SOL    HW2 7638   1.694   4.735   5.206
 2247SOL     OW 7639   1.890   1.413   4.471
 2247SOL    HW1 7640   1.899   1.512   4.465
 2247SOL    HW2 7641   1.948   1.370   4.401
 2248SOL     OW 7642   4.232   3.834   5.634
 2248SOL    HW1 7643   4.157   3.821   5.699
 2248SOL    HW2 7644   4.207   3.794   5.546
 2249SOL     OW 7645   3.948   5.467   5.209
 2249SOL    HW1 7646   4.037   5.421   5.209
 2249SOL    HW2 7647   3.902   5.451   5.121
 2250SOL     OW 7648   4.403   4.862   1.606
 2250SOL    HW1 7649   4.343   4.932   1.645
 2250SOL    HW2 7650   4.491   4.904   1.584
 2251SOL     OW 7651   0.522   0.342   6.268
 2251SOL    HW1 7652   0.424   0.364   6.263
 2251SOL    HW2 7653   0.540   0.259   6.217
 2252SOL     OW 7654   3.274   0.535   6.305
 2252SOL    HW1 7655   3.316   0.562   6.219
 2252SOL    HW2 7656   3.206   0.604   6.332
 2253SOL     OW 7657   0.990   3.378   6.333
 2253SOL    HW1 7658   0.979   3.298   6.392
 2253SOL    HW2 7659   0.944   3.360   6.245
 2254SOL     OW 7660   1.962   4.644   6.111
 2254SOL    HW1 7661   2.024   4.663   6.187
 2254SOL    HW2 7662   1.961   4.721   6.048
 2255SOL     OW 7663   6.140   3.624   6.823
 2255SOL    HW1 7664   6.207   3.697   6.805
 2255SOL    HW2 7665   6.048   3.659   6.807
 2256SOL     OW 7666   2.678   4.646   2.224
 2256SOL    HW1 7667   2.678   4.744   2.205
 2256SOL    HW2 7668   2.715   4.597   2.145
 2257SOL     OW 7669   1.704   3.654   4.531
 2257SOL    HW1 7670   1.784   3.595   4.525
 2257SOL    HW2 7671   1.719   3.723   4.602
 2258SOL     OW 7672   1.996   4.905   5.324
 2258SOL    HW1 7673   1.907   4.860   5.313
 2258SOL    HW2 7674   2.003   4.943   5.416
 2259SOL     OW 7675   6.683   3.299   6.621
 2259SOL    HW1 7676   6.756   3.230   6.618
 2259SOL    HW2 7677   6.601   3.263   6.577
 2260SOL     OW 7678   4.351   3.305   1.118
 2260SOL    HW1 7679   4.263   3.283   1.161
 2260SOL    HW2 7680   4.409   3.352   1.183
 2261SOL     OW 7681   2.891   6.560   4.902
 2261SOL    HW1 7682   2.872   6.509   4.818
 2261SOL    HW2 7683   2.807   6.606   4.932
 2262SOL     OW 7684   3.502   1.505   3.184
 2262SOL    HW1 7685   3.596   1.479   3.206
 2262SOL    HW2 7686   3.501   1.569   3.108
 2263SOL     OW 7687   0.730   4.188   5.696
 2263SOL    HW1 7688   0.717   4.266   5.756
 2263SOL    HW2 7689   0.726   4.218   5.600
 2264SOL     OW 7690   3.091   3.681   3.054
 2264SOL    HW1 7691   3.021   3.643   3.115
 2264SOL    HW2 7692   3.181   3.669   3.096
 2265SOL     OW 7693   0.760   6.793   3.537
 2265SOL    HW1 7694   0.835   6.764   3.478
 2265SOL    HW2 7695   0.674   6.793   3.485
 2266SOL     OW 7696   6.491   0.570   6.366
 2266SOL    HW1 7697   6.431   0.579   6.447
 2266SOL    HW2 7698   6.434   0.556   6.285
 2267SOL     OW 7699   5.578   1.958   5.453
 2267SOL    HW1 7700   5.527   1.877   5.421
 2267SOL    HW2 7701   5.522   2.007   5.520
 2268SOL     OW 7702   6.930   5.482   6.793
 2268SOL    HW1 7703   6.858   5.551   6.790
 2268SOL    HW2 7704   6.889   5.391   6.794
 2269SOL     OW 7705   0.120   6.958   3.346
 2269SOL    HW1 7706   0.206   7.009   3.345
 2269SOL    HW2 7707   0.140   6.860   3.349
 2270SOL     OW 7708   3.482   3.292   3.069
 2270SOL    HW1 7709   3.581   3.285   3.053
 2270SOL    HW2 7710   3.452   3.215   3.125
 2271SOL     OW 7711   0.916   4.791   3.231
 2271SOL    HW1 7712   0.928   4.730   3.309
 2271SOL    HW2 7713   0.870   4.875   3.261
 2272SOL     OW 7714   5.493   2.044   5.688
 2272SOL    HW1 7715   5.435   2.065   5.767
 2272SOL    HW2 7716   5.573   1.993   5.717
 2273SOL     OW 7717   0.457   1.002   2.906
 2273SOL    HW1 7718   0.540   1.045   2.870
 2273SOL    HW2 7719   0.391   1.073   2.932
 2274SOL     OW 7720   0.845   4.393   3.082
 2274SOL    HW1 7721   0.819   4.442   3.165
 2274SOL    HW2 7722   0.827   4.295   3.094
 2275SOL     OW 7723   4.941   6.484   3.796
 2275SOL    HW1 7724   4.979   6.561   3.847
 2275SOL    HW2 7725   4.842   6.492   3.792
 2276SOL     OW 7726   3.041   5.861   2.204
 2276SOL    HW1 7727   3.024   5.885   2.108
 2276SOL    HW2 7728   3.106   5.926   2.243
 2277SOL     OW 7729   3.106   3.678   1.102
 2277SOL    HW1 7730   3.189   3.728   1.126
 2277SOL    HW2 7731   3.130   3.590   1.062
 2278SOL     OW 7732   4.841   6.458   1.346
 2278SOL    HW1 7733   4.870   6.533   1.405
 2278SOL    HW2 7734   4.760   6.487   1.293
 2279SOL     OW 7735   6.195   3.905   5.659
 2279SOL    HW1 7736   6.129   3.921   5.733
 2279SOL    HW2 7737   6.153   3.849   5.588
 2280SOL     OW 7738   5.733   6.911   6.293
 2280SOL    HW1 7739   5.802   6.958   6.348
 2280SOL    HW2 7740   5.694   6.974   6.226
 2281SOL     OW 7741   2.189   1.692   0.001
 2281SOL    HW1 7742   2.092   1.697   0.024
 2281SOL    HW2 7743   2.223   1.599   0.016
 2282SOL     OW 7744   4.097   6.300   2.090
 2282SOL    HW1 7745   4.094   6.252   2.002
 2282SOL    HW2 7746   4.017   6.358   2.099
 2283SOL     OW 7747   0.070   3.884   1.809
 2283SOL    HW1 7748   0.095   3.979   1.791
 2283SOL    HW2 7749   0.066   3.868   1.908
 2284SOL     OW 7750   2.346   1.942   2.129
 2284SOL    HW1 7751   2.281   1.868   2.112
 2284SOL    HW2 7752   2.400   1.922   2.210
 2285SOL     OW 7753   1.697   3.667   6.823
 2285SOL    HW1 7754   1.601   3.651   6.845
 2285SOL    HW2 7755   1.706   3.690   6.726
 2286SOL     OW 7756   6.338   6.410   4.189
 2286SOL    HW1 7757   6.257   6.425   4.247
 2286SOL    HW2 7758   6.361   6.496   4.143
 2287SOL     OW 7759   2.287   2.060   0.753
 2287SOL    HW1 7760   2.243   1.970   0.758
 2287SOL    HW2 7761   2.218   2.132   0.754
 2288SOL     OW 7762   2.465   5.214   4.902
 2288SOL    HW1 7763   2.375   5.229   4.944
 2288SOL    HW2 7764   2.530   5.183   4.972
 2289SOL     OW 7765   4.059   1.147   0.018
 2289SOL    HW1 7766   4.009   1.224   7.003
 2289SOL    HW2 7767   4.121   1.108   6.975
 2290SOL     OW 7768   3.427   3.655   3.934
 2290SOL    HW1 7769   3.397   3.676   3.841
 2290SOL    HW2 7770   3.401   3.731   3.995
 2291SOL     OW 7771   1.928   2.478   7.024
 2291SOL    HW1 7772   2.008   2.419   7.010
 2291SOL    HW2 7773   1.881   2.492   6.937
 2292SOL     OW 7774   4.897   1.767   2.840
 2292SOL    HW1 7775   4.842   1.849   2.856
 2292SOL    HW2 7776   4.994   1.789   2.853
 2293SOL     OW 7777   0.405   0.763   0.149
 2293SOL    HW1 7778   0.345   0.689   0.117
 2293SOL    HW2 7779   0.490   0.725   0.184
 2294SOL     OW 7780   0.034   0.823   5.573
 2294SOL    HW1 7781   6.984   0.888   5.590
 2294SOL    HW2 7782   7.022   0.731   5.566
 2295SOL     OW 7783   5.472   6.139   0.985
 2295SOL    HW1 7784   5.392   6.199   0.979
 2295SOL    HW2 7785   5.453   6.053   0.939
 2296SOL     OW 7786   3.838   5.276   4.360
 2296SOL    HW1 7787   3.818   5.331   4.441
 2296SOL    HW2 7788   3.754   5.236   4.325
 2297SOL     OW 7789   5.880   3.851   5.366
 2297SOL    HW1 7790   5.833   3.924   5.416
 2297SOL    HW2 7791   5.819   3.773   5.356
 2298SOL     OW 7792   2.897   3.460   4.673
 2298SOL    HW1 7793   2.954   3.385   4.707
 2298SOL    HW2 7794   2.801   3.430   4.670
 2299SOL     OW 7795   6.008   3.447   4.570
 2299SOL    HW1 7796   6.056   3.527   4.533
 2299SOL    HW2 7797   5.910   3.461   4.560
 2300SOL     OW 7798   5.265   0.175   2.478
 2300SOL    HW1 7799   5.250   0.084   2.441
 2300SOL    HW2 7800   5.305   0.168   2.570
 2301SOL     OW 7801   3.990   3.166   4.951
 2301SOL    HW1 7802   4.034   3.084   4.986
 2301SOL    HW2 7803   3.894   3.168   4.981
 2302SOL     OW 7804   6.299   3.418   6.089
 2302SOL    HW1 7805   6.342   3.505   6.065
 2302SOL    HW2 7806   6.291   3.411   6.188
 2303SOL     OW 7807   2.924   2.215   6.668
 2303SOL    HW1 7808   2.855   2.224   6.740
 2303SOL    HW2 7809   2.948   2.118   6.657
 2304SOL     OW 7810   6.517   6.677   2.571
 2304SOL    HW1 7811   6.426   6.714   2.592
 2304SOL    HW2 7812   6.549   6.715   2.484
 2305SOL     OW 7813   2.607   6.851   5.517
 2305SOL    HW1 7814   2.666   6.816   5.445
 2305SOL    HW2 7815   2.585   6.947   5.498
 2306SOL     OW 7816   1.964   4.556   4.612
 2306SOL    HW1 7817   2.012   4.624   4.558
 2306SOL    HW2 7818   2.030   4.505   4.668
 2307SOL     OW 7819   6.811   3.438   5.006
 2307SOL    HW1 7820   6.846   3.480   5.090
 2307SOL    HW2 7821   6.786   3.510   4.941
 2308SOL     OW 7822   0.686   5.742   2.197
 2308SOL    HW1 7823   0.751   5.818   2.195
 2308SOL    HW2 7824   0.729   5.662   2.240
 2309SOL     OW 7825   2.570   0.327   4.576
 2309SOL    HW1 7826   2.585   0.396   4.646
 2309SOL    HW2 7827   2.656   0.278   4.559
 2310SOL     OW 7828   4.605   7.016   0.925
 2310SOL    HW1 7829   4.586   7.004   1.022
 2310SOL    HW2 7830   4.524   6.991   0.871
 2311SOL     OW 7831   2.061   5.727   0.786
 2311SOL    HW1 7832   1.990   5.760   0.848
 2311SOL    HW2 7833   2.145   5.708   0.837
 2312SOL     OW 7834   3.605   5.103   2.441
 2312SOL    HW1 7835   3.559   5.045   2.375
 2312SOL    HW2 7836   3.604   5.198   2.409
 2313SOL     OW 7837   5.122   4.595   1.521
 2313SOL    HW1 7838   5.147   4.530   1.593
 2313SOL    HW2 7839   5.034   4.569   1.482
 2314SOL     OW 7840   2.777   4.835   4.080
 2314SOL    HW1 7841   2.713   4.767   4.115
 2314SOL    HW2 7842   2.801   4.812   3.985
 2315SOL     OW 7843   5.000   1.874   0.022
 2315SOL    HW1 7844   4.932   1.819   6.998
 2315SOL    HW2 7845   4.981   1.971   0.007
 2316SOL     OW 7846   4.991   3.205   2.035
 2316SOL    HW1 7847   5.014   3.210   2.132
 2316SOL    HW2 7848   4.913   3.142   2.022
 2317SOL     OW 7849   0.812   6.064   3.114
 2317SOL    HW1 7850   0.858   6.146   3.148
 2317SOL    HW2 7851   0.848   5.984   3.161
 2318SOL     OW 7852   0.344   1.532   4.325
 2318SOL    HW1 7853   0.315   1.502   4.416
 2318SOL    HW2 7854   0.386   1.622   4.331
 2319SOL     OW 7855   1.106   4.705   1.774
 2319SOL    HW1 7856   1.181   4.678   1.834
 2319SOL    HW2 7857   1.052   4.624   1.751
 2320SOL     OW 7858   6.701   4.663   4.567
 2320SOL    HW1 7859   6.638   4.738   4.549
 2320SOL    HW2 7860   6.652   4.590   4.616
 2321SOL     OW 7861   4.018   5.171   4.530
 2321SOL    HW1 7862   3.980   5.088   4.572
 2321SOL    HW2 7863   3.960   5.199   4.453
 2322SOL     OW 7864   3.089   0.581   4.957
 2322SOL    HW1 7865   3.187   0.566   4.955
 2322SOL    HW2 7866   3.070   0.673   4.992
 2323SOL     OW 7867   4.930   3.655   2.147
 2323SOL    HW1 7868   4.950   3.573   2.093
 2323SOL    HW2 7869   4.954   3.638   2.243
 2324SOL     OW 7870   1.100   4.674   3.430
 2324SOL    HW1 7871   1.083   4.625   3.515
 2324SOL    HW2 7872   1.153   4.616   3.368
 2325SOL     OW 7873   0.219   2.239   0.260
 2325SOL    HW1 7874   0.163   2.290   0.326
 2325SOL    HW2 7875   0.283   2.181   0.310
 2326SOL     OW 7876   0.825   4.213   0.098
 2326SOL    HW1 7877   0.750   4.227   0.162
 2326SOL    HW2 7878   0.911   4.246   0.138
 2327SOL     OW 7879   5.102   1.351   3.948
 2327SOL    HW1 7880   5.083   1.375   3.853
 2327SOL    HW2 7881   5.189   1.392   3.976
 2328SOL     OW 7882   6.491   5.632   3.629
 2328SOL    HW1 7883   6.562   5.699   3.650
 2328SOL    HW2 7884   6.463   5.642   3.533
 2329SOL     OW 7885   0.685   5.657   2.848
 2329SOL    HW1 7886   0.647   5.735   2.897
 2329SOL    HW2 7887   0.629   5.576   2.866
 2330SOL     OW 7888   0.767   4.257   1.510
 2330SOL    HW1 7889   0.693   4.205   1.466
 2330SOL    HW2 7890   0.810   4.200   1.580
 2331SOL     OW 7891   1.443   4.347   6.145
 2331SOL    HW1 7892   1.422   4.444   6.154
 2331SOL    HW2 7893   1.411   4.314   6.056
 2332SOL     OW 7894   5.212   2.913   5.793
 2332SOL    HW1 7895   5.311   2.899   5.786
 2332SOL    HW2 7896   5.170   2.902   5.703
 2333SOL     OW 7897   3.224   4.891   3.806
 2333SOL    HW1 7898   3.197   4.945   3.726
 2333SOL    HW2 7899   3.155   4.821   3.823
 2334SOL     OW 7900   2.511   0.245   6.581
 2334SOL    HW1 7901   2.584   0.272   6.643
 2334SOL    HW2 7902   2.522   0.292   6.493
 2335SOL     OW 7903   4.470   4.663   4.713
 2335SOL    HW1 7904   4.434   4.618   4.631
 2335SOL    HW2 7905   4.395   4.707   4.762
 2336SOL     OW 7906   4.411   2.917   5.734
 2336SOL    HW1 7907   4.481   2.949   5.798
 2336SOL    HW2 7908   4.370   2.995   5.687
 2337SOL     OW 7909   6.271   0.374   4.515
 2337SOL    HW1 7910   6.266   0.306   4.441
 2337SOL    HW2 7911   6.181   0.382   4.559
 2338SOL     OW 7912   1.403   6.900   6.775
 2338SOL    HW1 7913   1.346   6.944   6.845
 2338SOL    HW2 7914   1.349   6.831   6.727
 2339SOL     OW 7915   4.390   5.116   6.961
 2339SOL    HW1 7916   4.464   5.075   7.015
 2339SOL    HW2 7917   4.348   5.190   7.013
 2340SOL     OW 7918   4.005   4.847   3.989
 2340SOL    HW1 7919   4.003   4.937   4.032
 2340SOL    HW2 7920   4.000   4.776   4.060
 2341SOL     OW 7921   5.617   4.893   6.569
 2341SOL    HW1 7922   5.625   4.989   6.542
 2341SOL    HW2 7923   5.622   4.886   6.669
 2342SOL     OW 7924   6.851   0.031   4.875
 2342SOL    HW1 7925   6.784   0.087   4.826
 2342SOL    HW2 7926   6.889   0.085   4.951
 2343SOL     OW 7927   0.734   0.099   0.556
 2343SOL    HW1 7928   0.691   0.095   0.646
 2343SOL    HW2 7929   0.748   0.195   0.530
 2344SOL     OW 7930   2.636   1.393   2.744
 2344SOL    HW1 7931   2.637   1.427   2.650
 2344SOL    HW2 7932   2.546   1.353   2.763
 2345SOL     OW 7933   1.451   1.751   2.420
 2345SOL    HW1 7934   1.361   1.725   2.383
 2345SOL    HW2 7935   1.520   1.689   2.383
 2346SOL     OW 7936   4.765   3.136   5.290
 2346SOL    HW1 7937   4.725   3.055   5.331
 2346SOL    HW2 7938   4.721   3.218   5.326
 2347SOL     OW 7939   1.642   3.460   0.831
 2347SOL    HW1 7940   1.710   3.465   0.758
 2347SOL    HW2 7941   1.673   3.397   0.902
 2348SOL     OW 7942   2.784   6.919   1.753
 2348SOL    HW1 7943   2.719   6.902   1.828
 2348SOL    HW2 7944   2.877   6.909   1.788
 2349SOL     OW 7945   4.558   4.269   6.255
 2349SOL    HW1 7946   4.607   4.237   6.175
 2349SOL    HW2 7947   4.574   4.367   6.267
 2350SOL     OW 7948   2.370   5.860   5.139
 2350SOL    HW1 7949   2.330   5.905   5.060
 2350SOL    HW2 7950   2.466   5.839   5.120
 2351SOL     OW 7951   1.703   5.360   3.221
 2351SOL    HW1 7952   1.741   5.361   3.313
 2351SOL    HW2 7953   1.765   5.407   3.158
 2352SOL     OW 7954   5.824   4.626   0.737
 2352SOL    HW1 7955   5.872   4.703   0.694
 2352SOL    HW2 7956   5.888   4.574   0.794
 2353SOL     OW 7957   2.348   3.669   6.523
 2353SOL    HW1 7958   2.318   3.676   6.619
 2353SOL    HW2 7959   2.386   3.757   6.494
 2354SOL     OW 7960   4.268   1.859   2.124
 2354SOL    HW1 7961   4.368   1.864   2.125
 2354SOL    HW2 7962   4.230   1.952   2.122
 2355SOL     OW 7963   0.378   1.519   1.758
 2355SOL    HW1 7964   0.383   1.445   1.825
 2355SOL    HW2 7965   0.423   1.490   1.674
 2356SOL     OW 7966   2.621   5.059   4.124
 2356SOL    HW1 7967   2.627   5.093   4.218
 2356SOL    HW2 7968   2.670   4.972   4.117
 2357SOL     OW 7969   0.412   4.594   0.820
 2357SOL    HW1 7970   0.490   4.622   0.765
 2357SOL    HW2 7971   0.347   4.670   0.827
 2358SOL     OW 7972   3.137   1.359   5.118
 2358SOL    HW1 7973   3.199   1.437   5.110
 2358SOL    HW2 7974   3.048   1.383   5.077
 2359SOL     OW 7975   2.039   1.898   5.496
 2359SOL    HW1 7976   1.995   1.811   5.473
 2359SOL    HW2 7977   2.138   1.890   5.481
 2360SOL     OW 7978   3.007   5.441   0.680
 2360SOL    HW1 7979   3.100   5.415   0.705
 2360SOL    HW2 7980   3.010   5.512   0.609
 2361SOL     OW 7981   3.740   5.912   1.270
 2361SOL    HW1 7982   3.753   5.813   1.277
 2361SOL    HW2 7983   3.717   5.936   1.175
 2362SOL     OW 7984   3.521   4.963   3.826
 2362SOL    HW1 7985   3.528   5.060   3.849
 2362SOL    HW2 7986   3.425   4.938   3.817
 2363SOL     OW 7987   1.927   4.064   1.105
 2363SOL    HW1 7988   1.878   4.122   1.041
 2363SOL    HW2 7989   1.886   3.972   1.105
 2364SOL     OW 7990   4.139   1.922   2.463
 2364SOL    HW1 7991   4.212   1.866   2.424
 2364SOL    HW2 7992   4.109   1.882   2.550
 2365SOL     OW 7993   4.806   4.471   2.726
 2365SOL    HW1 7994   4.710   4.461   2.699
 2365SOL    HW2 7995   4.833   4.567   2.714
 2366SOL     OW 7996   3.168   5.081   5.667
 2366SOL    HW1 7997   3.130   5.003   5.717
 2366SOL    HW2 7998   3.131   5.082   5.574
 2367SOL     OW 7999   5.997   5.216   6.184
 2367SOL    HW1 8000   6.025   5.127   6.219
 2367SOL    HW2 8001   5.955   5.269   6.257
 2368SOL     OW 8002   5.111   0.858   5.882
 2368SOL    HW1 8003   5.136   0.907   5.798
 2368SOL    HW2 8004   5.171   0.779   5.893
 2369SOL     OW 8005   3.900   2.182   4.194
 2369SOL    HW1 8006   3.973   2.251   4.194
 2369SOL    HW2 8007   3.873   2.162   4.289
 2370SOL     OW 8008   5.145   1.921   1.900
 2370SOL    HW1 8009   5.085   1.940   1.978
 2370SOL    HW2 8010   5.230   1.973   1.909
 2371SOL     OW 8011   1.227   6.370   1.713
 2371SOL    HW1 8012   1.236   6.278   1.751
 2371SOL    HW2 8013   1.132   6.400   1.719
 2372SOL     OW 8014   6.836   0.065   6.329
 2372SOL    HW1 8015   6.898   0.131   6.288
 2372SOL    HW2 8016   6.764   0.113   6.380
 2373SOL     OW 8017   5.965   4.629   5.955
 2373SOL    HW1 8018   6.023   4.708   5.973
 2373SOL    HW2 8019   6.009   4.546   5.989
 2374SOL     OW 8020   6.124   6.552   2.445
 2374SOL    HW1 8021   6.114   6.643   2.486
 2374SOL    HW2 8022   6.200   6.553   2.380
 2375SOL     OW 8023   2.329   0.443   4.472
 2375SOL    HW1 8024   2.318   0.539   4.495
 2375SOL    HW2 8025   2.424   0.415   4.487
 2376SOL     OW 8026   5.347   1.890   3.092
 2376SOL    HW1 8027   5.323   1.987   3.092
 2376SOL    HW2 8028   5.439   1.878   3.054
 2377SOL     OW 8029   4.330   3.524   5.566
 2377SOL    HW1 8030   4.404   3.463   5.596
 2377SOL    HW2 8031   4.362   3.619   5.568
 2378SOL     OW 8032   0.743   1.551   0.210
 2378SOL    HW1 8033   0.740   1.513   0.118
 2378SOL    HW2 8034   0.815   1.621   0.216
 2379SOL     OW 8035   0.083   5.275   2.551
 2379SOL    HW1 8036   0.020   5.340   2.509
 2379SOL    HW2 8037   0.085   5.191   2.497
 2380SOL     OW 8038   4.707   5.527   6.871
 2380SOL    HW1 8039   4.761   5.592   6.925
 2380SOL    HW2 8040   4.702   5.440   6.920
 2381SOL     OW 8041   2.148   3.792   3.643
 2381SOL    HW1 8042   2.105   3.703   3.658
 2381SOL    HW2 8043   2.154   3.810   3.545
 2382SOL     OW 8044   0.207   5.167   3.151
 2382SOL    HW1 8045   0.133   5.232   3.171
 2382SOL    HW2 8046   0.236   5.124   3.236
 2383SOL     OW 8047   5.232   4.189   5.636
 2383SOL    HW1 8048   5.217   4.210   5.733
 2383SOL    HW2 8049   5.154   4.139   5.600
 2384SOL     OW 8050   0.414   2.074   2.437
 2384SOL    HW1 8051   0.349   2.110   2.504
 2384SOL    HW2 8052   0.365   2.042   2.356
 2385SOL     OW 8053   0.156   1.416   0.611
 2385SOL    HW1 8054   0.075   1.362   0.635
 2385SOL    HW2 8055   0.127   1.508   0.583
 2386SOL     OW 8056   5.997   6.091   4.633
 2386SOL    HW1 8057   6.029   6.049   4.548
 2386SOL    HW2 8058   6.001   6.024   4.707
 2387SOL     OW 8059   1.178   1.199   4.127
 2387SOL    HW1 8060   1.247   1.185   4.056
 2387SOL    HW2 8061   1.165   1.114   4.178
 2388SOL     OW 8062   0.610   3.371   5.618
 2388SOL    HW1 8063   0.533   3.433   5.608
 2388SOL    HW2 8064   0.599   3.293   5.557
 2389SOL     OW 8065   4.515   5.644   3.042
 2389SOL    HW1 8066   4.608   5.640   3.078
 2389SOL    HW2 8067   4.504   5.577   2.969
 2390SOL     OW 8068   4.426   2.901   6.804
 2390SOL    HW1 8069   4.511   2.877   6.757
 2390SOL    HW2 8070   4.442   2.901   6.903
 2391SOL     OW 8071   3.558   4.464   6.756
 2391SOL    HW1 8072   3.582   4.395   6.825
 2391SOL    HW2 8073   3.519   4.418   6.676
 2392SOL     OW 8074   4.143   4.659   5.748
 2392SOL    HW1 8075   4.187   4.685   5.662
 2392SOL    HW2 8076   4.047   4.687   5.745
 2393SOL     OW 8077   4.250   4.417   1.007
 2393SOL    HW1 8078   4.313   4.340   1.019
 2393SOL    HW2 8079   4.158   4.389   1.034
 2394SOL     OW 8080   6.972   1.685   3.695
 2394SOL    HW1 8081   6.954   1.607   3.754
 2394SOL    HW2 8082   6.938   1.768   3.739
 2395SOL     OW 8083   1.031   3.184   3.943
 2395SOL    HW1 8084   1.081   3.106   3.905
 2395SOL    HW2 8085   1.071   3.269   3.909
 2396SOL     OW 8086   6.902   0.297   6.905
 2396SOL    HW1 8087   6.928   0.393   6.915
 2396SOL    HW2 8088   6.948   0.243   6.976
 2397SOL     OW 8089   1.667   3.998   5.241
 2397SOL    HW1 8090   1.616   3.964   5.320
 2397SOL    HW2 8091   1.736   4.065   5.271
 2398SOL     OW 8092   4.356   6.659   3.740
 2398SOL    HW1 8093   4.370   6.647   3.642
 2398SOL    HW2 8094   4.359   6.757   3.763
 2399SOL     OW 8095   3.414   2.069   3.070
 2399SOL    HW1 8096   3.480   2.019   3.125
 2399SOL    HW2 8097   3.451   2.085   2.978
 2400SOL     OW 8098   1.763   3.594   0.493
 2400SOL    HW1 8099   1.794   3.607   0.399
 2400SOL    HW2 8100   1.842   3.593   0.555
 2401SOL     OW 8101   1.779   6.533   6.559
 2401SOL    HW1 8102   1.730   6.602   6.506
 2401SOL    HW2 8103   1.754   6.442   6.525
 2402SOL     OW 8104   1.013   3.872   2.236
 2402SOL    HW1 8105   0.981   3.952   2.286
 2402SOL    HW2 8106   0.940   3.839   2.176
 2403SOL     OW 8107   3.153   3.543   5.129
 2403SOL    HW1 8108   3.055   3.520   5.127
 2403SOL    HW2 8109   3.169   3.615   5.197
 2404SOL     OW 8110   5.917   1.456   1.138
 2404SOL    HW1 8111   5.905   1.361   1.166
 2404SOL    HW2 8112   5.995   1.462   1.075
 2405SOL     OW 8113   1.813   3.063   0.640
 2405SOL    HW1 8114   1.851   3.130   0.576
 2405SOL    HW2 8115   1.731   3.101   0.683
 2406SOL     OW 8116   3.610   5.549   4.704
 2406SOL    HW1 8117   3.623   5.610   4.782
 2406SOL    HW2 8118   3.514   5.545   4.680
 2407SOL     OW 8119   2.757   1.445   3.291
 2407SOL    HW1 8120   2.783   1.517   3.227
 2407SOL    HW2 8121   2.816   1.365   3.277
 2408SOL     OW 8122   2.625   0.118   5.339
 2408SOL    HW1 8123   2.536   0.158   5.359
 2408SOL    HW2 8124   2.697   0.172   5.382
 2409SOL     OW 8125   0.738   3.261   0.398
 2409SOL    HW1 8126   0.648   3.222   0.415
 2409SOL    HW2 8127   0.787   3.271   0.485
 2410SOL     OW 8128   0.087   3.306   4.493
 2410SOL    HW1 8129   0.072   3.393   4.447
 2410SOL    HW2 8130   7.024   3.258   4.502
 2411SOL     OW 8131   2.587   1.987   6.838
 2411SOL    HW1 8132   2.504   1.935   6.858
 2411SOL    HW2 8133   2.620   1.964   6.746
 2412SOL     OW 8134   3.118   2.020   5.757
 2412SOL    HW1 8135   3.101   2.100   5.815
 2412SOL    HW2 8136   3.196   1.969   5.793
 2413SOL     OW 8137   0.231   3.059   0.077
 2413SOL    HW1 8138   0.238   2.960   0.092
 2413SOL    HW2 8139   0.320   3.102   0.091
 2414SOL     OW 8140   6.797   1.073   5.098
 2414SOL    HW1 8141   6.743   1.095   5.179
 2414SOL    HW2 8142   6.862   1.000   5.119
 2415SOL     OW 8143   3.106   4.922   6.272
 2415SOL    HW1 8144   3.156   4.966   6.197
 2415SOL    HW2 8145   3.103   4.985   6.350
 2416SOL     OW 8146   6.903   2.090   2.991
 2416SOL    HW1 8147   6.866   2.182   3.002
 2416SOL    HW2 8148   6.850   2.041   2.922
 2417SOL     OW 8149   2.970   2.529   1.446
 2417SOL    HW1 8150   2.912   2.454   1.414
 2417SOL    HW2 8151   2.982   2.521   1.545
 2418SOL     OW 8152   4.986   3.566   6.727
 2418SOL    HW1 8153   5.028   3.492   6.674
 2418SOL    HW2 8154   4.893   3.539   6.752
 2419SOL     OW 8155   2.765   0.871   3.307
 2419SOL    HW1 8156   2.862   0.857   3.289
 2419SOL    HW2 8157   2.752   0.898   3.403
 2420SOL     OW 8158   1.120   3.979   2.838
 2420SOL    HW1 8159   1.131   4.000   2.935
 2420SOL    HW2 8160   1.133   3.881   2.823
 2421SOL     OW 8161   3.343   6.653   3.560
 2421SOL    HW1 8162   3.313   6.589   3.631
 2421SOL    HW2 8163   3.421   6.706   3.594
 2422SOL     OW 8164   4.441   4.756   0.705
 2422SOL    HW1 8165   4.378   4.692   0.659
 2422SOL    HW2 8166   4.532   4.748   0.664
 2423SOL     OW 8167   2.293   5.346   3.475
 2423SOL    HW1 8168   2.351   5.343   3.393
 2423SOL    HW2 8169   2.343   5.308   3.553
 2424SOL     OW 8170   4.790   0.009   6.151
 2424SOL    HW1 8171   4.740   7.002   6.071
 2424SOL    HW2 8172   4.726   0.047   6.218
 2425SOL     OW 8173   4.398   5.629   5.177
 2425SOL    HW1 8174   4.484   5.606   5.223
 2425SOL    HW2 8175   4.413   5.632   5.078
 2426SOL     OW 8176   2.507   2.647   5.158
 2426SOL    HW1 8177   2.549   2.569   5.112
 2426SOL    HW2 8178   2.438   2.688   5.098
 2427SOL     OW 8179   4.848   1.091   0.594
 2427SOL    HW1 8180   4.933   1.138   0.620
 2427SOL    HW2 8181   4.790   1.154   0.542
 2428SOL     OW 8182   1.612   1.726   2.777
 2428SOL    HW1 8183   1.516   1.700   2.782
 2428SOL    HW2 8184   1.621   1.826   2.787
 2429SOL     OW 8185   6.489   5.383   1.211
 2429SOL    HW1 8186   6.545   5.336   1.143
 2429SOL    HW2 8187   6.393   5.361   1.196
 2430SOL     OW 8188   6.267   0.997   6.265
 2430SOL    HW1 8189   6.209   1.039   6.335
 2430SOL    HW2 8190   6.216   0.990   6.180
 2431SOL     OW 8191   0.723   3.303   1.866
 2431SOL    HW1 8192   0.784   3.295   1.945
 2431SOL    HW2 8193   0.748   3.234   1.798
 2432SOL     OW 8194   2.295   5.082   1.834
 2432SOL    HW1 8195   2.336   5.046   1.750
 2432SOL    HW2 8196   2.363   5.083   1.907
 2433SOL     OW 8197   0.070   4.181   5.412
 2433SOL    HW1 8198   7.004   4.194   5.452
 2433SOL    HW2 8199   0.093   4.261   5.356
 2434SOL     OW 8200   4.473   1.038   2.983
 2434SOL    HW1 8201   4.486   1.019   2.886
 2434SOL    HW2 8202   4.497   0.958   3.037
 2435SOL     OW 8203   5.686   6.696   6.767
 2435SOL    HW1 8204   5.740   6.648   6.698
 2435SOL    HW2 8205   5.715   6.666   6.858
 2436SOL     OW 8206   0.252   2.970   0.845
 2436SOL    HW1 8207   0.326   3.031   0.872
 2436SOL    HW2 8208   0.205   3.006   0.765
 2437SOL     OW 8209   6.734   3.771   1.437
 2437SOL    HW1 8210   6.670   3.696   1.425
 2437SOL    HW2 8211   6.697   3.854   1.394
 2438SOL     OW 8212   3.621   1.798   4.492
 2438SOL    HW1 8213   3.590   1.822   4.400
 2438SOL    HW2 8214   3.618   1.698   4.503
 2439SOL     OW 8215   1.546   5.197   1.039
 2439SOL    HW1 8216   1.646   5.187   1.044
 2439SOL    HW2 8217   1.503   5.132   1.102
 2440SOL     OW 8218   6.486   0.730   5.553
 2440SOL    HW1 8219   6.550   0.661   5.588
 2440SOL    HW2 8220   6.534   0.817   5.541
 2441SOL     OW 8221   5.899   0.734   0.924
 2441SOL    HW1 8222   5.884   0.646   0.878
 2441SOL    HW2 8223   5.812   0.771   0.955
 2442SOL     OW 8224   5.639   2.940   1.523
 2442SOL    HW1 8225   5.613   3.035   1.540
 2442SOL    HW2 8226   5.569   2.880   1.560
 2443SOL     OW 8227   0.396   3.392   1.585
 2443SOL    HW1 8228   0.321   3.379   1.519
 2443SOL    HW2 8229   0.480   3.352   1.549
 2444SOL     OW 8230   3.781   5.145   2.162
 2444SOL    HW1 8231   3.749   5.051   2.159
 2444SOL    HW2 8232   3.857   5.152   2.227
 2445SOL     OW 8233   0.259   1.595   1.231
 2445SOL    HW1 8234   0.288   1.555   1.318
 2445SOL    HW2 8235   0.316   1.560   1.157
 2446SOL     OW 8236   0.856   5.558   1.967
 2446SOL    HW1 8237   0.852   5.491   2.042
 2446SOL    HW2 8238   0.878   5.648   2.004
 2447SOL     OW 8239   2.404   0.086   0.320
 2447SOL    HW1 8240   2.381   7.016   0.301
 2447SOL    HW2 8241   2.492   0.091   0.369
 2448SOL     OW 8242   5.624   1.146   4.810
 2448SOL    HW1 8243   5.583   1.120   4.898
 2448SOL    HW2 8244   5.603   1.076   4.742
 2449SOL     OW 8245   1.485   4.191   1.702
 2449SOL    HW1 8246   1.561   4.251   1.725
 2449SOL    HW2 8247   1.469   4.193   1.603
 2450SOL     OW 8248   1.189   6.577   4.653
 2450SOL    HW1 8249   1.187   6.538   4.561
 2450SOL    HW2 8250   1.124   6.528   4.711
 2451SOL     OW 8251   1.631   6.502   5.611
 2451SOL    HW1 8252   1.671   6.573   5.554
 2451SOL    HW2 8253   1.538   6.481   5.580
 2452SOL     OW 8254   2.480   1.962   3.626
 2452SOL    HW1 8255   2.560   1.964   3.687
 2452SOL    HW2 8256   2.490   1.888   3.560
 2453SOL     OW 8257   1.297   1.561   5.932
 2453SOL    HW1 8258   1.350   1.618   5.870
 2453SOL    HW2 8259   1.358   1.520   6.000
 2454SOL     OW 8260   3.391   6.112   1.098
 2454SOL    HW1 8261   3.320   6.145   1.036
 2454SOL    HW2 8262   3.351   6.051   1.166
 2455SOL     OW 8263   4.155   2.179   0.976
 2455SOL    HW1 8264   4.107   2.221   1.053
 2455SOL    HW2 8265   4.146   2.080   0.981
 2456SOL     OW 8266   0.477   3.580   5.981
 2456SOL    HW1 8267   0.570   3.581   5.944
 2456SOL    HW2 8268   0.413   3.551   5.910
 2457SOL     OW 8269   4.137   2.149   5.336
 2457SOL    HW1 8270   4.202   2.095   5.283
 2457SOL    HW2 8271   4.104   2.096   5.413
 2458SOL     OW 8272   0.490   6.954   3.217
 2458SOL    HW1 8273   0.527   6.862   3.222
 2458SOL    HW2 8274   0.563   7.018   3.192
 2459SOL     OW 8275   1.969   6.938   0.512
 2459SOL    HW1 8276   1.982   0.001   0.557
 2459SOL    HW2 8277   1.954   6.953   0.414
 2460SOL     OW 8278   0.562   1.142   4.830
 2460SOL    HW1 8279   0.559   1.058   4.884
 2460SOL    HW2 8280   0.514   1.214   4.879
 2461SOL     OW 8281   4.399   1.363   3.511
 2461SOL    HW1 8282   4.451   1.309   3.577
 2461SOL    HW2 8283   4.324   1.307   3.473
 2462SOL     OW 8284   0.536   5.425   0.242
 2462SOL    HW1 8285   0.523   5.443   0.340
 2462SOL    HW2 8286   0.453   5.452   0.193
 2463SOL     OW 8287   6.241   0.515   0.148
 2463SOL    HW1 8288   6.231   0.416   0.149
 2463SOL    HW2 8289   6.297   0.544   0.225
 2464SOL     OW 8290   0.630   2.400   4.303
 2464SOL    HW1 8291   0.558   2.333   4.315
 2464SOL    HW2 8292   0.590   2.492   4.300
 2465SOL     OW 8293   6.976   6.796   6.013
 2465SOL    HW1 8294   6.962   6.697   6.011
 2465SOL    HW2 8295   0.022   6.818   6.081
 2466SOL     OW 8296   1.003   1.917   1.583
 2466SOL    HW1 8297   1.055   1.876   1.657
 2466SOL    HW2 8298   0.910   1.880   1.583
 2467SOL     OW 8299   6.022   2.675   5.400
 2467SOL    HW1 8300   6.092   2.612   5.367
 2467SOL    HW2 8301   6.058   2.769   5.396
 2468SOL     OW 8302   3.521   6.970   5.540
 2468SOL    HW1 8303   3.512   6.892   5.479
 2468SOL    HW2 8304   3.518   0.030   5.486
 2469SOL     OW 8305   3.580   1.726   5.503
 2469SOL    HW1 8306   3.539   1.698   5.590
 2469SOL    HW2 8307   3.514   1.777   5.450
 2470SOL     OW 8308   2.310   5.095   6.200
 2470SOL    HW1 8309   2.271   5.040   6.127
 2470SOL    HW2 8310   2.315   5.190   6.171
 2471SOL     OW 8311   2.915   5.304   1.842
 2471SOL    HW1 8312   2.996   5.340   1.890
 2471SOL    HW2 8313   2.939   5.218   1.797
 2472SOL     OW 8314   4.798   1.352   3.747
 2472SOL    HW1 8315   4.823   1.299   3.829
 2472SOL    HW2 8316   4.853   1.436   3.744
 2473SOL     OW 8317   0.503   4.080   3.958
 2473SOL    HW1 8318   0.581   4.023   3.932
 2473SOL    HW2 8319   0.469   4.130   3.878
 2474SOL     OW 8320   0.982   5.802   2.016
 2474SOL    HW1 8321   0.963   5.848   2.102
 2474SOL    HW2 8322   1.023   5.867   1.952
 2475SOL     OW 8323   4.532   1.082   0.062
 2475SOL    HW1 8324   4.464   1.118   0.127
 2475SOL    HW2 8325   4.520   0.983   0.055
 2476SOL     OW 8326   4.834   0.593   0.571
 2476SOL    HW1 8327   4.927   0.604   0.606
 2476SOL    HW2 8328   4.800   0.682   0.540
 2477SOL     OW 8329   3.771   0.259   3.134
 2477SOL    HW1 8330   3.713   0.339   3.124
 2477SOL    HW2 8331   3.854   0.271   3.079
 2478SOL     OW 8332   5.026   0.150   4.957
 2478SOL    HW1 8333   4.986   0.235   4.993
 2478SOL    HW2 8334   4.956   0.098   4.908
 2479SOL     OW 8335   5.872   3.326   0.783
 2479SOL    HW1 8336   5.833   3.260   0.847
 2479SOL    HW2 8337   5.936   3.280   0.722
 2480SOL     OW 8338   3.494   2.439   1.386
 2480SOL    HW1 8339   3.530   2.400   1.471
 2480SOL    HW2 8340   3.398   2.463   1.399
 2481SOL     OW 8341   3.043   0.225   1.515
 2481SOL    HW1 8342   3.121   0.165   1.535
 2481SOL    HW2 8343   2.981   0.227   1.593
 2482SOL     OW 8344   6.291   3.218   6.948
 2482SOL    HW1 8345   6.202   3.192   6.984
 2482SOL    HW2 8346   6.292   3.315   6.925
 2483SOL     OW 8347   1.328   2.580   0.922
 2483SOL    HW1 8348   1.341   2.627   0.835
 2483SOL    HW2 8349   1.291   2.644   0.989
 2484SOL     OW 8350   4.320   1.105   0.788
 2484SOL    HW1 8351   4.414   1.077   0.771
 2484SOL    HW2 8352   4.288   1.163   0.712
 2485SOL     OW 8353   0.081   1.998   6.497
 2485SOL    HW1 8354   0.033   2.053   6.429
 2485SOL    HW2 8355   0.017   1.973   6.570
 2486SOL     OW 8356   6.810   5.401   4.370
 2486SOL    HW1 8357   6.905   5.399   4.338
 2486SOL    HW2 8358   6.764   5.315   4.346
 2487SOL     OW 8359   4.866   6.489   6.613
 2487SOL    HW1 8360   4.871   6.500   6.712
 2487SOL    HW2 8361   4.882   6.578   6.570
 2488SOL     OW 8362   5.951   4.115   0.852
 2488SOL    HW1 8363   5.981   4.041   0.912
 2488SOL    HW2 8364   5.868   4.087   0.804
 2489SOL     OW 8365   6.568   5.657   4.554
 2489SOL    HW1 8366   6.665   5.654   4.533
 2489SOL    HW2 8367   6.549   5.735   4.614
 2490SOL     OW 8368   2.598   5.852   3.255
 2490SOL    HW1 8369   2.525   5.895   3.309
 2490SOL    HW2 8370   2.588   5.753   3.259
 2491SOL     OW 8371   3.750   4.675   1.478
 2491SOL    HW1 8372   3.702   4.594   1.444
 2491SOL    HW2 8373   3.837   4.647   1.518
 2492SOL     OW 8374   6.724   4.970   1.576
 2492SOL    HW1 8375   6.684   4.903   1.638
 2492SOL    HW2 8376   6.823   4.971   1.587
 2493SOL     OW 8377   5.395   0.004   0.906
 2493SOL    HW1 8378   5.401   0.091   0.857
 2493SOL    HW2 8379   5.311   6.983   0.880
 2494SOL     OW 8380   6.206   3.914   2.100
 2494SOL    HW1 8381   6.179   3.882   2.190
 2494SOL    HW2 8382   6.195   4.014   2.095
 2495SOL     OW 8383   0.279   4.488   2.645
 2495SOL    HW1 8384   0.310   4.430   2.570
 2495SOL    HW2 8385   0.324   4.459   2.730
 2496SOL     OW 8386   5.957   4.681   6.271
 2496SOL    HW1 8387   6.036   4.725   6.313
 2496SOL    HW2 8388   5.914   4.743   6.206
 2497SOL     OW 8389   0.286   0.196   2.337
 2497SOL    HW1 8390   0.223   0.273   2.338
 2497SOL    HW2 8391   0.379   0.229   2.355
 2498SOL     OW 8392   2.409   4.222   5.748
 2498SOL    HW1 8393   2.346   4.248   5.674
 2498SOL    HW2 8394   2.482   4.290   5.754
 2499SOL     OW 8395   6.635   3.577   1.994
 2499SOL    HW1 8396   6.588   3.645   2.049
 2499SOL    HW2 8397   6.733   3.595   1.995
 2500SOL     OW 8398   3.385   3.649   0.592
 2500SOL    HW1 8399   3.444   3.598   0.530
 2500SOL    HW2 8400   3.290   3.619   0.579
 2501SOL     OW 8401   5.657   5.393   6.583
 2501SOL    HW1 8402   5.578   5.407   6.524
 2501SOL    HW2 8403   5.726   5.463   6.564
 2502SOL     OW 8404   2.738   5.706   4.596
 2502SOL    HW1 8405   2.762   5.782   4.656
 2502SOL    HW2 8406   2.659   5.657   4.632
 2503SOL     OW 8407   2.890   6.551   5.488
 2503SOL    HW1 8408   2.858   6.627   5.431
 2503SOL    HW2 8409   2.967   6.582   5.544
 2504SOL     OW 8410   3.209   7.000   3.847
 2504SOL    HW1 8411   3.152   6.927   3.885
 2504SOL    HW2 8412   3.246   6.971   3.758
 2505SOL     OW 8413   0.215   4.968   3.855
 2505SOL    HW1 8414   0.170   5.055   3.872
 2505SOL    HW2 8415   0.206   4.944   3.759
 2506SOL     OW 8416   5.065   5.416   5.990
 2506SOL    HW1 8417   4.972   5.421   6.026
 2506SOL    HW2 8418   5.079   5.491   5.925
 2507SOL     OW 8419   6.622   3.154   1.224
 2507SOL    HW1 8420   6.649   3.248   1.244
 2507SOL    HW2 8421   6.651   3.095   1.299
 2508SOL     OW 8422   4.895   1.699   4.816
 2508SOL    HW1 8423   4.984   1.740   4.838
 2508SOL    HW2 8424   4.886   1.691   4.717
 2509SOL     OW 8425   6.861   4.192   5.700
 2509SOL    HW1 8426   6.828   4.285   5.714
 2509SOL    HW2 8427   6.879   4.150   5.789
 2510SOL     OW 8428   3.461   3.803   1.956
 2510SOL    HW1 8429   3.553   3.823   1.987
 2510SOL    HW2 8430   3.465   3.750   1.871
 2511SOL     OW 8431   1.787   0.611   4.628
 2511SOL    HW1 8432   1.705   0.651   4.670
 2511SOL    HW2 8433   1.860   0.605   4.696
 2512SOL     OW 8434   3.549   4.957   4.142
 2512SOL    HW1 8435   3.553   4.964   4.043
 2512SOL    HW2 8436   3.454   4.949   4.171
 2513SOL     OW 8437   2.600   5.557   5.855
 2513SOL    HW1 8438   2.655   5.473   5.860
 2513SOL    HW2 8439   2.507   5.534   5.828
 2514SOL     OW 8440   1.487   2.268   2.794
 2514SOL    HW1 8441   1.492   2.301   2.888
 2514SOL    HW2 8442   1.488   2.346   2.731
 2515SOL     OW 8443   1.377   1.351   1.306
 2515SOL    HW1 8444   1.382   1.439   1.260
 2515SOL    HW2 8445   1.422   1.281   1.251
 2516SOL     OW 8446   6.062   1.896   4.116
 2516SOL    HW1 8447   5.985   1.836   4.140
 2516SOL    HW2 8448   6.027   1.976   4.068
 2517SOL     OW 8449   1.733   1.474   3.926
 2517SOL    HW1 8450   1.748   1.529   4.008
 2517SOL    HW2 8451   1.769   1.382   3.941
 2518SOL     OW 8452   2.807   4.978   0.996
 2518SOL    HW1 8453   2.816   4.884   1.029
 2518SOL    HW2 8454   2.866   5.038   1.051
 2519SOL     OW 8455   1.171   1.270   0.741
 2519SOL    HW1 8456   1.115   1.307   0.815
 2519SOL    HW2 8457   1.175   1.170   0.750
 2520SOL     OW 8458   2.522   2.049   0.393
 2520SOL    HW1 8459   2.610   2.093   0.378
 2520SOL    HW2 8460   2.509   1.976   0.326
 2521SOL     OW 8461   4.727   1.428   5.357
 2521SOL    HW1 8462   4.669   1.422   5.275
 2521SOL    HW2 8463   4.675   1.470   5.431
 2522SOL     OW 8464   1.027   2.711   6.183
 2522SOL    HW1 8465   1.012   2.617   6.154
 2522SOL    HW2 8466   1.118   2.742   6.154
 2523SOL     OW 8467   2.183   4.956   6.857
 2523SOL    HW1 8468   2.186   4.857   6.851
 2523SOL    HW2 8469   2.093   4.989   6.828
 2524SOL     OW 8470   1.654   0.082   4.008
 2524SOL    HW1 8471   1.707   0.081   4.093
 2524SOL    HW2 8472   1.593   0.002   4.006
 2525SOL     OW 8473   6.497   2.571   4.981
 2525SOL    HW1 8474   6.547   2.627   4.915
 2525SOL    HW2 8475   6.402   2.561   4.950
 2526SOL     OW 8476   1.345   6.555   0.981
 2526SOL    HW1 8477   1.425   6.550   0.922
 2526SOL    HW2 8478   1.276   6.490   0.949
 2527SOL     OW 8479   4.966   4.561   6.256
 2527SOL    HW1 8480   4.898   4.606   6.198
 2527SOL    HW2 8481   4.923   4.533   6.342
 2528SOL     OW 8482   4.631   5.599   6.629
 2528SOL    HW1 8483   4.573   5.532   6.582
 2528SOL    HW2 8484   4.668   5.558   6.712
 2529SOL     OW 8485   0.281   6.875   6.730
 2529SOL    HW1 8486   0.346   6.858   6.805
 2529SOL    HW2 8487   0.267   6.974   6.720
 2530SOL     OW 8488   1.980   5.632   6.260
 2530SOL    HW1 8489   2.079   5.644   6.273
 2530SOL    HW2 8490   1.952   5.674   6.174
 2531SOL     OW 8491   6.369   5.266   6.063
 2531SOL    HW1 8492   6.372   5.199   5.989
 2531SOL    HW2 8493   6.462   5.296   6.084
 2532SOL     OW 8494   5.696   6.305   1.237
 2532SOL    HW1 8495   5.639   6.233   1.279
 2532SOL    HW2 8496   5.761   6.338   1.305
 2533SOL     OW 8497   4.719   1.123   3.521
 2533SOL    HW1 8498   4.780   1.079   3.587
 2533SOL    HW2 8499   4.647   1.171   3.571
 2534SOL     OW 8500   4.341   1.506   3.086
 2534SOL    HW1 8501   4.417   1.442   3.076
 2534SOL    HW2 8502   4.317   1.545   2.997
 2535SOL     OW 8503   3.885   2.940   6.376
 2535SOL    HW1 8504   3.831   2.936   6.460
 2535SOL    HW2 8505   3.941   3.022   6.377
 2536SOL     OW 8506   1.258   0.594   0.608
 2536SOL    HW1 8507   1.222   0.681   0.640
 2536SOL    HW2 8508   1.313   0.609   0.525
 2537SOL     OW 8509   4.009   0.276   6.653
 2537SOL    HW1 8510   4.085   0.218   6.680
 2537SOL    HW2 8511   4.041   0.370   6.641
 2538SOL     OW 8512   6.670   3.571   3.948
 2538SOL    HW1 8513   6.718   3.571   3.860
 2538SOL    HW2 8514   6.581   3.527   3.938
 2539SOL     OW 8515   5.133   2.100   5.719
 2539SOL    HW1 8516   5.106   2.100   5.622
 2539SOL    HW2 8517   5.083   2.172   5.767
 2540SOL     OW 8518   3.391   1.800   2.214
 2540SOL    HW1 8519   3.380   1.865   2.139
 2540SOL    HW2 8520   3.344   1.835   2.295
 2541SOL     OW 8521   3.435   6.293   4.703
 2541SOL    HW1 8522   3.356   6.274   4.645
 2541SOL    HW2 8523   3.406   6.347   4.782
 2542SOL     OW 8524   1.763   4.977   6.328
 2542SOL    HW1 8525   1.726   4.968   6.235
 2542SOL    HW2 8526   1.862   4.965   6.325
 2543SOL     OW 8527   1.938   1.127   3.887
 2543SOL    HW1 8528   1.961   1.030   3.881
 2543SOL    HW2 8529   1.920   1.151   3.982
 2544SOL     OW 8530   0.918   4.692   0.210
 2544SOL    HW1 8531   0.962   4.638   0.138
 2544SOL    HW2 8532   0.873   4.631   0.275
 2545SOL     OW 8533   2.766   5.906   2.858
 2545SOL    HW1 8534   2.817   5.918   2.944
 2545SOL    HW2 8535   2.760   5.809   2.836
 2546SOL     OW 8536   6.474   1.332   1.199
 2546SOL    HW1 8537   6.442   1.419   1.160
 2546SOL    HW2 8538   6.560   1.306   1.155
 2547SOL     OW 8539   0.432   3.826   4.889
 2547SOL    HW1 8540   0.423   3.806   4.986
 2547SOL    HW2 8541   0.529   3.828   4.864
 2548SOL     OW 8542   0.847   6.749   4.301
 2548SOL    HW1 8543   0.822   6.741   4.205
 2548SOL    HW2 8544   0.946   6.766   4.309
 2549SOL     OW 8545   6.747   2.509   1.161
 2549SOL    HW1 8546   6.813   2.465   1.099
 2549SOL    HW2 8547   6.691   2.439   1.204
 2550SOL     OW 8548   6.404   6.020   0.163
 2550SOL    HW1 8549   6.312   6.046   0.192
 2550SOL    HW2 8550   6.399   5.961   0.082
 2551SOL     OW 8551   1.396   4.256   6.777
 2551SOL    HW1 8552   1.450   4.336   6.803
 2551SOL    HW2 8553   1.454   4.175   6.775
 2552SOL     OW 8554   1.783   5.945   3.650
 2552SOL    HW1 8555   1.821   5.863   3.608
 2552SOL    HW2 8556   1.781   5.934   3.749
 2553SOL     OW 8557   3.801   3.984   7.023
 2553SOL    HW1 8558   3.861   3.965   6.945
 2553SOL    HW2 8559   3.810   3.910   0.065
 2554SOL     OW 8560   1.429   1.376   6.980
 2554SOL    HW1 8561   1.489   1.302   7.012
 2554SOL    HW2 8562   1.429   1.378   6.880
 2555SOL     OW 8563   6.146   1.367   0.068
 2555SOL    HW1 8564   6.068   1.306   0.056
 2555SOL    HW2 8565   6.180   1.360   0.162
 2556SOL     OW 8566   2.879   6.196   0.866
 2556SOL    HW1 8567   2.817   6.118   0.857
 2556SOL    HW2 8568   2.874   6.233   0.959
 2557SOL     OW 8569   2.401   3.908   0.139
 2557SOL    HW1 8570   2.356   3.851   0.070
 2557SOL    HW2 8571   2.363   4.000   0.137
 2558SOL     OW 8572   4.118   0.556   6.035
 2558SOL    HW1 8573   4.073   0.539   5.947
 2558SOL    HW2 8574   4.197   0.495   6.044
 2559SOL     OW 8575   0.275   4.808   4.906
 2559SOL    HW1 8576   0.201   4.860   4.865
 2559SOL    HW2 8577   0.362   4.832   4.861
 2560SOL     OW 8578   6.134   2.024   6.975
 2560SOL    HW1 8579   6.162   2.038   0.045
 2560SOL    HW2 8580   6.045   1.979   6.973
 2561SOL     OW 8581   3.393   5.194   4.517
 2561SOL    HW1 8582   3.489   5.212   4.497
 2561SOL    HW2 8583   3.385   5.117   4.581
 2562SOL     OW 8584   1.884   3.997   6.903
 2562SOL    HW1 8585   1.895   3.908   6.860
 2562SOL    HW2 8586   1.914   3.992   6.998
 2563SOL     OW 8587   2.283   1.302   6.899
 2563SOL    HW1 8588   2.301   1.328   6.994
 2563SOL    HW2 8589   2.281   1.202   6.893
 2564SOL     OW 8590   1.742   5.279   1.452
 2564SOL    HW1 8591   1.658   5.253   1.500
 2564SOL    HW2 8592   1.718   5.334   1.372
 2565SOL     OW 8593   2.121   0.497   1.176
 2565SOL    HW1 8594   2.150   0.419   1.232
 2565SOL    HW2 8595   2.174   0.577   1.203
 2566SOL     OW 8596   1.383   6.383   6.431
 2566SOL    HW1 8597   1.389   6.483   6.426
 2566SOL    HW2 8598   1.370   6.346   6.339
 2567SOL     OW 8599   1.209   5.988   0.200
 2567SOL    HW1 8600   1.274   5.995   0.124
 2567SOL    HW2 8601   1.254   6.015   0.285
 2568SOL     OW 8602   4.580   3.179   6.938
 2568SOL    HW1 8603   4.512   3.127   6.990
 2568SOL    HW2 8604   4.657   3.202   6.998
 2569SOL     OW 8605   2.387   0.364   2.969
 2569SOL    HW1 8606   2.310   0.427   2.962
 2569SOL    HW2 8607   2.395   0.331   3.063
 2570SOL     OW 8608   5.454   1.944   6.342
 2570SOL    HW1 8609   5.537   1.988   6.308
 2570SOL    HW2 8610   5.396   2.012   6.388
 2571SOL     OW 8611   1.299   4.239   4.780
 2571SOL    HW1 8612   1.266   4.278   4.695
 2571SOL    HW2 8613   1.221   4.200   4.831
 2572SOL     OW 8614   1.882   4.642   3.074
 2572SOL    HW1 8615   1.856   4.723   3.021
 2572SOL    HW2 8616   1.854   4.655   3.169
 2573SOL     OW 8617   0.899   0.130   0.954
 2573SOL    HW1 8618   0.875   0.173   1.041
 2573SOL    HW2 8619   0.958   0.190   0.901
 2574SOL     OW 8620   6.427   3.190   0.150
 2574SOL    HW1 8621   6.513   3.158   0.112
 2574SOL    HW2 8622   6.361   3.204   0.076
 2575SOL     OW 8623   0.283   5.501   5.896
 2575SOL    HW1 8624   0.368   5.516   5.844
 2575SOL    HW2 8625   0.289   5.414   5.944
 2576SOL     OW 8626   4.398   6.290   3.796
 2576SOL    HW1 8627   4.316   6.254   3.841
 2576SOL    HW2 8628   4.388   6.282   3.697
 2577SOL     OW 8629   2.407   4.352   2.459
 2577SOL    HW1 8630   2.328   4.292   2.443
 2577SOL    HW2 8631   2.453   4.370   2.373
 2578SOL     OW 8632   4.193   1.999   4.098
 2578SOL    HW1 8633   4.257   1.929   4.126
 2578SOL    HW2 8634   4.121   1.959   4.040
 2579SOL     OW 8635   1.022   6.290   3.777
 2579SOL    HW1 8636   1.052   6.209   3.727
 2579SOL    HW2 8637   1.100   6.349   3.797
 2580SOL     OW 8638   1.311   2.337   6.793
 2580SOL    HW1 8639   1.302   2.261   6.728
 2580SOL    HW2 8640   1.407   2.346   6.820
 2581SOL     OW 8641   3.650   0.457   5.308
 2581SOL    HW1 8642   3.563   0.500   5.286
 2581SOL    HW2 8643   3.658   0.448   5.407
 2582SOL     OW 8644   0.094   2.825   1.779
 2582SOL    HW1 8645   0.129   2.911   1.742
 2582SOL    HW2 8646   0.083   2.758   1.705
 2583SOL     OW 8647   6.022   0.346   0.867
 2583SOL    HW1 8648   6.005   0.284   0.943
 2583SOL    HW2 8649   6.109   0.394   0.881
 2584SOL     OW 8650   4.721   4.736   5.757
 2584SOL    HW1 8651   4.643   4.788   5.723
 2584SOL    HW2 8652   4.787   4.799   5.798
 2585SOL     OW 8653   3.608   5.233   6.547
 2585SOL    HW1 8654   3.664   5.202   6.470
 2585SOL    HW2 8655   3.589   5.331   6.538
 2586SOL     OW 8656   2.305   0.795   4.129
 2586SOL    HW1 8657   2.357   0.744   4.061
 2586SOL    HW2 8658   2.296   0.890   4.101
 2587SOL     OW 8659   6.898   1.544   3.906
 2587SOL    HW1 8660   6.920   1.532   4.003
 2587SOL    HW2 8661   6.836   1.471   3.877
 2588SOL     OW 8662   4.090   1.060   6.381
 2588SOL    HW1 8663   4.165   1.126   6.394
 2588SOL    HW2 8664   4.066   1.056   6.284
 2589SOL     OW 8665   1.998   6.423   6.962
 2589SOL    HW1 8666   2.088   6.453   6.929
 2589SOL    HW2 8667   1.986   6.326   6.943
 2590SOL     OW 8668   2.680   5.361   0.798
 2590SOL    HW1 8669   2.759   5.305   0.775
 2590SOL    HW2 8670   2.620   5.369   0.718
 2591SOL     OW 8671   6.052   5.443   3.905
 2591SOL    HW1 8672   6.098   5.473   3.989
 2591SOL    HW2 8673   6.042   5.521   3.843
 2592SOL     OW 8674   2.625   4.121   1.152
 2592SOL    HW1 8675   2.576   4.193   1.203
 2592SOL    HW2 8676   2.567   4.089   1.077
 2593SOL     OW 8677   3.413   4.274   0.568
 2593SOL    HW1 8678   3.491   4.324   0.605
 2593SOL    HW2 8679   3.439   4.229   0.483
 2594SOL     OW 8680   1.439   3.573   4.531
 2594SOL    HW1 8681   1.508   3.639   4.502
 2594SOL    HW2 8682   1.475   3.517   4.605
 2595SOL     OW 8683   1.724   1.323   2.556
 2595SOL    HW1 8684   1.747   1.414   2.592
 2595SOL    HW2 8685   1.803   1.287   2.506
 2596SOL     OW 8686   1.040   2.281   0.123
 2596SOL    HW1 8687   1.068   2.306   0.031
 2596SOL    HW2 8688   1.056   2.183   0.137
 2597SOL     OW 8689   6.925   6.210   6.259
 2597SOL    HW1 8690   6.871   6.251   6.185
 2597SOL    HW2 8691   6.943   6.278   6.329
 2598SOL     OW 8692   5.799   2.530   2.767
 2598SOL    HW1 8693   5.729   2.599   2.785
 2598SOL    HW2 8694   5.889   2.572   2.768
 2599SOL     OW 8695   2.952   6.057   1.558
 2599SOL    HW1 8696   2.897   6.125   1.606
 2599SOL    HW2 8697   3.001   6.001   1.625
 2600SOL     OW 8698   6.065   4.394   4.444
 2600SOL    HW1 8699   6.134   4.326   4.421
 2600SOL    HW2 8700   5.990   4.390   4.378
 2601SOL     OW 8701   6.875   1.726   3.446
 2601SOL    HW1 8702   6.924   1.688   3.525
 2601SOL    HW2 8703   6.926   1.707   3.363
 2602SOL     OW 8704   1.214   4.090   3.400
 2602SOL    HW1 8705   1.254   4.063   3.312
 2602SOL    HW2 8706   1.156   4.016   3.434
 2603SOL     OW 8707   3.060   6.619   2.563
 2603SOL    HW1 8708   3.045   6.658   2.473
 2603SOL    HW2 8709   2.973   6.618   2.614
 2604SOL     OW 8710   4.610   2.593   3.672
 2604SOL    HW1 8711   4.651   2.683   3.654
 2604SOL    HW2 8712   4.598   2.545   3.586
 2605SOL     OW 8713   1.930   3.992   1.663
 2605SOL    HW1 8714   1.886   4.044   1.736
 2605SOL    HW2 8715   2.024   4.024   1.651
 2606SOL     OW 8716   4.494   3.460   1.432
 2606SOL    HW1 8717   4.576   3.483   1.379
 2606SOL    HW2 8718   4.423   3.529   1.414
 2607SOL     OW 8719   2.532   2.492   1.423
 2607SOL    HW1 8720   2.549   2.403   1.380
 2607SOL    HW2 8721   2.562   2.565   1.362
 2608SOL     OW 8722   2.679   4.952   5.724
 2608SOL    HW1 8723   2.719   5.013   5.656
 2608SOL    HW2 8724   2.732   4.957   5.808
 2609SOL     OW 8725   6.946   2.415   0.995
 2609SOL    HW1 8726   6.952   2.400   0.896
 2609SOL    HW2 8727   6.945   2.326   1.042
 2610SOL     OW 8728   1.597   4.539   4.881
 2610SOL    HW1 8729   1.553   4.458   4.841
 2610SOL    HW2 8730   1.558   4.621   4.840
 2611SOL     OW 8731   5.037   0.126   6.504
 2611SOL    HW1 8732   5.115   0.148   6.445
 2611SOL    HW2 8733   4.981   0.055   6.461
 2612SOL     OW 8734   6.440   0.396   5.766
 2612SOL    HW1 8735   6.458   0.359   5.857
 2612SOL    HW2 8736   6.516   0.456   5.739
 2613SOL     OW 8737   1.175   6.520   6.741
 2613SOL    HW1 8738   1.118   6.509   6.822
 2613SOL    HW2 8739   1.229   6.437   6.727
 2614SOL     OW 8740   6.241   1.559   6.560
 2614SOL    HW1 8741   6.248   1.655   6.533
 2614SOL    HW2 8742   6.294   1.543   6.643
 2615SOL     OW 8743   0.770   3.265   0.120
 2615SOL    HW1 8744   0.757   3.261   0.219
 2615SOL    HW2 8745   0.843   3.329   0.098
 2616SOL     OW 8746   1.195   0.719   5.704
 2616SOL    HW1 8747   1.244   0.784   5.762
 2616SOL    HW2 8748   1.129   0.669   5.760
 2617SOL     OW 8749   4.971   0.128   1.191
 2617SOL    HW1 8750   4.930   0.207   1.145
 2617SOL    HW2 8751   4.989   0.056   1.125
 2618SOL     OW 8752   0.830   6.207   5.957
 2618SOL    HW1 8753   0.894   6.130   5.957
 2618SOL    HW2 8754   0.875   6.288   5.992
 2619SOL     OW 8755   5.486   1.190   2.538
 2619SOL    HW1 8756   5.388   1.206   2.548
 2619SOL    HW2 8757   5.517   1.126   2.608
 2620SOL     OW 8758   5.683   1.052   1.371
 2620SOL    HW1 8759   5.713   1.004   1.453
 2620SOL    HW2 8760   5.589   1.024   1.349
 2621SOL     OW 8761   1.574   6.224   1.757
 2621SOL    HW1 8762   1.657   6.173   1.782
 2621SOL    HW2 8763   1.580   6.317   1.793
 2622SOL     OW 8764   3.398   3.461   6.566
 2622SOL    HW1 8765   3.383   3.468   6.664
 2622SOL    HW2 8766   3.321   3.504   6.517
 2623SOL     OW 8767   0.493   6.455   3.686
 2623SOL    HW1 8768   0.395   6.432   3.687
 2623SOL    HW2 8769   0.527   6.453   3.593
 2624SOL     OW 8770   0.324   1.386   5.209
 2624SOL    HW1 8771   0.234   1.428   5.196
 2624SOL    HW2 8772   0.317   1.313   5.277
 2625SOL     OW 8773   2.388   4.945   6.433
 2625SOL    HW1 8774   2.426   5.018   6.490
 2625SOL    HW2 8775   2.375   4.979   6.339
 2626SOL     OW 8776   6.734   5.895   6.916
 2626SOL    HW1 8777   6.760   5.939   6.829
 2626SOL    HW2 8778   6.745   5.960   6.990
 2627SOL     OW 8779   1.800   0.118   6.227
 2627SOL    HW1 8780   1.827   0.106   6.322
 2627SOL    HW2 8781   1.729   0.188   6.221
 2628SOL     OW 8782   0.324   4.608   1.875
 2628SOL    HW1 8783   0.295   4.700   1.849
 2628SOL    HW2 8784   0.423   4.608   1.893
 2629SOL     OW 8785   3.264   4.074   2.542
 2629SOL    HW1 8786   3.187   4.015   2.517
 2629SOL    HW2 8787   3.315   4.099   2.460
 2630SOL     OW 8788   3.799   0.883   4.293
 2630SOL    HW1 8789   3.882   0.936   4.275
 2630SOL    HW2 8790   3.814   0.827   4.375
 2631SOL     OW 8791   5.671   0.530   0.218
 2631SOL    HW1 8792   5.615   0.454   0.185
 2631SOL    HW2 8793   5.616   0.587   0.279
 2632SOL     OW 8794   5.709   4.893   2.135
 2632SOL    HW1 8795   5.659   4.970   2.097
 2632SOL    HW2 8796   5.682   4.880   2.231
 2633SOL     OW 8797   0.117   3.205   6.090
 2633SOL    HW1 8798   0.036   3.260   6.109
 2633SOL    HW2 8799   0.101   3.111   6.117
 2634SOL     OW 8800   0.473   0.411   5.689
 2634SOL    HW1 8801   0.523   0.472   5.750
 2634SOL    HW2 8802   0.447   0.460   5.606
 2635SOL     OW 8803   4.793   5.706   3.502
 2635SOL    HW1 8804   4.703   5.677   3.471
 2635SOL    HW2 8805   4.788   5.799   3.538
 2636SOL     OW 8806   4.046   6.037   5.389
 2636SOL    HW1 8807   4.045   5.959   5.327
 2636SOL    HW2 8808   3.990   6.111   5.351
 2637SOL     OW 8809   0.852   0.805   3.232
 2637SOL    HW1 8810   0.885   0.804   3.137
 2637SOL    HW2 8811   0.827   0.898   3.257
 2638SOL     OW 8812   0.838   6.283   4.482
 2638SOL    HW1 8813   0.935   6.269   4.504
 2638SOL    HW2 8814   0.819   6.382   4.481
 2639SOL     OW 8815   4.329   4.809   5.203
 2639SOL    HW1 8816   4.404   4.796   5.138
 2639SOL    HW2 8817   4.286   4.898   5.187
 2640SOL     OW 8818   1.960   0.346   3.582
 2640SOL    HW1 8819   1.972   0.325   3.679
 2640SOL    HW2 8820   1.960   0.262   3.529
 2641SOL     OW 8821   6.186   2.057   6.702
 2641SOL    HW1 8822   6.282   2.047   6.679
 2641SOL    HW2 8823   6.174   2.047   6.801
 2642SOL     OW 8824   6.188   0.598   3.610
 2642SOL    HW1 8825   6.269   0.634   3.564
 2642SOL    HW2 8826   6.118   0.670   3.615
 2643SOL     OW 8827   2.300   4.743   3.695
 2643SOL    HW1 8828   2.241   4.674   3.653
 2643SOL    HW2 8829   2.325   4.811   3.626
 2644SOL     OW 8830   5.203   5.564   4.599
 2644SOL    HW1 8831   5.163   5.491   4.542
 2644SOL    HW2 8832   5.131   5.608   4.653
 2645SOL     OW 8833   4.906   5.936   3.649
 2645SOL    HW1 8834   4.906   5.961   3.745
 2645SOL    HW2 8835   4.994   5.959   3.608
 2646SOL     OW 8836   1.104   2.849   6.489
 2646SOL    HW1 8837   1.075   2.932   6.536
 2646SOL    HW2 8838   1.043   2.832   6.411
 2647SOL     OW 8839   5.060   0.397   2.559
 2647SOL    HW1 8840   4.972   0.353   2.541
 2647SOL    HW2 8841   5.134   0.340   2.523
 2648SOL     OW 8842   0.811   6.782   6.360
 2648SOL    HW1 8843   0.714   6.798   6.377
 2648SOL    HW2 8844   0.861   6.790   6.446
 2649SOL     OW 8845   5.087   1.441   3.392
 2649SOL    HW1 8846   5.062   1.362   3.337
 2649SOL    HW2 8847   5.138   1.506   3.335
 2650SOL     OW 8848   3.270   6.269   4.112
 2650SOL    HW1 8849   3.192   6.234   4.061
 2650SOL    HW2 8850   3.312   6.344   4.061
 2651SOL     OW 8851   4.743   2.221   4.543
 2651SOL    HW1 8852   4.663   2.168   4.571
 2651SOL    HW2 8853   4.740   2.312   4.585
 2652SOL     OW 8854   5.054   4.234   5.262
 2652SOL    HW1 8855   5.116   4.311   5.283
 2652SOL    HW2 8856   4.960   4.262   5.280
 2653SOL     OW 8857   2.312   6.196   0.094
 2653SOL    HW1 8858   2.277   6.102   0.092
 2653SOL    HW2 8859   2.307   6.235   0.002
 2654SOL     OW 8860   6.929   1.158   0.418
 2654SOL    HW1 8861   6.942   1.162   0.319
 2654SOL    HW2 8862   6.883   1.073   0.443
 2655SOL     OW 8863   5.280   6.948   2.391
 2655SOL    HW1 8864   5.287   6.868   2.330
 2655SOL    HW2 8865   5.326   6.929   2.477
 2656SOL     OW 8866   4.389   6.064   3.083
 2656SOL    HW1 8867   4.350   6.155   3.099
 2656SOL    HW2 8868   4.430   6.030   3.168
 2657SOL     OW 8869   0.524   3.791   6.847
 2657SOL    HW1 8870   0.563   3.825   6.932
 2657SOL    HW2 8871   0.569   3.835   6.769
 2658SOL     OW 8872   3.703   5.120   0.880
 2658SOL    HW1 8873   3.688   5.023   0.866
 2658SOL    HW2 8874   3.796   5.134   0.914
 2659SOL     OW 8875   0.078   2.050   5.163
 2659SOL    HW1 8876   0.139   2.125   5.187
 2659SOL    HW2 8877   0.020   2.077   5.087
 2660SOL     OW 8878   0.482   1.782   1.802
 2660SOL    HW1 8879   0.424   1.706   1.832
 2660SOL    HW2 8880   0.473   1.858   1.866
 2661SOL     OW 8881   1.121   1.018   0.843
 2661SOL    HW1 8882   1.041   0.993   0.897
 2661SOL    HW2 8883   1.204   0.999   0.896
 2662SOL     OW 8884   2.892   1.566   2.154
 2662SOL    HW1 8885   2.902   1.552   2.056
 2662SOL    HW2 8886   2.947   1.499   2.203
 2663SOL     OW 8887   4.083   6.717   0.184
 2663SOL    HW1 8888   4.052   6.688   0.094
 2663SOL    HW2 8889   4.147   6.650   0.221
 2664SOL     OW 8890   4.827   3.814   5.426
 2664SOL    HW1 8891   4.769   3.889   5.459
 2664SOL    HW2 8892   4.860   3.760   5.503
 2665SOL     OW 8893   1.944   3.501   4.517
 2665SOL    HW1 8894   1.995   3.417   4.530
 2665SOL    HW2 8895   2.001   3.580   4.541
 2666SOL     OW 8896   1.774   4.095   1.878
 2666SOL    HW1 8897   1.738   4.183   1.846
 2666SOL    HW2 8898   1.703   4.025   1.869
 2667SOL     OW 8899   6.782   2.709   5.166
 2667SOL    HW1 8900   6.739   2.732   5.079
 2667SOL    HW2 8901   6.716   2.721   5.240
 2668SOL     OW 8902   6.150   0.581   3.129
 2668SOL    HW1 8903   6.215   0.515   3.167
 2668SOL    HW2 8904   6.181   0.609   3.038
 2669SOL     OW 8905   2.265   0.441   0.150
 2669SOL    HW1 8906   2.303   0.410   0.237
 2669SOL    HW2 8907   2.174   0.402   0.137
 2670SOL     OW 8908   0.411   0.059   6.289
 2670SOL    HW1 8909   0.392   0.073   6.191
 2670SOL    HW2 8910   0.329   0.083   6.342
 2671SOL     OW 8911   5.369   4.574   5.966
 2671SOL    HW1 8912   5.446   4.521   6.002
 2671SOL    HW2 8913   5.294   4.574   6.033
 2672SOL     OW 8914   3.376   0.941   2.145
 2672SOL    HW1 8915   3.460   0.991   2.128
 2672SOL    HW2 8916   3.298   0.994   2.112
 2673SOL     OW 8917   3.510   1.013   2.742
 2673SOL    HW1 8918   3.505   0.928   2.795
 2673SOL    HW2 8919   3.419   1.041   2.714
 2674SOL     OW 8920   0.467   5.735   3.017
 2674SOL    HW1 8921   0.431   5.651   3.056
 2674SOL    HW2 8922   0.425   5.751   2.927
 2675SOL     OW 8923   4.741   1.198   4.280
 2675SOL    HW1 8924   4.739   1.173   4.377
 2675SOL    HW2 8925   4.692   1.285   4.267
 2676SOL     OW 8926   3.565   4.131   3.873
 2676SOL    HW1 8927   3.502   4.183   3.932
 2676SOL    HW2 8928   3.520   4.111   3.786
 2677SOL     OW 8929   1.942   5.811   1.412
 2677SOL    HW1 8930   1.876   5.771   1.475
 2677SOL    HW2 8931   1.962   5.745   1.339
 2678SOL     OW 8932   3.803   1.815   2.912
 2678SOL    HW1 8933   3.733   1.767   2.860
 2678SOL    HW2 8934   3.832   1.897   2.862
 2679SOL     OW 8935   2.175   2.967   2.735
 2679SOL    HW1 8936   2.229   2.919   2.666
 2679SOL    HW2 8937   2.143   3.054   2.699
 2680SOL     OW 8938   5.880   1.930   0.289
 2680SOL    HW1 8939   5.961   1.979   0.259
 2680SOL    HW2 8940   5.888   1.833   0.265
 2681SOL     OW 8941   2.052   2.456   3.329
 2681SOL    HW1 8942   2.137   2.436   3.280
 2681SOL    HW2 8943   2.053   2.410   3.418
 2682SOL     OW 8944   3.615   4.493   1.308
 2682SOL    HW1 8945   3.529   4.524   1.350
 2682SOL    HW2 8946   3.596   4.414   1.249
 2683SOL     OW 8947   2.316   4.115   2.006
 2683SOL    HW1 8948   2.371   4.129   2.088
 2683SOL    HW2 8949   2.220   4.109   2.032
 2684SOL     OW 8950   6.708   0.221   4.045
 2684SOL    HW1 8951   6.777   0.220   3.972
 2684SOL    HW2 8952   6.625   0.265   4.011
 2685SOL     OW 8953   0.904   6.019   5.242
 2685SOL    HW1 8954   0.864   6.111   5.240
 2685SOL    HW2 8955   0.878   5.969   5.160
 2686SOL     OW 8956   1.097   1.120   5.567
 2686SOL    HW1 8957   1.053   1.205   5.539
 2686SOL    HW2 8958   1.062   1.092   5.656
 2687SOL     OW 8959   4.115   2.079   1.578
 2687SOL    HW1 8960   4.091   2.069   1.675
 2687SOL    HW2 8961   4.177   2.006   1.552
 2688SOL     OW 8962   3.924   2.571   6.626
 2688SOL    HW1 8963   3.847   2.538   6.681
 2688SOL    HW2 8964   3.919   2.533   6.534
 2689SOL     OW 8965   0.974   4.276   3.384
 2689SOL    HW1 8966   1.054   4.227   3.419
 2689SOL    HW2 8967   0.977   4.371   3.413
 2690SOL     OW 8968   4.597   1.564   5.549
 2690SOL    HW1 8969   4.546   1.500   5.607
 2690SOL    HW2 8970   4.542   1.646   5.533
 2691SOL     OW 8971   0.014   3.868   5.368
 2691SOL    HW1 8972   0.086   3.934   5.345
 2691SOL    HW2 8973   6.964   3.916   5.412
 2692SOL     OW 8974   2.308   5.962   2.136
 2692SOL    HW1 8975   2.386   5.900   2.143
 2692SOL    HW2 8976   2.227   5.918   2.174
 2693SOL     OW 8977   1.372   6.073   3.749
 2693SOL    HW1 8978   1.352   6.156   3.696
 2693SOL    HW2 8979   1.439   6.017   3.699
 2694SOL     OW 8980   2.792   0.153   2.447
 2694SOL    HW1 8981   2.874   0.204   2.473
 2694SOL    HW2 8982   2.715   0.183   2.504
 2695SOL     OW 8983   0.523   5.087   3.790
 2695SOL    HW1 8984   0.576   5.004   3.808
 2695SOL    HW2 8985   0.426   5.070   3.807
 2696SOL     OW 8986   4.854   5.035   6.409
 2696SOL    HW1 8987   4.839   5.126   6.449
 2696SOL    HW2 8988   4.770   5.004   6.364
 2697SOL     OW 8989   3.777   1.982   6.928
 2697SOL    HW1 8990   3.724   1.963   6.845
 2697SOL    HW2 8991   3.870   2.009   6.903
 2698SOL     OW 8992   1.504   5.396   6.204
 2698SOL    HW1 8993   1.505   5.336   6.284
 2698SOL    HW2 8994   1.594   5.438   6.192
 2699SOL     OW 8995   2.637   6.149   1.961
 2699SOL    HW1 8996   2.713   6.202   1.997
 2699SOL    HW2 8997   2.661   6.052   1.960
 2700SOL     OW 8998   3.976   1.627   1.247
 2700SOL    HW1 8999   4.041   1.563   1.205
 2700SOL    HW2 9000   3.922   1.578   1.316
 2701SOL     OW 9001   4.875   3.232   4.459
 2701SOL    HW1 9002   4.822   3.155   4.424
 2701SOL    HW2 9003   4.854   3.314   4.406
 2702SOL     OW 9004   2.514   1.150   5.071
 2702SOL    HW1 9005   2.416   1.157   5.092
 2702SOL    HW2 9006   2.533   1.195   4.984
 2703SOL     OW 9007   2.549   6.558   2.490
 2703SOL    HW1 9008   2.570   6.537   2.585
 2703SOL    HW2 9009   2.612   6.507   2.430
 2704SOL     OW 9010   4.961   1.082   3.326
 2704SOL    HW1 9011   4.928   1.090   3.231
 2704SOL    HW2 9012   4.914   1.150   3.383
 2705SOL     OW 9013   0.214   0.321   5.589
 2705SOL    HW1 9014   0.258   0.235   5.561
 2705SOL    HW2 9015   0.260   0.397   5.544
 2706SOL     OW 9016   6.607   3.726   3.351
 2706SOL    HW1 9017   6.634   3.809   3.301
 2706SOL    HW2 9018   6.631   3.646   3.297
 2707SOL     OW 9019   4.219   1.173   3.392
 2707SOL    HW1 9020   4.201   1.218   3.304
 2707SOL    HW2 9021   4.254   1.081   3.376
 2708SOL     OW 9022   5.630   3.801   5.698
 2708SOL    HW1 9023   5.617   3.703   5.686
 2708SOL    HW2 9024   5.591   3.830   5.785
 2709SOL     OW 9025   5.085   1.292   5.858
 2709SOL    HW1 9026   5.131   1.279   5.770
 2709SOL    HW2 9027   5.096   1.387   5.887
 2710SOL     OW 9028   0.792   2.755   4.637
 2710SOL    HW1 9029   0.695   2.735   4.623
 2710SOL    HW2 9030   0.802   2.825   4.707
 2711SOL     OW 9031   4.116   1.115   1.913
 2711SOL    HW1 9032   4.183   1.147   1.980
 2711SOL    HW2 9033   4.023   1.137   1.945
 2712SOL     OW 9034   4.390   6.242   2.078
 2712SOL    HW1 9035   4.300   6.285   2.075
 2712SOL    HW2 9036   4.381   6.149   2.114
 2713SOL     OW 9037   3.673   5.066   5.169
 2713SOL    HW1 9038   3.703   5.035   5.259
 2713SOL    HW2 9039   3.750   5.105   5.119
 2714SOL     OW 9040   3.263   4.611   6.586
 2714SOL    HW1 9041   3.258   4.666   6.670
 2714SOL    HW2 9042   3.357   4.610   6.552
 2715SOL     OW 9043   4.263   0.192   6.350
 2715SOL    HW1 9044   4.344   0.243   6.377
 2715SOL    HW2 9045   4.254   0.193   6.251
 2716SOL     OW 9046   3.992   1.460   2.725
 2716SOL    HW1 9047   3.964   1.488   2.633
 2716SOL    HW2 9048   3.999   1.361   2.729
 2717SOL     OW 9049   1.247   1.830   1.721
 2717SOL    HW1 9050   1.344   1.829   1.745
 2717SOL    HW2 9051   1.193   1.803   1.801
 2718SOL     OW 9052   6.959   1.352   5.648
 2718SOL    HW1 9053   7.010   1.320   5.728
 2718SOL    HW2 9054   6.980   1.294   5.569
 2719SOL     OW 9055   1.251   4.877   3.108
 2719SOL    HW1 9056   1.227   4.781   3.127
 2719SOL    HW2 9057   1.345   4.894   3.138
 2720SOL     OW 9058   1.515   6.080   6.360
 2720SOL    HW1 9059   1.559   6.076   6.450
 2720SOL    HW2 9060   1.494   6.174   6.336
 2721SOL     OW 9061   3.027   6.826   1.856
 2721SOL    HW1 9062   3.009   6.741   1.906
 2721SOL    HW2 9063   3.083   6.887   1.913
 2722SOL     OW 9064   3.690   5.575   6.330
 2722SOL    HW1 9065   3.693   5.553   6.428
 2722SOL    HW2 9066   3.639   5.504   6.281
 2723SOL     OW 9067   3.396   6.102   6.574
 2723SOL    HW1 9068   3.422   6.026   6.633
 2723SOL    HW2 9069   3.387   6.069   6.480
 2724SOL     OW 9070   0.486   6.072   0.661
 2724SOL    HW1 9071   0.464   6.169   0.672
 2724SOL    HW2 9072   0.417   6.017   0.708
 2725SOL     OW 9073   5.831   4.284   4.318
 2725SOL    HW1 9074   5.767   4.322   4.251
 2725SOL    HW2 9075   5.805   4.190   4.340
 2726SOL     OW 9076   6.813   2.091   2.270
 2726SOL    HW1 9077   6.739   2.130   2.216
 2726SOL    HW2 9078   6.878   2.046   2.209
 2727SOL     OW 9079   1.922   5.384   3.697
 2727SOL    HW1 9080   1.916   5.284   3.686
 2727SOL    HW2 9081   2.010   5.408   3.737
 2728SOL     OW 9082   4.809   5.429   6.167
 2728SOL    HW1 9083   4.799   5.476   6.079
 2728SOL    HW2 9084   4.720   5.393   6.195
 2729SOL     OW 9085   5.728   0.586   6.457
 2729SOL    HW1 9086   5.650   0.559   6.513
 2729SOL    HW2 9087   5.769   0.669   6.494
 2730SOL     OW 9088   1.273   5.749   2.504
 2730SOL    HW1 9089   1.331   5.687   2.556
 2730SOL    HW2 9090   1.328   5.821   2.463
 2731SOL     OW 9091   2.961   3.809   3.966
 2731SOL    HW1 9092   2.967   3.800   4.065
 2731SOL    HW2 9093   2.866   3.817   3.938
 2732SOL     OW 9094   5.475   0.415   2.171
 2732SOL    HW1 9095   5.563   0.384   2.136
 2732SOL    HW2 9096   5.490   0.494   2.231
 2733SOL     OW 9097   0.922   5.907   6.832
 2733SOL    HW1 9098   1.008   5.857   6.833
 2733SOL    HW2 9099   0.867   5.880   6.911
 2734SOL     OW 9100   3.440   6.044   2.420
 2734SOL    HW1 9101   3.535   6.076   2.417
 2734SOL    HW2 9102   3.424   5.998   2.507
 2735SOL     OW 9103   0.786   1.310   1.331
 2735SOL    HW1 9104   0.836   1.229   1.301
 2735SOL    HW2 9105   0.837   1.355   1.405
 2736SOL     OW 9106   5.287   4.147   3.070
 2736SOL    HW1 9107   5.328   4.216   3.129
 2736SOL    HW2 9108   5.354   4.119   3.001
 2737SOL     OW 9109   3.041   0.645   5.432
 2737SOL    HW1 9110   3.073   0.726   5.383
 2737SOL    HW2 9111   2.950   0.620   5.398
 2738SOL     OW 9112   5.161   5.857   1.474
 2738SOL    HW1 9113   5.211   5.865   1.560
 2738SOL    HW2 9114   5.063   5.868   1.492
 2739SOL     OW 9115   6.829   5.296   1.528
 2739SOL    HW1 9116   6.868   5.216   1.483
 2739SOL    HW2 9117   6.894   5.331   1.596
 2740SOL     OW 9118   0.391   5.450   3.070
 2740SOL    HW1 9119   0.427   5.447   3.163
 2740SOL    HW2 9120   0.291   5.457   3.073
 2741SOL     OW 9121   0.819   0.311   5.561
 2741SOL    HW1 9122   0.802   0.213   5.569
 2741SOL    HW2 9123   0.897   0.326   5.500
 2742SOL     OW 9124   3.195   5.572   1.733
 2742SOL    HW1 9125   3.272   5.612   1.684
 2742SOL    HW2 9126   3.158   5.495   1.680
 2743SOL     OW 9127   5.594   1.656   2.043
 2743SOL    HW1 9128   5.518   1.600   2.078
 2743SOL    HW2 9129   5.618   1.625   1.951
 2744SOL     OW 9130   3.365   4.148   2.302
 2744SOL    HW1 9131   3.349   4.101   2.215
 2744SOL    HW2 9132   3.400   4.240   2.284
 2745SOL     OW 9133   0.569   6.055   0.407
 2745SOL    HW1 9134   0.573   5.958   0.383
 2745SOL    HW2 9135   0.515   6.066   0.491
 2746SOL     OW 9136   1.802   1.336   3.127
 2746SOL    HW1 9137   1.817   1.397   3.050
 2746SOL    HW2 9138   1.708   1.304   3.128
 2747SOL     OW 9139   3.714   4.785   0.783
 2747SOL    HW1 9140   3.805   4.758   0.814
 2747SOL    HW2 9141   3.702   4.757   0.688
 2748SOL     OW 9142   4.445   0.053   0.303
 2748SOL    HW1 9143   4.349   0.078   0.319
 2748SOL    HW2 9144   4.492   0.043   0.391
 2749SOL     OW 9145   3.410   1.569   0.705
 2749SOL    HW1 9146   3.416   1.472   0.681
 2749SOL    HW2 9147   3.376   1.620   0.626
 2750SOL     OW 9148   3.443   5.323   2.093
 2750SOL    HW1 9149   3.414   5.419   2.087
 2750SOL    HW2 9150   3.503   5.301   2.016
 2751SOL     OW 9151   5.972   5.276   0.975
 2751SOL    HW1 9152   5.984   5.229   0.887
 2751SOL    HW2 9153   5.878   5.263   1.007
 2752SOL     OW 9154   4.265   5.365   6.998
 2752SOL    HW1 9155   4.322   5.410   6.928
 2752SOL    HW2 9156   4.198   5.431   0.008
 2753SOL     OW 9157   5.499   5.687   5.222
 2753SOL    HW1 9158   5.491   5.786   5.220
 2753SOL    HW2 9159   5.498   5.655   5.317
 2754SOL     OW 9160   1.340   6.927   5.867
 2754SOL    HW1 9161   1.376   6.856   5.928
 2754SOL    HW2 9162   1.389   7.013   5.883
 2755SOL     OW 9163   3.489   0.617   2.231
 2755SOL    HW1 9164   3.584   0.636   2.254
 2755SOL    HW2 9165   3.474   0.632   2.133
 2756SOL     OW 9166   4.770   5.825   0.335
 2756SOL    HW1 9167   4.833   5.901   0.355
 2756SOL    HW2 9168   4.769   5.762   0.412
 2757SOL     OW 9169   0.067   5.027   1.152
 2757SOL    HW1 9170   0.106   5.072   1.233
 2757SOL    HW2 9171   0.140   4.981   1.102
 2758SOL     OW 9172   3.854   0.551   6.090
 2758SOL    HW1 9173   3.952   0.568   6.103
 2758SOL    HW2 9174   3.811   0.634   6.053
 2759SOL     OW 9175   4.997   5.448   4.969
 2759SOL    HW1 9176   5.001   5.438   5.069
 2759SOL    HW2 9177   4.969   5.542   4.947
 2760SOL     OW 9178   2.283   6.729   3.741
 2760SOL    HW1 9179   2.253   6.735   3.646
 2760SOL    HW2 9180   2.205   6.708   3.800
 2761SOL     OW 9181   2.186   5.215   3.829
 2761SOL    HW1 9182   2.104   5.248   3.876
 2761SOL    HW2 9183   2.190   5.115   3.837
 2762SOL     OW 9184   1.209   0.214   5.059
 2762SOL    HW1 9185   1.174   0.303   5.088
 2762SOL    HW2 9186   1.178   0.144   5.123
 2763SOL     OW 9187   5.248   2.156   2.426
 2763SOL    HW1 9188   5.326   2.095   2.414
 2763SOL    HW2 9189   5.246   2.223   2.352
 2764SOL     OW 9190   6.635   1.010   2.093
 2764SOL    HW1 9191   6.643   0.994   1.995
 2764SOL    HW2 9192   6.539   1.018   2.118
 2765SOL     OW 9193   5.704   2.149   2.280
 2765SOL    HW1 9194   5.669   2.189   2.365
 2765SOL    HW2 9195   5.701   2.218   2.208
 2766SOL     OW 9196   6.118   0.328   2.786
 2766SOL    HW1 9197   6.078   0.273   2.713
 2766SOL    HW2 9198   6.059   0.322   2.867
 2767SOL     OW 9199   6.456   4.251   5.652
 2767SOL    HW1 9200   6.421   4.176   5.595
 2767SOL    HW2 9201   6.523   4.215   5.716
 2768SOL     OW 9202   5.884   1.531   6.571
 2768SOL    HW1 9203   5.980   1.507   6.585
 2768SOL    HW2 9204   5.858   1.509   6.477
 2769SOL     OW 9205   1.174   4.345   1.531
 2769SOL    HW1 9206   1.161   4.246   1.538
 2769SOL    HW2 9207   1.242   4.365   1.460
 2770SOL     OW 9208   6.447   5.976   1.759
 2770SOL    HW1 9209   6.426   5.879   1.770
 2770SOL    HW2 9210   6.393   6.014   1.684
 2771SOL     OW 9211   4.923   0.784   1.209
 2771SOL    HW1 9212   4.929   0.854   1.280
 2771SOL    HW2 9213   4.953   0.823   1.122
 2772SOL     OW 9214   3.662   2.691   6.278
 2772SOL    HW1 9215   3.607   2.690   6.362
 2772SOL    HW2 9216   3.615   2.745   6.209
 2773SOL     OW 9217   4.221   4.393   0.347
 2773SOL    HW1 9218   4.252   4.319   0.289
 2773SOL    HW2 9219   4.290   4.413   0.416
 2774SOL     OW 9220   5.709   3.247   2.499
 2774SOL    HW1 9221   5.651   3.190   2.441
 2774SOL    HW2 9222   5.669   3.338   2.506
 2775SOL     OW 9223   6.937   6.771   2.305
 2775SOL    HW1 9224   7.006   6.699   2.305
 2775SOL    HW2 9225   6.922   6.802   2.211
 2776SOL     OW 9226   3.354   5.966   6.019
 2776SOL    HW1 9227   3.364   5.934   5.924
 2776SOL    HW2 9228   3.442   5.957   6.066
 2777SOL     OW 9229   2.859   1.172   3.518
 2777SOL    HW1 9230   2.839   1.177   3.420
 2777SOL    HW2 9231   2.943   1.222   3.538
 2778SOL     OW 9232   2.234   1.877   4.587
 2778SOL    HW1 9233   2.320   1.906   4.629
 2778SOL    HW2 9234   2.160   1.935   4.620
 2779SOL     OW 9235   5.715   0.862   0.650
 2779SOL    HW1 9236   5.725   0.925   0.728
 2779SOL    HW2 9237   5.722   0.914   0.565
 2780SOL     OW 9238   4.488   5.814   0.201
 2780SOL    HW1 9239   4.588   5.827   0.204
 2780SOL    HW2 9240   4.468   5.717   0.192
 2781SOL     OW 9241   4.897   4.376   0.356
 2781SOL    HW1 9242   4.916   4.436   0.434
 2781SOL    HW2 9243   4.875   4.285   0.389
 2782SOL     OW 9244   2.514   1.949   6.309
 2782SOL    HW1 9245   2.552   1.859   6.330
 2782SOL    HW2 9246   2.499   2.000   6.393
 2783SOL     OW 9247   6.924   4.370   5.982
 2783SOL    HW1 9248   7.006   4.425   5.968
 2783SOL    HW2 9249   6.848   4.408   5.929
 2784SOL     OW 9250   2.194   2.138   2.300
 2784SOL    HW1 9251   2.249   2.084   2.235
 2784SOL    HW2 9252   2.203   2.235   2.277
 2785SOL     OW 9253   5.979   1.357   1.427
 2785SOL    HW1 9254   6.059   1.308   1.463
 2785SOL    HW2 9255   5.923   1.294   1.373
 2786SOL     OW 9256   3.093   0.121   0.056
 2786SOL    HW1 9257   3.093   0.021   0.050
 2786SOL    HW2 9258   3.040   0.149   0.136
 2787SOL     OW 9259   1.966   2.598   5.540
 2787SOL    HW1 9260   2.002   2.689   5.560
 2787SOL    HW2 9261   1.867   2.602   5.531
 2788SOL     OW 9262   1.070   3.316   0.598
 2788SOL    HW1 9263   1.130   3.249   0.554
 2788SOL    HW2 9264   0.987   3.270   0.630
 2789SOL     OW 9265   6.986   2.268   4.444
 2789SOL    HW1 9266   7.024   2.226   4.361
 2789SOL    HW2 9267   6.886   2.269   4.438
 2790SOL     OW 9268   4.108   6.103   3.452
 2790SOL    HW1 9269   4.120   6.012   3.411
 2790SOL    HW2 9270   4.056   6.094   3.537
 2791SOL     OW 9271   2.090   2.727   3.097
 2791SOL    HW1 9272   2.076   2.631   3.073
 2791SOL    HW2 9273   2.064   2.741   3.193
 2792SOL     OW 9274   1.179   2.549   4.668
 2792SOL    HW1 9275   1.252   2.584   4.609
 2792SOL    HW2 9276   1.096   2.536   4.615
 2793SOL     OW 9277   5.323   0.840   3.795
 2793SOL    HW1 9278   5.390   0.858   3.867
 2793SOL    HW2 9279   5.318   0.918   3.733
 2794SOL     OW 9280   0.449   0.702   0.916
 2794SOL    HW1 9281   0.422   0.609   0.890
 2794SOL    HW2 9282   0.484   0.701   1.010
 2795SOL     OW 9283   1.878   4.382   2.061
 2795SOL    HW1 9284   1.912   4.403   1.970
 2795SOL    HW2 9285   1.843   4.288   2.062
 2796SOL     OW 9286   5.310   4.222   2.443
 2796SOL    HW1 9287   5.286   4.310   2.484
 2796SOL    HW2 9288   5.229   4.163   2.440
 2797SOL     OW 9289   4.265   4.775   4.929
 2797SOL    HW1 9290   4.182   4.776   4.985
 2797SOL    HW2 9291   4.318   4.693   4.950
 2798SOL     OW 9292   1.438   3.427   4.229
 2798SOL    HW1 9293   1.424   3.331   4.207
 2798SOL    HW2 9294   1.433   3.440   4.328
 2799SOL     OW 9295   6.471   5.613   5.789
 2799SOL    HW1 9296   6.562   5.653   5.774
 2799SOL    HW2 9297   6.481   5.526   5.837
 2800SOL     OW 9298   3.034   2.511   6.869
 2800SOL    HW1 9299   3.043   2.485   6.773
 2800SOL    HW2 9300   2.998   2.604   6.875
 2801SOL     OW 9301   4.449   5.770   2.391
 2801SOL    HW1 9302   4.495   5.796   2.476
 2801SOL    HW2 9303   4.427   5.672   2.394
 2802SOL     OW 9304   5.304   0.649   5.890
 2802SOL    HW1 9305   5.298   0.560   5.934
 2802SOL    HW2 9306   5.308   0.638   5.791
 2803SOL     OW 9307   1.898   5.765   6.006
 2803SOL    HW1 9308   1.855   5.710   5.934
 2803SOL    HW2 9309   1.830   5.824   6.048
 2804SOL     OW 9310   6.791   4.774   2.826
 2804SOL    HW1 9311   6.867   4.836   2.845
 2804SOL    HW2 9312   6.739   4.809   2.747
 2805SOL     OW 9313   5.137   4.168   6.126
 2805SOL    HW1 9314   5.131   4.262   6.160
 2805SOL    HW2 9315   5.220   4.160   6.070
 2806SOL     OW 9316   0.053   5.767   3.134
 2806SOL    HW1 9317   0.008   5.775   3.045
 2806SOL    HW2 9318   0.039   5.852   3.185
 2807SOL     OW 9319   4.168   4.891   3.752
 2807SOL    HW1 9320   4.100   4.855   3.815
 2807SOL    HW2 9321   4.179   4.989   3.768
 2808SOL     OW 9322   5.032   6.241   3.867
 2808SOL    HW1 9323   4.976   6.159   3.854
 2808SOL    HW2 9324   4.992   6.317   3.816
 2809SOL     OW 9325   5.338   3.052   0.860
 2809SOL    HW1 9326   5.352   3.143   0.821
 2809SOL    HW2 9327   5.420   3.024   0.909
 2810SOL     OW 9328   1.622   0.353   5.381
 2810SOL    HW1 9329   1.706   0.353   5.327
 2810SOL    HW2 9330   1.614   0.440   5.431
 2811SOL     OW 9331   6.996   0.859   4.333
 2811SOL    HW1 9332   6.905   0.900   4.346
 2811SOL    HW2 9333   7.005   0.829   4.238
 2812SOL     OW 9334   5.293   3.725   2.609
 2812SOL    HW1 9335   5.346   3.726   2.694
 2812SOL    HW2 9336   5.247   3.814   2.598
 2813SOL     OW 9337   6.207   1.368   6.380
 2813SOL    HW1 9338   6.172   1.420   6.302
 2813SOL    HW2 9339   6.225   1.430   6.456
 2814SOL     OW 9340   5.230   4.453   5.242
 2814SOL    HW1 9341   5.267   4.428   5.152
 2814SOL    HW2 9342   5.270   4.540   5.272
 2815SOL     OW 9343   7.017   1.158   5.420
 2815SOL    HW1 9344   0.016   1.124   5.329
 2815SOL    HW2 9345   0.054   1.119   5.488
 2816SOL     OW 9346   5.520   6.190   3.452
 2816SOL    HW1 9347   5.597   6.244   3.418
 2816SOL    HW2 9348   5.435   6.229   3.419
 2817SOL     OW 9349   1.238   1.893   1.058
 2817SOL    HW1 9350   1.177   1.930   0.988
 2817SOL    HW2 9351   1.197   1.908   1.148
 2818SOL     OW 9352   0.114   4.377   5.205
 2818SOL    HW1 9353   0.094   4.303   5.141
 2818SOL    HW2 9354   0.151   4.455   5.154
 2819SOL     OW 9355   6.089   2.929   0.427
 2819SOL    HW1 9356   6.002   2.926   0.377
 2819SOL    HW2 9357   6.164   2.936   0.361
 2820SOL     OW 9358   6.442   2.848   4.299
 2820SOL    HW1 9359   6.466   2.768   4.244
 2820SOL    HW2 9360   6.467   2.830   4.395
 2821SOL     OW 9361   1.384   3.182   4.420
 2821SOL    HW1 9362   1.420   3.223   4.504
 2821SOL    HW2 9363   1.285   3.198   4.415
 2822SOL     OW 9364   3.184   1.565   0.062
 2822SOL    HW1 9365   3.110   1.572   7.020
 2822SOL    HW2 9366   3.180   1.643   0.124
 2823SOL     OW 9367   2.004   6.804   3.238
 2823SOL    HW1 9368   1.917   6.854   3.245
 2823SOL    HW2 9369   2.042   6.816   3.147
 2824SOL     OW 9370   2.973   1.601   4.583
 2824SOL    HW1 9371   3.069   1.615   4.559
 2824SOL    HW2 9372   2.927   1.550   4.509
 2825SOL     OW 9373   6.412   6.352   1.116
 2825SOL    HW1 9374   6.373   6.271   1.160
 2825SOL    HW2 9375   6.508   6.362   1.143
 2826SOL     OW 9376   4.695   2.471   4.685
 2826SOL    HW1 9377   4.650   2.532   4.749
 2826SOL    HW2 9378   4.773   2.518   4.642
 2827SOL     OW 9379   5.542   0.768   5.853
 2827SOL    HW1 9380   5.449   0.734   5.871
 2827SOL    HW2 9381   5.551   0.861   5.890
 2828SOL     OW 9382   2.816   2.415   6.242
 2828SOL    HW1 9383   2.848   2.503   6.278
 2828SOL    HW2 9384   2.861   2.341   6.291
 2829SOL     OW 9385   1.688   6.943   6.759
 2829SOL    HW1 9386   1.751   6.865   6.767
 2829SOL    HW2 9387   1.595   6.909   6.747
 2830SOL     OW 9388   3.647   3.238   6.742
 2830SOL    HW1 9389   3.638   3.198   6.833
 2830SOL    HW2 9390   3.557   3.245   6.699
 2831SOL     OW 9391   6.089   5.753   4.226
 2831SOL    HW1 9392   6.113   5.750   4.323
 2831SOL    HW2 9393   6.173   5.749   4.171
 2832SOL     OW 9394   0.399   0.729   1.922
 2832SOL    HW1 9395   0.411   0.702   2.018
 2832SOL    HW2 9396   0.489   0.745   1.881
 2833SOL     OW 9397   6.127   3.037   2.156
 2833SOL    HW1 9398   6.044   3.023   2.101
 2833SOL    HW2 9399   6.160   2.949   2.190
 2834SOL     OW 9400   3.145   0.835   6.100
 2834SOL    HW1 9401   3.184   0.927   6.098
 2834SOL    HW2 9402   3.146   0.800   6.193
 2835SOL     OW 9403   0.821   6.593   3.283
 2835SOL    HW1 9404   0.873   6.597   3.198
 2835SOL    HW2 9405   0.872   6.540   3.350
 2836SOL     OW 9406   6.559   0.915   0.698
 2836SOL    HW1 9407   6.618   0.870   0.765
 2836SOL    HW2 9408   6.468   0.928   0.738
 2837SOL     OW 9409   5.946   3.191   3.508
 2837SOL    HW1 9410   5.852   3.212   3.532
 2837SOL    HW2 9411   6.005   3.208   3.587
 2838SOL     OW 9412   2.419   5.198   3.668
 2838SOL    HW1 9413   2.485   5.240   3.730
 2838SOL    HW2 9414   2.327   5.211   3.703
 2839SOL     OW 9415   4.789   2.092   1.422
 2839SOL    HW1 9416   4.798   2.190   1.407
 2839SOL    HW2 9417   4.809   2.043   1.336
 2840SOL     OW 9418   0.178   1.817   5.590
 2840SOL    HW1 9419   0.253   1.771   5.542
 2840SOL    HW2 9420   0.116   1.859   5.524
 2841SOL     OW 9421   0.656   6.419   1.155
 2841SOL    HW1 9422   0.635   6.322   1.155
 2841SOL    HW2 9423   0.598   6.466   1.088
 2842SOL     OW 9424   6.315   3.136   3.583
 2842SOL    HW1 9425   6.391   3.113   3.644
 2842SOL    HW2 9426   6.282   3.228   3.604
 2843SOL     OW 9427   4.060   1.913   4.771
 2843SOL    HW1 9428   3.984   1.913   4.706
 2843SOL    HW2 9429   4.121   1.990   4.751
 2844SOL     OW 9430   6.855   3.781   5.683
 2844SOL    HW1 9431   6.942   3.827   5.668
 2844SOL    HW2 9432   6.780   3.839   5.649
 2845SOL     OW 9433   6.446   4.150   5.188
 2845SOL    HW1 9434   6.432   4.052   5.203
 2845SOL    HW2 9435   6.375   4.185   5.127
 2846SOL     OW 9436   4.754   1.918   6.392
 2846SOL    HW1 9437   4.705   2.005   6.397
 2846SOL    HW2 9438   4.688   1.842   6.392
 2847SOL     OW 9439   4.839   4.578   3.866
 2847SOL    HW1 9440   4.909   4.602   3.798
 2847SOL    HW2 9441   4.749   4.600   3.829
 2848SOL     OW 9442   1.237   5.788   4.783
 2848SOL    HW1 9443   1.305   5.845   4.830
 2848SOL    HW2 9444   1.260   5.691   4.797
 2849SOL     OW 9445   2.349   2.768   1.461
 2849SOL    HW1 9446   2.304   2.706   1.398
 2849SOL    HW2 9447   2.378   2.718   1.543
 2850SOL     OW 9448   3.761   1.099   0.091
 2850SOL    HW1 9449   3.818   1.157   0.033
 2850SOL    HW2 9450   3.667   1.101   0.057
 2851SOL     OW 9451   2.509   4.646   6.408
 2851SOL    HW1 9452   2.583   4.622   6.470
 2851SOL    HW2 9453   2.465   4.730   6.438
 2852SOL     OW 9454   0.314   3.347   6.221
 2852SOL    HW1 9455   0.232   3.307   6.182
 2852SOL    HW2 9456   0.300   3.445   6.237
 2853SOL     OW 9457   3.294   3.503   1.550
 2853SOL    HW1 9458   3.339   3.419   1.521
 2853SOL    HW2 9459   3.208   3.513   1.501
 2854SOL     OW 9460   1.469   1.266   3.533
 2854SOL    HW1 9461   1.403   1.333   3.566
 2854SOL    HW2 9462   1.503   1.295   3.443
 2855SOL     OW 9463   3.061   0.898   5.311
 2855SOL    HW1 9464   2.991   0.925   5.377
 2855SOL    HW2 9465   3.121   0.976   5.293
 2856SOL     OW 9466   2.282   1.761   4.894
 2856SOL    HW1 9467   2.292   1.709   4.810
 2856SOL    HW2 9468   2.339   1.722   4.965
 2857SOL     OW 9469   3.127   3.881   2.856
 2857SOL    HW1 9470   3.057   3.840   2.798
 2857SOL    HW2 9471   3.131   3.830   2.943
 2858SOL     OW 9472   5.839   3.457   2.758
 2858SOL    HW1 9473   5.897   3.388   2.713
 2858SOL    HW2 9474   5.788   3.414   2.832
 2859SOL     OW 9475   6.227   6.546   0.504
 2859SOL    HW1 9476   6.140   6.594   0.510
 2859SOL    HW2 9477   6.220   6.472   0.437
 2860SOL     OW 9478   4.421   1.608   1.921
 2860SOL    HW1 9479   4.423   1.677   1.849
 2860SOL    HW2 9480   4.511   1.565   1.929
 2861SOL     OW 9481   3.418   5.834   5.781
 2861SOL    HW1 9482   3.510   5.795   5.782
 2861SOL    HW2 9483   3.354   5.767   5.744
 2862SOL     OW 9484   5.791   0.378   4.699
 2862SOL    HW1 9485   5.807   0.282   4.719
 2862SOL    HW2 9486   5.880   0.425   4.689
 2863SOL     OW 9487   6.241   1.662   0.162
 2863SOL    HW1 9488   6.301   1.619   0.094
 2863SOL    HW2 9489   6.259   1.623   0.252
 2864SOL     OW 9490   3.136   1.211   0.062
 2864SOL    HW1 9491   3.157   1.142   7.018
 2864SOL    HW2 9492   3.041   1.240   0.053
 2865SOL     OW 9493   4.767   5.125   4.829
 2865SOL    HW1 9494   4.719   5.193   4.884
 2865SOL    HW2 9495   4.701   5.065   4.785
 2866SOL     OW 9496   6.904   6.754   6.540
 2866SOL    HW1 9497   6.842   6.769   6.463
 2866SOL    HW2 9498   6.887   6.664   6.579
 2867SOL     OW 9499   6.369   4.026   3.270
 2867SOL    HW1 9500   6.272   4.028   3.246
 2867SOL    HW2 9501   6.386   4.088   3.347
 2868SOL     OW 9502   1.605   4.872   5.673
 2868SOL    HW1 9503   1.575   4.777   5.670
 2868SOL    HW2 9504   1.590   4.909   5.765
 2869SOL     OW 9505   6.250   1.393   2.464
 2869SOL    HW1 9506   6.347   1.405   2.485
 2869SOL    HW2 9507   6.237   1.392   2.365
 2870SOL     OW 9508   4.877   1.851   2.530
 2870SOL    HW1 9509   4.828   1.765   2.544
 2870SOL    HW2 9510   4.841   1.920   2.593
 2871SOL     OW 9511   1.578   2.095   5.752
 2871SOL    HW1 9512   1.488   2.122   5.786
 2871SOL    HW2 9513   1.623   2.036   5.818
 2872SOL     OW 9514   2.519   6.316   4.170
 2872SOL    HW1 9515   2.616   6.339   4.164
 2872SOL    HW2 9516   2.509   6.219   4.194
 2873SOL     OW 9517   7.008   5.310   1.768
 2873SOL    HW1 9518   0.070   5.262   1.759
 2873SOL    HW2 9519   6.937   5.245   1.798
 2874SOL     OW 9520   6.068   1.700   2.131
 2874SOL    HW1 9521   5.999   1.759   2.175
 2874SOL    HW2 9522   6.022   1.635   2.071
 2875SOL     OW 9523   3.119   5.221   0.328
 2875SOL    HW1 9524   3.218   5.214   0.316
 2875SOL    HW2 9525   3.083   5.133   0.359
 2876SOL     OW 9526   6.741   1.109   2.450
 2876SOL    HW1 9527   6.759   1.018   2.486
 2876SOL    HW2 9528   6.692   1.102   2.363
 2877SOL     OW 9529   2.361   3.338   6.158
 2877SOL    HW1 9530   2.423   3.264   6.183
 2877SOL    HW2 9531   2.408   3.426   6.165
 2878SOL     OW 9532   3.246   4.349   6.908
 2878SOL    HW1 9533   3.316   4.346   6.837
 2878SOL    HW2 9534   3.279   4.403   6.985
 2879SOL     OW 9535   5.245   4.835   6.619
 2879SOL    HW1 9536   5.254   4.786   6.706
 2879SOL    HW2 9537   5.246   4.768   6.544
 2880SOL     OW 9538   0.976   6.197   1.491
 2880SOL    HW1 9539   0.878   6.185   1.479
 2880SOL    HW2 9540   0.995   6.289   1.524
 2881SOL     OW 9541   7.021   0.242   0.321
 2881SOL    HW1 9542   6.976   0.329   0.341
 2881SOL    HW2 9543   6.997   0.175   0.390
 2882SOL     OW 9544   6.930   3.028   3.118
 2882SOL    HW1 9545   6.949   3.118   3.158
 2882SOL    HW2 9546   6.861   2.981   3.173
 2883SOL     OW 9547   4.532   6.981   2.131
 2883SOL    HW1 9548   4.628   7.002   2.151
 2883SOL    HW2 9549   4.475   7.014   2.207
 2884SOL     OW 9550   1.230   6.057   3.160
 2884SOL    HW1 9551   1.268   5.966   3.145
 2884SOL    HW2 9552   1.294   6.111   3.214
 2885SOL     OW 9553   0.257   2.067   3.451
 2885SOL    HW1 9554   0.268   2.165   3.467
 2885SOL    HW2 9555   0.347   2.023   3.449
 2886SOL     OW 9556   2.226   2.719   6.154
 2886SOL    HW1 9557   2.196   2.815   6.154
 2886SOL    HW2 9558   2.201   2.676   6.068
 2887SOL     OW 9559   1.829   1.014   4.725
 2887SOL    HW1 9560   1.770   1.070   4.667
 2887SOL    HW2 9561   1.853   1.065   4.808
 2888SOL     OW 9562   6.593   5.148   6.740
 2888SOL    HW1 9563   6.540   5.233   6.737
 2888SOL    HW2 9564   6.613   5.125   6.835
 2889SOL     OW 9565   0.856   0.126   2.353
 2889SOL    HW1 9566   0.784   0.178   2.306
 2889SOL    HW2 9567   0.853   0.145   2.451
 2890SOL     OW 9568   3.512   6.857   0.964
 2890SOL    HW1 9569   3.595   6.883   1.014
 2890SOL    HW2 9570   3.501   6.917   0.884
 2891SOL     OW 9571   2.413   4.767   4.281
 2891SOL    HW1 9572   2.380   4.835   4.216
 2891SOL    HW2 9573   2.468   4.699   4.233
 2892SOL     OW 9574   4.629   4.219   5.677
 2892SOL    HW1 9575   4.540   4.240   5.717
 2892SOL    HW2 9576   4.679   4.304   5.662
 2893SOL     OW 9577   3.082   0.712   6.368
 2893SOL    HW1 9578   3.100   0.764   6.451
 2893SOL    HW2 9579   2.984   0.713   6.348
 2894SOL     OW 9580   3.638   2.989   1.024
 2894SOL    HW1 9581   3.567   2.999   1.094
 2894SOL    HW2 9582   3.722   2.955   1.066
 2895SOL     OW 9583   2.929   3.714   6.401
 2895SOL    HW1 9584   2.906   3.790   6.340
 2895SOL    HW2 9585   2.845   3.670   6.432
 2896SOL     OW 9586   2.258   5.450   1.165
 2896SOL    HW1 9587   2.230   5.529   1.220
 2896SOL    HW2 9588   2.309   5.386   1.222
 2897SOL     OW 9589   1.743   6.638   3.789
 2897SOL    HW1 9590   1.673   6.640   3.862
 2897SOL    HW2 9591   1.763   6.732   3.761
 2898SOL     OW 9592   2.991   5.081   2.189
 2898SOL    HW1 9593   2.961   5.013   2.121
 2898SOL    HW2 9594   3.091   5.087   2.186
 2899SOL     OW 9595   6.602   0.355   6.855
 2899SOL    HW1 9596   6.578   0.407   6.937
 2899SOL    HW2 9597   6.701   0.359   6.840
 2900SOL     OW 9598   2.347   5.360   6.074
 2900SOL    HW1 9599   2.358   5.442   6.131
 2900SOL    HW2 9600   2.391   5.376   5.985
 2901SOL     OW 9601   2.789   1.045   1.707
 2901SOL    HW1 9602   2.721   1.097   1.758
 2901SOL    HW2 9603   2.762   1.041   1.611
 2902SOL     OW 9604   5.629   5.847   1.389
 2902SOL    HW1 9605   5.616   5.752   1.362
 2902SOL    HW2 9606   5.585   5.907   1.322
 2903SOL     OW 9607   2.574   2.096   2.437
 2903SOL    HW1 9608   2.613   2.133   2.521
 2903SOL    HW2 9609   2.612   2.144   2.358
 2904SOL     OW 9610   1.888   3.312   4.949
 2904SOL    HW1 9611   1.896   3.223   4.906
 2904SOL    HW2 9612   1.970   3.332   5.001
 2905SOL     OW 9613   1.395   2.536   1.405
 2905SOL    HW1 9614   1.445   2.619   1.376
 2905SOL    HW2 9615   1.311   2.562   1.451
 2906SOL     OW 9616   5.574   6.003   1.930
 2906SOL    HW1 9617   5.572   5.989   1.831
 2906SOL    HW2 9618   5.487   6.042   1.960
 2907SOL     OW 9619   6.533   0.840   3.900
 2907SOL    HW1 9620   6.509   0.792   3.816
 2907SOL    HW2 9621   6.453   0.890   3.934
 2908SOL     OW 9622   4.238   6.298   4.567
 2908SOL    HW1 9623   4.144   6.294   4.531
 2908SOL    HW2 9624   4.301   6.262   4.498
 2909SOL     OW 9625   2.089   5.688   4.937
 2909SOL    HW1 9626   2.003   5.736   4.953
 2909SOL    HW2 9627   2.098   5.613   5.002
 2910SOL     OW 9628   5.369   6.185   5.837
 2910SOL    HW1 9629   5.306   6.117   5.798
 2910SOL    HW2 9630   5.354   6.192   5.935
 2911SOL     OW 9631   1.686   4.032   3.566
 2911SOL    HW1 9632   1.639   4.114   3.597
 2911SOL    HW2 9633   1.629   3.951   3.583
 2912SOL     OW 9634   2.819   5.611   0.801
 2912SOL    HW1 9635   2.768   5.539   0.847
 2912SOL    HW2 9636   2.890   5.570   0.743
 2913SOL     OW 9637   0.815   2.690   2.962
 2913SOL    HW1 9638   0.748   2.763   2.971
 2913SOL    HW2 9639   0.905   2.722   2.991
 2914SOL     OW 9640   5.183   5.422   5.436
 2914SOL    HW1 9641   5.179   5.350   5.366
 2914SOL    HW2 9642   5.279   5.444   5.455
 2915SOL     OW 9643   4.243   1.206   4.214
 2915SOL    HW1 9644   4.329   1.234   4.172
 2915SOL    HW2 9645   4.169   1.265   4.181
 2916SOL     OW 9646   5.040   5.802   4.666
 2916SOL    HW1 9647   5.109   5.874   4.672
 2916SOL    HW2 9648   5.016   5.787   4.570
 2917SOL     OW 9649   4.643   1.297   2.743
 2917SOL    HW1 9650   4.574   1.285   2.814
 2917SOL    HW2 9651   4.661   1.394   2.730
 2918SOL     OW 9652   0.088   3.974   3.574
 2918SOL    HW1 9653   0.007   3.917   3.562
 2918SOL    HW2 9654   0.065   4.070   3.558
 2919SOL     OW 9655   6.839   6.063   0.088
 2919SOL    HW1 9656   6.813   6.085   0.182
 2919SOL    HW2 9657   6.939   6.069   0.079
 2920SOL     OW 9658   4.355   2.394   3.304
 2920SOL    HW1 9659   4.285   2.368   3.238
 2920SOL    HW2 9660   4.321   2.375   3.397
 2921SOL     OW 9661   0.733   0.264   2.116
 2921SOL    HW1 9662   0.765   0.225   2.030
 2921SOL    HW2 9663   0.761   0.359   2.123
 2922SOL     OW 9664   4.188   7.019   5.596
 2922SOL    HW1 9665   4.141   6.975   5.673
 2922SOL    HW2 9666   4.141   6.995   5.510
 2923SOL     OW 9667   6.505   4.286   1.256
 2923SOL    HW1 9668   6.556   4.353   1.310
 2923SOL    HW2 9669   6.428   4.252   1.309
 2924SOL     OW 9670   5.884   0.915   5.677
 2924SOL    HW1 9671   5.891   0.909   5.776
 2924SOL    HW2 9672   5.885   0.823   5.638
 2925SOL     OW 9673   5.475   4.003   1.158
 2925SOL    HW1 9674   5.489   4.063   1.079
 2925SOL    HW2 9675   5.378   3.981   1.167
 2926SOL     OW 9676   0.189   1.155   4.700
 2926SOL    HW1 9677   0.224   1.083   4.641
 2926SOL    HW2 9678   0.201   1.128   4.796
 2927SOL     OW 9679   0.723   2.485   2.580
 2927SOL    HW1 9680   0.649   2.446   2.635
 2927SOL    HW2 9681   0.790   2.528   2.640
 2928SOL     OW 9682   5.975   6.259   0.826
 2928SOL    HW1 9683   5.888   6.231   0.866
 2928SOL    HW2 9684   6.031   6.304   0.895
 2929SOL     OW 9685   0.937   6.682   5.874
 2929SOL    HW1 9686   0.864   6.688   5.806
 2929SOL    HW2 9687   1.024   6.707   5.832
 2930SOL     OW 9688   3.802   6.555   4.564
 2930SOL    HW1 9689   3.786   6.645   4.604
 2930SOL    HW2 9690   3.781   6.485   4.633
 2931SOL     OW 9691   3.973   5.896   6.180
 2931SOL    HW1 9692   4.065   5.897   6.219
 2931SOL    HW2 9693   3.960   5.977   6.123
 2932SOL     OW 9694   1.264   4.593   1.961
 2932SOL    HW1 9695   1.207   4.541   2.024
 2932SOL    HW2 9696   1.279   4.685   1.998
 2933SOL     OW 9697   4.925   1.583   3.756
 2933SOL    HW1 9698   4.981   1.632   3.689
 2933SOL    HW2 9699   4.951   1.612   3.848
 2934SOL     OW 9700   2.678   0.484   0.025
 2934SOL    HW1 9701   2.763   0.531   0.047
 2934SOL    HW2 9702   2.674   0.397   0.074
 2935SOL     OW 9703   6.233   2.092   1.311
 2935SOL    HW1 9704   6.244   2.173   1.253
 2935SOL    HW2 9705   6.288   2.017   1.274
 2936SOL     OW 9706   4.011   6.192   0.768
 2936SOL    HW1 9707   4.026   6.274   0.713
 2936SOL    HW2 9708   3.916   6.164   0.762
 2937SOL     OW 9709   3.349   4.488   0.786
 2937SOL    HW1 9710   3.345   4.568   0.844
 2937SOL    HW2 9711   3.334   4.406   0.841
 2938SOL     OW 9712   5.065   5.214   5.577
 2938SOL    HW1 9713   5.084   5.132   5.523
 2938SOL    HW2 9714   5.141   5.278   5.567
 2939SOL     OW 9715   0.243   6.236   5.569
 2939SOL    HW1 9716   0.182   6.216   5.493
 2939SOL    HW2 9717   0.323   6.285   5.535
 2940SOL     OW 9718   4.288   0.565   5.457
 2940SOL    HW1 9719   4.343   0.648   5.466
 2940SOL    HW2 9720   4.191   0.589   5.457
 2941SOL     OW 9721   2.382   2.251   5.087
 2941SOL    HW1 9722   2.325   2.290   5.159
 2941SOL    HW2 9723   2.432   2.172   5.123
 2942SOL     OW 9724   3.794   6.534   4.110
 2942SOL    HW1 9725   3.815   6.440   4.133
 2942SOL    HW2 9726   3.742   6.537   4.024
 2943SOL     OW 9727   5.907   4.182   3.350
 2943SOL    HW1 9728   5.875   4.215   3.438
 2943SOL    HW2 9729   5.918   4.259   3.287
 2944SOL     OW 9730   3.567   5.942   6.155
 2944SOL    HW1 9731   3.640   5.883   6.119
 2944SOL    HW2 9732   3.558   5.928   6.253
 2945SOL     OW 9733   3.076   3.060   3.625
 2945SOL    HW1 9734   3.070   3.114   3.709
 2945SOL    HW2 9735   3.167   3.022   3.617
 2946SOL     OW 9736   6.496   5.893   5.994
 2946SOL    HW1 9737   6.462   5.884   5.900
 2946SOL    HW2 9738   6.594   5.915   5.992
 2947SOL     OW 9739   6.747   4.652   0.151
 2947SOL    HW1 9740   6.726   4.686   0.059
 2947SOL    HW2 9741   6.845   4.632   0.157
 2948SOL     OW 9742   6.278   4.576   4.881
 2948SOL    HW1 9743   6.239   4.578   4.973
 2948SOL    HW2 9744   6.204   4.568   4.813
 2949SOL     OW 9745   1.230   6.325   0.507
 2949SOL    HW1 9746   1.260   6.262   0.579
 2949SOL    HW2 9747   1.143   6.293   0.469
 2950SOL     OW 9748   5.215   3.516   4.462
 2950SOL    HW1 9749   5.177   3.572   4.535
 2950SOL    HW2 9750   5.298   3.471   4.494
 2951SOL     OW 9751   6.578   1.031   1.521
 2951SOL    HW1 9752   6.610   0.990   1.435
 2951SOL    HW2 9753   6.534   0.962   1.577
 2952SOL     OW 9754   1.651   3.485   2.121
 2952SOL    HW1 9755   1.715   3.556   2.154
 2952SOL    HW2 9756   1.689   3.395   2.142
 2953SOL     OW 9757   5.713   0.741   2.791
 2953SOL    HW1 9758   5.619   0.751   2.824
 2953SOL    HW2 9759   5.750   0.654   2.823
 2954SOL     OW 9760   5.974   6.464   1.817
 2954SOL    HW1 9761   5.903   6.531   1.837
 2954SOL    HW2 9762   5.941   6.372   1.838
 2955SOL     OW 9763   6.093   3.174   0.607
 2955SOL    HW1 9764   6.070   3.230   0.527
 2955SOL    HW2 9765   6.188   3.144   0.600
 2956SOL     OW 9766   6.467   5.490   2.420
 2956SOL    HW1 9767   6.450   5.506   2.518
 2956SOL    HW2 9768   6.388   5.523   2.367
 2957SOL     OW 9769   0.675   3.809   1.430
 2957SOL    HW1 9770   0.625   3.767   1.505
 2957SOL    HW2 9771   0.750   3.749   1.402
 2958SOL     OW 9772   2.430   4.909   5.963
 2958SOL    HW1 9773   2.463   4.873   6.050
 2958SOL    HW2 9774   2.497   4.889   5.891
 2959SOL     OW 9775   4.009   5.402   6.976
 2959SOL    HW1 9776   4.085   5.344   6.948
 2959SOL    HW2 9777   3.993   5.391   0.049
 2960SOL     OW 9778   2.343   1.859   6.876
 2960SOL    HW1 9779   2.297   1.827   6.959
 2960SOL    HW2 9780   2.311   1.951   6.853
 2961SOL     OW 9781   5.731   2.834   4.595
 2961SOL    HW1 9782   5.665   2.772   4.637
 2961SOL    HW2 9783   5.704   2.853   4.501
 2962SOL     OW 9784   3.824   1.138   3.998
 2962SOL    HW1 9785   3.860   1.143   3.905
 2962SOL    HW2 9786   3.898   1.114   4.061
 2963SOL     OW 9787   1.840   2.789   4.727
 2963SOL    HW1 9788   1.771   2.753   4.789
 2963SOL    HW2 9789   1.912   2.721   4.715
 2964SOL     OW 9790   3.140   5.946   0.405
 2964SOL    HW1 9791   3.045   5.915   0.413
 2964SOL    HW2 9792   3.196   5.871   0.370
 2965SOL     OW 9793   0.762   2.422   6.009
 2965SOL    HW1 9794   0.837   2.401   6.072
 2965SOL    HW2 9795   0.770   2.363   5.928
 2966SOL     OW 9796   4.540   4.462   3.740
 2966SOL    HW1 9797   4.475   4.532   3.769
 2966SOL    HW2 9798   4.566   4.478   3.644
 2967SOL     OW 9799   5.879   1.486   4.010
 2967SOL    HW1 9800   5.955   1.484   3.945
 2967SOL    HW2 9801   5.797   1.448   3.967
 2968SOL     OW 9802   6.911   3.773   3.528
 2968SOL    HW1 9803   6.962   3.695   3.493
 2968SOL    HW2 9804   6.815   3.764   3.503
 2969SOL     OW 9805   4.567   1.391   5.133
 2969SOL    HW1 9806   4.631   1.434   5.069
 2969SOL    HW2 9807   4.565   1.292   5.116
 2970SOL     OW 9808   1.138   4.574   6.573
 2970SOL    HW1 9809   1.059   4.518   6.597
 2970SOL    HW2 9810   1.197   4.523   6.509
 2971SOL     OW 9811   5.223   3.307   3.442
 2971SOL    HW1 9812   5.182   3.216   3.439
 2971SOL    HW2 9813   5.315   3.303   3.404
 2972SOL     OW 9814   0.381   4.115   6.031
 2972SOL    HW1 9815   0.377   4.164   5.944
 2972SOL    HW2 9816   0.441   4.165   6.094
 2973SOL     OW 9817   5.465   6.015   4.587
 2973SOL    HW1 9818   5.386   6.012   4.649
 2973SOL    HW2 9819   5.543   6.053   4.636
 2974SOL     OW 9820   0.466   3.527   2.239
 2974SOL    HW1 9821   0.464   3.541   2.139
 2974SOL    HW2 9822   0.428   3.437   2.261
 2975SOL     OW 9823   0.192   0.872   4.977
 2975SOL    HW1 9824   0.167   0.840   4.886
 2975SOL    HW2 9825   0.185   0.972   4.980
 2976SOL     OW 9826   3.717   7.024   1.917
 2976SOL    HW1 9827   3.700   6.932   1.951
 2976SOL    HW2 9828   3.649   0.021   1.847
 2977SOL     OW 9829   3.417   6.637   3.894
 2977SOL    HW1 9830   3.389   6.694   3.970
 2977SOL    HW2 9831   3.341   6.577   3.867
 2978SOL     OW 9832   4.223   6.391   6.943
 2978SOL    HW1 9833   4.136   6.343   6.931
 2978SOL    HW2 9834   4.226   6.471   6.883
 2979SOL     OW 9835   2.998   0.657   3.432
 2979SOL    HW1 9836   3.076   0.719   3.422
 2979SOL    HW2 9837   2.967   0.656   3.527
 2980SOL     OW 9838   6.921   6.272   3.943
 2980SOL    HW1 9839   6.859   6.275   4.021
 2980SOL    HW2 9840   6.998   6.212   3.964
 2981SOL     OW 9841   1.985   1.151   5.173
 2981SOL    HW1 9842   1.960   1.172   5.268
 2981SOL    HW2 9843   2.007   1.054   5.165
 2982SOL     OW 9844   4.475   0.176   3.393
 2982SOL    HW1 9845   4.418   0.253   3.363
 2982SOL    HW2 9846   4.501   0.121   3.313
 2983SOL     OW 9847   6.314   0.386   3.235
 2983SOL    HW1 9848   6.339   0.314   3.170
 2983SOL    HW2 9849   6.279   0.345   3.319
 2984SOL     OW 9850   5.077   4.840   1.892
 2984SOL    HW1 9851   5.005   4.874   1.952
 2984SOL    HW2 9852   5.163   4.887   1.914
 2985SOL     OW 9853   6.404   2.208   3.194
 2985SOL    HW1 9854   6.397   2.209   3.294
 2985SOL    HW2 9855   6.476   2.270   3.165
 2986SOL     OW 9856   2.254   3.765   5.262
 2986SOL    HW1 9857   2.304   3.842   5.223
 2986SOL    HW2 9858   2.172   3.746   5.208
 2987SOL     OW 9859   4.500   2.635   4.853
 2987SOL    HW1 9860   4.449   2.598   4.776
 2987SOL    HW2 9861   4.506   2.566   4.925
 2988SOL     OW 9862   0.672   0.515   2.492
 2988SOL    HW1 9863   0.627   0.556   2.570
 2988SOL    HW2 9864   0.743   0.452   2.523
 2989SOL     OW 9865   6.422   5.179   0.805
 2989SOL    HW1 9866   6.344   5.137   0.758
 2989SOL    HW2 9867   6.410   5.278   0.809
 2990SOL     OW 9868   3.807   0.293   0.955
 2990SOL    HW1 9869   3.764   0.257   1.038
 2990SOL    HW2 9870   3.885   0.351   0.981
 2991SOL     OW 9871   6.522   4.823   0.870
 2991SOL    HW1 9872   6.431   4.855   0.846
 2991SOL    HW2 9873   6.552   4.866   0.955
 2992SOL     OW 9874   4.094   4.394   6.360
 2992SOL    HW1 9875   4.153   4.474   6.362
 2992SOL    HW2 9876   4.038   4.391   6.443
 2993SOL     OW 9877   1.770   5.215   0.758
 2993SOL    HW1 9878   1.672   5.229   0.743
 2993SOL    HW2 9879   1.822   5.287   0.713
 2994SOL     OW 9880   4.427   6.803   0.219
 2994SOL    HW1 9881   4.331   6.798   0.247
 2994SOL    HW2 9882   4.480   6.849   0.291
 2995SOL     OW 9883   2.975   1.337   5.848
 2995SOL    HW1 9884   2.883   1.315   5.814
 2995SOL    HW2 9885   3.031   1.371   5.772
 2996SOL     OW 9886   4.052   5.820   5.762
 2996SOL    HW1 9887   4.013   5.901   5.806
 2996SOL    HW2 9888   4.073   5.751   5.830
 2997SOL     OW 9889   5.404   6.733   0.147
 2997SOL    HW1 9890   5.445   6.729   0.056
 2997SOL    HW2 9891   5.324   6.674   0.150
 2998SOL     OW 9892   6.845   5.644   5.069
 2998SOL    HW1 9893   6.902   5.613   5.146
 2998SOL    HW2 9894   6.871   5.594   4.987
 2999SOL     OW 9895   3.379   6.361   2.365
 2999SOL    HW1 9896   3.280   6.351   2.359
 2999SOL    HW2 9897   3.422   6.309   2.291
 3000SOL     OW 9898   1.891   3.039   4.849
 3000SOL    HW1 9899   1.990   3.047   4.858
 3000SOL    HW2 9900   1.868   2.959   4.794
 3001SOL     OW 9901   4.341   0.410   6.071
 3001SOL    HW1 9902   4.421   0.357   6.098
 3001SOL    HW2 9903   4.358   0.452   5.981
 3002SOL     OW 9904   3.766   0.183   5.392
 3002SOL    HW1 9905   3.719   0.235   5.464
 3002SOL    HW2 9906   3.709   0.105   5.365
 3003SOL     OW 9907   2.536   0.342   6.326
 3003SOL    HW1 9908   2.506   0.299   6.241
 3003SOL    HW2 9909   2.510   0.438   6.326
 3004SOL     OW 9910   6.509   3.397   4.724
 3004SOL    HW1 9911   6.570   3.451   4.667
 3004SOL    HW2 9912   6.417   3.397   4.685
 3005SOL     OW 9913   4.582   2.305   1.636
 3005SOL    HW1 9914   4.536   2.295   1.725
 3005SOL    HW2 9915   4.681   2.308   1.650
 3006SOL     OW 9916   5.581   0.580   1.703
 3006SOL    HW1 9917   5.664   0.532   1.733
 3006SOL    HW2 9918   5.548   0.639   1.776
 3007SOL     OW 9919   6.562   5.451   2.119
 3007SOL    HW1 9920   6.516   5.539   2.108
 3007SOL    HW2 9921   6.554   5.422   2.215
 3008SOL     OW 9922   3.908   5.255   5.691
 3008SOL    HW1 9923   3.824   5.306   5.673
 3008SOL    HW2 9924   3.915   5.178   5.627
 3009SOL     OW 9925   1.429   1.044   3.260
 3009SOL    HW1 9926   1.338   1.023   3.296
 3009SOL    HW2 9927   1.446   0.989   3.178
 3010SOL     OW 9928   3.934   0.109   1.709
 3010SOL    HW1 9929   4.002   0.061   1.763
 3010SOL    HW2 9930   3.869   0.044   1.670
 3011SOL     OW 9931   5.500   0.570   6.597
 3011SOL    HW1 9932   5.514   0.658   6.552
 3011SOL    HW2 9933   5.533   0.574   6.691
 3012SOL     OW 9934   6.894   4.247   2.295
 3012SOL    HW1 9935   6.973   4.228   2.352
 3012SOL    HW2 9936   6.859   4.162   2.256
 3013SOL     OW 9937   5.832   4.811   2.411
 3013SOL    HW1 9938   5.883   4.755   2.346
 3013SOL    HW2 9939   5.886   4.892   2.435
 3014SOL     OW 9940   4.537   1.116   5.120
 3014SOL    HW1 9941   4.475   1.063   5.062
 3014SOL    HW2 9942   4.618   1.061   5.140
 3015SOL     OW 9943   3.033   2.470   6.595
 3015SOL    HW1 9944   2.960   2.534   6.570
 3015SOL    HW2 9945   2.994   2.379   6.611
 3016SOL     OW 9946   3.575   6.096   3.265
 3016SOL    HW1 9947   3.657   6.150   3.286
 3016SOL    HW2 9948   3.496   6.156   3.258
 3017SOL     OW 9949   0.009   5.861   1.303
 3017SOL    HW1 9950   7.023   5.924   1.227
 3017SOL    HW2 9951   6.956   5.797   1.305
 3018SOL     OW 9952   3.520   6.580   6.453
 3018SOL    HW1 9953   3.424   6.563   6.429
 3018SOL    HW2 9954   3.579   6.551   6.378
 3019SOL     OW 9955   5.132   0.412   2.108
 3019SOL    HW1 9956   5.056   0.462   2.065
 3019SOL    HW2 9957   5.151   0.329   2.056
 3020SOL     OW 9958   1.259   1.730   0.753
 3020SOL    HW1 9959   1.272   1.821   0.793
 3020SOL    HW2 9960   1.217   1.739   0.663
 3021SOL     OW 9961   3.230   1.144   6.516
 3021SOL    HW1 9962   3.282   1.137   6.601
 3021SOL    HW2 9963   3.205   1.240   6.500
 3022SOL     OW 9964   5.003   6.923   2.952
 3022SOL    HW1 9965   5.016   7.001   2.890
 3022SOL    HW2 9966   4.996   6.956   3.046
 3023SOL     OW 9967   5.581   6.697   2.247
 3023SOL    HW1 9968   5.559   6.791   2.222
 3023SOL    HW2 9969   5.584   6.689   2.347
 3024SOL     OW 9970   3.066   6.227   0.053
 3024SOL    HW1 9971   2.989   6.177   0.093
 3024SOL    HW2 9972   3.149   6.207   0.105
 3025SOL     OW 9973   1.887   2.236   1.838
 3025SOL    HW1 9974   1.888   2.331   1.805
 3025SOL    HW2 9975   1.919   2.234   1.933
 3026SOL     OW 9976   2.172   4.515   1.136
 3026SOL    HW1 9977   2.210   4.434   1.181
 3026SOL    HW2 9978   2.092   4.547   1.187
 3027SOL     OW 9979   1.171   1.817   3.931
 3027SOL    HW1 9980   1.237   1.822   4.006
 3027SOL    HW2 9981   1.088   1.771   3.962
 3028SOL     OW 9982   1.787   0.091   4.686
 3028SOL    HW1 9983   1.704   0.086   4.740
 3028SOL    HW2 9984   1.824   0.184   4.689
 3029SOL     OW 9985   5.132   6.931   5.590
 3029SOL    HW1 9986   5.114   6.834   5.607
 3029SOL    HW2 9987   5.057   6.986   5.626
 3030SOL     OW 9988   1.367   2.267   5.845
 3030SOL    HW1 9989   1.305   2.336   5.882
 3030SOL    HW2 9990   1.397   2.295   5.754
 3031SOL     OW 9991   1.617   4.918   6.786
 3031SOL    HW1 9992   1.696   4.865   6.815
 3031SOL    HW2 9993   1.547   4.857   6.750
 3032SOL     OW 9994   4.613   0.597   6.141
 3032SOL    HW1 9995   4.625   0.498   6.135
 3032SOL    HW2 9996   4.576   0.621   6.231
 3033SOL     OW 9997   5.324   3.951   6.232
 3033SOL    HW1 9998   5.338   3.865   6.182
 3033SOL    HW2 9999   5.227   3.977   6.224
 3034SOL     OW10000   2.431   0.118   4.688
 3034SOL    HW110001   2.351   0.120   4.748
 3034SOL    HW210002   2.465   0.212   4.675
 3035SOL     OW10003   6.599   0.460   0.084
 3035SOL    HW110004   6.623   0.395   0.156
 3035SOL    HW210005   6.530   0.524   0.119
 3036SOL     OW10006   1.480   4.736   6.648
 3036SOL    HW110007   1.522   4.735   6.557
 3036SOL    HW210008   1.381   4.746   6.638
 3037SOL     OW10009   6.831   6.515   5.484
 3037SOL    HW110010   6.903   6.572   5.446
 3037SOL    HW210011   6.742   6.556   5.463
 3038SOL     OW10012   5.750   0.231   5.879
 3038SOL    HW110013   5.650   0.231   5.883
 3038SOL    HW210014   5.781   0.145   5.839
 3039SOL     OW10015   0.668   5.164   1.006
 3039SOL    HW110016   0.761   5.129   1.000
 3039SOL    HW210017   0.607   5.105   0.953
 3040SOL     OW10018   2.862   3.000   6.888
 3040SOL    HW110019   2.779   2.950   6.913
 3040SOL    HW210020   2.938   2.936   6.878
 3041SOL     OW10021   1.860   2.153   5.927
 3041SOL    HW110022   1.905   2.242   5.936
 3041SOL    HW210023   1.865   2.123   5.832
 3042SOL     OW10024   4.466   0.721   1.579
 3042SOL    HW110025   4.427   0.694   1.667
 3042SOL    HW210026   4.529   0.797   1.593
 3043SOL     OW10027   0.136   5.351   0.459
 3043SOL    HW110028   0.058   5.299   0.426
 3043SOL    HW210029   0.149   5.334   0.557
 3044SOL     OW10030   3.333   4.025   6.177
 3044SOL    HW110031   3.390   3.990   6.103
 3044SOL    HW210032   3.301   3.949   6.233
 3045SOL     OW10033   5.719   2.118   3.521
 3045SOL    HW110034   5.744   2.198   3.467
 3045SOL    HW210035   5.693   2.043   3.460
 3046SOL     OW10036   2.124   2.629   5.915
 3046SOL    HW110037   2.171   2.632   5.827
 3046SOL    HW210038   2.039   2.681   5.908
 3047SOL     OW10039   6.545   4.687   2.201
 3047SOL    HW110040   6.588   4.596   2.201
 3047SOL    HW210041   6.453   4.680   2.163
 3048SOL     OW10042   3.244   2.659   1.683
 3048SOL    HW110043   3.190   2.727   1.731
 3048SOL    HW210044   3.212   2.567   1.707
 3049SOL     OW10045   1.086   0.237   2.340
 3049SOL    HW110046   1.138   0.164   2.297
 3049SOL    HW210047   0.989   0.212   2.344
 3050SOL     OW10048   3.796   5.577   3.663
 3050SOL    HW110049   3.838   5.486   3.663
 3050SOL    HW210050   3.790   5.612   3.756
 3051SOL     OW10051   2.539   4.458   6.049
 3051SOL    HW110052   2.499   4.383   6.102
 3051SOL    HW210053   2.578   4.526   6.112
 3052SOL     OW10054   4.346   6.899   3.004
 3052SOL    HW110055   4.418   6.863   3.063
 3052SOL    HW210056   4.257   6.864   3.033
 3053SOL     OW10057   5.125   6.640   0.288
 3053SOL    HW110058   5.193   6.567   0.294
 3053SOL    HW210059   5.119   6.686   0.377
 3054SOL     OW10060   1.439   3.436   6.340
 3054SOL    HW110061   1.518   3.461   6.397
 3054SOL    HW210062   1.355   3.445   6.394
 3055SOL     OW10063   6.292   6.180   2.837
 3055SOL    HW110064   6.383   6.141   2.851
 3055SOL    HW210065   6.247   6.191   2.925
 3056SOL     OW10066   6.704   0.849   0.942
 3056SOL    HW110067   6.785   0.801   0.975
 3056SOL    HW210068   6.622   0.797   0.967
 3057SOL     OW10069   6.165   5.718   2.640
 3057SOL    HW110070   6.182   5.621   2.654
 3057SOL    HW210071   6.087   5.747   2.696
 3058SOL     OW10072   6.419   4.654   1.418
 3058SOL    HW110073   6.418   4.754   1.422
 3058SOL    HW210074   6.447   4.625   1.326
 3059SOL     OW10075   1.770   2.971   4.520
 3059SOL    HW110076   1.813   2.989   4.431
 3059SOL    HW210077   1.819   2.897   4.566
 3060SOL     OW10078   6.624   6.866   0.704
 3060SOL    HW110079   6.683   6.929   0.653
 3060SOL    HW210080   6.579   6.804   0.639
 3061SOL     OW10081   6.959   0.225   5.944
 3061SOL    HW110082   6.872   0.272   5.929
 3061SOL    HW210083   6.961   0.140   5.890
 3062SOL     OW10084   2.717   6.334   6.678
 3062SOL    HW110085   2.721   6.367   6.584
 3062SOL    HW210086   2.722   6.412   6.741
 3063SOL     OW10087   1.843   5.259   1.088
 3063SOL    HW110088   1.916   5.314   1.048
 3063SOL    HW210089   1.883   5.191   1.151
 3064SOL     OW10090   6.711   4.081   2.923
 3064SOL    HW110091   6.733   4.179   2.924
 3064SOL    HW210092   6.777   4.034   2.864
 3065SOL     OW10093   1.927   0.980   0.648
 3065SOL    HW110094   1.890   0.950   0.736
 3065SOL    HW210095   1.922   0.905   0.582
 3066SOL     OW10096   6.164   5.133   1.408
 3066SOL    HW110097   6.110   5.214   1.428
 3066SOL    HW210098   6.134   5.093   1.322
 3067SOL     OW10099   5.240   6.942   3.501
 3067SOL    HW110100   5.303   6.875   3.539
 3067SOL    HW210101   5.180   6.976   3.573
 3068SOL     OW10102   5.909   5.187   0.365
 3068SOL    HW110103   5.907   5.198   0.266
 3068SOL    HW210104   5.935   5.274   0.408
 3069SOL     OW10105   0.911   5.828   3.187
 3069SOL    HW110106   0.935   5.752   3.248
 3069SOL    HW210107   0.968   5.825   3.105
 3070SOL     OW10108   4.018   1.383   4.270
 3070SOL    HW110109   3.931   1.427   4.250
 3070SOL    HW210110   4.002   1.299   4.322
 3071SOL     OW10111   5.698   6.471   3.615
 3071SOL    HW110112   5.786   6.507   3.586
 3071SOL    HW210113   5.711   6.400   3.684
 3072SOL     OW10114   0.300   0.036   2.584
 3072SOL    HW110115   0.234   7.017   2.524
 3072SOL    HW210116   0.255   0.067   2.667
 3073SOL     OW10117   1.425   3.713   4.901
 3073SOL    HW110118   1.367   3.640   4.864
 3073SOL    HW210119   1.506   3.673   4.943
 3074SOL     OW10120   5.253   3.211   5.888
 3074SOL    HW110121   5.266   3.127   5.941
 3074SOL    HW210122   5.160   3.245   5.902
 3075SOL     OW10123   1.750   5.702   1.559
 3075SOL    HW110124   1.666   5.677   1.512
 3075SOL    HW210125   1.796   5.620   1.592
 3076SOL     OW10126   0.421   0.261   4.954
 3076SOL    HW110127   0.389   0.183   4.901
 3076SOL    HW210128   0.393   0.250   5.050
 3077SOL     OW10129   5.077   4.657   3.732
 3077SOL    HW110130   5.099   4.754   3.723
 3077SOL    HW210131   5.161   4.605   3.745
 3078SOL     OW10132   2.315   3.006   1.090
 3078SOL    HW110133   2.268   2.952   1.020
 3078SOL    HW210134   2.267   2.997   1.177
 3079SOL     OW10135   6.422   2.734   5.663
 3079SOL    HW110136   6.473   2.787   5.596
 3079SOL    HW210137   6.480   2.713   5.741
 3080SOL     OW10138   6.579   5.725   0.665
 3080SOL    HW110139   6.516   5.747   0.740
 3080SOL    HW210140   6.673   5.740   0.695
 3081SOL     OW10141   6.652   4.747   5.722
 3081SOL    HW110142   6.583   4.814   5.750
 3081SOL    HW210143   6.607   4.665   5.687
 3082SOL     OW10144   2.783   6.921   2.598
 3082SOL    HW110145   2.697   6.895   2.555
 3082SOL    HW210146   2.823   6.998   2.549
 3083SOL     OW10147   3.090   0.490   2.058
 3083SOL    HW110148   3.104   0.461   2.152
 3083SOL    HW210149   3.108   0.414   1.996
 3084SOL     OW10150   5.069   6.622   4.987
 3084SOL    HW110151   4.998   6.562   4.950
 3084SOL    HW210152   5.057   6.631   5.086
 3085SOL     OW10153   0.845   5.624   1.702
 3085SOL    HW110154   0.928   5.673   1.676
 3085SOL    HW210155   0.852   5.593   1.796
 3086SOL     OW10156   5.258   1.099   3.727
 3086SOL    HW110157   5.205   1.182   3.712
 3086SOL    HW210158   5.350   1.111   3.689
 3087SOL     OW10159   6.058   3.048   3.287
 3087SOL    HW110160   6.119   3.009   3.355
 3087SOL    HW210161   5.979   3.090   3.332
 3088SOL     OW10162   3.023   4.615   5.904
 3088SOL    HW110163   3.100   4.552   5.893
 3088SOL    HW210164   2.996   4.618   6.000
 3089SOL     OW10165   1.605   2.336   0.601
 3089SOL    HW110166   1.574   2.351   0.695
 3089SOL    HW210167   1.526   2.313   0.543
 3090SOL     OW10168   0.860   1.492   1.159
 3090SOL    HW110169   0.787   1.559   1.151
 3090SOL    HW210170   0.835   1.423   1.227
 3091SOL     OW10171   2.440   6.885   0.604
 3091SOL    HW110172   2.345   6.855   0.599
 3091SOL    HW210173   2.486   6.837   0.679
 3092SOL     OW10174   4.369   6.321   0.856
 3092SOL    HW110175   4.304   6.388   0.891
 3092SOL    HW210176   4.386   6.339   0.759
 3093SOL     OW10177   5.216   6.055   4.101
 3093SOL    HW110178   5.220   5.977   4.162
 3093SOL    HW210179   5.275   6.039   4.022
 3094SOL     OW10180   3.122   5.420   5.555
 3094SOL    HW110181   3.177   5.341   5.529
 3094SOL    HW210182   3.026   5.392   5.564
 3095SOL     OW10183   3.204   4.958   5.092
 3095SOL    HW110184   3.218   4.879   5.152
 3095SOL    HW210185   3.140   4.933   5.019
 3096SOL     OW10186   0.918   0.750   5.581
 3096SOL    HW110187   0.852   0.685   5.617
 3096SOL    HW210188   0.949   0.810   5.655
 3097SOL     OW10189   1.342   2.765   0.180
 3097SOL    HW110190   1.429   2.717   0.190
 3097SOL    HW210191   1.313   2.762   0.084
 3098SOL     OW10192   3.698   2.257   0.305
 3098SOL    HW110193   3.605   2.293   0.314
 3098SOL    HW210194   3.694   2.158   0.288
 3099SOL     OW10195   1.158   6.154   5.082
 3099SOL    HW110196   1.159   6.167   5.181
 3099SOL    HW210197   1.175   6.241   5.036
 3100SOL     OW10198   6.547   6.839   0.291
 3100SOL    HW110199   6.568   6.763   0.230
 3100SOL    HW210200   6.616   6.911   0.279
 3101SOL     OW10201   4.512   0.061   0.633
 3101SOL    HW110202   4.467   0.136   0.681
 3101SOL    HW210203   4.601   0.093   0.598
 3102SOL     OW10204   1.734   4.864   1.237
 3102SOL    HW110205   1.808   4.928   1.217
 3102SOL    HW210206   1.673   4.905   1.305
 3103SOL     OW10207   3.679   3.395   2.428
 3103SOL    HW110208   3.613   3.323   2.450
 3103SOL    HW210209   3.674   3.467   2.497
 3104SOL     OW10210   6.939   5.374   3.520
 3104SOL    HW110211   7.023   5.423   3.543
 3104SOL    HW210212   6.879   5.433   3.466
 3105SOL     OW10213   6.368   6.418   3.864
 3105SOL    HW110214   6.424   6.343   3.828
 3105SOL    HW210215   6.423   6.474   3.927
 3106SOL     OW10216   6.876   2.934   3.981
 3106SOL    HW110217   6.905   2.859   4.040
 3106SOL    HW210218   6.784   2.964   4.009
 3107SOL     OW10219   3.109   6.856   4.346
 3107SOL    HW110220   3.023   6.810   4.368
 3107SOL    HW210221   3.090   6.951   4.321
 3108SOL     OW10222   3.548   0.304   3.538
 3108SOL    HW110223   3.522   0.250   3.457
 3108SOL    HW210224   3.648   0.303   3.547
 3109SOL     OW10225   4.847   5.952   3.266
 3109SOL    HW110226   4.789   5.981   3.342
 3109SOL    HW210227   4.826   6.006   3.185
 3110SOL     OW10228   0.489   3.120   2.479
 3110SOL    HW110229   0.434   3.192   2.521
 3110SOL    HW210230   0.506   3.142   2.383
 3111SOL     OW10231   6.441   4.573   3.457
 3111SOL    HW110232   6.398   4.532   3.377
 3111SOL    HW210233   6.443   4.672   3.447
 3112SOL     OW10234   3.594   3.676   6.735
 3112SOL    HW110235   3.689   3.646   6.734
 3112SOL    HW210236   3.539   3.615   6.679
 3113SOL     OW10237   3.318   0.239   3.905
 3113SOL    HW110238   3.280   0.287   3.826
 3113SOL    HW210239   3.296   0.142   3.899
 3114SOL     OW10240   5.627   5.779   0.764
 3114SOL    HW110241   5.575   5.736   0.691
 3114SOL    HW210242   5.715   5.733   0.774
 3115SOL     OW10243   2.738   3.672   1.422
 3115SOL    HW110244   2.740   3.711   1.330
 3115SOL    HW210245   2.786   3.733   1.485
 3116SOL     OW10246   0.001   1.930   6.862
 3116SOL    HW110247   7.019   2.025   6.893
 3116SOL    HW210248   6.938   1.885   6.876
 3117SOL     OW10249   3.833   4.087   5.098
 3117SOL    HW110250   3.890   4.160   5.133
 3117SOL    HW210251   3.864   3.999   5.135
 3118SOL     OW10252   5.774   4.730   0.310
 3118SOL    HW110253   5.848   4.666   0.289
 3118SOL    HW210254   5.795   4.779   0.395
 3119SOL     OW10255   1.740   4.622   5.510
 3119SOL    HW110256   1.795   4.628   5.593
 3119SOL    HW210257   1.800   4.614   5.430
 3120SOL     OW10258   3.671   5.744   5.079
 3120SOL    HW110259   3.586   5.698   5.053
 3120SOL    HW210260   3.672   5.835   5.038
 3121SOL     OW10261   0.489   6.533   2.533
 3121SOL    HW110262   0.573   6.556   2.483
 3121SOL    HW210263   0.433   6.616   2.543
 3122SOL     OW10264   3.225   5.430   0.927
 3122SOL    HW110265   3.197   5.336   0.948
 3122SOL    HW210266   3.167   5.494   0.976
 3123SOL     OW10267   3.885   6.896   4.441
 3123SOL    HW110268   3.816   6.965   4.418
 3123SOL    HW210269   3.913   6.848   4.358
 3124SOL     OW10270   3.920   0.124   6.221
 3124SOL    HW110271   3.964   0.038   6.248
 3124SOL    HW210272   3.841   0.104   6.163
 3125SOL     OW10273   6.974   1.640   5.706
 3125SOL    HW110274   6.964   1.547   5.741
 3125SOL    HW210275   0.021   1.642   5.636
 3126SOL     OW10276   4.275   6.259   0.306
 3126SOL    HW110277   4.325   6.205   0.238
 3126SOL    HW210278   4.267   6.206   0.391
 3127SOL     OW10279   0.640   1.253   3.612
 3127SOL    HW110280   0.571   1.249   3.540
 3127SOL    HW210281   0.598   1.231   3.700
 3128SOL     OW10282   1.464   1.365   0.533
 3128SOL    HW110283   1.432   1.449   0.490
 3128SOL    HW210284   1.494   1.385   0.626
 3129SOL     OW10285   1.113   3.099   4.835
 3129SOL    HW110286   1.195   3.051   4.804
 3129SOL    HW210287   1.069   3.046   4.907
 3130SOL     OW10288   1.905   5.729   2.816
 3130SOL    HW110289   1.976   5.796   2.837
 3130SOL    HW210290   1.861   5.752   2.729
 3131SOL     OW10291   6.834   3.088   3.482
 3131SOL    HW110292   6.875   2.997   3.483
 3131SOL    HW210293   6.882   3.146   3.416
 3132SOL     OW10294   5.276   6.515   5.473
 3132SOL    HW110295   5.230   6.602   5.456
 3132SOL    HW210296   5.262   6.454   5.395
 3133SOL     OW10297   2.853   1.660   3.164
 3133SOL    HW110298   2.838   1.717   3.245
 3133SOL    HW210299   2.848   1.718   3.082
 3134SOL     OW10300   4.953   2.890   2.537
 3134SOL    HW110301   4.955   2.798   2.497
 3134SOL    HW210302   5.029   2.943   2.501
 3135SOL     OW10303   3.394   1.280   3.602
 3135SOL    HW110304   3.435   1.227   3.528
 3135SOL    HW210305   3.405   1.378   3.584
 3136SOL     OW10306   5.889   6.608   5.091
 3136SOL    HW110307   5.950   6.529   5.096
 3136SOL    HW210308   5.903   6.666   5.171
 3137SOL     OW10309   6.525   1.499   4.559
 3137SOL    HW110310   6.426   1.512   4.544
 3137SOL    HW210311   6.556   1.422   4.503
 3138SOL     OW10312   5.074   1.667   5.085
 3138SOL    HW110313   5.090   1.570   5.066
 3138SOL    HW210314   4.984   1.678   5.128
 3139SOL     OW10315   4.839   6.313   5.490
 3139SOL    HW110316   4.893   6.364   5.556
 3139SOL    HW210317   4.745   6.304   5.524
 3140SOL     OW10318   6.203   6.538   6.608
 3140SOL    HW110319   6.130   6.603   6.587
 3140SOL    HW210320   6.286   6.589   6.631
 3141SOL     OW10321   1.076   4.874   0.303
 3141SOL    HW110322   1.015   4.794   0.295
 3141SOL    HW210323   1.154   4.850   0.360
 3142SOL     OW10324   3.876   6.802   6.695
 3142SOL    HW110325   3.787   6.785   6.654
 3142SOL    HW210326   3.869   6.879   6.759
 3143SOL     OW10327   6.956   1.650   0.803
 3143SOL    HW110328   7.012   1.663   0.721
 3143SOL    HW210329   6.918   1.738   0.831
 3144SOL     OW10330   1.467   3.881   6.709
 3144SOL    HW110331   1.460   3.910   6.613
 3144SOL    HW210332   1.526   3.944   6.758
 3145SOL     OW10333   3.899   6.671   3.739
 3145SOL    HW110334   3.824   6.643   3.799
 3145SOL    HW210335   3.877   6.758   3.696
 3146SOL     OW10336   2.190   0.434   3.859
 3146SOL    HW110337   2.250   0.489   3.917
 3146SOL    HW210338   2.236   0.350   3.834
 3147SOL     OW10339   4.227   3.657   0.307
 3147SOL    HW110340   4.144   3.685   0.356
 3147SOL    HW210341   4.279   3.594   0.365
 3148SOL     OW10342   3.971   5.796   4.714
 3148SOL    HW110343   3.894   5.840   4.669
 3148SOL    HW210344   3.949   5.780   4.810
 3149SOL     OW10345   3.714   6.575   5.524
 3149SOL    HW110346   3.802   6.551   5.483
 3149SOL    HW210347   3.708   6.536   5.616
 3150SOL     OW10348   6.265   0.166   4.336
 3150SOL    HW110349   6.344   0.152   4.276
 3150SOL    HW210350   6.181   0.152   4.284
 3151SOL     OW10351   3.749   0.409   6.972
 3151SOL    HW110352   3.668   0.461   6.999
 3151SOL    HW210353   3.828   0.469   6.969
 3152SOL     OW10354   1.958   5.068   0.529
 3152SOL    HW110355   1.932   5.149   0.476
 3152SOL    HW210356   1.938   4.986   0.474
 3153SOL     OW10357   0.087   4.547   2.380
 3153SOL    HW110358   0.129   4.457   2.375
 3153SOL    HW210359   0.141   4.611   2.325
 3154SOL     OW10360   5.662   2.028   6.679
 3154SOL    HW110361   5.562   2.027   6.688
 3154SOL    HW210362   5.703   2.052   6.766
 3155SOL     OW10363   4.950   6.125   0.085
 3155SOL    HW110364   4.912   6.142   0.176
 3155SOL    HW210365   4.885   6.073   0.030
 3156SOL     OW10366   3.313   3.762   3.357
 3156SOL    HW110367   3.235   3.823   3.369
 3156SOL    HW210368   3.340   3.723   3.445
 3157SOL     OW10369   2.265   2.918   4.597
 3157SOL    HW110370   2.214   2.899   4.513
 3157SOL    HW210371   2.267   2.836   4.654
 3158SOL     OW10372   4.759   5.991   1.003
 3158SOL    HW110373   4.809   6.008   0.918
 3158SOL    HW210374   4.676   6.046   1.003
 3159SOL     OW10375   5.603   4.572   1.017
 3159SOL    HW110376   5.618   4.632   0.939
 3159SOL    HW210377   5.671   4.592   1.088
 3160SOL     OW10378   5.636   4.452   6.950
 3160SOL    HW110379   5.686   4.485   6.870
 3160SOL    HW210380   5.700   4.413   7.016
 3161SOL     OW10381   0.916   1.936   2.841
 3161SOL    HW110382   0.904   1.996   2.920
 3161SOL    HW210383   0.858   1.856   2.851
 3162SOL     OW10384   6.440   6.425   6.261
 3162SOL    HW110385   6.529   6.452   6.297
 3162SOL    HW210386   6.418   6.482   6.181
 3163SOL     OW10387   2.721   4.236   5.402
 3163SOL    HW110388   2.803   4.180   5.408
 3163SOL    HW210389   2.640   4.180   5.423
 3164SOL     OW10390   5.465   5.406   6.395
 3164SOL    HW110391   5.498   5.423   6.303
 3164SOL    HW210392   5.380   5.352   6.391
 3165SOL     OW10393   0.155   2.680   1.562
 3165SOL    HW110394   0.211   2.601   1.541
 3165SOL    HW210395   0.064   2.668   1.521
 3166SOL     OW10396   5.706   2.880   6.332
 3166SOL    HW110397   5.651   2.927   6.262
 3166SOL    HW210398   5.651   2.869   6.415
 3167SOL     OW10399   0.880   4.238   2.713
 3167SOL    HW110400   0.840   4.148   2.729
 3167SOL    HW210401   0.821   4.308   2.752
 3168SOL     OW10402   5.507   2.801   0.889
 3168SOL    HW110403   5.582   2.840   0.836
 3168SOL    HW210404   5.437   2.765   0.827
 3169SOL     OW10405   1.233   2.024   4.754
 3169SOL    HW110406   1.307   1.966   4.720
 3169SOL    HW210407   1.256   2.121   4.739
 3170SOL     OW10408   4.479   0.712   6.344
 3170SOL    HW110409   4.528   0.744   6.424
 3170SOL    HW210410   4.383   0.740   6.350
 3171SOL     OW10411   5.961   6.494   3.168
 3171SOL    HW110412   6.044   6.541   3.139
 3171SOL    HW210413   5.981   6.439   3.249
 3172SOL     OW10414   6.152   0.346   6.151
 3172SOL    HW110415   6.085   0.285   6.109
 3172SOL    HW210416   6.239   0.298   6.160
 3173SOL     OW10417   1.720   1.466   1.665
 3173SOL    HW110418   1.814   1.493   1.648
 3173SOL    HW210419   1.658   1.527   1.616
 3174SOL     OW10420   1.898   4.434   5.949
 3174SOL    HW110421   1.810   4.390   5.965
 3174SOL    HW210422   1.915   4.502   6.020
 3175SOL     OW10423   0.249   5.708   1.209
 3175SOL    HW110424   0.227   5.733   1.115
 3175SOL    HW210425   0.165   5.699   1.262
 3176SOL     OW10426   1.477   5.210   6.391
 3176SOL    HW110427   1.390   5.204   6.440
 3176SOL    HW210428   1.548   5.162   6.442
 3177SOL     OW10429   6.879   6.830   4.538
 3177SOL    HW110430   6.927   6.894   4.598
 3177SOL    HW210431   6.919   6.739   4.545
 3178SOL     OW10432   1.682   3.075   1.106
 3178SOL    HW110433   1.710   3.169   1.087
 3178SOL    HW210434   1.675   3.024   1.021
 3179SOL     OW10435   0.981   2.456   3.204
 3179SOL    HW110436   1.038   2.526   3.159
 3179SOL    HW210437   1.035   2.373   3.217
 3180SOL     OW10438   5.582   1.031   6.002
 3180SOL    HW110439   5.528   1.108   6.036
 3180SOL    HW210440   5.634   1.060   5.922
 3181SOL     OW10441   0.458   1.785   2.946
 3181SOL    HW110442   0.533   1.727   2.977
 3181SOL    HW210443   0.471   1.877   2.982
 3182SOL     OW10444   1.507   4.744   5.214
 3182SOL    HW110445   1.436   4.793   5.163
 3182SOL    HW210446   1.464   4.685   5.282
 3183SOL     OW10447   3.999   3.510   1.323
 3183SOL    HW110448   4.000   3.474   1.229
 3183SOL    HW210449   3.932   3.460   1.377
 3184SOL     OW10450   2.873   1.184   3.245
 3184SOL    HW110451   2.955   1.155   3.295
 3184SOL    HW210452   2.870   1.138   3.156
 3185SOL     OW10453   0.251   6.499   5.780
 3185SOL    HW110454   0.183   6.432   5.752
 3185SOL    HW210455   0.343   6.463   5.764
 3186SOL     OW10456   3.143   0.270   1.872
 3186SOL    HW110457   3.203   0.191   1.879
 3186SOL    HW210458   3.053   0.240   1.841
 3187SOL     OW10459   3.095   4.727   0.266
 3187SOL    HW110460   3.102   4.776   0.353
 3187SOL    HW210461   3.067   4.633   0.282
 3188SOL     OW10462   4.760   0.399   3.341
 3188SOL    HW110463   4.853   0.366   3.324
 3188SOL    HW210464   4.725   0.360   3.426
 3189SOL     OW10465   0.451   0.331   1.726
 3189SOL    HW110466   0.377   0.271   1.756
 3189SOL    HW210467   0.414   0.408   1.674
 3190SOL     OW10468   0.698   6.854   1.379
 3190SOL    HW110469   0.772   6.790   1.400
 3190SOL    HW210470   0.642   6.867   1.461
 3191SOL     OW10471   3.510   0.407   1.244
 3191SOL    HW110472   3.451   0.414   1.163
 3191SOL    HW210473   3.566   0.325   1.236
 3192SOL     OW10474   6.080   2.357   3.744
 3192SOL    HW110475   6.150   2.386   3.809
 3192SOL    HW210476   5.990   2.385   3.778
 3193SOL     OW10477   4.950   4.085   0.041
 3193SOL    HW110478   4.947   4.173   0.088
 3193SOL    HW210479   4.966   4.012   0.108
 3194SOL     OW10480   1.405   4.702   5.874
 3194SOL    HW110481   1.479   4.695   5.941
 3194SOL    HW210482   1.433   4.658   5.789
 3195SOL     OW10483   0.585   3.993   3.043
 3195SOL    HW110484   0.531   3.910   3.057
 3195SOL    HW210485   0.673   3.983   3.090
 3196SOL     OW10486   0.476   6.371   5.458
 3196SOL    HW110487   0.521   6.460   5.453
 3196SOL    HW210488   0.533   6.302   5.413
 3197SOL     OW10489   1.062   4.071   4.376
 3197SOL    HW110490   0.963   4.065   4.382
 3197SOL    HW210491   1.103   4.022   4.454
 3198SOL     OW10492   5.755   0.813   0.141
 3198SOL    HW110493   5.730   0.735   0.198
 3198SOL    HW210494   5.785   0.779   0.051
 3199SOL     OW10495   3.731   2.103   2.836
 3199SOL    HW110496   3.768   2.085   2.745
 3199SOL    HW210497   3.641   2.147   2.828
 3200SOL     OW10498   6.728   2.114   0.625
 3200SOL    HW110499   6.821   2.132   0.593
 3200SOL    HW210500   6.668   2.190   0.599
 3201SOL     OW10501   4.462   4.453   3.078
 3201SOL    HW110502   4.524   4.526   3.050
 3201SOL    HW210503   4.374   4.464   3.031
 3202SOL     OW10504   1.817   5.675   2.024
 3202SOL    HW110505   1.776   5.749   1.971
 3202SOL    HW210506   1.747   5.607   2.047
 3203SOL     OW10507   6.160   0.223   1.533
 3203SOL    HW110508   6.193   0.160   1.604
 3203SOL    HW210509   6.218   0.304   1.530
 3204SOL     OW10510   6.332   6.077   1.536
 3204SOL    HW110511   6.236   6.104   1.526
 3204SOL    HW210512   6.356   6.014   1.463
 3205SOL     OW10513   1.454   3.803   3.025
 3205SOL    HW110514   1.543   3.788   2.980
 3205SOL    HW210515   1.465   3.871   3.097
 3206SOL     OW10516   1.619   6.592   7.017
 3206SOL    HW110517   1.544   6.650   0.021
 3206SOL    HW210518   1.691   6.593   0.061
 3207SOL     OW10519   1.057   1.140   3.226
 3207SOL    HW110520   0.961   1.114   3.232
 3207SOL    HW210521   1.074   1.221   3.282
 3208SOL     OW10522   6.069   0.517   5.181
 3208SOL    HW110523   6.088   0.615   5.182
 3208SOL    HW210524   6.121   0.471   5.253
 3209SOL     OW10525   2.662   0.219   2.933
 3209SOL    HW110526   2.747   0.196   2.982
 3209SOL    HW210527   2.639   0.144   2.871
 3210SOL     OW10528   0.249   4.859   3.016
 3210SOL    HW110529   0.256   4.865   3.115
 3210SOL    HW210530   0.231   4.764   2.989
 3211SOL     OW10531   0.791   4.419   2.313
 3211SOL    HW110532   0.719   4.363   2.353
 3211SOL    HW210533   0.868   4.425   2.376
 3212SOL     OW10534   4.889   3.131   5.052
 3212SOL    HW110535   4.834   3.127   5.136
 3212SOL    HW210536   4.874   3.219   5.007
 3213SOL     OW10537   5.288   6.454   1.304
 3213SOL    HW110538   5.300   6.368   1.354
 3213SOL    HW210539   5.289   6.531   1.368
 3214SOL     OW10540   4.303   4.264   6.020
 3214SOL    HW110541   4.349   4.180   5.992
 3214SOL    HW210542   4.371   4.336   6.032
 3215SOL     OW10543   5.938   1.105   0.455
 3215SOL    HW110544   6.003   1.035   0.428
 3215SOL    HW210545   5.949   1.125   0.553
 3216SOL     OW10546   6.168   6.886   4.788
 3216SOL    HW110547   6.170   6.926   4.880
 3216SOL    HW210548   6.203   6.953   4.722
 3217SOL     OW10549   6.595   4.147   0.625
 3217SOL    HW110550   6.676   4.185   0.670
 3217SOL    HW210551   6.584   4.190   0.535
 3218SOL     OW10552   3.437   0.730   1.975
 3218SOL    HW110553   3.431   0.755   1.878
 3218SOL    HW210554   3.405   0.806   2.031
 3219SOL     OW10555   6.558   6.907   4.197
 3219SOL    HW110556   6.550   6.833   4.263
 3219SOL    HW210557   6.645   6.900   4.149
 3220SOL     OW10558   6.447   2.994   5.933
 3220SOL    HW110559   6.430   3.064   5.863
 3220SOL    HW210560   6.541   2.961   5.924
 3221SOL     OW10561   4.221   0.259   2.470
 3221SOL    HW110562   4.231   0.358   2.470
 3221SOL    HW210563   4.136   0.233   2.424
 3222SOL     OW10564   5.871   3.744   2.545
 3222SOL    HW110565   5.800   3.800   2.588
 3222SOL    HW210566   5.891   3.665   2.602
 3223SOL     OW10567   2.566   4.606   4.129
 3223SOL    HW110568   2.502   4.587   4.054
 3223SOL    HW210569   2.631   4.530   4.137
 3224SOL     OW10570   3.729   6.050   1.512
 3224SOL    HW110571   3.770   5.990   1.581
 3224SOL    HW210572   3.726   6.002   1.424
 3225SOL     OW10573   2.506   2.336   0.990
 3225SOL    HW110574   2.529   2.290   1.076
 3225SOL    HW210575   2.408   2.354   0.986
 3226SOL     OW10576   0.187   0.980   4.488
 3226SOL    HW110577   0.248   1.038   4.435
 3226SOL    HW210578   0.109   0.953   4.432
 3227SOL     OW10579   2.292   1.957   5.292
 3227SOL    HW110580   2.384   1.917   5.302
 3227SOL    HW210581   2.264   1.952   5.196
 3228SOL     OW10582   5.111   3.217   4.647
 3228SOL    HW110583   5.113   3.174   4.738
 3228SOL    HW210584   5.034   3.180   4.595
 3229SOL     OW10585   3.787   2.111   5.058
 3229SOL    HW110586   3.886   2.113   5.074
 3229SOL    HW210587   3.768   2.127   4.961
 3230SOL     OW10588   1.338   0.498   3.849
 3230SOL    HW110589   1.274   0.467   3.919
 3230SOL    HW210590   1.432   0.475   3.878
 3231SOL     OW10591   5.030   5.593   0.330
 3231SOL    HW110592   5.095   5.642   0.389
 3231SOL    HW210593   5.077   5.563   0.247
 3232SOL     OW10594   2.366   4.347   3.289
 3232SOL    HW110595   2.309   4.415   3.244
 3232SOL    HW210596   2.447   4.330   3.233
 3233SOL     OW10597   1.826   3.832   1.023
 3233SOL    HW110598   1.771   3.760   1.065
 3233SOL    HW210599   1.785   3.859   0.936
 3234SOL     OW10600   6.667   2.017   4.640
 3234SOL    HW110601   6.662   1.923   4.604
 3234SOL    HW210602   6.581   2.039   4.686
 3235SOL     OW10603   5.490   0.530   2.654
 3235SOL    HW110604   5.390   0.531   2.649
 3235SOL    HW210605   5.520   0.591   2.727
 3236SOL     OW10606   0.293   2.930   1.603
 3236SOL    HW110607   0.378   2.957   1.556
 3236SOL    HW210608   0.270   2.836   1.578
 3237SOL     OW10609   3.240   6.072   4.609
 3237SOL    HW110610   3.158   6.018   4.628
 3237SOL    HW210611   3.241   6.097   4.512
 3238SOL     OW10612   5.956   6.504   6.349
 3238SOL    HW110613   6.048   6.476   6.320
 3238SOL    HW210614   5.900   6.423   6.364
 3239SOL     OW10615   0.680   5.330   5.863
 3239SOL    HW110616   0.637   5.415   5.832
 3239SOL    HW210617   0.771   5.322   5.823
 3240SOL     OW10618   0.122   1.791   5.133
 3240SOL    HW110619   0.105   1.779   5.036
 3240SOL    HW210620   0.097   1.884   5.161
 3241SOL     OW10621   4.955   0.391   5.373
 3241SOL    HW110622   4.871   0.443   5.391
 3241SOL    HW210623   4.975   0.332   5.451
 3242SOL     OW10624   3.219   6.424   0.497
 3242SOL    HW110625   3.248   6.448   0.590
 3242SOL    HW210626   3.123   6.445   0.485
 3243SOL     OW10627   3.277   5.109   0.584
 3243SOL    HW110628   3.315   5.089   0.674
 3243SOL    HW210629   3.334   5.069   0.513
 3244SOL     OW10630   1.724   6.118   5.436
 3244SOL    HW110631   1.779   6.163   5.506
 3244SOL    HW210632   1.720   6.020   5.455
 3245SOL     OW10633   2.368   2.083   5.617
 3245SOL    HW110634   2.383   1.985   5.620
 3245SOL    HW210635   2.326   2.113   5.703
 3246SOL     OW10636   5.474   6.322   3.678
 3246SOL    HW110637   5.482   6.272   3.592
 3246SOL    HW210638   5.524   6.408   3.672
 3247SOL     OW10639   6.567   1.616   5.470
 3247SOL    HW110640   6.593   1.708   5.438
 3247SOL    HW210641   6.639   1.580   5.530
 3248SOL     OW10642   5.104   3.948   2.662
 3248SOL    HW110643   5.008   3.921   2.666
 3248SOL    HW210644   5.114   4.028   2.604
 3249SOL     OW10645   3.096   4.260   5.248
 3249SOL    HW110646   3.035   4.185   5.272
 3249SOL    HW210647   3.069   4.343   5.297
 3250SOL     OW10648   4.768   5.685   1.337
 3250SOL    HW110649   4.722   5.602   1.369
 3250SOL    HW210650   4.789   5.744   1.415
 3251SOL     OW10651   3.350   0.902   3.720
 3251SOL    HW110652   3.292   0.909   3.801
 3251SOL    HW210653   3.446   0.896   3.748
 3252SOL     OW10654   3.215   1.951   3.790
 3252SOL    HW110655   3.134   1.983   3.840
 3252SOL    HW210656   3.190   1.934   3.695
 3253SOL     OW10657   4.582   3.896   1.219
 3253SOL    HW110658   4.649   3.844   1.166
 3253SOL    HW210659   4.520   3.833   1.265
 3254SOL     OW10660   5.238   4.483   2.503
 3254SOL    HW110661   5.222   4.494   2.601
 3254SOL    HW210662   5.164   4.527   2.452
 3255SOL     OW10663   4.399   4.828   1.152
 3255SOL    HW110664   4.422   4.791   1.243
 3255SOL    HW210665   4.393   4.753   1.086
 3256SOL     OW10666   5.915   6.680   5.808
 3256SOL    HW110667   5.942   6.752   5.744
 3256SOL    HW210668   5.819   6.656   5.793
 3257SOL     OW10669   2.405   1.864   1.047
 3257SOL    HW110670   2.365   1.954   1.034
 3257SOL    HW210671   2.500   1.874   1.077
 3258SOL     OW10672   5.194   6.861   1.642
 3258SOL    HW110673   5.178   6.922   1.565
 3258SOL    HW210674   5.267   6.898   1.700
 3259SOL     OW10675   6.191   6.285   3.106
 3259SOL    HW110676   6.211   6.382   3.090
 3259SOL    HW210677   6.149   6.275   3.197
 3260SOL     OW10678   1.472   2.788   0.440
 3260SOL    HW110679   1.569   2.800   0.418
 3260SOL    HW210680   1.416   2.811   0.360
 3261SOL     OW10681   4.237   0.238   3.635
 3261SOL    HW110682   4.268   0.313   3.576
 3261SOL    HW210683   4.147   0.208   3.606
 3262SOL     OW10684   3.955   1.545   4.705
 3262SOL    HW110685   3.905   1.551   4.619
 3262SOL    HW210686   3.911   1.603   4.774
 3263SOL     OW10687   3.301   5.278   2.738
 3263SOL    HW110688   3.281   5.234   2.825
 3263SOL    HW210689   3.243   5.359   2.726
 3264SOL     OW10690   4.896   4.502   5.459
 3264SOL    HW110691   4.906   4.598   5.433
 3264SOL    HW210692   4.982   4.469   5.498
 3265SOL     OW10693   5.246   0.481   6.557
 3265SOL    HW110694   5.336   0.519   6.579
 3265SOL    HW210695   5.230   0.489   6.458
 3266SOL     OW10696   0.700   2.542   0.145
 3266SOL    HW110697   0.741   2.453   0.169
 3266SOL    HW210698   0.767   2.614   0.160
 3267SOL     OW10699   5.015   2.664   1.765
 3267SOL    HW110700   5.110   2.663   1.798
 3267SOL    HW210701   4.972   2.750   1.790
 3268SOL     OW10702   1.848   4.741   6.783
 3268SOL    HW110703   1.836   4.642   6.784
 3268SOL    HW210704   1.883   4.769   6.694
 3269SOL     OW10705   4.595   3.623   1.005
 3269SOL    HW110706   4.607   3.600   1.102
 3269SOL    HW210707   4.683   3.651   0.966
 3270SOL     OW10708   0.358   5.309   4.165
 3270SOL    HW110709   0.319   5.397   4.190
 3270SOL    HW210710   0.316   5.275   4.082
 3271SOL     OW10711   4.852   0.785   1.833
 3271SOL    HW110712   4.877   0.689   1.839
 3271SOL    HW210713   4.885   0.822   1.746
 3272SOL     OW10714   4.910   0.038   6.777
 3272SOL    HW110715   4.969   6.988   6.747
 3272SOL    HW210716   4.967   0.116   6.804
 3273SOL     OW10717   1.233   0.666   3.005
 3273SOL    HW110718   1.283   0.634   3.085
 3273SOL    HW210719   1.139   0.630   3.008
 3274SOL     OW10720   3.040   1.930   6.893
 3274SOL    HW110721   2.994   1.992   6.956
 3274SOL    HW210722   3.135   1.960   6.881
 3275SOL     OW10723   4.248   0.578   0.495
 3275SOL    HW110724   4.294   0.649   0.549
 3275SOL    HW210725   4.149   0.591   0.502
 3276SOL     OW10726   2.268   6.416   0.314
 3276SOL    HW110727   2.303   6.367   0.393
 3276SOL    HW210728   2.266   6.355   0.235
 3277SOL     OW10729   0.517   5.544   5.764
 3277SOL    HW110730   0.487   5.542   5.669
 3277SOL    HW210731   0.533   5.638   5.793
 3278SOL     OW10732   0.936   1.000   0.629
 3278SOL    HW110733   1.015   1.011   0.688
 3278SOL    HW210734   0.875   1.079   0.640
 3279SOL     OW10735   2.363   5.773   1.627
 3279SOL    HW110736   2.278   5.823   1.607
 3279SOL    HW210737   2.344   5.702   1.694
 3280SOL     OW10738   3.164   6.145   4.353
 3280SOL    HW110739   3.231   6.197   4.300
 3280SOL    HW210740   3.144   6.059   4.307
 3281SOL     OW10741   2.628   6.322   0.761
 3281SOL    HW110742   2.720   6.302   0.795
 3281SOL    HW210743   2.562   6.263   0.809
 3282SOL     OW10744   2.437   6.000   2.559
 3282SOL    HW110745   2.356   5.972   2.507
 3282SOL    HW210746   2.518   5.991   2.501
 3283SOL     OW10747   2.209   0.172   4.234
 3283SOL    HW110748   2.172   0.085   4.267
 3283SOL    HW210749   2.306   0.177   4.254
 3284SOL     OW10750   0.984   4.732   5.842
 3284SOL    HW110751   1.060   4.728   5.777
 3284SOL    HW210752   1.015   4.701   5.931
 3285SOL     OW10753   0.037   2.707   4.762
 3285SOL    HW110754   0.054   2.806   4.771
 3285SOL    HW210755   0.118   2.657   4.793
 3286SOL     OW10756   4.442   4.789   5.713
 3286SOL    HW110757   4.375   4.849   5.757
 3286SOL    HW210758   4.421   4.782   5.616
 3287SOL     OW10759   0.307   4.177   1.541
 3287SOL    HW110760   0.395   4.132   1.527
 3287SOL    HW210761   0.314   4.274   1.517
 3288SOL     OW10762   1.082   6.404   6.419
 3288SOL    HW110763   1.061   6.348   6.339
 3288SOL    HW210764   1.174   6.384   6.451
 3289SOL     OW10765   1.377   5.369   4.567
 3289SOL    HW110766   1.431   5.285   4.576
 3289SOL    HW210767   1.395   5.429   4.645
 3290SOL     OW10768   7.006   4.281   3.040
 3290SOL    HW110769   6.941   4.315   2.972
 3290SOL    HW210770   7.018   4.350   3.111
 3291SOL     OW10771   1.561   0.553   1.682
 3291SOL    HW110772   1.600   0.502   1.606
 3291SOL    HW210773   1.628   0.619   1.717
 3292SOL     OW10774   0.332   5.272   4.928
 3292SOL    HW110775   0.371   5.358   4.962
 3292SOL    HW210776   0.262   5.292   4.860
 3293SOL     OW10777   5.877   0.732   2.534
 3293SOL    HW110778   5.957   0.693   2.580
 3293SOL    HW210779   5.800   0.735   2.599
 3294SOL     OW10780   1.152   6.833   0.709
 3294SOL    HW110781   1.146   6.903   0.638
 3294SOL    HW210782   1.156   6.743   0.666
 3295SOL     OW10783   1.526   2.296   6.274
 3295SOL    HW110784   1.570   2.301   6.363
 3295SOL    HW210785   1.523   2.200   6.244
 3296SOL     OW10786   0.944   6.583   2.293
 3296SOL    HW110787   1.040   6.554   2.286
 3296SOL    HW210788   0.918   6.630   2.209
 3297SOL     OW10789   2.991   1.669   6.294
 3297SOL    HW110790   2.919   1.652   6.362
 3297SOL    HW210791   3.015   1.583   6.249
 3298SOL     OW10792   6.475   4.017   2.612
 3298SOL    HW110793   6.535   4.088   2.649
 3298SOL    HW210794   6.398   4.002   2.675
 3299SOL     OW10795   0.835   1.020   5.108
 3299SOL    HW110796   0.757   1.061   5.157
 3299SOL    HW210797   0.919   1.040   5.158
 3300SOL     OW10798   0.015   6.977   4.722
 3300SOL    HW110799   6.954   7.002   4.766
 3300SOL    HW210800   0.088   6.974   4.791
 3301SOL     OW10801   0.029   3.636   2.445
 3301SOL    HW110802   0.070   3.679   2.364
 3301SOL    HW210803   0.015   3.705   2.516
 3302SOL     OW10804   1.253   5.727   5.206
 3302SOL    HW110805   1.272   5.696   5.299
 3302SOL    HW210806   1.300   5.814   5.190
 3303SOL     OW10807   3.222   3.377   3.534
 3303SOL    HW110808   3.216   3.356   3.436
 3303SOL    HW210809   3.195   3.472   3.549
 3304SOL     OW10810   1.877   1.108   2.745
 3304SOL    HW110811   1.825   1.193   2.739
 3304SOL    HW210812   1.813   1.030   2.745
 3305SOL     OW10813   0.314   2.459   0.599
 3305SOL    HW110814   0.408   2.425   0.592
 3305SOL    HW210815   0.313   2.558   0.582
 3306SOL     OW10816   1.125   3.617   2.005
 3306SOL    HW110817   1.187   3.575   2.071
 3306SOL    HW210818   1.141   3.716   2.003
 3307SOL     OW10819   0.654   6.714   0.394
 3307SOL    HW110820   0.730   6.749   0.449
 3307SOL    HW210821   0.612   6.636   0.439
 3308SOL     OW10822   5.635   6.286   0.468
 3308SOL    HW110823   5.724   6.328   0.488
 3308SOL    HW210824   5.604   6.236   0.549
 3309SOL     OW10825   1.515   5.547   2.185
 3309SOL    HW110826   1.576   5.487   2.133
 3309SOL    HW210827   1.449   5.491   2.236
 3310SOL     OW10828   1.237   6.677   1.882
 3310SOL    HW110829   1.297   6.666   1.803
 3310SOL    HW210830   1.142   6.662   1.854
 3311SOL     OW10831   4.195   6.543   0.866
 3311SOL    HW110832   4.122   6.502   0.921
 3311SOL    HW210833   4.157   6.613   0.807
 3312SOL     OW10834   2.347   3.099   6.912
 3312SOL    HW110835   2.345   3.160   6.991
 3312SOL    HW210836   2.283   3.023   6.926
 3313SOL     OW10837   6.407   6.198   4.930
 3313SOL    HW110838   6.478   6.129   4.938
 3313SOL    HW210839   6.352   6.200   5.013
 3314SOL     OW10840   0.637   3.963   6.660
 3314SOL    HW110841   0.617   4.056   6.689
 3314SOL    HW210842   0.714   3.963   6.596
 3315SOL     OW10843   6.429   3.611   3.561
 3315SOL    HW110844   6.467   3.701   3.585
 3315SOL    HW210845   6.472   3.578   3.477
 3316SOL     OW10846   4.375   1.903   0.461
 3316SOL    HW110847   4.292   1.882   0.513
 3316SOL    HW210848   4.445   1.834   0.480
 3317SOL     OW10849   4.056   2.631   1.708
 3317SOL    HW110850   4.145   2.663   1.674
 3317SOL    HW210851   3.993   2.624   1.631
 3318SOL     OW10852   2.896   5.335   5.243
 3318SOL    HW110853   2.819   5.278   5.214
 3318SOL    HW210854   2.981   5.292   5.214
 3319SOL     OW10855   6.769   6.535   6.635
 3319SOL    HW110856   6.677   6.572   6.644
 3319SOL    HW210857   6.794   6.487   6.719
 3320SOL     OW10858   0.620   0.378   0.265
 3320SOL    HW110859   0.571   0.422   0.341
 3320SOL    HW210860   0.594   0.421   0.179
 3321SOL     OW10861   4.151   3.406   4.270
 3321SOL    HW110862   4.190   3.382   4.359
 3321SOL    HW210863   4.091   3.333   4.239
 3322SOL     OW10864   4.061   2.342   1.522
 3322SOL    HW110865   4.109   2.255   1.516
 3322SOL    HW210866   4.018   2.351   1.612
 3323SOL     OW10867   2.878   4.790   6.970
 3323SOL    HW110868   2.938   4.792   6.890
 3323SOL    HW210869   2.851   4.884   6.993
 3324SOL     OW10870   6.114   2.909   1.780
 3324SOL    HW110871   6.018   2.938   1.782
 3324SOL    HW210872   6.121   2.817   1.742
 3325SOL     OW10873   1.115   4.085   6.488
 3325SOL    HW110874   1.137   4.127   6.401
 3325SOL    HW210875   1.166   4.000   6.498
 3326SOL     OW10876   6.440   0.885   1.719
 3326SOL    HW110877   6.483   0.966   1.760
 3326SOL    HW210878   6.341   0.895   1.722
 3327SOL     OW10879   4.251   5.989   1.506
 3327SOL    HW110880   4.335   6.006   1.454
 3327SOL    HW210881   4.187   5.937   1.450
 3328SOL     OW10882   5.917   0.002   3.914
 3328SOL    HW110883   5.951   0.026   3.823
 3328SOL    HW210884   5.820   0.022   3.920
 3329SOL     OW10885   5.150   0.815   6.404
 3329SOL    HW110886   5.237   0.791   6.360
 3329SOL    HW210887   5.160   0.809   6.503
 3330SOL     OW10888   6.876   6.470   3.509
 3330SOL    HW110889   6.882   6.563   3.546
 3330SOL    HW210890   6.852   6.475   3.412
 3331SOL     OW10891   1.698   3.725   2.946
 3331SOL    HW110892   1.696   3.685   3.038
 3331SOL    HW210893   1.716   3.654   2.879
 3332SOL     OW10894   3.288   5.460   0.158
 3332SOL    HW110895   3.306   5.476   0.255
 3332SOL    HW210896   3.191   5.439   0.146
 3333SOL     OW10897   2.321   3.242   1.490
 3333SOL    HW110898   2.263   3.283   1.561
 3333SOL    HW210899   2.267   3.174   1.439
 3334SOL     OW10900   1.726   2.567   1.879
 3334SOL    HW110901   1.686   2.568   1.787
 3334SOL    HW210902   1.658   2.538   1.946
 3335SOL     OW10903   3.248   4.108   5.071
 3335SOL    HW110904   3.203   4.182   5.121
 3335SOL    HW210905   3.181   4.063   5.011
 3336SOL     OW10906   4.320   5.922   5.027
 3336SOL    HW110907   4.415   5.909   4.999
 3336SOL    HW210908   4.311   6.010   5.075
 3337SOL     OW10909   3.904   2.969   3.275
 3337SOL    HW110910   3.915   2.970   3.175
 3337SOL    HW210911   3.812   2.938   3.298
 3338SOL     OW10912   2.870   2.783   1.435
 3338SOL    HW110913   2.805   2.788   1.360
 3338SOL    HW210914   2.906   2.689   1.442
 3339SOL     OW10915   1.214   0.261   6.941
 3339SOL    HW110916   1.302   0.242   6.896
 3339SOL    HW210917   1.222   0.242   0.014
 3340SOL     OW10918   3.549   1.286   5.846
 3340SOL    HW110919   3.490   1.230   5.904
 3340SOL    HW210920   3.635   1.237   5.828
 3341SOL     OW10921   0.788   4.518   1.536
 3341SOL    HW110922   0.837   4.517   1.623
 3341SOL    HW210923   0.780   4.425   1.501
 3342SOL     OW10924   6.594   0.727   2.579
 3342SOL    HW110925   6.565   0.722   2.483
 3342SOL    HW210926   6.521   0.769   2.633
 3343SOL     OW10927   3.672   5.602   0.590
 3343SOL    HW110928   3.651   5.615   0.493
 3343SOL    HW210929   3.771   5.607   0.604
 3344SOL     OW10930   0.674   3.580   1.867
 3344SOL    HW110931   0.713   3.638   1.939
 3344SOL    HW210932   0.708   3.487   1.877
 3345SOL     OW10933   5.974   5.314   1.446
 3345SOL    HW110934   5.933   5.336   1.534
 3345SOL    HW210935   5.926   5.364   1.374
 3346SOL     OW10936   1.016   0.647   0.335
 3346SOL    HW110937   0.963   0.593   0.269
 3346SOL    HW210938   1.114   0.628   0.322
 3347SOL     OW10939   1.024   3.855   5.795
 3347SOL    HW110940   0.935   3.818   5.820
 3347SOL    HW210941   1.078   3.784   5.748
 3348SOL     OW10942   3.756   4.283   6.149
 3348SOL    HW110943   3.786   4.208   6.207
 3348SOL    HW210944   3.677   4.328   6.191
 3349SOL     OW10945   2.063   4.855   2.326
 3349SOL    HW110946   2.115   4.922   2.272
 3349SOL    HW210947   2.078   4.764   2.290
 3350SOL     OW10948   1.991   4.695   5.041
 3350SOL    HW110949   2.085   4.728   5.029
 3350SOL    HW210950   1.950   4.678   4.952
 3351SOL     OW10951   5.566   1.054   2.028
 3351SOL    HW110952   5.615   0.971   2.001
 3351SOL    HW210953   5.592   1.079   2.121
 3352SOL     OW10954   5.454   1.496   0.137
 3352SOL    HW110955   5.473   1.468   0.231
 3352SOL    HW210956   5.356   1.512   0.127
 3353SOL     OW10957   3.777   0.753   6.992
 3353SOL    HW110958   3.767   0.755   0.066
 3353SOL    HW210959   3.854   0.695   6.967
 3354SOL     OW10960   2.487   3.513   0.787
 3354SOL    HW110961   2.501   3.595   0.733
 3354SOL    HW210962   2.563   3.449   0.771
 3355SOL     OW10963   0.955   0.380   4.501
 3355SOL    HW110964   0.964   0.415   4.594
 3355SOL    HW210965   0.903   0.446   4.446
 3356SOL     OW10966   2.238   0.834   6.415
 3356SOL    HW110967   2.241   0.744   6.459
 3356SOL    HW210968   2.256   0.905   6.483
 3357SOL     OW10969   3.012   3.142   3.036
 3357SOL    HW110970   2.963   3.055   3.025
 3357SOL    HW210971   2.998   3.199   2.954
 3358SOL     OW10972   0.622   1.424   1.583
 3358SOL    HW110973   0.699   1.487   1.595
 3358SOL    HW210974   0.650   1.331   1.606
 3359SOL     OW10975   1.030   6.875   4.622
 3359SOL    HW110976   1.097   6.914   4.686
 3359SOL    HW210977   1.075   6.855   4.535
 3360SOL     OW10978   2.290   5.096   4.619
 3360SOL    HW110979   2.337   5.087   4.532
 3360SOL    HW210980   2.323   5.025   4.682
 3361SOL     OW10981   6.770   6.664   4.785
 3361SOL    HW110982   6.707   6.608   4.731
 3361SOL    HW210983   6.719   6.718   4.851
 3362SOL     OW10984   3.770   0.493   3.908
 3362SOL    HW110985   3.678   0.472   3.875
 3362SOL    HW210986   3.821   0.408   3.923
 3363SOL     OW10987   5.334   4.298   0.183
 3363SOL    HW110988   5.416   4.271   0.132
 3363SOL    HW210989   5.322   4.397   0.179
 3364SOL     OW10990   1.241   3.575   1.757
 3364SOL    HW110991   1.211   3.601   1.848
 3364SOL    HW210992   1.280   3.483   1.759
 3365SOL     OW10993   1.100   3.126   2.477
 3365SOL    HW110994   1.155   3.055   2.520
 3365SOL    HW210995   1.004   3.114   2.502
 3366SOL     OW10996   6.152   2.911   4.632
 3366SOL    HW110997   6.165   2.877   4.539
 3366SOL    HW210998   6.133   3.009   4.630
 3367SOL     OW10999   3.594   2.973   3.958
 3367SOL    HW111000   3.509   2.952   3.909
 3367SOL    HW211001   3.575   3.037   4.032
 3368SOL     OW11002   2.603   1.053   3.192
 3368SOL    HW111003   2.681   1.008   3.237
 3368SOL    HW211004   2.628   1.075   3.097
 3369SOL     OW11005   5.014   2.810   0.891
 3369SOL    HW111006   5.076   2.755   0.946
 3369SOL    HW211007   5.022   2.906   0.918
 3370SOL     OW11008   0.952   5.760   2.758
 3370SOL    HW111009   0.870   5.731   2.808
 3370SOL    HW211010   0.946   5.730   2.663
 3371SOL     OW11011   2.183   2.371   1.425
 3371SOL    HW111012   2.230   2.284   1.407
 3371SOL    HW211013   2.113   2.356   1.495
 3372SOL     OW11014   5.630   3.135   3.633
 3372SOL    HW111015   5.623   3.040   3.663
 3372SOL    HW211016   5.642   3.194   3.712
 3373SOL     OW11017   0.200   4.132   1.274
 3373SOL    HW111018   0.179   4.134   1.372
 3373SOL    HW211019   0.200   4.225   1.238
 3374SOL     OW11020   0.567   6.205   4.106
 3374SOL    HW111021   0.637   6.208   4.034
 3374SOL    HW211022   0.549   6.299   4.137
 3375SOL     OW11023   0.615   6.155   5.782
 3375SOL    HW111024   0.549   6.229   5.772
 3375SOL    HW211025   0.685   6.181   5.849
 3376SOL     OW11026   3.026   3.238   4.793
 3376SOL    HW111027   3.119   3.207   4.809
 3376SOL    HW211028   2.965   3.196   4.860
 3377SOL     OW11029   0.016   5.261   4.603
 3377SOL    HW111030   0.059   5.329   4.662
 3377SOL    HW211031   7.004   5.305   4.522
 3378SOL     OW11032   1.150   5.986   0.515
 3378SOL    HW111033   1.160   5.886   0.510
 3378SOL    HW211034   1.239   6.029   0.498
 3379SOL     OW11035   5.702   4.011   4.298
 3379SOL    HW111036   5.627   4.072   4.274
 3379SOL    HW211037   5.668   3.936   4.354
 3380SOL     OW11038   2.371   5.245   1.323
 3380SOL    HW111039   2.388   5.190   1.404
 3380SOL    HW211040   2.404   5.196   1.242
 3381SOL     OW11041   2.923   3.960   6.268
 3381SOL    HW111042   2.869   3.995   6.191
 3381SOL    HW211043   2.978   4.034   6.307
 3382SOL     OW11044   6.768   4.162   6.715
 3382SOL    HW111045   6.696   4.155   6.646
 3382SOL    HW211046   6.810   4.072   6.728
 3383SOL     OW11047   3.621   5.319   0.714
 3383SOL    HW111048   3.695   5.383   0.696
 3383SOL    HW211049   3.638   5.270   0.799
 3384SOL     OW11050   2.714   2.912   6.455
 3384SOL    HW111051   2.659   2.833   6.429
 3384SOL    HW211052   2.660   2.973   6.514
 3385SOL     OW11053   6.328   2.246   4.316
 3385SOL    HW111054   6.365   2.339   4.310
 3385SOL    HW211055   6.309   2.224   4.411
 3386SOL     OW11056   0.944   5.861   4.362
 3386SOL    HW111057   0.902   5.770   4.360
 3386SOL    HW211058   1.037   5.855   4.398
 3387SOL     OW11059   6.137   1.034   2.880
 3387SOL    HW111060   6.151   1.057   2.784
 3387SOL    HW211061   6.085   0.948   2.886
 3388SOL     OW11062   6.681   3.839   0.623
 3388SOL    HW111063   6.724   3.905   0.685
 3388SOL    HW211064   6.704   3.862   0.528
 3389SOL     OW11065   6.531   5.455   6.484
 3389SOL    HW111066   6.442   5.499   6.470
 3389SOL    HW211067   6.528   5.400   6.567
 3390SOL     OW11068   2.951   5.625   0.473
 3390SOL    HW111069   2.976   5.684   0.396
 3390SOL    HW211070   2.851   5.620   0.480
 3391SOL     OW11071   4.970   3.972   5.113
 3391SOL    HW111072   5.059   3.948   5.075
 3391SOL    HW211073   4.981   4.046   5.180
 3392SOL     OW11074   4.741   6.413   6.175
 3392SOL    HW111075   4.822   6.462   6.209
 3392SOL    HW211076   4.690   6.376   6.252
 3393SOL     OW11077   3.649   6.541   0.285
 3393SOL    HW111078   3.682   6.481   0.212
 3393SOL    HW211079   3.556   6.571   0.263
 3394SOL     OW11080   3.180   4.970   1.313
 3394SOL    HW111081   3.137   5.054   1.345
 3394SOL    HW211082   3.246   4.938   1.380
 3395SOL     OW11083   2.130   6.549   2.839
 3395SOL    HW111084   2.094   6.630   2.792
 3395SOL    HW211085   2.205   6.577   2.899
 3396SOL     OW11086   4.418   0.271   4.284
 3396SOL    HW111087   4.473   0.354   4.289
 3396SOL    HW211088   4.444   0.209   4.359
 3397SOL     OW11089   2.536   6.221   0.430
 3397SOL    HW111090   2.589   6.302   0.456
 3397SOL    HW211091   2.533   6.214   0.330
 3398SOL     OW11092   6.409   1.236   6.266
 3398SOL    HW111093   6.366   1.147   6.254
 3398SOL    HW211094   6.340   1.304   6.292
 3399SOL     OW11095   6.630   6.204   2.185
 3399SOL    HW111096   6.687   6.280   2.216
 3399SOL    HW211097   6.687   6.122   2.173
 3400SOL     OW11098   3.742   2.718   5.261
 3400SOL    HW111099   3.817   2.743   5.199
 3400SOL    HW211100   3.663   2.778   5.243
 3401SOL     OW11101   0.301   3.436   4.040
 3401SOL    HW111102   0.349   3.355   4.008
 3401SOL    HW211103   0.251   3.478   3.965
 3402SOL     OW11104   5.794   3.494   0.338
 3402SOL    HW111105   5.748   3.451   0.416
 3402SOL    HW211106   5.732   3.494   0.259
 3403SOL     OW11107   5.052   6.485   6.024
 3403SOL    HW111108   5.054   6.446   6.116
 3403SOL    HW211109   5.114   6.563   6.020
 3404SOL     OW11110   4.917   5.442   3.084
 3404SOL    HW111111   4.935   5.360   3.138
 3404SOL    HW211112   4.919   5.420   2.987
 3405SOL     OW11113   4.025   5.808   0.182
 3405SOL    HW111114   4.081   5.770   0.108
 3405SOL    HW211115   3.960   5.739   0.213
 3406SOL     OW11116   3.728   5.270   1.336
 3406SOL    HW111117   3.761   5.346   1.393
 3406SOL    HW211118   3.673   5.307   1.261
 3407SOL     OW11119   1.116   3.295   0.194
 3407SOL    HW111120   1.166   3.330   0.273
 3407SOL    HW211121   1.061   3.369   0.154
 3408SOL     OW11122   4.349   6.917   3.947
 3408SOL    HW111123   4.357   7.004   3.898
 3408SOL    HW211124   4.255   6.884   3.941
 3409SOL     OW11125   3.678   1.997   0.168
 3409SOL    HW111126   3.718   2.002   0.076
 3409SOL    HW211127   3.730   1.931   0.223
 3410SOL     OW11128   6.281   0.656   2.899
 3410SOL    HW111129   6.337   0.738   2.912
 3410SOL    HW211130   6.203   0.677   2.841
 3411SOL     OW11131   6.013   3.150   5.715
 3411SOL    HW111132   6.082   3.216   5.745
 3411SOL    HW211133   5.996   3.161   5.617
 3412SOL     OW11134   5.491   2.956   3.390
 3412SOL    HW111135   5.573   2.995   3.349
 3412SOL    HW211136   5.424   2.935   3.319
 3413SOL     OW11137   6.931   2.159   1.099
 3413SOL    HW111138   6.864   2.107   1.047
 3413SOL    HW211139   6.978   2.098   1.162
 3414SOL     OW11140   3.478   3.263   2.186
 3414SOL    HW111141   3.459   3.344   2.241
 3414SOL    HW211142   3.568   3.271   2.144
 3415SOL     OW11143   2.146   1.457   6.250
 3415SOL    HW111144   2.195   1.526   6.196
 3415SOL    HW211145   2.123   1.380   6.190
 3416SOL     OW11146   6.466   6.773   6.169
 3416SOL    HW111147   6.485   6.731   6.258
 3416SOL    HW211148   6.432   6.703   6.106
 3417SOL     OW11149   5.909   0.434   2.421
 3417SOL    HW111150   5.910   0.530   2.394
 3417SOL    HW211151   5.994   0.390   2.391
 3418SOL     OW11152   4.295   5.767   0.682
 3418SOL    HW111153   4.355   5.802   0.754
 3418SOL    HW211154   4.323   5.805   0.594
 3419SOL     OW11155   2.924   4.808   5.226
 3419SOL    HW111156   2.861   4.855   5.164
 3419SOL    HW211157   2.912   4.709   5.216
 3420SOL     OW11158   4.367   0.844   2.558
 3420SOL    HW111159   4.434   0.867   2.629
 3420SOL    HW211160   4.387   0.896   2.475
 3421SOL     OW11161   0.103   1.723   4.862
 3421SOL    HW111162   0.168   1.697   4.790
 3421SOL    HW211163   0.042   1.795   4.827
 3422SOL     OW11164   3.371   5.949   1.337
 3422SOL    HW111165   3.409   6.017   1.400
 3422SOL    HW211166   3.427   5.866   1.341
 3423SOL     OW11167   2.861   4.345   5.627
 3423SOL    HW111168   2.878   4.443   5.633
 3423SOL    HW211169   2.777   4.329   5.575
 3424SOL     OW11170   5.084   1.126   2.225
 3424SOL    HW111171   5.112   1.100   2.133
 3424SOL    HW211172   5.131   1.211   2.252
 3425SOL     OW11173   6.470   2.941   6.332
 3425SOL    HW111174   6.448   3.011   6.263
 3425SOL    HW211175   6.441   2.851   6.299
 3426SOL     OW11176   6.099   4.800   0.172
 3426SOL    HW111177   6.058   4.827   0.085
 3426SOL    HW211178   6.134   4.707   0.165
 3427SOL     OW11179   1.687   1.528   6.538
 3427SOL    HW111180   1.698   1.480   6.625
 3427SOL    HW211181   1.763   1.504   6.477
 3428SOL     OW11182   4.912   0.381   4.580
 3428SOL    HW111183   4.948   0.419   4.495
 3428SOL    HW211184   4.984   0.329   4.627
 3429SOL     OW11185   4.037   6.736   0.706
 3429SOL    HW111186   3.952   6.721   0.756
 3429SOL    HW211187   4.018   6.736   0.608
 3430SOL     OW11188   2.698   4.352   6.335
 3430SOL    HW111189   2.677   4.352   6.433
 3430SOL    HW211190   2.656   4.272   6.293
 3431SOL     OW11191   0.526   4.688   3.035
 3431SOL    HW111192   0.439   4.675   2.987
 3431SOL    HW211193   0.574   4.766   2.995
 3432SOL     OW11194   0.514   4.877   0.011
 3432SOL    HW111195   0.450   4.847   6.966
 3432SOL    HW211196   0.496   4.827   0.096
 3433SOL     OW11197   0.852   0.891   0.373
 3433SOL    HW111198   0.903   0.805   0.376
 3433SOL    HW211199   0.854   0.933   0.464
 3434SOL     OW11200   3.733   2.663   1.776
 3434SOL    HW111201   3.800   2.726   1.815
 3434SOL    HW211202   3.689   2.611   1.850
 3435SOL     OW11203   1.714   2.403   1.198
 3435SOL    HW111204   1.631   2.347   1.207
 3435SOL    HW211205   1.780   2.354   1.141
 3436SOL     OW11206   3.800   6.489   6.028
 3436SOL    HW111207   3.736   6.564   6.010
 3436SOL    HW211208   3.870   6.487   5.957
 3437SOL     OW11209   1.199   6.471   0.179
 3437SOL    HW111210   1.264   6.457   0.105
 3437SOL    HW211211   1.248   6.487   0.264
 3438SOL     OW11212   2.552   4.381   0.713
 3438SOL    HW111213   2.614   4.322   0.660
 3438SOL    HW211214   2.466   4.332   0.731
 3439SOL     OW11215   3.457   5.971   0.295
 3439SOL    HW111216   3.553   5.949   0.313
 3439SOL    HW211217   3.424   6.032   0.367
 3440SOL     OW11218   3.936   3.804   5.665
 3440SOL    HW111219   3.892   3.887   5.630
 3440SOL    HW211220   3.869   3.730   5.670
 3441SOL     OW11221   6.863   5.044   4.619
 3441SOL    HW111222   6.909   5.131   4.636
 3441SOL    HW211223   6.887   4.978   4.690
 3442SOL     OW11224   1.015   2.693   0.762
 3442SOL    HW111225   0.987   2.783   0.729
 3442SOL    HW211226   1.094   2.661   0.710
 3443SOL     OW11227   0.456   6.190   2.575
 3443SOL    HW111228   0.462   6.206   2.477
 3443SOL    HW211229   0.376   6.133   2.595
 3444SOL     OW11230   0.028   3.666   6.011
 3444SOL    HW111231   0.026   3.580   5.960
 3444SOL    HW211232   6.993   3.659   6.091
 3445SOL     OW11233   6.229   5.028   4.801
 3445SOL    HW111234   6.319   5.069   4.788
 3445SOL    HW211235   6.233   4.931   4.774
 3446SOL     OW11236   4.536   1.610   0.715
 3446SOL    HW111237   4.588   1.525   0.707
 3446SOL    HW211238   4.457   1.595   0.775
 3447SOL     OW11239   4.906   1.596   5.909
 3447SOL    HW111240   4.888   1.562   5.816
 3447SOL    HW211241   4.821   1.597   5.961
 3448SOL     OW11242   0.699   5.350   5.420
 3448SOL    HW111243   0.773   5.321   5.480
 3448SOL    HW211244   0.698   5.293   5.338
 3449SOL     OW11245   0.865   3.593   5.581
 3449SOL    HW111246   0.900   3.673   5.531
 3449SOL    HW211247   0.766   3.601   5.591
 3450SOL     OW11248   2.862   6.847   2.113
 3450SOL    HW111249   2.806   6.907   2.169
 3450SOL    HW211250   2.805   6.773   2.076
 3451SOL     OW11251   2.206   2.392   0.999
 3451SOL    HW111252   2.128   2.369   1.056
 3451SOL    HW211253   2.217   2.492   0.995
 3452SOL     OW11254   4.368   1.495   5.973
 3452SOL    HW111255   4.382   1.576   5.916
 3452SOL    HW211256   4.457   1.456   5.997
 3453SOL     OW11257   4.405   6.152   6.201
 3453SOL    HW111258   4.501   6.146   6.228
 3453SOL    HW211259   4.372   6.245   6.216
 3454SOL     OW11260   0.932   3.509   2.414
 3454SOL    HW111261   0.875   3.560   2.350
 3454SOL    HW211262   0.885   3.499   2.501
 3455SOL     OW11263   0.959   3.682   6.475
 3455SOL    HW111264   0.929   3.755   6.413
 3455SOL    HW211265   0.907   3.599   6.456
 3456SOL     OW11266   4.355   5.674   3.268
 3456SOL    HW111267   4.284   5.604   3.275
 3456SOL    HW211268   4.404   5.663   3.182
 3457SOL     OW11269   4.198   4.604   0.641
 3457SOL    HW111270   4.103   4.621   0.615
 3457SOL    HW211271   4.209   4.508   0.668
 3458SOL     OW11272   4.584   1.591   1.637
 3458SOL    HW111273   4.663   1.556   1.687
 3458SOL    HW211274   4.567   1.686   1.664
 3459SOL     OW11275   6.137   6.225   2.143
 3459SOL    HW111276   6.158   6.319   2.171
 3459SOL    HW211277   6.059   6.225   2.080
 3460SOL     OW11278   3.492   1.937   5.363
 3460SOL    HW111279   3.429   1.914   5.289
 3460SOL    HW211280   3.553   2.010   5.334
 3461SOL     OW11281   4.790   4.980   3.811
 3461SOL    HW111282   4.815   5.060   3.865
 3461SOL    HW211283   4.733   4.919   3.867
 3462SOL     OW11284   0.815   4.440   6.603
 3462SOL    HW111285   0.775   4.530   6.620
 3462SOL    HW211286   0.807   4.418   6.505
 3463SOL     OW11287   5.703   3.675   0.005
 3463SOL    HW111288   5.660   3.605   6.973
 3463SOL    HW211289   5.633   3.716   0.065
 3464SOL     OW11290   0.068   4.532   3.525
 3464SOL    HW111291   0.004   4.588   3.579
 3464SOL    HW211292   0.161   4.549   3.556
 3465SOL     OW11293   0.593   2.840   2.550
 3465SOL    HW111294   0.684   2.854   2.590
 3465SOL    HW211295   0.547   2.928   2.538
 3466SOL     OW11296   6.405   3.493   3.797
 3466SOL    HW111297   6.418   3.535   3.707
 3466SOL    HW211298   6.432   3.397   3.793
 3467SOL     OW11299   1.717   2.447   6.094
 3467SOL    HW111300   1.646   2.406   6.151
 3467SOL    HW211301   1.680   2.468   6.003
 3468SOL     OW11302   4.925   6.199   1.995
 3468SOL    HW111303   4.873   6.114   1.992
 3468SOL    HW211304   4.990   6.202   1.919
 3469SOL     OW11305   5.515   4.110   0.453
 3469SOL    HW111306   5.546   4.179   0.387
 3469SOL    HW211307   5.430   4.068   0.421
 3470SOL     OW11308   6.403   4.951   1.412
 3470SOL    HW111309   6.494   4.976   1.445
 3470SOL    HW211310   6.343   5.030   1.417
 3471SOL     OW11311   4.404   6.847   4.401
 3471SOL    HW111312   4.412   6.812   4.495
 3471SOL    HW211313   4.318   6.898   4.392
 3472SOL     OW11314   3.911   1.170   4.964
 3472SOL    HW111315   3.973   1.215   4.899
 3472SOL    HW211316   3.916   1.071   4.950
 3473SOL     OW11317   4.604   0.306   4.036
 3473SOL    HW111318   4.682   0.248   4.061
 3473SOL    HW211319   4.522   0.271   4.081
 3474SOL     OW11320   4.894   4.088   0.419
 3474SOL    HW111321   4.941   4.024   0.358
 3474SOL    HW211322   4.795   4.072   0.415
 3475SOL     OW11323   1.722   5.641   5.049
 3475SOL    HW111324   1.684   5.565   5.102
 3475SOL    HW211325   1.759   5.607   4.963
 3476SOL     OW11326   4.223   1.958   4.491
 3476SOL    HW111327   4.196   2.028   4.557
 3476SOL    HW211328   4.144   1.901   4.468
 3477SOL     OW11329   4.501   5.337   1.807
 3477SOL    HW111330   4.523   5.434   1.814
 3477SOL    HW211331   4.583   5.283   1.824
 3478SOL     OW11332   4.362   3.916   0.321
 3478SOL    HW111333   4.331   3.821   0.333
 3478SOL    HW211334   4.293   3.967   0.270
 3479SOL     OW11335   1.516   0.266   0.726
 3479SOL    HW111336   1.554   0.347   0.681
 3479SOL    HW211337   1.500   0.285   0.822
 3480SOL     OW11338   1.286   0.114   4.207
 3480SOL    HW111339   1.324   0.028   4.242
 3480SOL    HW211340   1.187   0.104   4.197
 3481SOL     OW11341   2.054   6.186   6.675
 3481SOL    HW111342   2.004   6.119   6.621
 3481SOL    HW211343   2.029   6.177   6.771
 3482SOL     OW11344   0.746   2.270   1.957
 3482SOL    HW111345   0.654   2.308   1.961
 3482SOL    HW211346   0.740   2.170   1.958
 3483SOL     OW11347   3.701   1.547   0.375
 3483SOL    HW111348   3.607   1.535   0.343
 3483SOL    HW211349   3.744   1.457   0.386
 3484SOL     OW11350   3.941   3.929   3.735
 3484SOL    HW111351   3.905   3.927   3.828
 3484SOL    HW211352   4.038   3.956   3.737
 3485SOL     OW11353   6.005   1.516   5.075
 3485SOL    HW111354   6.068   1.466   5.134
 3485SOL    HW211355   6.048   1.531   4.986
 3486SOL     OW11356   5.312   0.870   3.092
 3486SOL    HW111357   5.280   0.901   3.182
 3486SOL    HW211358   5.314   0.948   3.029
 3487SOL     OW11359   0.409   0.530   0.436
 3487SOL    HW111360   0.368   0.442   0.462
 3487SOL    HW211361   0.381   0.600   0.501
 3488SOL     OW11362   6.094   4.212   4.227
 3488SOL    HW111363   6.092   4.275   4.150
 3488SOL    HW211364   6.000   4.191   4.255
 3489SOL     OW11365   2.616   5.250   6.780
 3489SOL    HW111366   2.544   5.210   6.836
 3489SOL    HW211367   2.648   5.334   6.822
 3490SOL     OW11368   4.487   3.491   0.776
 3490SOL    HW111369   4.551   3.542   0.833
 3490SOL    HW211370   4.410   3.460   0.831
 3491SOL     OW11371   6.725   3.121   5.748
 3491SOL    HW111372   6.646   3.092   5.694
 3491SOL    HW211373   6.778   3.187   5.696
 3492SOL     OW11374   6.070   4.862   6.918
 3492SOL    HW111375   6.054   4.797   6.844
 3492SOL    HW211376   6.168   4.881   6.925
 3493SOL     OW11377   0.073   4.831   1.987
 3493SOL    HW111378   0.007   4.903   1.968
 3493SOL    HW211379   0.165   4.864   1.967
 3494SOL     OW11380   2.942   6.528   1.356
 3494SOL    HW111381   2.980   6.442   1.392
 3494SOL    HW211382   2.945   6.527   1.256
 3495SOL     OW11383   5.713   4.159   6.703
 3495SOL    HW111384   5.711   4.127   6.798
 3495SOL    HW211385   5.791   4.220   6.690
 3496SOL     OW11386   0.703   4.883   0.764
 3496SOL    HW111387   0.705   4.821   0.685
 3496SOL    HW211388   0.792   4.882   0.809
 3497SOL     OW11389   4.481   0.140   4.554
 3497SOL    HW111390   4.552   0.163   4.620
 3497SOL    HW211391   4.496   0.048   4.519
 3498SOL     OW11392   1.055   1.789   0.540
 3498SOL    HW111393   1.022   1.877   0.573
 3498SOL    HW211394   1.009   1.715   0.590
 3499SOL     OW11395   0.095   4.311   4.577
 3499SOL    HW111396   0.171   4.360   4.534
 3499SOL    HW211397   0.027   4.288   4.507
 3500SOL     OW11398   5.697   3.082   0.723
 3500SOL    HW111399   5.757   3.006   0.698
 3500SOL    HW211400   5.630   3.097   0.651
 3501SOL     OW11401   0.493   4.992   3.177
 3501SOL    HW111402   0.429   5.031   3.110
 3501SOL    HW211403   0.458   4.904   3.208
 3502SOL     OW11404   0.771   5.059   1.730
 3502SOL    HW111405   0.764   5.157   1.743
 3502SOL    HW211406   0.686   5.025   1.689
 3503SOL     OW11407   3.412   7.002   3.277
 3503SOL    HW111408   3.424   6.955   3.364
 3503SOL    HW211409   3.381   6.937   3.207
 3504SOL     OW11410   1.971   2.864   2.882
 3504SOL    HW111411   2.039   2.922   2.837
 3504SOL    HW211412   2.018   2.798   2.941
 3505SOL     OW11413   4.859   6.826   5.072
 3505SOL    HW111414   4.874   6.750   5.135
 3505SOL    HW211415   4.910   6.808   4.987
 3506SOL     OW11416   6.187   4.968   2.113
 3506SOL    HW111417   6.116   4.899   2.106
 3506SOL    HW211418   6.158   5.051   2.065
 3507SOL     OW11419   6.700   0.293   5.927
 3507SOL    HW111420   6.627   0.337   5.980
 3507SOL    HW211421   6.673   0.200   5.905
 3508SOL     OW11422   6.470   4.285   0.297
 3508SOL    HW111423   6.533   4.330   0.360
 3508SOL    HW211424   6.398   4.240   0.349
 3509SOL     OW11425   5.858   0.153   6.740
 3509SOL    HW111426   5.763   0.164   6.710
 3509SOL    HW211427   5.885   0.232   6.795
 3510SOL     OW11428   1.573   1.955   2.256
 3510SOL    HW111429   1.601   2.041   2.298
 3510SOL    HW211430   1.523   1.901   2.323
 3511SOL     OW11431   0.681   1.035   4.619
 3511SOL    HW111432   0.632   1.105   4.671
 3511SOL    HW211433   0.615   0.980   4.567
 3512SOL     OW11434   3.711   3.101   1.282
 3512SOL    HW111435   3.615   3.128   1.287
 3512SOL    HW211436   3.726   3.019   1.338
 3513SOL     OW11437   5.558   4.145   0.944
 3513SOL    HW111438   5.586   4.123   0.851
 3513SOL    HW211439   5.507   4.232   0.944
 3514SOL     OW11440   2.293   6.645   2.023
 3514SOL    HW111441   2.315   6.615   1.930
 3514SOL    HW211442   2.253   6.569   2.074
 3515SOL     OW11443   4.093   6.246   3.047
 3515SOL    HW111444   4.163   6.280   2.985
 3515SOL    HW211445   4.100   6.294   3.135
 3516SOL     OW11446   2.032   1.361   0.165
 3516SOL    HW111447   2.119   1.393   0.203
 3516SOL    HW211448   2.048   1.279   0.110
 3517SOL     OW11449   0.358   0.583   6.467
 3517SOL    HW111450   0.309   0.649   6.411
 3517SOL    HW211451   0.298   0.506   6.489
 3518SOL     OW11452   4.177   3.584   6.035
 3518SOL    HW111453   4.164   3.573   5.936
 3518SOL    HW211454   4.244   3.657   6.052
 3519SOL     OW11455   3.398   6.822   0.237
 3519SOL    HW111456   3.330   6.873   0.290
 3519SOL    HW211457   3.381   6.724   0.247
 3520SOL     OW11458   3.458   5.432   1.268
 3520SOL    HW111459   3.483   5.417   1.172
 3520SOL    HW211460   3.359   5.423   1.279
 3521SOL     OW11461   6.654   2.467   6.371
 3521SOL    HW111462   6.701   2.515   6.444
 3521SOL    HW211463   6.718   2.407   6.323
 3522SOL     OW11464   2.634   0.668   0.576
 3522SOL    HW111465   2.629   0.677   0.477
 3522SOL    HW211466   2.618   0.573   0.602
 3523SOL     OW11467   2.636   4.475   5.312
 3523SOL    HW111468   2.659   4.388   5.355
 3523SOL    HW211469   2.704   4.496   5.242
 3524SOL     OW11470   2.299   0.715   2.617
 3524SOL    HW111471   2.269   0.790   2.557
 3524SOL    HW211472   2.219   0.662   2.645
 3525SOL     OW11473   1.348   3.553   2.708
 3525SOL    HW111474   1.441   3.522   2.688
 3525SOL    HW211475   1.293   3.548   2.625
 3526SOL     OW11476   3.709   6.555   3.531
 3526SOL    HW111477   3.734   6.465   3.567
 3526SOL    HW211478   3.754   6.626   3.585
 3527SOL     OW11479   5.458   3.497   6.540
 3527SOL    HW111480   5.503   3.471   6.454
 3527SOL    HW211481   5.521   3.551   6.595
 3528SOL     OW11482   1.816   6.372   4.755
 3528SOL    HW111483   1.764   6.424   4.824
 3528SOL    HW211484   1.886   6.317   4.801
 3529SOL     OW11485   3.841   5.978   0.059
 3529SOL    HW111486   3.918   5.919   0.083
 3529SOL    HW211487   3.808   6.025   0.140
 3530SOL     OW11488   1.777   6.474   2.997
 3530SOL    HW111489   1.766   6.481   2.898
 3530SOL    HW211490   1.871   6.448   3.019
 3531SOL     OW11491   5.091   4.464   6.902
 3531SOL    HW111492   5.005   4.454   6.953
 3531SOL    HW211493   5.129   4.374   6.883
 3532SOL     OW11494   2.359   6.529   0.687
 3532SOL    HW111495   2.276   6.580   0.665
 3532SOL    HW211496   2.415   6.520   0.604
 3533SOL     OW11497   1.591   0.791   3.735
 3533SOL    HW111498   1.578   0.735   3.817
 3533SOL    HW211499   1.509   0.845   3.718
 3534SOL     OW11500   5.289   0.642   5.156
 3534SOL    HW111501   5.318   0.633   5.251
 3534SOL    HW211502   5.220   0.572   5.135
 3535SOL     OW11503   5.095   6.501   0.032
 3535SOL    HW111504   5.091   6.512   0.132
 3535SOL    HW211505   5.128   6.409   0.010
 3536SOL     OW11506   0.850   3.497   2.714
 3536SOL    HW111507   0.942   3.524   2.740
 3536SOL    HW211508   0.803   3.458   2.793
 3537SOL     OW11509   2.836   4.817   1.471
 3537SOL    HW111510   2.902   4.892   1.462
 3537SOL    HW211511   2.869   4.751   1.538
 3538SOL     OW11512   3.869   0.946   3.682
 3538SOL    HW111513   3.862   0.856   3.725
 3538SOL    HW211514   3.827   0.943   3.591
 3539SOL     OW11515   4.811   5.563   5.940
 3539SOL    HW111516   4.733   5.624   5.955
 3539SOL    HW211517   4.843   5.570   5.846
 3540SOL     OW11518   3.504   4.355   6.202
 3540SOL    HW111519   3.468   4.330   6.112
 3540SOL    HW211520   3.501   4.454   6.212
 3541SOL     OW11521   1.521   2.494   2.016
 3541SOL    HW111522   1.440   2.442   2.044
 3541SOL    HW211523   1.515   2.587   2.053
 3542SOL     OW11524   5.973   1.705   0.116
 3542SOL    HW111525   6.066   1.700   0.152
 3542SOL    HW211526   5.925   1.619   0.133
 3543SOL     OW11527   0.633   2.194   3.620
 3543SOL    HW111528   0.617   2.187   3.521
 3543SOL    HW211529   0.672   2.283   3.641
 3544SOL     OW11530   2.791   4.267   0.494
 3544SOL    HW111531   2.818   4.214   0.575
 3544SOL    HW211532   2.759   4.205   0.423
 3545SOL     OW11533   3.788   6.558   0.540
 3545SOL    HW111534   3.840   6.630   0.494
 3545SOL    HW211535   3.725   6.516   0.475
 3546SOL     OW11536   6.618   4.899   1.153
 3546SOL    HW111537   6.715   4.884   1.169
 3546SOL    HW211538   6.601   4.997   1.141
 3547SOL     OW11539   1.112   4.105   4.950
 3547SOL    HW111540   1.030   4.068   4.907
 3547SOL    HW211541   1.136   4.049   5.029
 3548SOL     OW11542   6.365   0.219   6.250
 3548SOL    HW111543   6.436   0.150   6.240
 3548SOL    HW211544   6.309   0.200   6.330
 3549SOL     OW11545   2.188   6.524   6.787
 3549SOL    HW111546   2.136   6.521   6.701
 3549SOL    HW211547   2.266   6.586   6.777
 3550SOL     OW11548   5.656   1.388   5.789
 3550SOL    HW111549   5.679   1.480   5.757
 3550SOL    HW211550   5.573   1.391   5.844
 3551SOL     OW11551   5.555   1.739   5.081
 3551SOL    HW111552   5.510   1.747   5.170
 3551SOL    HW211553   5.654   1.736   5.094
 3552SOL     OW11554   6.819   6.826   3.221
 3552SOL    HW111555   6.841   6.739   3.176
 3552SOL    HW211556   6.789   6.809   3.314
 3553SOL     OW11557   6.306   5.823   6.346
 3553SOL    HW111558   6.353   5.764   6.281
 3553SOL    HW211559   6.269   5.903   6.298
 3554SOL     OW11560   4.655   4.303   6.768
 3554SOL    HW111561   4.589   4.229   6.782
 3554SOL    HW211562   4.738   4.265   6.727
 3555SOL     OW11563   2.538   1.834   5.308
 3555SOL    HW111564   2.638   1.831   5.313
 3555SOL    HW211565   2.505   1.765   5.243
 3556SOL     OW11566   5.866   1.239   0.242
 3556SOL    HW111567   5.900   1.188   0.321
 3556SOL    HW211568   5.811   1.316   0.273
 3557SOL     OW11569   5.494   6.596   1.867
 3557SOL    HW111570   5.475   6.683   1.913
 3557SOL    HW211571   5.408   6.555   1.839
 3558SOL     OW11572   3.360   5.571   2.116
 3558SOL    HW111573   3.334   5.645   2.054
 3558SOL    HW211574   3.396   5.609   2.201
 3559SOL     OW11575   3.909   6.391   6.397
 3559SOL    HW111576   3.877   6.318   6.458
 3559SOL    HW211577   3.830   6.435   6.355
 3560SOL     OW11578   2.279   5.461   4.436
 3560SOL    HW111579   2.364   5.462   4.383
 3560SOL    HW211580   2.294   5.415   4.523
 3561SOL     OW11581   4.686   3.430   5.360
 3561SOL    HW111582   4.681   3.508   5.298
 3561SOL    HW211583   4.615   3.439   5.430
 3562SOL     OW11584   2.692   1.371   0.506
 3562SOL    HW111585   2.786   1.352   0.536
 3562SOL    HW211586   2.680   1.339   0.412
 3563SOL     OW11587   0.181   2.379   6.721
 3563SOL    HW111588   0.217   2.295   6.680
 3563SOL    HW211589   0.230   2.397   6.807
 3564SOL     OW11590   6.281   3.532   2.689
 3564SOL    HW111591   6.232   3.456   2.735
 3564SOL    HW211592   6.379   3.516   2.694
 3565SOL     OW11593   5.110   6.676   5.676
 3565SOL    HW111594   5.186   6.647   5.735
 3565SOL    HW211595   5.067   6.595   5.636
 3566SOL     OW11596   1.386   1.245   5.542
 3566SOL    HW111597   1.305   1.220   5.489
 3566SOL    HW211598   1.437   1.163   5.567
 3567SOL     OW11599   6.734   3.909   6.993
 3567SOL    HW111600   6.660   3.972   7.019
 3567SOL    HW211601   6.822   3.949   7.018
 3568SOL     OW11602   4.517   3.287   5.597
 3568SOL    HW111603   4.601   3.252   5.637
 3568SOL    HW211604   4.444   3.219   5.607
 3569SOL     OW11605   1.771   0.529   3.603
 3569SOL    HW111606   1.742   0.534   3.699
 3569SOL    HW211607   1.837   0.454   3.592
 3570SOL     OW11608   6.260   1.527   4.496
 3570SOL    HW111609   6.231   1.491   4.585
 3570SOL    HW211610   6.179   1.550   4.442
 3571SOL     OW11611   6.560   5.399   4.648
 3571SOL    HW111612   6.561   5.493   4.612
 3571SOL    HW211613   6.624   5.391   4.724
 3572SOL     OW11614   6.335   6.320   5.529
 3572SOL    HW111615   6.316   6.409   5.488
 3572SOL    HW211616   6.407   6.274   5.476
 3573SOL     OW11617   0.203   1.789   1.491
 3573SOL    HW111618   0.156   1.875   1.514
 3573SOL    HW211619   0.301   1.805   1.485
 3574SOL     OW11620   6.036   3.877   0.581
 3574SOL    HW111621   6.061   3.801   0.641
 3574SOL    HW211622   5.995   3.950   0.635
 3575SOL     OW11623   6.309   6.477   2.190
 3575SOL    HW111624   6.306   6.454   2.093
 3575SOL    HW211625   6.344   6.570   2.201
 3576SOL     OW11626   6.410   0.723   6.818
 3576SOL    HW111627   6.471   0.739   6.896
 3576SOL    HW211628   6.327   0.677   6.849
 3577SOL     OW11629   3.043   3.812   0.423
 3577SOL    HW111630   3.062   3.880   0.495
 3577SOL    HW211631   3.069   3.849   0.334
 3578SOL     OW11632   3.534   4.441   1.623
 3578SOL    HW111633   3.572   4.515   1.679
 3578SOL    HW211634   3.451   4.474   1.577
 3579SOL     OW11635   1.848   4.205   5.379
 3579SOL    HW111636   1.909   4.244   5.310
 3579SOL    HW211637   1.903   4.163   5.452
 3580SOL     OW11638   6.676   3.211   0.944
 3580SOL    HW111639   6.708   3.141   1.007
 3580SOL    HW211640   6.606   3.266   0.989
 3581SOL     OW11641   6.066   1.146   3.716
 3581SOL    HW111642   6.076   1.091   3.633
 3581SOL    HW211643   6.018   1.092   3.785
 3582SOL     OW11644   0.159   0.184   5.097
 3582SOL    HW111645   0.145   0.267   5.151
 3582SOL    HW211646   0.201   0.114   5.154
 3583SOL     OW11647   1.475   5.217   1.543
 3583SOL    HW111648   1.459   5.124   1.512
 3583SOL    HW211649   1.390   5.270   1.534
 3584SOL     OW11650   5.902   0.131   5.476
 3584SOL    HW111651   5.867   0.165   5.563
 3584SOL    HW211652   5.881   0.197   5.403
 3585SOL     OW11653   2.231   4.772   3.375
 3585SOL    HW111654   2.133   4.782   3.359
 3585SOL    HW211655   2.272   4.862   3.387
 3586SOL     OW11656   1.038   0.631   5.918
 3586SOL    HW111657   0.964   0.688   5.953
 3586SOL    HW211658   1.103   0.612   5.991
 3587SOL     OW11659   3.701   6.190   6.540
 3587SOL    HW111660   3.606   6.163   6.552
 3587SOL    HW211661   3.745   6.127   6.475
 3588SOL     OW11662   1.635   1.896   5.320
 3588SOL    HW111663   1.547   1.932   5.290
 3588SOL    HW211664   1.709   1.947   5.276
 3589SOL     OW11665   3.676   0.490   4.679
 3589SOL    HW111666   3.767   0.468   4.643
 3589SOL    HW211667   3.621   0.407   4.685
 3590SOL     OW11668   1.557   5.190   6.855
 3590SOL    HW111669   1.507   5.194   6.942
 3590SOL    HW211670   1.562   5.095   6.824
 3591SOL     OW11671   5.390   2.182   5.177
 3591SOL    HW111672   5.388   2.167   5.276
 3591SOL    HW211673   5.448   2.262   5.157
 3592SOL     OW11674   5.176   2.435   1.963
 3592SOL    HW111675   5.127   2.390   1.888
 3592SOL    HW211676   5.110   2.466   2.032
 3593SOL     OW11677   1.338   5.362   4.133
 3593SOL    HW111678   1.318   5.328   4.041
 3593SOL    HW211679   1.419   5.315   4.169
 3594SOL     OW11680   3.907   1.892   4.519
 3594SOL    HW111681   3.836   1.825   4.541
 3594SOL    HW211682   3.949   1.868   4.432
 3595SOL     OW11683   2.296   6.714   5.921
 3595SOL    HW111684   2.394   6.700   5.908
 3595SOL    HW211685   2.248   6.626   5.910
 3596SOL     OW11686   0.321   3.918   3.801
 3596SOL    HW111687   0.277   3.958   3.720
 3596SOL    HW211688   0.275   3.950   3.884
 3597SOL     OW11689   3.585   0.239   3.815
 3597SOL    HW111690   3.488   0.244   3.840
 3597SOL    HW211691   3.593   0.218   3.717
 3598SOL     OW11692   1.446   0.560   0.034
 3598SOL    HW111693   1.500   0.482   0.065
 3598SOL    HW211694   1.468   0.640   0.091
 3599SOL     OW11695   6.920   1.789   4.509
 3599SOL    HW111696   6.913   1.818   4.604
 3599SOL    HW211697   6.844   1.828   4.457
 3600SOL     OW11698   6.805   0.263   1.424
 3600SOL    HW111699   6.858   0.180   1.409
 3600SOL    HW211700   6.792   0.310   1.337
 3601SOL     OW11701   6.396   3.657   5.469
 3601SOL    HW111702   6.300   3.674   5.445
 3601SOL    HW211703   6.400   3.606   5.555
 3602SOL     OW11704   2.796   1.620   1.067
 3602SOL    HW111705   2.826   1.633   0.973
 3602SOL    HW211706   2.807   1.705   1.118
 3603SOL     OW11707   4.186   5.532   4.410
 3603SOL    HW111708   4.158   5.612   4.358
 3603SOL    HW211709   4.143   5.535   4.501
 3604SOL     OW11710   6.558   3.853   3.594
 3604SOL    HW111711   6.580   3.809   3.507
 3604SOL    HW211712   6.509   3.939   3.576
 3605SOL     OW11713   6.177   2.717   6.556
 3605SOL    HW111714   6.248   2.648   6.572
 3605SOL    HW211715   6.169   2.733   6.457
 3606SOL     OW11716   1.468   4.253   3.172
 3606SOL    HW111717   1.497   4.158   3.187
 3606SOL    HW211718   1.538   4.315   3.207
 3607SOL     OW11719   4.354   6.980   6.990
 3607SOL    HW111720   4.279   6.961   6.926
 3607SOL    HW211721   4.320   6.982   0.058
 3608SOL     OW11722   0.491   3.080   2.941
 3608SOL    HW111723   0.455   3.171   2.961
 3608SOL    HW211724   0.427   3.011   2.976
 3609SOL     OW11725   6.392   0.160   4.741
 3609SOL    HW111726   6.424   0.195   4.652
 3609SOL    HW211727   6.299   0.192   4.757
 3610SOL     OW11728   1.866   5.597   5.488
 3610SOL    HW111729   1.926   5.632   5.415
 3610SOL    HW211730   1.842   5.502   5.469
 3611SOL     OW11731   4.585   5.238   5.992
 3611SOL    HW111732   4.536   5.317   5.954
 3611SOL    HW211733   4.676   5.233   5.952
 3612SOL     OW11734   2.219   6.302   1.521
 3612SOL    HW111735   2.260   6.293   1.612
 3612SOL    HW211736   2.122   6.324   1.530
 3613SOL     OW11737   5.136   4.994   6.313
 3613SOL    HW111738   5.060   5.001   6.377
 3613SOL    HW211739   5.102   4.967   6.222
 3614SOL     OW11740   3.849   3.624   4.692
 3614SOL    HW111741   3.768   3.566   4.703
 3614SOL    HW211742   3.881   3.653   4.782
 3615SOL     OW11743   5.926   6.343   6.003
 3615SOL    HW111744   5.861   6.325   5.929
 3615SOL    HW211745   5.994   6.269   6.007
 3616SOL     OW11746   5.965   0.738   4.910
 3616SOL    HW111747   5.998   0.644   4.921
 3616SOL    HW211748   5.888   0.739   4.847
 3617SOL     OW11749   6.662   0.738   0.256
 3617SOL    HW111750   6.721   0.784   0.189
 3617SOL    HW211751   6.614   0.806   0.310
 3618SOL     OW11752   2.955   0.008   6.590
 3618SOL    HW111753   2.879   0.069   6.569
 3618SOL    HW211754   3.042   0.058   6.584
 3619SOL     OW11755   5.049   4.344   4.153
 3619SOL    HW111756   5.128   4.397   4.123
 3619SOL    HW211757   5.057   4.324   4.250
 3620SOL     OW11758   6.084   1.555   4.826
 3620SOL    HW111759   6.178   1.580   4.803
 3620SOL    HW211760   6.023   1.590   4.755
 3621SOL     OW11761   1.452   3.557   5.888
 3621SOL    HW111762   1.472   3.468   5.930
 3621SOL    HW211763   1.384   3.545   5.816
 3622SOL     OW11764   0.586   3.515   1.094
 3622SOL    HW111765   0.497   3.513   1.048
 3622SOL    HW211766   0.587   3.591   1.160
 3623SOL     OW11767   6.924   5.247   3.777
 3623SOL    HW111768   6.861   5.172   3.795
 3623SOL    HW211769   6.899   5.292   3.691
 3624SOL     OW11770   1.633   1.295   1.832
 3624SOL    HW111771   1.560   1.241   1.791
 3624SOL    HW211772   1.656   1.372   1.772
 3625SOL     OW11773   0.629   3.458   4.358
 3625SOL    HW111774   0.700   3.490   4.296
 3625SOL    HW211775   0.587   3.375   4.321
 3626SOL     OW11776   2.743   3.917   5.215
 3626SOL    HW111777   2.653   3.960   5.204
 3626SOL    HW211778   2.734   3.836   5.273
 3627SOL     OW11779   3.290   3.256   3.765
 3627SOL    HW111780   3.209   3.248   3.824
 3627SOL    HW211781   3.265   3.302   3.680
 3628SOL     OW11782   2.939   5.488   3.003
 3628SOL    HW111783   3.010   5.495   2.933
 3628SOL    HW211784   2.978   5.511   3.092
 3629SOL     OW11785   5.454   2.958   5.147
 3629SOL    HW111786   5.414   3.034   5.096
 3629SOL    HW211787   5.422   2.960   5.241
 3630SOL     OW11788   5.607   1.417   4.887
 3630SOL    HW111789   5.614   1.318   4.896
 3630SOL    HW211790   5.654   1.446   4.803
 3631SOL     OW11791   2.023   0.634   3.732
 3631SOL    HW111792   2.076   0.564   3.780
 3631SOL    HW211793   1.940   0.593   3.694
 3632SOL     OW11794   3.791   6.918   6.314
 3632SOL    HW111795   3.769   6.854   6.387
 3632SOL    HW211796   3.871   6.886   6.263
 3633SOL     OW11797   1.477   3.270   5.746
 3633SOL    HW111798   1.551   3.205   5.763
 3633SOL    HW211799   1.402   3.224   5.698
 3634SOL     OW11800   3.118   6.059   6.079
 3634SOL    HW111801   3.210   6.028   6.056
 3634SOL    HW211802   3.061   5.979   6.101
 3635SOL     OW11803   1.689   1.343   4.923
 3635SOL    HW111804   1.776   1.293   4.928
 3635SOL    HW211805   1.678   1.398   5.005
 3636SOL     OW11806   1.545   5.774   6.677
 3636SOL    HW111807   1.448   5.778   6.652
 3636SOL    HW211808   1.601   5.775   6.595
 3637SOL     OW11809   5.290   1.589   1.691
 3637SOL    HW111810   5.278   1.689   1.689
 3637SOL    HW211811   5.309   1.560   1.785
 3638SOL     OW11812   6.012   4.677   3.185
 3638SOL    HW111813   6.063   4.623   3.119
 3638SOL    HW211814   6.054   4.768   3.194
 3639SOL     OW11815   2.772   5.740   6.683
 3639SOL    HW111816   2.703   5.786   6.739
 3639SOL    HW211817   2.841   5.699   6.743
 3640SOL     OW11818   3.047   6.659   1.604
 3640SOL    HW111819   2.980   6.587   1.586
 3640SOL    HW211820   3.031   6.697   1.695
 3641SOL     OW11821   2.146   0.265   4.596
 3641SOL    HW111822   2.054   0.305   4.588
 3641SOL    HW211823   2.208   0.310   4.532
 3642SOL     OW11824   6.116   6.976   2.450
 3642SOL    HW111825   6.019   6.963   2.430
 3642SOL    HW211826   6.131   0.044   2.483
 3643SOL     OW11827   3.605   5.003   5.945
 3643SOL    HW111828   3.605   4.947   5.861
 3643SOL    HW211829   3.551   5.086   5.929
 3644SOL     OW11830   6.666   0.307   0.301
 3644SOL    HW111831   6.585   0.278   0.351
 3644SOL    HW211832   6.719   0.371   0.358
 3645SOL     OW11833   3.742   6.441   2.593
 3645SOL    HW111834   3.649   6.405   2.597
 3645SOL    HW211835   3.757   6.502   2.671
 3646SOL     OW11836   6.355   5.651   3.891
 3646SOL    HW111837   6.402   5.608   3.814
 3646SOL    HW211838   6.301   5.729   3.857
 3647SOL     OW11839   2.365   2.519   1.642
 3647SOL    HW111840   2.282   2.469   1.670
 3647SOL    HW211841   2.390   2.492   1.549
 3648SOL     OW11842   3.055   5.802   3.392
 3648SOL    HW111843   3.050   5.831   3.487
 3648SOL    HW211844   3.124   5.855   3.344
 3649SOL     OW11845   3.512   3.186   2.499
 3649SOL    HW111846   3.448   3.159   2.426
 3649SOL    HW211847   3.569   3.108   2.523
 3650SOL     OW11848   5.600   6.640   1.490
 3650SOL    HW111849   5.634   6.551   1.520
 3650SOL    HW211850   5.500   6.637   1.486
 3651SOL     OW11851   1.111   6.227   2.169
 3651SOL    HW111852   1.118   6.207   2.071
 3651SOL    HW211853   1.151   6.151   2.221
 3652SOL     OW11854   4.468   5.236   2.513
 3652SOL    HW111855   4.557   5.190   2.510
 3652SOL    HW211856   4.395   5.168   2.500
 3653SOL     OW11857   0.118   2.961   4.533
 3653SOL    HW111858   0.081   3.033   4.591
 3653SOL    HW211859   0.069   2.958   4.446
 3654SOL     OW11860   1.068   5.355   1.316
 3654SOL    HW111861   1.045   5.401   1.230
 3654SOL    HW211862   1.002   5.381   1.386
 3655SOL     OW11863   0.426   0.852   3.708
 3655SOL    HW111864   0.525   0.844   3.708
 3655SOL    HW211865   0.394   0.878   3.799
 3656SOL     OW11866   2.836   1.231   2.797
 3656SOL    HW111867   2.770   1.305   2.789
 3656SOL    HW211868   2.903   1.238   2.723
 3657SOL     OW11869   4.079   4.917   2.024
 3657SOL    HW111870   4.052   4.920   2.121
 3657SOL    HW211871   4.158   4.857   2.013
 3658SOL     OW11872   2.057   5.500   5.721
 3658SOL    HW111873   2.049   5.403   5.698
 3658SOL    HW211874   1.970   5.535   5.755
 3659SOL     OW11875   1.027   4.306   0.256
 3659SOL    HW111876   1.048   4.249   0.336
 3659SOL    HW211877   1.113   4.335   0.213
 3660SOL     OW11878   4.610   5.329   1.154
 3660SOL    HW111879   4.645   5.236   1.141
 3660SOL    HW211880   4.511   5.330   1.137
 3661SOL     OW11881   4.790   1.752   0.982
 3661SOL    HW111882   4.782   1.659   0.946
 3661SOL    HW211883   4.706   1.803   0.963
 3662SOL     OW11884   2.821   6.251   4.946
 3662SOL    HW111885   2.839   6.312   5.023
 3662SOL    HW211886   2.907   6.220   4.907
 3663SOL     OW11887   1.204   3.827   6.454
 3663SOL    HW111888   1.269   3.753   6.468
 3663SOL    HW211889   1.112   3.790   6.447
 3664SOL     OW11890   4.268   0.471   0.868
 3664SOL    HW111891   4.198   0.517   0.813
 3664SOL    HW211892   4.224   0.408   0.932
 3665SOL     OW11893   1.385   6.482   5.515
 3665SOL    HW111894   1.310   6.418   5.500
 3665SOL    HW211895   1.394   6.542   5.435
 3666SOL     OW11896   0.969   4.711   4.197
 3666SOL    HW111897   0.898   4.646   4.171
 3666SOL    HW211898   0.961   4.793   4.140
 3667SOL     OW11899   0.118   1.616   6.616
 3667SOL    HW111900   0.171   1.693   6.653
 3667SOL    HW211901   0.125   1.617   6.516
 3668SOL     OW11902   1.781   6.048   2.085
 3668SOL    HW111903   1.691   6.087   2.104
 3668SOL    HW211904   1.797   5.970   2.145
 3669SOL     OW11905   5.957   1.929   3.609
 3669SOL    HW111906   5.922   1.958   3.698
 3669SOL    HW211907   6.030   1.862   3.622
 3670SOL     OW11908   2.099   5.336   6.285
 3670SOL    HW111909   2.010   5.343   6.330
 3670SOL    HW211910   2.105   5.405   6.213
 3671SOL     OW11911   1.520   0.985   2.722
 3671SOL    HW111912   1.552   0.900   2.680
 3671SOL    HW211913   1.422   0.997   2.703
 3672SOL     OW11914   6.767   7.023   0.539
 3672SOL    HW111915   6.856   0.038   0.560
 3672SOL    HW211916   6.736   0.029   0.449
 3673SOL     OW11917   4.102   0.524   6.632
 3673SOL    HW111918   4.177   0.584   6.659
 3673SOL    HW211919   4.068   0.551   6.542
 3674SOL     OW11920   1.673   6.381   0.808
 3674SOL    HW111921   1.765   6.416   0.825
 3674SOL    HW211922   1.668   6.344   0.715
 3675SOL     OW11923   1.636   1.641   4.659
 3675SOL    HW111924   1.642   1.614   4.563
 3675SOL    HW211925   1.575   1.579   4.708
 3676SOL     OW11926   2.028   5.074   2.907
 3676SOL    HW111927   2.090   5.152   2.921
 3676SOL    HW211928   1.934   5.107   2.897
 3677SOL     OW11929   6.567   6.748   3.685
 3677SOL    HW111930   6.492   6.781   3.742
 3677SOL    HW211931   6.642   6.717   3.743
 3678SOL     OW11932   1.099   1.398   3.382
 3678SOL    HW111933   1.014   1.429   3.338
 3678SOL    HW211934   1.097   1.423   3.479
 3679SOL     OW11935   0.206   0.854   1.431
 3679SOL    HW111936   0.243   0.770   1.392
 3679SOL    HW211937   0.223   0.930   1.368
 3680SOL     OW11938   6.778   4.069   4.581
 3680SOL    HW111939   6.695   4.018   4.558
 3680SOL    HW211940   6.849   4.006   4.612
 3681SOL     OW11941   5.445   6.272   4.950
 3681SOL    HW111942   5.349   6.274   4.976
 3681SOL    HW211943   5.494   6.209   5.009
 3682SOL     OW11944   0.336   2.151   6.297
 3682SOL    HW111945   0.373   2.225   6.240
 3682SOL    HW211946   0.389   2.143   6.381
 3683SOL     OW11947   5.152   5.993   3.554
 3683SOL    HW111948   5.227   5.951   3.605
 3683SOL    HW211949   5.177   5.999   3.458
 3684SOL     OW11950   1.904   2.823   0.536
 3684SOL    HW111951   1.852   2.745   0.570
 3684SOL    HW211952   1.875   2.906   0.583
 3685SOL     OW11953   6.511   6.672   6.424
 3685SOL    HW111954   6.589   6.616   6.395
 3685SOL    HW211955   6.509   6.678   6.524
 3686SOL     OW11956   5.737   4.405   1.261
 3686SOL    HW111957   5.823   4.445   1.293
 3686SOL    HW211958   5.757   4.332   1.196
 3687SOL     OW11959   2.856   1.076   6.846
 3687SOL    HW111960   2.845   1.128   6.931
 3687SOL    HW211961   2.878   0.980   6.868
 3688SOL     OW11962   7.004   3.470   6.878
 3688SOL    HW111963   0.009   3.402   6.945
 3688SOL    HW211964   0.045   3.475   6.803
 3689SOL     OW11965   2.838   0.459   3.766
 3689SOL    HW111966   2.832   0.430   3.861
 3689SOL    HW211967   2.751   0.441   3.720
 3690SOL     OW11968   4.543   6.574   5.245
 3690SOL    HW111969   4.633   6.576   5.288
 3690SOL    HW211970   4.503   6.483   5.255
 3691SOL     OW11971   3.789   2.920   0.094
 3691SOL    HW111972   3.797   2.838   0.152
 3691SOL    HW211973   3.880   2.959   0.079
 3692SOL     OW11974   1.328   0.058   6.535
 3692SOL    HW111975   1.413   0.044   6.485
 3692SOL    HW211976   1.344   0.120   6.612
 3693SOL     OW11977   2.504   1.802   3.131
 3693SOL    HW111978   2.549   1.886   3.102
 3693SOL    HW211979   2.502   1.737   3.055
 3694SOL     OW11980   2.095   5.925   2.864
 3694SOL    HW111981   2.033   5.999   2.838
 3694SOL    HW211982   2.189   5.960   2.865
 3695SOL     OW11983   1.831   2.764   1.623
 3695SOL    HW111984   1.806   2.697   1.552
 3695SOL    HW211985   1.841   2.717   1.711
 3696SOL     OW11986   2.971   6.181   5.833
 3696SOL    HW111987   3.053   6.137   5.796
 3696SOL    HW211988   2.997   6.240   5.909
 3697SOL     OW11989   5.391   0.128   4.299
 3697SOL    HW111990   5.462   0.119   4.228
 3697SOL    HW211991   5.339   0.043   4.304
 3698SOL     OW11992   2.973   0.366   5.827
 3698SOL    HW111993   2.933   0.427   5.895
 3698SOL    HW211994   2.936   0.273   5.840
 3699SOL     OW11995   1.383   3.778   2.109
 3699SOL    HW111996   1.414   3.829   2.189
 3699SOL    HW211997   1.351   3.687   2.137
 3700SOL     OW11998   0.478   0.328   4.113
 3700SOL    HW111999   0.401   0.381   4.149
 3700SOL    HW212000   0.467   0.316   4.014
 3701SOL     OW12001   5.535   0.540   3.406
 3701SOL    HW112002   5.459   0.558   3.469
 3701SOL    HW212003   5.621   0.573   3.447
 3702SOL     OW12004   4.207   0.877   6.973
 3702SOL    HW112005   4.203   0.801   0.012
 3702SOL    HW212006   4.117   0.887   6.929
 3703SOL     OW12007   4.583   4.385   0.150
 3703SOL    HW112008   4.596   4.317   0.078
 3703SOL    HW212009   4.558   4.473   0.108
 3704SOL     OW12010   2.379   0.217   2.193
 3704SOL    HW112011   2.322   0.157   2.138
 3704SOL    HW212012   2.414   0.292   2.137
 3705SOL     OW12013   5.526   1.266   4.269
 3705SOL    HW112014   5.500   1.271   4.366
 3705SOL    HW212015   5.461   1.209   4.220
 3706SOL     OW12016   2.244   2.079   3.559
 3706SOL    HW112017   2.270   2.092   3.463
 3706SOL    HW212018   2.314   2.025   3.606
 3707SOL     OW12019   4.473   2.508   5.101
 3707SOL    HW112020   4.411   2.556   5.164
 3707SOL    HW212021   4.432   2.422   5.073
 3708SOL     OW12022   6.320   6.955   5.964
 3708SOL    HW112023   6.349   6.942   6.059
 3708SOL    HW212024   6.262   6.879   5.935
 3709SOL     OW12025   4.523   0.242   0.069
 3709SOL    HW112026   4.622   0.239   0.079
 3709SOL    HW212027   4.481   0.169   0.123
 3710SOL     OW12028   0.015   4.953   0.580
 3710SOL    HW112029   6.951   4.909   0.567
 3710SOL    HW212030   0.037   5.009   0.500
 3711SOL     OW12031   6.637   5.105   3.111
 3711SOL    HW112032   6.573   5.051   3.056
 3711SOL    HW212033   6.601   5.113   3.204
 3712SOL     OW12034   1.902   0.147   0.602
 3712SOL    HW112035   1.851   0.089   0.666
 3712SOL    HW212036   1.912   0.239   0.641
 3713SOL     OW12037   4.470   5.887   6.373
 3713SOL    HW112038   4.432   5.951   6.306
 3713SOL    HW212039   4.417   5.893   6.458
 3714SOL     OW12040   3.789   1.280   5.355
 3714SOL    HW112041   3.870   1.263   5.299
 3714SOL    HW212042   3.809   1.258   5.450
 3715SOL     OW12043   5.165   3.874   4.155
 3715SOL    HW112044   5.234   3.853   4.086
 3715SOL    HW212045   5.209   3.911   4.236
 3716SOL     OW12046   0.274   1.654   4.620
 3716SOL    HW112047   0.224   1.580   4.575
 3716SOL    HW212048   0.343   1.616   4.681
 3717SOL     OW12049   5.855   0.093   0.353
 3717SOL    HW112050   5.826   0.173   0.406
 3717SOL    HW212051   5.857   0.116   0.255
 3718SOL     OW12052   0.662   5.200   0.172
 3718SOL    HW112053   0.581   5.147   0.145
 3718SOL    HW212054   0.634   5.292   0.197
 3719SOL     OW12055   3.738   5.137   6.338
 3719SOL    HW112056   3.751   5.039   6.326
 3719SOL    HW212057   3.811   5.187   6.291
 3720SOL     OW12058   0.442   1.707   6.035
 3720SOL    HW112059   0.536   1.672   6.036
 3720SOL    HW212060   0.439   1.799   6.073
 3721SOL     OW12061   4.570   3.246   0.680
 3721SOL    HW112062   4.491   3.191   0.651
 3721SOL    HW212063   4.545   3.342   0.681
 3722SOL     OW12064   6.055   5.960   1.615
 3722SOL    HW112065   6.100   6.032   1.666
 3722SOL    HW212066   6.088   5.871   1.647
 3723SOL     OW12067   4.265   1.304   0.601
 3723SOL    HW112068   4.309   1.343   0.520
 3723SOL    HW212069   4.169   1.331   0.603
 3724SOL     OW12070   0.168   4.894   5.738
 3724SOL    HW112071   0.109   4.827   5.694
 3724SOL    HW212072   0.186   4.969   5.675
 3725SOL     OW12073   6.566   0.286   0.801
 3725SOL    HW112074   6.565   0.361   0.866
 3725SOL    HW212075   6.553   0.199   0.849
 3726SOL     OW12076   5.901   3.289   1.677
 3726SOL    HW112077   5.831   3.268   1.745
 3726SOL    HW212078   5.987   3.310   1.722
 3727SOL     OW12079   2.561   2.847   5.340
 3727SOL    HW112080   2.561   2.765   5.284
 3727SOL    HW212081   2.513   2.920   5.292
 3728SOL     OW12082   0.450   3.323   6.887
 3728SOL    HW112083   0.504   3.403   6.860
 3728SOL    HW212084   0.388   3.299   6.813
 3729SOL     OW12085   0.232   2.736   3.191
 3729SOL    HW112086   0.256   2.807   3.124
 3729SOL    HW212087   0.171   2.775   3.260
 3730SOL     OW12088   2.328   0.705   0.481
 3730SOL    HW112089   2.403   0.771   0.484
 3730SOL    HW212090   2.293   0.691   0.573
 3731SOL     OW12091   3.015   6.459   6.341
 3731SOL    HW112092   2.976   6.512   6.267
 3731SOL    HW212093   2.970   6.370   6.346
 3732SOL     OW12094   2.090   3.732   4.559
 3732SOL    HW112095   2.041   3.811   4.595
 3732SOL    HW212096   2.156   3.701   4.627
 3733SOL     OW12097   2.687   3.372   1.148
 3733SOL    HW112098   2.701   3.291   1.205
 3733SOL    HW212099   2.754   3.373   1.074
 3734SOL     OW12100   5.184   0.083   3.119
 3734SOL    HW112101   5.194   0.053   3.024
 3734SOL    HW212102   5.109   0.033   3.162
 3735SOL     OW12103   3.498   1.663   1.775
 3735SOL    HW112104   3.519   1.567   1.795
 3735SOL    HW212105   3.485   1.674   1.677
 3736SOL     OW12106   4.619   1.436   6.053
 3736SOL    HW112107   4.696   1.372   6.053
 3736SOL    HW212108   4.590   1.454   6.146
 3737SOL     OW12109   3.900   6.726   3.279
 3737SOL    HW112110   3.856   6.749   3.192
 3737SOL    HW212111   3.833   6.683   3.340
 3738SOL     OW12112   6.788   6.912   4.076
 3738SOL    HW112113   6.841   6.966   4.011
 3738SOL    HW212114   6.826   6.924   4.168
 3739SOL     OW12115   0.325   3.816   1.978
 3739SOL    HW112116   0.359   3.725   2.003
 3739SOL    HW212117   0.234   3.830   2.017
 3740SOL     OW12118   5.550   1.027   6.984
 3740SOL    HW112119   5.470   1.087   6.980
 3740SOL    HW212120   5.630   1.080   7.011
 3741SOL     OW12121   3.535   2.154   6.931
 3741SOL    HW112122   3.596   2.218   6.978
 3741SOL    HW212123   3.571   2.061   6.940
 3742SOL     OW12124   2.854   3.645   5.635
 3742SOL    HW112125   2.933   3.679   5.686
 3742SOL    HW212126   2.771   3.687   5.671
 3743SOL     OW12127   0.701   5.794   6.102
 3743SOL    HW112128   0.661   5.747   6.180
 3743SOL    HW212129   0.676   5.891   6.105
 3744SOL     OW12130   6.995   5.322   3.184
 3744SOL    HW112131   6.914   5.334   3.126
 3744SOL    HW212132   0.018   5.409   3.193
 3745SOL     OW12133   5.300   5.883   1.691
 3745SOL    HW112134   5.399   5.888   1.682
 3745SOL    HW212135   5.277   5.852   1.784
 3746SOL     OW12136   4.016   1.734   2.303
 3746SOL    HW112137   4.058   1.733   2.212
 3746SOL    HW212138   4.043   1.817   2.351
 3747SOL     OW12139   2.761   0.265   0.761
 3747SOL    HW112140   2.729   0.192   0.821
 3747SOL    HW212141   2.681   0.313   0.722
 3748SOL     OW12142   5.715   0.758   2.328
 3748SOL    HW112143   5.668   0.845   2.314
 3748SOL    HW212144   5.779   0.767   2.405
 3749SOL     OW12145   1.346   0.583   4.850
 3749SOL    HW112146   1.359   0.485   4.861
 3749SOL    HW212147   1.395   0.632   4.922
 3750SOL     OW12148   0.143   4.824   6.916
 3750SOL    HW112149   0.124   4.727   6.936
 3750SOL    HW212150   0.056   4.874   6.914
 3751SOL     OW12151   1.627   4.142   1.257
 3751SOL    HW112152   1.619   4.042   1.259
 3751SOL    HW212153   1.696   4.171   1.324
 3752SOL     OW12154   5.604   6.113   6.947
 3752SOL    HW112155   5.558   6.139   0.006
 3752SOL    HW212156   5.556   6.035   6.905
 3753SOL     OW12157   6.618   0.023   3.645
 3753SOL    HW112158   6.657   6.957   3.632
 3753SOL    HW212159   6.641   0.081   3.567
 3754SOL     OW12160   1.890   1.162   1.062
 3754SOL    HW112161   1.859   1.137   1.154
 3754SOL    HW212162   1.983   1.198   1.066
 3755SOL     OW12163   3.110   5.226   4.228
 3755SOL    HW112164   3.174   5.262   4.296
 3755SOL    HW212165   3.017   5.229   4.265
 3756SOL     OW12166   1.998   6.401   0.617
 3756SOL    HW112167   1.981   6.483   0.561
 3756SOL    HW212168   2.097   6.389   0.628
 3757SOL     OW12169   0.161   4.690   1.176
 3757SOL    HW112170   0.208   4.603   1.164
 3757SOL    HW212171   0.092   4.682   1.248
 3758SOL     OW12172   2.077   0.097   4.008
 3758SOL    HW112173   2.161   0.083   3.956
 3758SOL    HW212174   2.099   0.121   4.102
 3759SOL     OW12175   5.280   0.531   4.045
 3759SOL    HW112176   5.255   0.500   3.953
 3759SOL    HW212177   5.375   0.506   4.064
 3760SOL     OW12178   1.158   1.146   2.946
 3760SOL    HW112179   1.149   1.160   3.045
 3760SOL    HW212180   1.242   1.189   2.914
 3761SOL     OW12181   4.755   1.833   5.031
 3761SOL    HW112182   4.820   1.794   5.097
 3761SOL    HW212183   4.717   1.761   4.974
 3762SOL     OW12184   0.165   3.011   3.649
 3762SOL    HW112185   0.127   3.032   3.739
 3762SOL    HW212186   0.177   2.912   3.640
 3763SOL     OW12187   0.644   4.634   6.790
 3763SOL    HW112188   0.681   4.598   6.875
 3763SOL    HW212189   0.544   4.633   6.794
 3764SOL     OW12190   2.557   0.607   2.710
 3764SOL    HW112191   2.472   0.626   2.661
 3764SOL    HW212192   2.612   0.690   2.714
 3765SOL     OW12193   5.634   2.518   3.098
 3765SOL    HW112194   5.620   2.430   3.053
 3765SOL    HW212195   5.729   2.528   3.126
 3766SOL     OW12196   1.550   3.470   1.873
 3766SOL    HW112197   1.460   3.428   1.859
 3766SOL    HW212198   1.565   3.487   1.970
 3767SOL     OW12199   1.515   5.754   6.325
 3767SOL    HW112200   1.474   5.757   6.234
 3767SOL    HW212201   1.444   5.768   6.395
 3768SOL     OW12202   1.429   6.932   2.718
 3768SOL    HW112203   1.488   6.929   2.637
 3768SOL    HW212204   1.337   6.958   2.690
 3769SOL     OW12205   5.187   5.846   4.259
 3769SOL    HW112206   5.109   5.797   4.298
 3769SOL    HW212207   5.268   5.787   4.261
 3770SOL     OW12208   2.152   0.987   1.211
 3770SOL    HW112209   2.227   0.996   1.145
 3770SOL    HW212210   2.128   1.078   1.247
 3771SOL     OW12211   6.442   5.486   5.543
 3771SOL    HW112212   6.481   5.533   5.622
 3771SOL    HW212213   6.361   5.435   5.570
 3772SOL     OW12214   1.356   5.869   1.523
 3772SOL    HW112215   1.274   5.909   1.564
 3772SOL    HW212216   1.429   5.937   1.520
 3773SOL     OW12217   4.982   5.005   6.892
 3773SOL    HW112218   4.911   4.950   6.936
 3773SOL    HW212219   4.996   4.973   6.798
 3774SOL     OW12220   6.433   5.034   1.820
 3774SOL    HW112221   6.348   4.991   1.791
 3774SOL    HW212222   6.469   5.090   1.746
 3775SOL     OW12223   4.738   5.335   5.010
 3775SOL    HW112224   4.715   5.324   5.107
 3775SOL    HW212225   4.831   5.372   5.002
 3776SOL     OW12226   4.215   2.952   6.126
 3776SOL    HW112227   4.132   2.905   6.157
 3776SOL    HW212228   4.290   2.886   6.119
 3777SOL     OW12229   3.079   4.844   4.443
 3777SOL    HW112230   3.054   4.748   4.429
 3777SOL    HW212231   3.034   4.900   4.373
 3778SOL     OW12232   3.582   5.497   6.563
 3778SOL    HW112233   3.493   5.543   6.556
 3778SOL    HW212234   3.620   5.512   6.654
 3779SOL     OW12235   6.675   4.729   6.912
 3779SOL    HW112236   6.586   4.774   6.905
 3779SOL    HW212237   6.723   4.737   6.825
 3780SOL     OW12238   5.686   3.593   2.126
 3780SOL    HW112239   5.747   3.560   2.054
 3780SOL    HW212240   5.729   3.576   2.215
 3781SOL     OW12241   1.866   5.839   4.958
 3781SOL    HW112242   1.803   5.883   4.893
 3781SOL    HW212243   1.822   5.758   4.997
 3782SOL     OW12244   4.280   5.080   1.162
 3782SOL    HW112245   4.186   5.048   1.150
 3782SOL    HW212246   4.340   5.001   1.179
 3783SOL     OW12247   4.768   5.322   4.566
 3783SOL    HW112248   4.739   5.228   4.587
 3783SOL    HW212249   4.688   5.378   4.546
 3784SOL     OW12250   6.048   2.998   5.307
 3784SOL    HW112251   6.065   3.076   5.246
 3784SOL    HW212252   6.019   3.032   5.396
 3785SOL     OW12253   1.453   2.613   3.170
 3785SOL    HW112254   1.450   2.533   3.111
 3785SOL    HW212255   1.364   2.627   3.212
 3786SOL     OW12256   2.078   3.263   4.692
 3786SOL    HW112257   2.099   3.187   4.754
 3786SOL    HW212258   2.057   3.344   4.746
 3787SOL     OW12259   4.938   6.717   4.444
 3787SOL    HW112260   4.988   6.686   4.363
 3787SOL    HW212261   4.891   6.803   4.422
 3788SOL     OW12262   5.199   2.998   6.082
 3788SOL    HW112263   5.188   2.959   5.991
 3788SOL    HW212264   5.297   3.004   6.104
 3789SOL     OW12265   2.541   2.601   1.092
 3789SOL    HW112266   2.550   2.507   1.059
 3789SOL    HW212267   2.444   2.627   1.096
 3790SOL     OW12268   0.970   6.611   1.197
 3790SOL    HW112269   1.055   6.560   1.208
 3790SOL    HW212270   0.956   6.634   1.101
 3791SOL     OW12271   4.992   0.538   5.723
 3791SOL    HW112272   4.918   0.579   5.671
 3791SOL    HW212273   4.981   0.562   5.820
 3792SOL     OW12274   6.945   0.197   4.230
 3792SOL    HW112275   6.874   0.217   4.162
 3792SOL    HW212276   6.957   0.098   4.238
 3793SOL     OW12277   3.992   4.768   0.506
 3793SOL    HW112278   4.039   4.723   0.431
 3793SOL    HW212279   3.970   4.862   0.480
 3794SOL     OW12280   0.962   4.765   6.198
 3794SOL    HW112281   0.926   4.827   6.267
 3794SOL    HW212282   1.062   4.763   6.204
 3795SOL     OW12283   2.903   6.189   1.144
 3795SOL    HW112284   2.844   6.261   1.179
 3795SOL    HW212285   2.979   6.175   1.207
 3796SOL     OW12286   4.515   0.979   0.374
 3796SOL    HW112287   4.520   0.905   0.307
 3796SOL    HW212288   4.506   0.941   0.466
 3797SOL     OW12289   0.184   3.376   1.417
 3797SOL    HW112290   0.171   3.277   1.410
 3797SOL    HW212291   0.097   3.422   1.401
 3798SOL     OW12292   1.529   5.244   3.794
 3798SOL    HW112293   1.513   5.339   3.765
 3798SOL    HW212294   1.591   5.244   3.873
 3799SOL     OW12295   6.906   0.886   3.451
 3799SOL    HW112296   6.807   0.896   3.458
 3799SOL    HW212297   6.940   0.943   3.376
 3800SOL     OW12298   5.763   2.236   3.011
 3800SOL    HW112299   5.811   2.319   3.038
 3800SOL    HW212300   5.806   2.157   3.054
 3801SOL     OW12301   6.046   0.840   1.316
 3801SOL    HW112302   6.115   0.781   1.357
 3801SOL    HW212303   5.956   0.817   1.352
 3802SOL     OW12304   6.133   3.709   1.940
 3802SOL    HW112305   6.161   3.793   1.985
 3802SOL    HW212306   6.071   3.730   1.864
 3803SOL     OW12307   3.423   3.995   4.647
 3803SOL    HW112308   3.455   3.901   4.657
 3803SOL    HW212309   3.325   3.995   4.627
 3804SOL     OW12310   3.792   6.224   3.408
 3804SOL    HW112311   3.829   6.301   3.460
 3804SOL    HW212312   3.843   6.141   3.432
 3805SOL     OW12313   2.249   2.684   6.708
 3805SOL    HW112314   2.152   2.660   6.717
 3805SOL    HW212315   2.258   2.761   6.645
 3806SOL     OW12316   2.351   5.017   1.558
 3806SOL    HW112317   2.279   4.952   1.580
 3806SOL    HW212318   2.438   4.984   1.594
 3807SOL     OW12319   1.581   3.969   3.834
 3807SOL    HW112320   1.656   4.033   3.848
 3807SOL    HW212321   1.616   3.875   3.840
 3808SOL     OW12322   2.807   6.388   5.183
 3808SOL    HW112323   2.800   6.488   5.176
 3808SOL    HW212324   2.763   6.358   5.268
 3809SOL     OW12325   5.456   1.910   2.142
 3809SOL    HW112326   5.507   1.847   2.084
 3809SOL    HW212327   5.366   1.872   2.162
 3810SOL     OW12328   4.753   2.110   3.183
 3810SOL    HW112329   4.820   2.183   3.169
 3810SOL    HW212330   4.766   2.040   3.113
 3811SOL     OW12331   0.308   5.374   5.270
 3811SOL    HW112332   0.270   5.290   5.231
 3811SOL    HW212333   0.374   5.413   5.206
 3812SOL     OW12334   4.768   5.246   0.544
 3812SOL    HW112335   4.801   5.192   0.467
 3812SOL    HW212336   4.716   5.188   0.606
 3813SOL     OW12337   6.473   4.545   0.218
 3813SOL    HW112338   6.466   4.448   0.239
 3813SOL    HW212339   6.568   4.570   0.204
 3814SOL     OW12340   0.001   0.461   4.686
 3814SOL    HW112341   0.037   0.451   4.779
 3814SOL    HW212342   6.976   0.548   4.679
 3815SOL     OW12343   6.081   3.789   6.383
 3815SOL    HW112344   6.096   3.691   6.373
 3815SOL    HW212345   6.025   3.806   6.464
 3816SOL     OW12346   6.509   6.314   1.579
 3816SOL    HW112347   6.442   6.240   1.572
 3816SOL    HW212348   6.543   6.319   1.673
 3817SOL     OW12349   4.621   3.449   1.692
 3817SOL    HW112350   4.703   3.506   1.683
 3817SOL    HW212351   4.581   3.433   1.602
 3818SOL     OW12352   6.201   6.165   2.532
 3818SOL    HW112353   6.247   6.188   2.447
 3818SOL    HW212354   6.242   6.082   2.572
 3819SOL     OW12355   5.991   3.522   3.727
 3819SOL    HW112356   6.017   3.426   3.737
 3819SOL    HW212357   6.041   3.578   3.794
 3820SOL     OW12358   3.267   6.261   4.951
 3820SOL    HW112359   3.367   6.256   4.954
 3820SOL    HW212360   3.239   6.355   4.935
 3821SOL     OW12361   1.563   0.035   0.360
 3821SOL    HW112362   1.602   0.123   0.387
 3821SOL    HW212363   1.569   0.025   0.260
 3822SOL     OW12364   4.894   0.460   1.938
 3822SOL    HW112365   4.854   0.371   1.960
 3822SOL    HW212366   4.884   0.479   1.840
 3823SOL     OW12367   5.897   5.948   5.644
 3823SOL    HW112368   5.824   5.973   5.580
 3823SOL    HW212369   5.979   5.922   5.593
 3824SOL     OW12370   2.289   3.005   0.748
 3824SOL    HW112371   2.337   3.084   0.710
 3824SOL    HW212372   2.191   3.024   0.752
 3825SOL     OW12373   0.908   4.973   5.697
 3825SOL    HW112374   0.980   4.949   5.762
 3825SOL    HW212375   0.921   4.923   5.612
 3826SOL     OW12376   5.459   4.071   3.890
 3826SOL    HW112377   5.506   4.061   3.802
 3826SOL    HW212378   5.427   3.981   3.921
 3827SOL     OW12379   0.464   2.104   0.422
 3827SOL    HW112380   0.503   2.159   0.348
 3827SOL    HW212381   0.525   2.027   0.442
 3828SOL     OW12382   4.104   3.341   3.590
 3828SOL    HW112383   4.016   3.383   3.569
 3828SOL    HW212384   4.122   3.348   3.688
 3829SOL     OW12385   0.785   3.772   2.086
 3829SOL    HW112386   0.718   3.846   2.077
 3829SOL    HW212387   0.764   3.718   2.168
 3830SOL     OW12388   5.664   0.709   3.702
 3830SOL    HW112389   5.630   0.791   3.655
 3830SOL    HW212390   5.711   0.650   3.636
 3831SOL     OW12391   4.932   2.193   3.662
 3831SOL    HW112392   4.842   2.187   3.619
 3831SOL    HW212393   4.974   2.282   3.643
 3832SOL     OW12394   6.649   0.936   3.420
 3832SOL    HW112395   6.654   1.030   3.387
 3832SOL    HW212396   6.554   0.905   3.419
 3833SOL     OW12397   1.332   2.490   5.327
 3833SOL    HW112398   1.350   2.509   5.230
 3833SOL    HW212399   1.389   2.550   5.383
 3834SOL     OW12400   4.836   3.861   0.737
 3834SOL    HW112401   4.899   3.909   0.798
 3834SOL    HW212402   4.756   3.919   0.720
 3835SOL     OW12403   4.107   5.806   5.159
 3835SOL    HW112404   4.145   5.730   5.212
 3835SOL    HW212405   4.181   5.853   5.110
 3836SOL     OW12406   0.103   6.282   5.314
 3836SOL    HW112407   0.075   6.350   5.246
 3836SOL    HW212408   0.121   6.195   5.268
 3837SOL     OW12409   4.675   4.483   5.909
 3837SOL    HW112410   4.579   4.510   5.909
 3837SOL    HW212411   4.727   4.544   5.849
 3838SOL     OW12412   0.665   0.796   4.333
 3838SOL    HW112413   0.764   0.786   4.337
 3838SOL    HW212414   0.622   0.723   4.387
 3839SOL     OW12415   5.358   0.636   3.603
 3839SOL    HW112416   5.362   0.724   3.652
 3839SOL    HW212417   5.321   0.566   3.664
 3840SOL     OW12418   2.883   1.320   6.377
 3840SOL    HW112419   2.792   1.306   6.337
 3840SOL    HW212420   2.896   1.255   6.453
 3841SOL     OW12421   6.258   4.551   4.533
 3841SOL    HW112422   6.199   4.487   4.485
 3841SOL    HW212423   6.345   4.507   4.554
 3842SOL     OW12424   1.838   3.769   5.287
 3842SOL    HW112425   1.859   3.792   5.382
 3842SOL    HW212426   1.802   3.850   5.241
 3843SOL     OW12427   5.004   2.272   6.930
 3843SOL    HW112428   5.067   2.195   6.935
 3843SOL    HW212429   4.988   2.296   6.834
 3844SOL     OW12430   0.200   6.750   1.522
 3844SOL    HW112431   0.233   6.788   1.436
 3844SOL    HW212432   0.187   6.824   1.588
 3845SOL     OW12433   2.258   5.495   0.474
 3845SOL    HW112434   2.281   5.436   0.396
 3845SOL    HW212435   2.187   5.560   0.447
 3846SOL     OW12436   0.227   3.258   2.960
 3846SOL    HW112437   0.241   3.278   3.057
 3846SOL    HW212438   0.194   3.340   2.914
 3847SOL     OW12439   6.652   1.899   0.100
 3847SOL    HW112440   6.700   1.976   0.143
 3847SOL    HW212441   6.568   1.932   0.058
 3848SOL     OW12442   5.526   4.079   2.571
 3848SOL    HW112443   5.452   4.147   2.570
 3848SOL    HW212444   5.564   4.070   2.479
 3849SOL     OW12445   6.875   4.647   6.203
 3849SOL    HW112446   6.932   4.669   6.124
 3849SOL    HW212447   6.927   4.659   6.287
 3850SOL     OW12448   3.031   2.247   1.566
 3850SOL    HW112449   3.097   2.173   1.577
 3850SOL    HW212450   2.995   2.247   1.473
 3851SOL     OW12451   0.308   6.387   2.384
 3851SOL    HW112452   0.366   6.430   2.453
 3851SOL    HW212453   0.289   6.293   2.410
 3852SOL     OW12454   2.202   6.655   5.469
 3852SOL    HW112455   2.117   6.665   5.522
 3852SOL    HW212456   2.228   6.744   5.432
 3853SOL     OW12457   2.963   6.801   3.106
 3853SOL    HW112458   2.929   6.880   3.157
 3853SOL    HW212459   2.950   6.817   3.008
 3854SOL     OW12460   1.171   2.339   2.242
 3854SOL    HW112461   1.207   2.367   2.153
 3854SOL    HW212462   1.072   2.352   2.243
 3855SOL     OW12463   3.629   6.902   0.384
 3855SOL    HW112464   3.585   6.845   0.454
 3855SOL    HW212465   3.585   6.885   0.295
 3856SOL     OW12466   0.473   2.954   6.844
 3856SOL    HW112467   0.408   2.996   6.907
 3856SOL    HW212468   0.514   2.873   6.886
 3857SOL     OW12469   2.081   0.252   6.372
 3857SOL    HW112470   2.116   0.195   6.446
 3857SOL    HW212471   1.989   0.282   6.394
 3858SOL     OW12472   5.047   0.734   3.837
 3858SOL    HW112473   5.137   0.776   3.851
 3858SOL    HW212474   5.046   0.686   3.750
 3859SOL     OW12475   6.428   6.948   1.998
 3859SOL    HW112476   6.410   6.860   1.953
 3859SOL    HW212477   6.525   6.969   1.992
 3860SOL     OW12478   1.410   6.907   3.979
 3860SOL    HW112479   1.454   6.831   3.931
 3860SOL    HW212480   1.407   6.887   4.077
 3861SOL     OW12481   2.874   5.521   1.589
 3861SOL    HW112482   2.880   5.557   1.682
 3861SOL    HW212483   2.966   5.500   1.556
 3862SOL     OW12484   1.728   0.167   3.774
 3862SOL    HW112485   1.674   0.135   3.852
 3862SOL    HW212486   1.806   0.221   3.808
 3863SOL     OW12487   3.411   0.148   0.484
 3863SOL    HW112488   3.460   0.174   0.401
 3863SOL    HW212489   3.451   0.195   0.563
 3864SOL     OW12490   1.957   0.571   5.106
 3864SOL    HW112491   1.946   0.669   5.124
 3864SOL    HW212492   2.011   0.530   5.179
 3865SOL     OW12493   3.482   0.987   0.775
 3865SOL    HW112494   3.513   0.904   0.822
 3865SOL    HW212495   3.468   0.966   0.679
 3866SOL     OW12496   2.600   2.224   6.639
 3866SOL    HW112497   2.656   2.276   6.704
 3866SOL    HW212498   2.644   2.135   6.622
 3867SOL     OW12499   0.704   2.976   2.086
 3867SOL    HW112500   0.615   2.932   2.100
 3867SOL    HW212501   0.776   2.921   2.129
 3868SOL     OW12502   4.528   0.757   0.204
 3868SOL    HW112503   4.612   0.706   0.220
 3868SOL    HW212504   4.501   0.747   0.108
 3869SOL     OW12505   5.468   2.375   3.646
 3869SOL    HW112506   5.496   2.369   3.550
 3869SOL    HW212507   5.481   2.468   3.680
 3870SOL     OW12508   0.330   0.645   4.663
 3870SOL    HW112509   0.249   0.700   4.680
 3870SOL    HW212510   0.380   0.682   4.584
 3871SOL     OW12511   2.837   5.075   4.902
 3871SOL    HW112512   2.854   5.094   4.805
 3871SOL    HW212513   2.828   5.161   4.952
 3872SOL     OW12514   2.794   3.599   5.359
 3872SOL    HW112515   2.698   3.624   5.346
 3872SOL    HW212516   2.812   3.586   5.456
 3873SOL     OW12517   4.410   2.158   0.602
 3873SOL    HW112518   4.429   2.060   0.612
 3873SOL    HW212519   4.428   2.186   0.508
 3874SOL     OW12520   2.531   1.115   0.101
 3874SOL    HW112521   2.461   1.133   0.032
 3874SOL    HW212522   2.600   1.053   0.064
 3875SOL     OW12523   1.126   2.448   6.430
 3875SOL    HW112524   1.154   2.357   6.461
 3875SOL    HW212525   1.206   2.509   6.432
 3876SOL     OW12526   3.846   5.088   1.549
 3876SOL    HW112527   3.829   5.155   1.477
 3876SOL    HW212528   3.760   5.042   1.572
 3877SOL     OW12529   6.494   1.248   0.022
 3877SOL    HW112530   6.398   1.226   0.041
 3877SOL    HW212531   6.519   1.331   0.072
 3878SOL     OW12532   4.747   0.765   4.557
 3878SOL    HW112533   4.754   0.719   4.469
 3878SOL    HW212534   4.660   0.813   4.564
 3879SOL     OW12535   5.923   5.836   0.613
 3879SOL    HW112536   5.951   5.931   0.598
 3879SOL    HW212537   5.920   5.788   0.525
 3880SOL     OW12538   4.606   4.852   3.966
 3880SOL    HW112539   4.539   4.923   3.989
 3880SOL    HW212540   4.562   4.762   3.972
 3881SOL     OW12541   0.824   3.575   0.629
 3881SOL    HW112542   0.904   3.539   0.581
 3881SOL    HW212543   0.741   3.536   0.590
 3882SOL     OW12544   0.836   1.871   6.812
 3882SOL    HW112545   0.894   1.894   6.734
 3882SOL    HW212546   0.743   1.854   6.779
 3883SOL     OW12547   5.164   5.639   3.101
 3883SOL    HW112548   5.105   5.635   3.181
 3883SOL    HW212549   5.181   5.547   3.067
 3884SOL     OW12550   0.573   4.654   1.930
 3884SOL    HW112551   0.661   4.640   1.977
 3884SOL    HW212552   0.518   4.719   1.982
 3885SOL     OW12553   5.493   5.718   2.830
 3885SOL    HW112554   5.467   5.638   2.775
 3885SOL    HW212555   5.472   5.700   2.926
 3886SOL     OW12556   3.419   6.502   5.627
 3886SOL    HW112557   3.429   6.450   5.542
 3886SOL    HW212558   3.499   6.487   5.685
 3887SOL     OW12559   0.626   6.507   2.165
 3887SOL    HW112560   0.622   6.509   2.265
 3887SOL    HW212561   0.644   6.599   2.131
 3888SOL     OW12562   6.175   5.334   4.154
 3888SOL    HW112563   6.091   5.293   4.189
 3888SOL    HW212564   6.206   5.404   4.217
 3889SOL     OW12565   4.705   3.271   6.448
 3889SOL    HW112566   4.671   3.296   6.538
 3889SOL    HW212567   4.679   3.176   6.428
 3890SOL     OW12568   5.758   2.938   4.291
 3890SOL    HW112569   5.673   2.899   4.255
 3890SOL    HW212570   5.750   3.037   4.297
 3891SOL     OW12571   6.216   5.442   3.170
 3891SOL    HW112572   6.122   5.424   3.142
 3891SOL    HW212573   6.279   5.405   3.101
 3892SOL     OW12574   0.017   1.583   1.421
 3892SOL    HW112575   0.084   1.657   1.426
 3892SOL    HW212576   6.953   1.617   1.452
 3893SOL     OW12577   4.172   3.167   2.042
 3893SOL    HW112578   4.134   3.219   2.118
 3893SOL    HW212579   4.270   3.151   2.058
 3894SOL     OW12580   4.031   1.103   5.903
 3894SOL    HW112581   4.096   1.158   5.956
 3894SOL    HW212582   4.056   1.007   5.908
 3895SOL     OW12583   1.820   0.189   4.384
 3895SOL    HW112584   1.866   0.120   4.329
 3895SOL    HW212585   1.852   0.183   4.479
 3896SOL     OW12586   0.567   0.512   0.043
 3896SOL    HW112587   0.589   0.438   7.005
 3896SOL    HW212588   0.573   0.599   7.020
 3897SOL     OW12589   4.596   6.564   1.601
 3897SOL    HW112590   4.693   6.572   1.625
 3897SOL    HW212591   4.543   6.626   1.659
 3898SOL     OW12592   4.171   2.910   0.395
 3898SOL    HW112593   4.123   2.953   0.471
 3898SOL    HW212594   4.154   2.812   0.396
 3899SOL     OW12595   3.293   6.487   6.310
 3899SOL    HW112596   3.302   6.504   6.212
 3899SOL    HW212597   3.198   6.465   6.331
 3900SOL     OW12598   5.104   3.747   3.486
 3900SOL    HW112599   5.042   3.716   3.414
 3900SOL    HW212600   5.052   3.800   3.553
 3901SOL     OW12601   2.727   0.201   0.086
 3901SOL    HW112602   2.785   0.138   0.035
 3901SOL    HW212603   2.631   0.186   0.061
 3902SOL     OW12604   5.965   3.269   2.617
 3902SOL    HW112605   6.039   3.247   2.553
 3902SOL    HW212606   5.877   3.249   2.574
 3903SOL     OW12607   3.293   5.349   6.730
 3903SOL    HW112608   3.218   5.387   6.784
 3903SOL    HW212609   3.322   5.415   6.661
 3904SOL     OW12610   0.875   0.585   7.012
 3904SOL    HW112611   0.844   0.678   6.995
 3904SOL    HW212612   0.963   0.571   6.966
 3905SOL     OW12613   6.814   5.967   5.053
 3905SOL    HW112614   6.835   6.058   5.017
 3905SOL    HW212615   6.822   5.969   5.153
 3906SOL     OW12616   6.532   6.398   5.340
 3906SOL    HW112617   6.459   6.418   5.275
 3906SOL    HW212618   6.565   6.484   5.380
 3907SOL     OW12619   6.529   0.946   4.207
 3907SOL    HW112620   6.601   0.890   4.166
 3907SOL    HW212621   6.499   1.015   4.142
 3908SOL     OW12622   1.412   2.952   5.875
 3908SOL    HW112623   1.466   2.868   5.872
 3908SOL    HW212624   1.391   2.982   5.782
 3909SOL     OW12625   5.767   5.171   4.074
 3909SOL    HW112626   5.816   5.190   4.159
 3909SOL    HW212627   5.826   5.192   3.996
 3910SOL     OW12628   4.072   3.767   2.862
 3910SOL    HW112629   4.113   3.779   2.952
 3910SOL    HW212630   4.100   3.679   2.824
 3911SOL     OW12631   6.263   2.107   5.418
 3911SOL    HW112632   6.260   2.027   5.358
 3911SOL    HW212633   6.170   2.144   5.429
 3912SOL     OW12634   5.296   2.820   6.670
 3912SOL    HW112635   5.251   2.788   6.753
 3912SOL    HW212636   5.322   2.742   6.613
 3913SOL     OW12637   1.338   6.675   0.334
 3913SOL    HW112638   1.324   6.626   0.420
 3913SOL    HW212639   1.322   6.773   0.348
 3914SOL     OW12640   3.013   5.719   5.866
 3914SOL    HW112641   2.999   5.775   5.947
 3914SOL    HW212642   2.999   5.622   5.888
 3915SOL     OW12643   6.406   5.887   1.353
 3915SOL    HW112644   6.486   5.899   1.294
 3915SOL    HW212645   6.431   5.830   1.432
 3916SOL     OW12646   0.933   0.052   3.485
 3916SOL    HW112647   1.011   7.017   3.470
 3916SOL    HW212648   0.952   0.143   3.449
 3917SOL     OW12649   2.011   6.954   6.590
 3917SOL    HW112650   2.089   6.918   6.641
 3917SOL    HW212651   2.002   6.905   6.503
 3918SOL     OW12652   5.551   3.752   0.873
 3918SOL    HW112653   5.510   3.833   0.833
 3918SOL    HW212654   5.576   3.770   0.968
 3919SOL     OW12655   3.000   6.479   6.949
 3919SOL    HW112656   2.983   6.386   6.982
 3919SOL    HW212657   2.997   6.479   6.849
 3920SOL     OW12658   2.117   1.742   6.671
 3920SOL    HW112659   2.039   1.803   6.683
 3920SOL    HW212660   2.154   1.715   6.760
 3921SOL     OW12661   1.299   3.798   1.594
 3921SOL    HW112662   1.304   3.718   1.654
 3921SOL    HW212663   1.354   3.872   1.632
 3922SOL     OW12664   1.075   4.706   0.932
 3922SOL    HW112665   0.987   4.712   0.979
 3922SOL    HW212666   1.142   4.663   0.992
 3923SOL     OW12667   6.881   0.498   0.079
 3923SOL    HW112668   6.919   0.499   0.171
 3923SOL    HW212669   6.782   0.485   0.083
 3924SOL     OW12670   0.071   4.786   4.559
 3924SOL    HW112671   0.155   4.732   4.552
 3924SOL    HW212672   0.028   4.770   4.647
 3925SOL     OW12673   1.936   5.566   2.491
 3925SOL    HW112674   1.896   5.491   2.542
 3925SOL    HW212675   1.893   5.652   2.518
 3926SOL     OW12676   4.602   4.478   2.241
 3926SOL    HW112677   4.663   4.544   2.197
 3926SOL    HW212678   4.553   4.427   2.170
 3927SOL     OW12679   0.585   3.388   6.529
 3927SOL    HW112680   0.487   3.388   6.512
 3927SOL    HW212681   0.611   3.307   6.581
 3928SOL     OW12682   5.283   5.926   6.274
 3928SOL    HW112683   5.228   5.883   6.346
 3928SOL    HW212684   5.279   5.869   6.192
 3929SOL     OW12685   0.950   1.672   4.912
 3929SOL    HW112686   1.034   1.658   4.861
 3929SOL    HW212687   0.961   1.751   4.972
 3930SOL     OW12688   2.270   1.439   3.372
 3930SOL    HW112689   2.331   1.394   3.308
 3930SOL    HW212690   2.217   1.510   3.324
 3931SOL     OW12691   6.028   1.061   1.490
 3931SOL    HW112692   6.011   0.974   1.446
 3931SOL    HW212693   6.127   1.071   1.506
 3932SOL     OW12694   1.808   2.399   3.942
 3932SOL    HW112695   1.724   2.368   3.986
 3932SOL    HW212696   1.861   2.454   4.007
 3933SOL     OW12697   1.247   6.801   5.352
 3933SOL    HW112698   1.202   6.849   5.427
 3933SOL    HW212699   1.195   6.719   5.328
 3934SOL     OW12700   5.248   0.229   6.669
 3934SOL    HW112701   5.163   0.180   6.651
 3934SOL    HW212702   5.247   0.316   6.619
 3935SOL     OW12703   4.759   0.855   0.494
 3935SOL    HW112704   4.676   0.842   0.548
 3935SOL    HW212705   4.806   0.938   0.524
 3936SOL     OW12706   0.192   4.901   3.570
 3936SOL    HW112707   0.238   4.972   3.517
 3936SOL    HW212708   0.095   4.900   3.547
 3937SOL     OW12709   0.455   1.283   2.677
 3937SOL    HW112710   0.398   1.240   2.747
 3937SOL    HW212711   0.532   1.330   2.721
 3938SOL     OW12712   0.340   1.874   2.236
 3938SOL    HW112713   0.327   1.791   2.182
 3938SOL    HW212714   0.262   1.935   2.224
 3939SOL     OW12715   2.957   1.774   1.798
 3939SOL    HW112716   2.934   1.861   1.841
 3939SOL    HW212717   3.051   1.777   1.764
 3940SOL     OW12718   3.578   3.499   1.348
 3940SOL    HW112719   3.545   3.460   1.434
 3940SOL    HW212720   3.631   3.582   1.368
 3941SOL     OW12721   4.234   4.171   6.275
 3941SOL    HW112722   4.153   4.221   6.304
 3941SOL    HW212723   4.275   4.216   6.196
 3942SOL     OW12724   6.792   6.407   6.081
 3942SOL    HW112725   6.846   6.477   6.128
 3942SOL    HW212726   6.695   6.419   6.104
 3943SOL     OW12727   0.350   3.664   4.206
 3943SOL    HW112728   0.340   3.575   4.162
 3943SOL    HW212729   0.438   3.705   4.180
 3944SOL     OW12730   5.330   2.536   4.660
 3944SOL    HW112731   5.423   2.505   4.679
 3944SOL    HW212732   5.272   2.521   4.740
 3945SOL     OW12733   6.723   0.560   0.842
 3945SOL    HW112734   6.670   0.506   0.906
 3945SOL    HW212735   6.817   0.526   0.839
 3946SOL     OW12736   4.208   4.825   3.158
 3946SOL    HW112737   4.226   4.747   3.098
 3946SOL    HW212738   4.208   4.910   3.105
 3947SOL     OW12739   5.919   5.703   6.769
 3947SOL    HW112740   6.012   5.740   6.775
 3947SOL    HW212741   5.897   5.681   6.674
 3948SOL     OW12742   6.140   4.580   1.190
 3948SOL    HW112743   6.131   4.480   1.193
 3948SOL    HW212744   6.105   4.619   1.275
 3949SOL     OW12745   5.015   6.714   3.517
 3949SOL    HW112746   5.094   6.737   3.461
 3949SOL    HW212747   4.997   6.616   3.512
 3950SOL     OW12748   1.357   5.700   0.518
 3950SOL    HW112749   1.344   5.607   0.553
 3950SOL    HW212750   1.397   5.696   0.427
 3951SOL     OW12751   5.748   0.300   2.149
 3951SOL    HW112752   5.787   0.350   2.227
 3951SOL    HW212753   5.788   0.209   2.144
 3952SOL     OW12754   6.099   2.458   0.657
 3952SOL    HW112755   6.122   2.547   0.619
 3952SOL    HW212756   6.069   2.397   0.584
 3953SOL     OW12757   3.825   4.076   2.244
 3953SOL    HW112758   3.910   4.125   2.230
 3953SOL    HW212759   3.807   4.068   2.343
 3954SOL     OW12760   3.876   4.643   5.693
 3954SOL    HW112761   3.834   4.618   5.781
 3954SOL    HW212762   3.930   4.567   5.659
 3955SOL     OW12763   3.662   1.031   5.281
 3955SOL    HW112764   3.717   1.082   5.347
 3955SOL    HW212765   3.593   1.091   5.242
 3956SOL     OW12766   1.901   1.066   1.546
 3956SOL    HW112767   1.883   1.118   1.629
 3956SOL    HW212768   1.905   0.969   1.567
 3957SOL     OW12769   3.464   0.847   4.794
 3957SOL    HW112770   3.374   0.890   4.799
 3957SOL    HW212771   3.481   0.816   4.700
 3958SOL     OW12772   5.374   0.906   5.522
 3958SOL    HW112773   5.462   0.910   5.475
 3958SOL    HW212774   5.347   0.811   5.534
 3959SOL     OW12775   4.986   5.034   0.745
 3959SOL    HW112776   4.925   5.009   0.670
 3959SOL    HW212777   4.991   4.958   0.811
 3960SOL     OW12778   5.419   2.588   4.356
 3960SOL    HW112779   5.332   2.601   4.402
 3960SOL    HW212780   5.475   2.523   4.408
 3961SOL     OW12781   5.582   6.143   3.881
 3961SOL    HW112782   5.676   6.177   3.876
 3961SOL    HW212783   5.529   6.181   3.805
 3962SOL     OW12784   0.220   5.110   5.574
 3962SOL    HW112785   0.202   5.201   5.613
 3962SOL    HW212786   0.304   5.113   5.520
 3963SOL     OW12787   4.622   6.748   1.995
 3963SOL    HW112788   4.583   6.822   2.050
 3963SOL    HW212789   4.722   6.755   1.998
 3964SOL     OW12790   5.322   3.611   3.555
 3964SOL    HW112791   5.336   3.512   3.547
 3964SOL    HW212792   5.234   3.635   3.515
 3965SOL     OW12793   4.902   3.910   4.592
 3965SOL    HW112794   4.930   3.839   4.657
 3965SOL    HW212795   4.857   3.984   4.642
 3966SOL     OW12796   2.687   6.067   6.349
 3966SOL    HW112797   2.624   6.038   6.421
 3966SOL    HW212798   2.642   6.060   6.260
 3967SOL     OW12799   2.081   4.851   3.047
 3967SOL    HW112800   2.151   4.795   3.003
 3967SOL    HW212801   2.054   4.925   2.985
 3968SOL     OW12802   4.027   6.993   0.855
 3968SOL    HW112803   4.075   0.056   0.857
 3968SOL    HW212804   4.066   6.936   0.783
 3969SOL     OW12805   1.684   5.406   2.012
 3969SOL    HW112806   1.769   5.355   2.000
 3969SOL    HW212807   1.634   5.409   1.926
 3970SOL     OW12808   5.347   6.302   2.357
 3970SOL    HW112809   5.295   6.254   2.287
 3970SOL    HW212810   5.411   6.366   2.314
 3971SOL     OW12811   2.725   5.716   4.179
 3971SOL    HW112812   2.703   5.675   4.091
 3971SOL    HW212813   2.641   5.727   4.232
 3972SOL     OW12814   2.297   4.141   0.253
 3972SOL    HW112815   2.337   4.065   0.305
 3972SOL    HW212816   2.363   4.216   0.247
 3973SOL     OW12817   1.164   5.573   0.283
 3973SOL    HW112818   1.103   5.523   0.221
 3973SOL    HW212819   1.172   5.523   0.369
 3974SOL     OW12820   2.090   0.947   5.367
 3974SOL    HW112821   2.059   0.873   5.426
 3974SOL    HW212822   2.189   0.943   5.357
 3975SOL     OW12823   5.626   2.093   6.212
 3975SOL    HW112824   5.705   2.121   6.266
 3975SOL    HW212825   5.611   2.159   6.138
 3976SOL     OW12826   2.294   5.446   2.160
 3976SOL    HW112827   2.262   5.446   2.066
 3976SOL    HW212828   2.390   5.420   2.163
 3977SOL     OW12829   0.603   3.518   6.788
 3977SOL    HW112830   0.616   3.503   6.690
 3977SOL    HW212831   0.581   3.615   6.804
 3978SOL     OW12832   6.693   4.255   3.621
 3978SOL    HW112833   6.689   4.188   3.695
 3978SOL    HW212834   6.673   4.346   3.657
 3979SOL     OW12835   3.520   0.322   6.365
 3979SOL    HW112836   3.550   0.227   6.355
 3979SOL    HW212837   3.430   0.324   6.409
 3980SOL     OW12838   5.759   6.238   5.723
 3980SOL    HW112839   5.684   6.223   5.659
 3980SOL    HW212840   5.771   6.158   5.781
 3981SOL     OW12841   4.855   6.673   0.260
 3981SOL    HW112842   4.817   6.693   0.350
 3981SOL    HW212843   4.954   6.661   0.268
 3982SOL     OW12844   3.005   6.108   2.516
 3982SOL    HW112845   2.912   6.081   2.542
 3982SOL    HW212846   3.066   6.101   2.595
 3983SOL     OW12847   3.644   5.426   3.428
 3983SOL    HW112848   3.687   5.351   3.378
 3983SOL    HW212849   3.714   5.490   3.458
 3984SOL     OW12850   6.570   2.424   3.070
 3984SOL    HW112851   6.568   2.470   3.158
 3984SOL    HW212852   6.500   2.463   3.010
 3985SOL     OW12853   3.992   5.539   6.399
 3985SOL    HW112854   3.907   5.527   6.348
 3985SOL    HW212855   3.972   5.560   6.494
 3986SOL     OW12856   5.149   0.618   1.834
 3986SOL    HW112857   5.245   0.624   1.861
 3986SOL    HW212858   5.091   0.656   1.906
 3987SOL     OW12859   3.115   5.085   5.358
 3987SOL    HW112860   3.083   5.094   5.264
 3987SOL    HW212861   3.215   5.087   5.360
 3988SOL     OW12862   4.259   5.273   0.368
 3988SOL    HW112863   4.314   5.327   0.431
 3988SOL    HW212864   4.268   5.176   0.391
 3989SOL     OW12865   6.433   2.175   0.199
 3989SOL    HW112866   6.402   2.121   0.277
 3989SOL    HW212867   6.406   2.271   0.211
 3990SOL     OW12868   6.178   2.211   2.348
 3990SOL    HW112869   6.119   2.161   2.285
 3990SOL    HW212870   6.133   2.297   2.375
 3991SOL     OW12871   6.702   0.545   3.327
 3991SOL    HW112872   6.708   0.621   3.391
 3991SOL    HW212873   6.787   0.491   3.331
 3992SOL     OW12874   3.451   2.335   1.072
 3992SOL    HW112875   3.494   2.272   1.137
 3992SOL    HW212876   3.374   2.381   1.116
 3993SOL     OW12877   1.411   3.153   1.556
 3993SOL    HW112878   1.352   3.226   1.520
 3993SOL    HW212879   1.480   3.130   1.488
 3994SOL     OW12880   2.591   6.396   4.819
 3994SOL    HW112881   2.574   6.486   4.778
 3994SOL    HW212882   2.690   6.382   4.830
 3995SOL     OW12883   1.757   2.838   5.339
 3995SOL    HW112884   1.747   2.779   5.419
 3995SOL    HW212885   1.772   2.782   5.258
 3996SOL     OW12886   7.019   6.038   4.775
 3996SOL    HW112887   0.007   6.138   4.773
 3996SOL    HW212888   0.073   5.995   4.819
 3997SOL     OW12889   5.328   0.167   4.619
 3997SOL    HW112890   5.304   0.218   4.536
 3997SOL    HW212891   5.364   0.077   4.594
 3998SOL     OW12892   4.479   2.241   3.763
 3998SOL    HW112893   4.489   2.321   3.822
 3998SOL    HW212894   4.457   2.161   3.819
 3999SOL     OW12895   5.473   2.020   4.956
 3999SOL    HW112896   5.467   1.924   4.985
 3999SOL    HW212897   5.435   2.079   5.028
 4000SOL     OW12898   3.911   0.132   3.761
 4000SOL    HW112899   3.954   0.193   3.827
 4000SOL    HW212900   3.866   0.185   3.690
 4001SOL     OW12901   0.989   2.383   3.579
 4001SOL    HW112902   0.931   2.395   3.660
 4001SOL    HW212903   0.934   2.345   3.505
 4002SOL     OW12904   1.981   3.413   1.914
 4002SOL    HW112905   1.973   3.448   1.820
 4002SOL    HW212906   2.076   3.422   1.945
 4003SOL     OW12907   3.273   1.191   4.708
 4003SOL    HW112908   3.281   1.269   4.770
 4003SOL    HW212909   3.209   1.213   4.635
 4004SOL     OW12910   6.914   1.755   5.265
 4004SOL    HW112911   7.008   1.782   5.242
 4004SOL    HW212912   6.895   1.664   5.228
 4005SOL     OW12913   5.509   5.493   5.723
 4005SOL    HW112914   5.450   5.522   5.798
 4005SOL    HW212915   5.567   5.417   5.753
 4006SOL     OW12916   3.571   6.203   2.202
 4006SOL    HW112917   3.612   6.233   2.288
 4006SOL    HW212918   3.628   6.132   2.162
 4007SOL     OW12919   6.704   1.982   6.401
 4007SOL    HW112920   6.753   2.030   6.328
 4007SOL    HW212921   6.755   1.992   6.487
 4008SOL     OW12922   2.516   2.191   5.429
 4008SOL    HW112923   2.482   2.285   5.431
 4008SOL    HW212924   2.462   2.134   5.490
 4009SOL     OW12925   3.670   3.005   2.612
 4009SOL    HW112926   3.616   2.930   2.649
 4009SOL    HW212927   3.745   2.968   2.557
 4010SOL     OW12928   2.040   3.001   6.390
 4010SOL    HW112929   2.056   3.098   6.412
 4010SOL    HW212930   1.956   2.970   6.434
 4011SOL     OW12931   0.656   2.417   1.163
 4011SOL    HW112932   0.656   2.444   1.259
 4011SOL    HW212933   0.730   2.464   1.114
 4012SOL     OW12934   6.759   3.361   3.724
 4012SOL    HW112935   6.697   3.302   3.673
 4012SOL    HW212936   6.773   3.323   3.816
 4013SOL     OW12937   4.582   2.499   3.397
 4013SOL    HW112938   4.488   2.479   3.370
 4013SOL    HW212939   4.620   2.567   3.335
 4014SOL     OW12940   5.524   5.696   2.366
 4014SOL    HW112941   5.510   5.613   2.419
 4014SOL    HW212942   5.620   5.703   2.339
 4015SOL     OW12943   4.704   3.537   6.771
 4015SOL    HW112944   4.748   3.503   6.854
 4015SOL    HW212945   4.635   3.471   6.741
 4016SOL     OW12946   3.180   6.517   4.972
 4016SOL    HW112947   3.094   6.556   4.940
 4016SOL    HW212948   3.175   6.498   5.070
 4017SOL     OW12949   6.878   6.265   6.731
 4017SOL    HW112950   6.886   6.333   6.804
 4017SOL    HW212951   6.795   6.212   6.744
 4018SOL     OW12952   2.747   6.030   0.449
 4018SOL    HW112953   2.832   6.084   0.446
 4018SOL    HW212954   2.669   6.092   0.440
 4019SOL     OW12955   5.345   5.318   3.230
 4019SOL    HW112956   5.371   5.247   3.296
 4019SOL    HW212957   5.306   5.396   3.280
 4020SOL     OW12958   5.516   2.438   5.123
 4020SOL    HW112959   5.512   2.523   5.070
 4020SOL    HW212960   5.441   2.436   5.188
 4021SOL     OW12961   4.195   4.630   6.811
 4021SOL    HW112962   4.143   4.676   6.738
 4021SOL    HW212963   4.238   4.699   6.869
 4022SOL     OW12964   5.319   0.316   1.393
 4022SOL    HW112965   5.336   0.228   1.348
 4022SOL    HW212966   5.346   0.310   1.489
 4023SOL     OW12967   6.712   0.275   5.489
 4023SOL    HW112968   6.752   0.257   5.399
 4023SOL    HW212969   6.613   0.259   5.485
 4024SOL     OW12970   3.944   5.030   4.191
 4024SOL    HW112971   3.875   4.971   4.234
 4024SOL    HW212972   3.930   5.124   4.222
 4025SOL     OW12973   1.339   4.132   2.767
 4025SOL    HW112974   1.257   4.075   2.774
 4025SOL    HW212975   1.413   4.078   2.727
 4026SOL     OW12976   5.086   0.201   4.697
 4026SOL    HW112977   5.069   0.190   4.795
 4026SOL    HW212978   5.183   0.189   4.678
 4027SOL     OW12979   4.652   5.450   1.384
 4027SOL    HW112980   4.669   5.411   1.293
 4027SOL    HW212981   4.558   5.484   1.388
 4028SOL     OW12982   2.742   6.743   4.107
 4028SOL    HW112983   2.831   6.786   4.094
 4028SOL    HW212984   2.675   6.786   4.046
 4029SOL     OW12985   2.280   4.195   3.968
 4029SOL    HW112986   2.204   4.250   4.003
 4029SOL    HW212987   2.245   4.110   3.930
 4030SOL     OW12988   1.496   1.504   6.348
 4030SOL    HW112989   1.429   1.433   6.371
 4030SOL    HW212990   1.573   1.498   6.412
 4031SOL     OW12991   5.050   5.798   3.923
 4031SOL    HW112992   5.016   5.727   3.862
 4031SOL    HW212993   5.149   5.789   3.934
 4032SOL     OW12994   5.049   6.989   4.602
 4032SOL    HW112995   5.076   0.053   4.640
 4032SOL    HW212996   5.070   6.917   4.669
 4033SOL     OW12997   3.046   3.865   5.512
 4033SOL    HW112998   3.090   3.796   5.455
 4033SOL    HW212999   3.056   3.841   5.609
 4034SOL     OW13000   6.337   2.642   4.043
 4034SOL    HW113001   6.366   2.730   4.006
 4034SOL    HW213002   6.381   2.568   3.992
 4035SOL     OW13003   0.484   5.737   0.901
 4035SOL    HW113004   0.557   5.779   0.846
 4035SOL    HW213005   0.520   5.711   0.990
 4036SOL     OW13006   6.546   6.025   2.761
 4036SOL    HW113007   6.545   6.094   2.689
 4036SOL    HW213008   6.519   5.937   2.722
 4037SOL     OW13009   6.224   4.121   6.124
 4037SOL    HW113010   6.205   4.063   6.203
 4037SOL    HW213011   6.139   4.161   6.091
 4038SOL     OW13012   6.506   4.870   3.502
 4038SOL    HW113013   6.549   4.949   3.458
 4038SOL    HW213014   6.517   4.877   3.601
 4039SOL     OW13015   4.370   5.915   0.954
 4039SOL    HW113016   4.359   5.824   0.993
 4039SOL    HW213017   4.448   5.961   0.995
 4040SOL     OW13018   3.506   6.340   0.852
 4040SOL    HW113019   3.471   6.268   0.793
 4040SOL    HW213020   3.590   6.378   0.813
 4041SOL     OW13021   1.229   0.063   3.825
 4041SOL    HW113022   1.299   0.019   3.882
 4041SOL    HW213023   1.261   0.153   3.796
 4042SOL     OW13024   5.965   5.177   2.136
 4042SOL    HW113025   6.027   5.175   2.057
 4042SOL    HW213026   5.872   5.155   2.105
 4043SOL     OW13027   5.813   3.964   2.141
 4043SOL    HW113028   5.752   3.995   2.214
 4043SOL    HW213029   5.898   3.930   2.181
 4044SOL     OW13030   6.791   5.423   2.798
 4044SOL    HW113031   6.775   5.409   2.896
 4044SOL    HW213032   6.718   5.479   2.760
 4045SOL     OW13033   2.067   4.779   5.880
 4045SOL    HW113034   2.105   4.871   5.881
 4045SOL    HW213035   2.137   4.713   5.906
 4046SOL     OW13036   0.139   2.684   0.843
 4046SOL    HW113037   0.208   2.619   0.811
 4046SOL    HW213038   0.184   2.769   0.870
 4047SOL     OW13039   3.009   4.064   1.811
 4047SOL    HW113040   2.988   4.026   1.902
 4047SOL    HW213041   3.092   4.021   1.775
 4048SOL     OW13042   4.859   2.617   1.268
 4048SOL    HW113043   4.848   2.518   1.279
 4048SOL    HW213044   4.817   2.646   1.182
 4049SOL     OW13045   6.808   0.538   5.852
 4049SOL    HW113046   6.905   0.527   5.828
 4049SOL    HW213047   6.773   0.453   5.891
 4050SOL     OW13048   2.468   0.483   1.471
 4050SOL    HW113049   2.508   0.398   1.437
 4050SOL    HW213050   2.384   0.464   1.520
 4051SOL     OW13051   1.679   4.202   0.991
 4051SOL    HW113052   1.658   4.185   1.087
 4051SOL    HW213053   1.739   4.281   0.982
 4052SOL     OW13054   1.530   6.087   1.528
 4052SOL    HW113055   1.537   6.140   1.613
 4052SOL    HW213056   1.621   6.066   1.493
 4053SOL     OW13057   2.857   4.873   3.259
 4053SOL    HW113058   2.772   4.881   3.207
 4053SOL    HW213059   2.839   4.829   3.347
 4054SOL     OW13060   5.304   1.498   6.751
 4054SOL    HW113061   5.288   1.517   6.655
 4054SOL    HW213062   5.248   1.559   6.807
 4055SOL     OW13063   4.249   3.056   0.893
 4055SOL    HW113064   4.241   2.958   0.875
 4055SOL    HW213065   4.282   3.071   0.986
 4056SOL     OW13066   3.793   3.296   1.111
 4056SOL    HW113067   3.773   3.220   1.172
 4056SOL    HW213068   3.717   3.308   1.047
 4057SOL     OW13069   6.432   1.993   0.681
 4057SOL    HW113070   6.530   1.988   0.696
 4057SOL    HW213071   6.389   2.047   0.754
 4058SOL     OW13072   1.476   1.442   4.750
 4058SOL    HW113073   1.557   1.393   4.783
 4058SOL    HW213074   1.406   1.376   4.723
 4059SOL     OW13075   5.936   1.893   5.288
 4059SOL    HW113076   6.014   1.831   5.293
 4059SOL    HW213077   5.916   1.929   5.379
 4060SOL     OW13078   3.794   6.153   4.855
 4060SOL    HW113079   3.799   6.057   4.882
 4060SOL    HW213080   3.877   6.178   4.804
 4061SOL     OW13081   2.500   2.998   1.390
 4061SOL    HW113082   2.488   2.899   1.400
 4061SOL    HW213083   2.420   3.037   1.345
 4062SOL     OW13084   3.838   6.143   2.738
 4062SOL    HW113085   3.806   6.126   2.645
 4062SOL    HW213086   3.766   6.120   2.803
 4063SOL     OW13087   2.603   5.104   6.217
 4063SOL    HW113088   2.514   5.085   6.175
 4063SOL    HW213089   2.621   5.037   6.289
 4064SOL     OW13090   5.968   0.032   4.186
 4064SOL    HW113091   5.952   7.008   4.100
 4064SOL    HW213092   5.906   0.111   4.191
 4065SOL     OW13093   6.402   4.881   0.154
 4065SOL    HW113094   6.342   4.828   0.213
 4065SOL    HW213095   6.485   4.905   0.203
 4066SOL     OW13096   6.335   5.378   1.461
 4066SOL    HW113097   6.327   5.279   1.467
 4066SOL    HW213098   6.387   5.403   1.379
 4067SOL     OW13099   5.921   0.783   1.539
 4067SOL    HW113100   5.931   0.804   1.636
 4067SOL    HW213101   5.931   0.684   1.525
 4068SOL     OW13102   6.093   1.268   4.879
 4068SOL    HW113103   6.014   1.223   4.838
 4068SOL    HW213104   6.089   1.366   4.861
 4069SOL     OW13105   6.631   5.989   1.205
 4069SOL    HW113106   6.665   6.057   1.141
 4069SOL    HW213107   6.658   5.897   1.174
 4070SOL     OW13108   6.851   3.617   2.881
 4070SOL    HW113109   6.781   3.664   2.826
 4070SOL    HW213110   6.884   3.680   2.952
 4071SOL     OW13111   2.185   0.466   3.462
 4071SOL    HW113112   2.176   0.509   3.372
 4071SOL    HW213113   2.103   0.412   3.482
 4072SOL     OW13114   0.920   0.280   3.993
 4072SOL    HW113115   0.896   0.275   3.896
 4072SOL    HW213116   0.857   0.341   4.041
 4073SOL     OW13117   2.755   5.107   1.425
 4073SOL    HW113118   2.713   5.084   1.337
 4073SOL    HW213119   2.699   5.176   1.471
 4074SOL     OW13120   0.451   3.136   0.906
 4074SOL    HW113121   0.455   3.210   0.838
 4074SOL    HW213122   0.408   3.170   0.990
 4075SOL     OW13123   5.188   0.424   3.719
 4075SOL    HW113124   5.267   0.372   3.689
 4075SOL    HW213125   5.110   0.405   3.659
 4076SOL     OW13126   1.945   2.270   3.133
 4076SOL    HW113127   1.909   2.362   3.145
 4076SOL    HW213128   1.937   2.219   3.219
 4077SOL     OW13129   3.218   0.959   0.880
 4077SOL    HW113130   3.216   1.049   0.922
 4077SOL    HW213131   3.259   0.966   0.789
 4078SOL     OW13132   4.864   3.987   2.929
 4078SOL    HW113133   4.927   4.055   2.893
 4078SOL    HW213134   4.784   3.981   2.870
 4079SOL     OW13135   5.993   0.351   4.380
 4079SOL    HW113136   6.010   0.369   4.477
 4079SOL    HW213137   5.897   0.327   4.367
 4080SOL     OW13138   3.556   2.996   3.088
 4080SOL    HW113139   3.515   2.942   3.015
 4080SOL    HW213140   3.652   3.014   3.066
 4081SOL     OW13141   2.705   2.527   6.565
 4081SOL    HW113142   2.696   2.574   6.477
 4081SOL    HW213143   2.613   2.504   6.599
 4082SOL     OW13144   1.193   2.594   5.621
 4082SOL    HW113145   1.161   2.621   5.712
 4082SOL    HW213146   1.120   2.544   5.574
 4083SOL     OW13147   6.005   5.109   2.996
 4083SOL    HW113148   5.933   5.082   2.932
 4083SOL    HW213149   5.964   5.160   3.072
 4084SOL     OW13150   4.543   0.687   2.302
 4084SOL    HW113151   4.640   0.680   2.280
 4084SOL    HW213152   4.518   0.783   2.316
 4085SOL     OW13153   2.600   4.597   2.509
 4085SOL    HW113154   2.587   4.498   2.509
 4085SOL    HW213155   2.604   4.630   2.414
 4086SOL     OW13156   6.295   4.784   4.695
 4086SOL    HW113157   6.263   4.730   4.617
 4086SOL    HW213158   6.303   4.725   4.775
 4087SOL     OW13159   2.002   0.674   1.836
 4087SOL    HW113160   1.917   0.702   1.791
 4087SOL    HW213161   2.066   0.751   1.837
 4088SOL     OW13162   0.326   1.956   5.762
 4088SOL    HW113163   0.421   1.925   5.753
 4088SOL    HW213164   0.268   1.901   5.701
 4089SOL     OW13165   0.990   0.764   2.404
 4089SOL    HW113166   0.937   0.679   2.397
 4089SOL    HW213167   1.085   0.746   2.378
 4090SOL     OW13168   2.455   2.694   5.921
 4090SOL    HW113169   2.416   2.631   5.988
 4090SOL    HW213170   2.508   2.642   5.854
 4091SOL     OW13171   3.249   5.752   1.954
 4091SOL    HW113172   3.157   5.791   1.965
 4091SOL    HW213173   3.245   5.675   1.891
 4092SOL     OW13174   5.340   2.104   5.893
 4092SOL    HW113175   5.271   2.091   5.822
 4092SOL    HW213176   5.295   2.124   5.980
 4093SOL     OW13177   5.313   4.111   3.524
 4093SOL    HW113178   5.253   4.117   3.604
 4093SOL    HW213179   5.290   4.029   3.471
 4094SOL     OW13180   0.044   6.685   0.091
 4094SOL    HW113181   0.070   6.768   0.139
 4094SOL    HW213182   6.989   6.703   0.034
 4095SOL     OW13183   1.768   4.787   0.492
 4095SOL    HW113184   1.729   4.700   0.522
 4095SOL    HW213185   1.723   4.862   0.541
 4096SOL     OW13186   0.707   0.522   6.363
 4096SOL    HW113187   0.729   0.473   6.447
 4096SOL    HW213188   0.629   0.479   6.319
 4097SOL     OW13189   0.409   3.983   4.654
 4097SOL    HW113190   0.409   3.915   4.727
 4097SOL    HW213191   0.452   3.944   4.572
 4098SOL     OW13192   0.892   5.415   1.500
 4098SOL    HW113193   0.911   5.483   1.570
 4098SOL    HW213194   0.809   5.441   1.450
 4099SOL     OW13195   6.631   3.386   5.855
 4099SOL    HW113196   6.656   3.334   5.937
 4099SOL    HW213197   6.683   3.351   5.777
 4100SOL     OW13198   1.993   1.685   2.631
 4100SOL    HW113199   1.972   1.778   2.662
 4100SOL    HW213200   2.073   1.650   2.680
 4101SOL     OW13201   6.767   6.016   6.674
 4101SOL    HW113202   6.683   6.063   6.648
 4101SOL    HW213203   6.833   6.018   6.599
 4102SOL     OW13204   1.430   5.624   0.264
 4102SOL    HW113205   1.480   5.702   0.227
 4102SOL    HW213206   1.335   5.628   0.233
 4103SOL     OW13207   2.043   6.166   3.127
 4103SOL    HW113208   2.105   6.089   3.140
 4103SOL    HW213209   2.050   6.228   3.205
 4104SOL     OW13210   2.009   5.964   5.203
 4104SOL    HW113211   2.098   5.991   5.166
 4104SOL    HW213212   1.937   6.015   5.158
 4105SOL     OW13213   4.539   0.403   2.447
 4105SOL    HW113214   4.563   0.407   2.544
 4105SOL    HW213215   4.557   0.492   2.405
 4106SOL     OW13216   1.482   0.076   1.927
 4106SOL    HW113217   1.526   0.151   1.878
 4106SOL    HW213218   1.404   0.110   1.978
 4107SOL     OW13219   1.360   0.906   0.910
 4107SOL    HW113220   1.445   0.952   0.885
 4107SOL    HW213221   1.368   0.808   0.896
 4108SOL     OW13222   6.504   6.030   5.567
 4108SOL    HW113223   6.590   6.040   5.618
 4108SOL    HW213224   6.517   6.063   5.474
 4109SOL     OW13225   5.339   6.278   4.681
 4109SOL    HW113226   5.368   6.297   4.775
 4109SOL    HW213227   5.419   6.279   4.621
 4110SOL     OW13228   4.765   2.886   0.588
 4110SOL    HW113229   4.838   2.838   0.540
 4110SOL    HW213230   4.680   2.878   0.536
 4111SOL     OW13231   5.791   4.869   4.040
 4111SOL    HW113232   5.714   4.826   3.993
 4111SOL    HW213233   5.772   4.966   4.053
 4112SOL     OW13234   4.435   5.983   4.284
 4112SOL    HW113235   4.394   5.957   4.197
 4112SOL    HW213236   4.417   6.080   4.301
 4113SOL     OW13237   4.386   5.644   4.905
 4113SOL    HW113238   4.450   5.570   4.888
 4113SOL    HW213239   4.403   5.719   4.840
 4114SOL     OW13240   0.499   0.920   1.554
 4114SOL    HW113241   0.417   0.960   1.596
 4114SOL    HW213242   0.500   0.940   1.456
 4115SOL     OW13243   4.358   5.958   3.612
 4115SOL    HW113244   4.308   6.043   3.628
 4115SOL    HW213245   4.293   5.883   3.599
 4116SOL     OW13246   5.497   3.274   3.380
 4116SOL    HW113247   5.502   3.190   3.434
 4116SOL    HW213248   5.554   3.345   3.423
 4117SOL     OW13249   1.129   1.194   3.665
 4117SOL    HW113250   1.145   1.291   3.646
 4117SOL    HW213251   1.066   1.185   3.742
 4118SOL     OW13252   1.471   6.608   0.754
 4118SOL    HW113253   1.462   6.697   0.709
 4118SOL    HW213254   1.567   6.580   0.754
 4119SOL     OW13255   6.892   0.405   4.401
 4119SOL    HW113256   6.976   0.431   4.450
 4119SOL    HW213257   6.894   0.307   4.382
 4120SOL     OW13258   2.357   0.530   6.352
 4120SOL    HW113259   2.318   0.462   6.289
 4120SOL    HW213260   2.290   0.552   6.422
 4121SOL     OW13261   6.858   0.870   2.211
 4121SOL    HW113262   6.864   0.853   2.310
 4121SOL    HW213263   6.764   0.894   2.187
 4122SOL     OW13264   0.791   5.385   3.279
 4122SOL    HW113265   0.756   5.346   3.194
 4122SOL    HW213266   0.876   5.339   3.305
 4123SOL     OW13267   5.140   4.131   1.161
 4123SOL    HW113268   5.167   4.124   1.065
 4123SOL    HW213269   5.076   4.057   1.183
 4124SOL     OW13270   6.488   6.417   6.935
 4124SOL    HW113271   6.528   6.346   6.993
 4124SOL    HW213272   6.389   6.421   6.950
 4125SOL     OW13273   6.335   2.570   0.279
 4125SOL    HW113274   6.333   2.564   0.379
 4125SOL    HW213275   6.259   2.518   0.241
 4126SOL     OW13276   1.051   3.719   3.919
 4126SOL    HW113277   1.150   3.726   3.930
 4126SOL    HW213278   1.006   3.782   3.983
 4127SOL     OW13279   5.364   2.566   4.070
 4127SOL    HW113280   5.371   2.553   4.169
 4127SOL    HW213281   5.314   2.650   4.051
 4128SOL     OW13282   6.806   2.652   6.507
 4128SOL    HW113283   6.895   2.608   6.511
 4128SOL    HW213284   6.809   2.729   6.443
 4129SOL     OW13285   3.084   1.917   1.073
 4129SOL    HW113286   3.038   1.849   1.017
 4129SOL    HW213287   3.174   1.938   1.035
 4130SOL     OW13288   6.272   2.815   0.140
 4130SOL    HW113289   6.320   2.877   0.203
 4130SOL    HW213290   6.278   2.721   0.175
 4131SOL     OW13291   4.755   6.562   3.227
 4131SOL    HW113292   4.796   6.476   3.259
 4131SOL    HW213293   4.682   6.589   3.290
 4132SOL     OW13294   6.430   4.474   3.205
 4132SOL    HW113295   6.381   4.402   3.156
 4132SOL    HW213296   6.418   4.561   3.157
 4133SOL     OW13297   5.467   6.502   2.640
 4133SOL    HW113298   5.515   6.582   2.604
 4133SOL    HW213299   5.532   6.427   2.653
 4134SOL     OW13300   1.938   3.384   1.315
 4134SOL    HW113301   1.868   3.392   1.387
 4134SOL    HW213302   1.989   3.470   1.308
 4135SOL     OW13303   6.037   0.937   1.041
 4135SOL    HW113304   6.071   0.912   1.132
 4135SOL    HW213305   5.989   0.860   1.001
 4136SOL     OW13306   0.182   4.391   1.124
 4136SOL    HW113307   0.101   4.351   1.081
 4136SOL    HW213308   0.260   4.383   1.061
 4137SOL     OW13309   0.574   2.602   6.392
 4137SOL    HW113310   0.493   2.607   6.332
 4137SOL    HW213311   0.557   2.656   6.474
 4138SOL     OW13312   4.188   7.024   6.554
 4138SOL    HW113313   4.272   6.974   6.571
 4138SOL    HW213314   4.197   0.054   6.472
 4139SOL     OW13315   1.880   4.113   2.681
 4139SOL    HW113316   1.978   4.094   2.670
 4139SOL    HW213317   1.868   4.190   2.743
 4140SOL     OW13318   2.007   0.195   6.642
 4140SOL    HW113319   2.040   0.104   6.617
 4140SOL    HW213320   2.081   0.247   6.684
 4141SOL     OW13321   5.034   1.408   6.355
 4141SOL    HW113322   4.970   1.338   6.323
 4141SOL    HW213323   5.054   1.471   6.280
 4142SOL     OW13324   6.278   5.437   1.731
 4142SOL    HW113325   6.316   5.399   1.647
 4142SOL    HW213326   6.208   5.505   1.709
 4143SOL     OW13327   6.329   3.961   6.371
 4143SOL    HW113328   6.256   3.893   6.374
 4143SOL    HW213329   6.407   3.927   6.424
 4144SOL     OW13330   4.176   1.114   1.528
 4144SOL    HW113331   4.145   1.051   1.599
 4144SOL    HW213332   4.253   1.169   1.563
 4145SOL     OW13333   6.433   0.149   1.556
 4145SOL    HW113334   6.491   0.075   1.522
 4145SOL    HW213335   6.374   0.114   1.628
 4146SOL     OW13336   4.595   6.860   1.500
 4146SOL    HW113337   4.657   6.868   1.577
 4146SOL    HW213338   4.584   6.950   1.456
 4147SOL     OW13339   4.855   4.677   6.735
 4147SOL    HW113340   4.861   4.614   6.658
 4147SOL    HW213341   4.882   4.769   6.705
 4148SOL     OW13342   2.522   1.438   5.597
 4148SOL    HW113343   2.426   1.441   5.569
 4148SOL    HW213344   2.549   1.528   5.632
 4149SOL     OW13345   1.399   3.758   6.932
 4149SOL    HW113346   1.326   3.689   6.933
 4149SOL    HW213347   1.418   3.785   6.837
 4150SOL     OW13348   5.525   1.843   0.398
 4150SOL    HW113349   5.576   1.928   0.384
 4150SOL    HW213350   5.433   1.853   0.360
 4151SOL     OW13351   2.509   6.101   4.724
 4151SOL    HW113352   2.458   6.136   4.645
 4151SOL    HW213353   2.540   6.178   4.781
 4152SOL     OW13354   2.514   4.295   1.364
 4152SOL    HW113355   2.547   4.266   1.454
 4152SOL    HW213356   2.576   4.365   1.328
 4153SOL     OW13357   6.678   5.879   2.154
 4153SOL    HW113358   6.669   5.821   2.073
 4153SOL    HW213359   6.727   5.829   2.226
 4154SOL     OW13360   0.424   6.934   3.827
 4154SOL    HW113361   0.495   6.959   3.893
 4154SOL    HW213362   0.463   6.871   3.759
 4155SOL     OW13363   6.968   0.570   2.040
 4155SOL    HW113364   0.028   0.604   2.079
 4155SOL    HW213365   6.927   0.640   1.982
 4156SOL     OW13366   0.519   5.081   5.489
 4156SOL    HW113367   0.574   5.024   5.550
 4156SOL    HW213368   0.554   5.174   5.490
 4157SOL     OW13369   5.680   5.944   0.530
 4157SOL    HW113370   5.644   6.003   0.603
 4157SOL    HW213371   5.767   5.904   0.559
 4158SOL     OW13372   0.254   3.027   1.305
 4158SOL    HW113373   0.320   2.955   1.324
 4158SOL    HW213374   0.163   2.998   1.336
 4159SOL     OW13375   3.131   0.769   4.501
 4159SOL    HW113376   3.187   0.849   4.478
 4159SOL    HW213377   3.036   0.797   4.512
 4160SOL     OW13378   0.738   6.824   6.084
 4160SOL    HW113379   0.774   6.795   6.173
 4160SOL    HW213380   0.812   6.867   6.031
 4161SOL     OW13381   3.219   3.520   2.851
 4161SOL    HW113382   3.175   3.592   2.905
 4161SOL    HW213383   3.150   3.475   2.794
 4162SOL     OW13384   5.673   5.598   1.214
 4162SOL    HW113385   5.688   5.505   1.246
 4162SOL    HW213386   5.757   5.634   1.175
 4163SOL     OW13387   3.997   6.185   1.588
 4163SOL    HW113388   3.919   6.144   1.541
 4163SOL    HW213389   4.082   6.146   1.551
 4164SOL     OW13390   5.683   1.766   6.276
 4164SOL    HW113391   5.704   1.796   6.369
 4164SOL    HW213392   5.585   1.772   6.260
 4165SOL     OW13393   3.749   1.477   4.449
 4165SOL    HW113394   3.771   1.385   4.481
 4165SOL    HW213395   3.770   1.484   4.351
 4166SOL     OW13396   6.282   1.716   1.199
 4166SOL    HW113397   6.213   1.681   1.262
 4166SOL    HW213398   6.315   1.641   1.142
 4167SOL     OW13399   4.351   5.208   4.963
 4167SOL    HW113400   4.307   5.159   4.888
 4167SOL    HW213401   4.414   5.277   4.925
 4168SOL     OW13402   5.045   4.311   0.136
 4168SOL    HW113403   5.124   4.363   0.103
 4168SOL    HW213404   5.051   4.302   0.235
 4169SOL     OW13405   5.570   2.875   6.571
 4169SOL    HW113406   5.631   2.849   6.646
 4169SOL    HW213407   5.483   2.908   6.610
 4170SOL     OW13408   0.648   2.496   5.390
 4170SOL    HW113409   0.697   2.449   5.316
 4170SOL    HW213410   0.682   2.463   5.478
 4171SOL     OW13411   0.572   1.759   6.753
 4171SOL    HW113412   0.541   1.720   6.666
 4171SOL    HW213413   0.528   1.712   6.829
 4172SOL     OW13414   2.967   3.254   6.914
 4172SOL    HW113415   3.056   3.279   6.876
 4172SOL    HW213416   2.945   3.160   6.888
 4173SOL     OW13417   4.637   1.844   5.770
 4173SOL    HW113418   4.677   1.772   5.714
 4173SOL    HW213419   4.638   1.816   5.866
 4174SOL     OW13420   4.717   0.234   4.671
 4174SOL    HW113421   4.670   0.285   4.742
 4174SOL    HW213422   4.800   0.283   4.644
 4175SOL     OW13423   1.385   4.629   6.214
 4175SOL    HW113424   1.339   4.568   6.278
 4175SOL    HW213425   1.317   4.689   6.171
 4176SOL     OW13426   5.194   6.729   6.143
 4176SOL    HW113427   5.289   6.755   6.162
 4176SOL    HW213428   5.165   6.771   6.057
 4177SOL     OW13429   4.023   4.796   2.884
 4177SOL    HW113430   4.030   4.856   2.964
 4177SOL    HW213431   4.101   4.810   2.824
 4178SOL     OW13432   4.357   6.197   1.240
 4178SOL    HW113433   4.258   6.182   1.238
 4178SOL    HW213434   4.376   6.292   1.267
 4179SOL     OW13435   4.015   2.370   0.083
 4179SOL    HW113436   4.036   2.338   7.015
 4179SOL    HW213437   4.073   2.321   0.148
 4180SOL     OW13438   4.301   3.619   0.623
 4180SOL    HW113439   4.236   3.649   0.693
 4180SOL    HW213440   4.371   3.562   0.666
 4181SOL     OW13441   5.669   6.804   6.014
 4181SOL    HW113442   5.704   6.729   6.070
 4181SOL    HW213443   5.587   6.842   6.056
 4182SOL     OW13444   1.037   5.691   5.055
 4182SOL    HW113445   1.018   5.778   5.009
 4182SOL    HW213446   1.115   5.702   5.116
 4183SOL     OW13447   4.256   1.889   1.007
 4183SOL    HW113448   4.214   1.845   0.927
 4183SOL    HW213449   4.184   1.920   1.069
 4184SOL     OW13450   3.888   5.558   3.322
 4184SOL    HW113451   3.937   5.471   3.334
 4184SOL    HW213452   3.876   5.576   3.225
 4185SOL     OW13453   4.712   4.281   3.346
 4185SOL    HW113454   4.681   4.211   3.282
 4185SOL    HW213455   4.810   4.298   3.332
 4186SOL     OW13456   1.873   5.813   0.007
 4186SOL    HW113457   1.821   5.736   0.044
 4186SOL    HW213458   1.893   5.796   6.935
 4187SOL     OW13459   1.895   3.546   6.056
 4187SOL    HW113460   1.887   3.606   5.976
 4187SOL    HW213461   1.837   3.466   6.043
 4188SOL     OW13462   4.421   6.704   6.857
 4188SOL    HW113463   4.452   6.639   6.788
 4188SOL    HW213464   4.321   6.706   6.858
 4189SOL     OW13465   4.245   5.134   3.426
 4189SOL    HW113466   4.294   5.101   3.506
 4189SOL    HW213467   4.306   5.135   3.347
 4190SOL     OW13468   6.251   6.501   1.420
 4190SOL    HW113469   6.211   6.568   1.357
 4190SOL    HW213470   6.348   6.490   1.400
 4191SOL     OW13471   4.551   3.318   6.690
 4191SOL    HW113472   4.568   3.254   6.764
 4191SOL    HW213473   4.455   3.312   6.661
 4192SOL     OW13474   1.796   3.684   0.151
 4192SOL    HW113475   1.785   3.781   0.171
 4192SOL    HW213476   1.714   3.650   0.104
 4193SOL     OW13477   0.273   0.533   0.069
 4193SOL    HW113478   0.240   0.508   7.003
 4193SOL    HW213479   0.370   0.512   0.076
 4194SOL     OW13480   5.416   1.705   5.727
 4194SOL    HW113481   5.411   1.686   5.825
 4194SOL    HW213482   5.357   1.782   5.705
 4195SOL     OW13483   3.271   6.879   1.096
 4195SOL    HW113484   3.275   6.826   1.181
 4195SOL    HW213485   3.352   6.860   1.041
 4196SOL     OW13486   6.408   3.026   2.382
 4196SOL    HW113487   6.486   2.994   2.436
 4196SOL    HW213488   6.435   3.037   2.286
 4197SOL     OW13489   3.173   0.741   6.930
 4197SOL    HW113490   3.272   0.750   6.932
 4197SOL    HW213491   3.148   0.650   6.897
 4198SOL     OW13492   6.491   2.556   2.519
 4198SOL    HW113493   6.540   2.510   2.445
 4198SOL    HW213494   6.470   2.490   2.591
 4199SOL     OW13495   0.479   3.883   6.434
 4199SOL    HW113496   0.517   3.892   6.526
 4199SOL    HW213497   0.432   3.967   6.409
 4200SOL     OW13498   4.698   1.992   4.053
 4200SOL    HW113499   4.688   2.046   4.137
 4200SOL    HW213500   4.617   2.005   3.996
 4201SOL     OW13501   5.750   6.793   3.647
 4201SOL    HW113502   5.699   6.721   3.695
 4201SOL    HW213503   5.847   6.769   3.644
 4202SOL     OW13504   4.779   3.710   1.480
 4202SOL    HW113505   4.687   3.744   1.500
 4202SOL    HW213506   4.839   3.786   1.459
 4203SOL     OW13507   6.377   4.380   5.387
 4203SOL    HW113508   6.433   4.310   5.343
 4203SOL    HW213509   6.379   4.367   5.486
 4204SOL     OW13510   1.674   4.174   6.821
 4204SOL    HW113511   1.701   4.204   6.730
 4204SOL    HW213512   1.744   4.112   6.857
 4205SOL     OW13513   4.331   6.397   6.225
 4205SOL    HW113514   4.336   6.427   6.130
 4205SOL    HW213515   4.278   6.463   6.278
 4206SOL     OW13516   2.005   2.084   3.753
 4206SOL    HW113517   1.978   2.153   3.686
 4206SOL    HW213518   2.099   2.054   3.734
 4207SOL     OW13519   0.555   1.764   2.370
 4207SOL    HW113520   0.547   1.837   2.439
 4207SOL    HW213521   0.469   1.753   2.322
 4208SOL     OW13522   2.066   2.321   3.590
 4208SOL    HW113523   2.138   2.253   3.575
 4208SOL    HW213524   2.094   2.383   3.663
 4209SOL     OW13525   6.889   6.448   1.960
 4209SOL    HW113526   6.862   6.380   2.028
 4209SOL    HW213527   6.979   6.425   1.924
 4210SOL     OW13528   2.906   3.790   5.024
 4210SOL    HW113529   2.929   3.708   5.078
 4210SOL    HW213530   2.839   3.845   5.074
 4211SOL     OW13531   4.068   2.744   5.333
 4211SOL    HW113532   4.101   2.672   5.273
 4211SOL    HW213533   3.995   2.709   5.392
 4212SOL     OW13534   0.204   1.956   3.148
 4212SOL    HW113535   0.227   1.900   3.069
 4212SOL    HW213536   0.125   2.014   3.125
 4213SOL     OW13537   3.140   0.064   4.188
 4213SOL    HW113538   3.223   0.045   4.137
 4213SOL    HW213539   3.131   0.163   4.202
 4214SOL     OW13540   6.933   6.094   2.990
 4214SOL    HW113541   6.848   6.139   2.962
 4214SOL    HW213542   6.923   5.995   2.982
 4215SOL     OW13543   5.664   6.862   5.758
 4215SOL    HW113544   5.571   6.866   5.720
 4215SOL    HW213545   5.662   6.811   5.844
 4216SOL     OW13546   2.366   5.370   1.849
 4216SOL    HW113547   2.466   5.371   1.845
 4216SOL    HW213548   2.334   5.278   1.871
 4217SOL     OW13549   0.945   6.989   2.774
 4217SOL    HW113550   0.897   0.008   2.850
 4217SOL    HW213551   0.904   6.899   2.757
 4218SOL     OW13552   2.622   0.935   0.652
 4218SOL    HW113553   2.665   0.966   0.737
 4218SOL    HW213554   2.642   0.838   0.638
 4219SOL     OW13555   3.837   5.582   2.793
 4219SOL    HW113556   3.802   5.523   2.866
 4219SOL    HW213557   3.791   5.560   2.707
 4220SOL     OW13558   5.299   1.502   0.936
 4220SOL    HW113559   5.319   1.569   1.007
 4220SOL    HW213560   5.230   1.539   0.874
 4221SOL     OW13561   1.243   6.591   0.600
 4221SOL    HW113562   1.217   6.498   0.572
 4221SOL    HW213563   1.330   6.587   0.649
 4222SOL     OW13564   4.841   3.313   4.009
 4222SOL    HW113565   4.887   3.402   4.003
 4222SOL    HW213566   4.835   3.286   4.105
 4223SOL     OW13567   4.075   3.715   2.310
 4223SOL    HW113568   4.127   3.649   2.364
 4223SOL    HW213569   3.981   3.720   2.344
 4224SOL     OW13570   4.496   5.200   4.675
 4224SOL    HW113571   4.519   5.103   4.668
 4224SOL    HW213572   4.397   5.211   4.662
 4225SOL     OW13573   1.023   1.586   6.271
 4225SOL    HW113574   1.116   1.617   6.290
 4225SOL    HW213575   1.007   1.498   6.317
 4226SOL     OW13576   0.788   5.289   4.716
 4226SOL    HW113577   0.748   5.235   4.790
 4226SOL    HW213578   0.860   5.348   4.752
 4227SOL     OW13579   5.082   5.330   1.754
 4227SOL    HW113580   5.055   5.295   1.843
 4227SOL    HW213581   5.098   5.253   1.691
 4228SOL     OW13582   1.824   4.837   4.152
 4228SOL    HW113583   1.771   4.889   4.219
 4228SOL    HW213584   1.805   4.740   4.162
 4229SOL     OW13585   5.926   5.551   5.338
 4229SOL    HW113586   5.911   5.576   5.433
 4229SOL    HW213587   5.949   5.454   5.332
 4230SOL     OW13588   0.270   1.005   1.652
 4230SOL    HW113589   0.244   0.974   1.743
 4230SOL    HW213590   0.225   0.948   1.583
 4231SOL     OW13591   0.312   1.825   6.450
 4231SOL    HW113592   0.256   1.908   6.439
 4231SOL    HW213593   0.295   1.763   6.374
 4232SOL     OW13594   1.717   5.196   3.985
 4232SOL    HW113595   1.796   5.245   3.949
 4232SOL    HW213596   1.733   5.097   3.980
 4233SOL     OW13597   4.539   5.740   2.094
 4233SOL    HW113598   4.501   5.730   2.186
 4233SOL    HW213599   4.464   5.745   2.028
 4234SOL     OW13600   3.500   5.205   5.730
 4234SOL    HW113601   3.545   5.267   5.665
 4234SOL    HW213602   3.413   5.245   5.759
 4235SOL     OW13603   0.044   5.988   6.135
 4235SOL    HW113604   7.025   6.061   6.186
 4235SOL    HW213605   0.051   6.014   6.039
 4236SOL     OW13606   0.662   5.725   2.556
 4236SOL    HW113607   0.644   5.823   2.549
 4236SOL    HW213608   0.678   5.699   2.651
 4237SOL     OW13609   0.454   4.584   4.193
 4237SOL    HW113610   0.413   4.674   4.179
 4237SOL    HW213611   0.386   4.513   4.178
 4238SOL     OW13612   3.544   6.611   2.296
 4238SOL    HW113613   3.508   6.595   2.388
 4238SOL    HW213614   3.468   6.636   2.235
 4239SOL     OW13615   4.429   1.423   4.153
 4239SOL    HW113616   4.503   1.489   4.167
 4239SOL    HW213617   4.361   1.463   4.091
 4240SOL     OW13618   6.041   6.809   2.128
 4240SOL    HW113619   5.991   6.878   2.182
 4240SOL    HW213620   5.977   6.739   2.097
 4241SOL     OW13621   6.059   4.279   0.649
 4241SOL    HW113622   6.114   4.360   0.625
 4241SOL    HW213623   6.039   4.281   0.747
 4242SOL     OW13624   3.144   1.955   3.532
 4242SOL    HW113625   3.175   2.005   3.452
 4242SOL    HW213626   3.113   1.864   3.505
 4243SOL     OW13627   4.781   1.141   3.112
 4243SOL    HW113628   4.697   1.108   3.155
 4243SOL    HW213629   4.785   1.241   3.120
 4244SOL     OW13630   3.257   2.973   4.387
 4244SOL    HW113631   3.227   2.984   4.482
 4244SOL    HW213632   3.345   2.924   4.385
 4245SOL     OW13633   5.411   0.305   6.895
 4245SOL    HW113634   5.333   0.261   6.850
 4245SOL    HW213635   5.472   0.343   6.825
 4246SOL     OW13636   0.135   3.738   6.872
 4246SOL    HW113637   0.206   3.673   6.900
 4246SOL    HW213638   0.159   3.777   6.783
 4247SOL     OW13639   0.467   5.785   4.952
 4247SOL    HW113640   0.487   5.851   5.023
 4247SOL    HW213641   0.552   5.744   4.918
 4248SOL     OW13642   2.207   3.861   5.773
 4248SOL    HW113643   2.159   3.935   5.820
 4248SOL    HW213644   2.177   3.858   5.677
 4249SOL     OW13645   5.603   4.546   5.712
 4249SOL    HW113646   5.693   4.528   5.751
 4249SOL    HW213647   5.552   4.607   5.773
 4250SOL     OW13648   1.037   4.980   2.894
 4250SOL    HW113649   1.082   4.916   2.956
 4250SOL    HW213650   0.952   5.012   2.934
 4251SOL     OW13651   5.468   3.788   0.095
 4251SOL    HW113652   5.423   3.868   0.054
 4251SOL    HW213653   5.405   3.711   0.095
 4252SOL     OW13654   0.472   5.927   5.193
 4252SOL    HW113655   0.389   5.969   5.229
 4252SOL    HW213656   0.522   5.882   5.267
 4253SOL     OW13657   4.272   6.605   3.005
 4253SOL    HW113658   4.187   6.559   3.032
 4253SOL    HW213659   4.286   6.592   2.907
 4254SOL     OW13660   3.012   4.349   1.443
 4254SOL    HW113661   2.949   4.291   1.392
 4254SOL    HW213662   2.988   4.348   1.540
 4255SOL     OW13663   0.449   2.046   4.383
 4255SOL    HW113664   0.414   2.129   4.341
 4255SOL    HW213665   0.438   2.053   4.483
 4256SOL     OW13666   2.103   0.733   1.559
 4256SOL    HW113667   2.105   0.745   1.658
 4256SOL    HW213668   2.163   0.800   1.516
 4257SOL     OW13669   4.165   2.149   4.668
 4257SOL    HW113670   4.228   2.196   4.730
 4257SOL    HW213671   4.155   2.202   4.584
 4258SOL     OW13672   5.146   6.835   2.010
 4258SOL    HW113673   5.159   6.779   2.092
 4258SOL    HW213674   5.226   6.829   1.952
 4259SOL     OW13675   1.787   2.503   0.896
 4259SOL    HW113676   1.799   2.602   0.904
 4259SOL    HW213677   1.827   2.458   0.976
 4260SOL     OW13678   4.436   5.945   3.325
 4260SOL    HW113679   4.400   5.852   3.330
 4260SOL    HW213680   4.443   5.983   3.417
 4261SOL     OW13681   2.222   1.401   2.976
 4261SOL    HW113682   2.176   1.471   3.030
 4261SOL    HW213683   2.198   1.310   3.011
 4262SOL     OW13684   6.924   6.004   6.467
 4262SOL    HW113685   6.962   5.916   6.438
 4262SOL    HW213686   6.945   6.074   6.399
 4263SOL     OW13687   3.934   5.457   5.905
 4263SOL    HW113688   3.889   5.426   5.989
 4263SOL    HW213689   3.958   5.378   5.849
 4264SOL     OW13690   0.136   6.948   0.731
 4264SOL    HW113691   0.149   6.887   0.810
 4264SOL    HW213692   0.224   6.989   0.706
 4265SOL     OW13693   0.182   2.542   0.228
 4265SOL    HW113694   0.280   2.526   0.241
 4265SOL    HW213695   0.130   2.481   0.288
 4266SOL     OW13696   3.397   4.576   1.056
 4266SOL    HW113697   3.383   4.664   1.102
 4266SOL    HW213698   3.331   4.510   1.090
 4267SOL     OW13699   2.157   4.264   6.032
 4267SOL    HW113700   2.108   4.313   5.960
 4267SOL    HW213701   2.108   4.274   6.119
 4268SOL     OW13702   1.534   1.084   0.493
 4268SOL    HW113703   1.483   1.170   0.494
 4268SOL    HW213704   1.624   1.098   0.534
 4269SOL     OW13705   2.919   3.665   0.794
 4269SOL    HW113706   2.859   3.641   0.717
 4269SOL    HW213707   3.007   3.620   0.783
 4270SOL     OW13708   3.665   2.865   5.666
 4270SOL    HW113709   3.640   2.947   5.716
 4270SOL    HW213710   3.742   2.820   5.711
 4271SOL     OW13711   1.185   6.902   6.978
 4271SOL    HW113712   1.172   6.949   0.040
 4271SOL    HW213713   1.099   6.861   6.949
 4272SOL     OW13714   6.796   4.194   3.375
 4272SOL    HW113715   6.742   4.190   3.459
 4272SOL    HW213716   6.748   4.251   3.308
 4273SOL     OW13717   5.708   6.066   4.718
 4273SOL    HW113718   5.669   6.158   4.728
 4273SOL    HW213719   5.792   6.071   4.665
 4274SOL     OW13720   1.957   0.289   3.856
 4274SOL    HW113721   1.967   0.225   3.932
 4274SOL    HW213722   2.036   0.350   3.854
 4275SOL     OW13723   1.234   6.745   6.606
 4275SOL    HW113724   1.202   6.674   6.670
 4275SOL    HW213725   1.156   6.797   6.572
 4276SOL     OW13726   1.646   4.244   2.548
 4276SOL    HW113727   1.563   4.203   2.512
 4276SOL    HW213728   1.714   4.173   2.564
 4277SOL     OW13729   0.762   5.149   4.107
 4277SOL    HW113730   0.724   5.225   4.161
 4277SOL    HW213731   0.759   5.172   4.010
 4278SOL     OW13732   0.827   6.385   5.448
 4278SOL    HW113733   0.771   6.309   5.415
 4278SOL    HW213734   0.883   6.420   5.373
 4279SOL     OW13735   3.501   5.492   4.200
 4279SOL    HW113736   3.402   5.504   4.198
 4279SOL    HW213737   3.539   5.509   4.109
 4280SOL     OW13738   4.997   3.414   3.587
 4280SOL    HW113739   5.061   3.408   3.511
 4280SOL    HW213740   4.926   3.482   3.566
 4281SOL     OW13741   2.546   3.708   5.313
 4281SOL    HW113742   2.472   3.676   5.372
 4281SOL    HW213743   2.515   3.788   5.261
 4282SOL     OW13744   1.021   2.882   1.038
 4282SOL    HW113745   1.018   2.976   1.072
 4282SOL    HW213746   1.044   2.882   0.940
 4283SOL     OW13747   2.046   0.391   4.354
 4283SOL    HW113748   2.139   0.358   4.367
 4283SOL    HW213749   1.981   0.318   4.378
 4284SOL     OW13750   6.274   1.587   2.931
 4284SOL    HW113751   6.195   1.647   2.920
 4284SOL    HW213752   6.356   1.632   2.895
 4285SOL     OW13753   1.087   6.215   5.338
 4285SOL    HW113754   1.105   6.253   5.429
 4285SOL    HW213755   1.028   6.135   5.347
 4286SOL     OW13756   5.637   5.381   6.898
 4286SOL    HW113757   5.622   5.360   6.802
 4286SOL    HW213758   5.732   5.409   6.911
 4287SOL     OW13759   4.210   6.676   4.888
 4287SOL    HW113760   4.225   6.619   4.969
 4287SOL    HW213761   4.206   6.619   4.807
 4288SOL     OW13762   1.515   6.574   2.773
 4288SOL    HW113763   1.608   6.589   2.741
 4288SOL    HW213764   1.514   6.577   2.873
 4289SOL     OW13765   5.805   3.610   0.734
 4289SOL    HW113766   5.827   3.538   0.799
 4289SOL    HW213767   5.743   3.676   0.776
 4290SOL     OW13768   2.132   1.183   2.219
 4290SOL    HW113769   2.128   1.096   2.170
 4290SOL    HW213770   2.210   1.182   2.282
 4291SOL     OW13771   6.125   5.030   1.139
 4291SOL    HW113772   6.049   5.005   1.079
 4291SOL    HW213773   6.201   4.966   1.126
 4292SOL     OW13774   5.739   5.702   5.776
 4292SOL    HW113775   5.718   5.688   5.873
 4292SOL    HW213776   5.808   5.774   5.767
 4293SOL     OW13777   0.009   2.581   6.683
 4293SOL    HW113778   0.075   2.507   6.697
 4293SOL    HW213779   6.983   2.598   6.767
 4294SOL     OW13780   5.152   2.732   6.240
 4294SOL    HW113781   5.176   2.816   6.191
 4294SOL    HW213782   5.234   2.677   6.254
 4295SOL     OW13783   4.184   6.543   4.655
 4295SOL    HW113784   4.217   6.460   4.610
 4295SOL    HW213785   4.125   6.594   4.592
 4296SOL     OW13786   2.108   1.368   1.098
 4296SOL    HW113787   2.202   1.337   1.087
 4296SOL    HW213788   2.080   1.421   1.017
 4297SOL     OW13789   5.940   0.813   6.272
 4297SOL    HW113790   5.986   0.739   6.223
 4297SOL    HW213791   5.972   0.816   6.367
 4298SOL     OW13792   2.978   5.137   1.160
 4298SOL    HW113793   3.016   5.103   1.246
 4298SOL    HW213794   3.052   5.147   1.093
 4299SOL     OW13795   0.849   4.007   6.495
 4299SOL    HW113796   0.941   4.046   6.503
 4299SOL    HW213797   0.821   4.008   6.399
 4300SOL     OW13798   5.938   0.202   6.270
 4300SOL    HW113799   5.929   0.156   6.358
 4300SOL    HW213800   5.955   0.134   6.198
 4301SOL     OW13801   2.468   1.525   0.487
 4301SOL    HW113802   2.490   1.614   0.527
 4301SOL    HW213803   2.548   1.466   0.489
 4302SOL     OW13804   0.720   6.628   0.062
 4302SOL    HW113805   0.811   6.663   0.084
 4302SOL    HW213806   0.694   6.658   6.996
 4303SOL     OW13807   0.118   3.398   1.924
 4303SOL    HW113808   0.140   3.465   1.853
 4303SOL    HW213809   0.130   3.306   1.886
 4304SOL     OW13810   3.164   2.926   5.069
 4304SOL    HW113811   3.241   2.989   5.075
 4304SOL    HW213812   3.182   2.857   4.999
 4305SOL     OW13813   6.624   1.326   4.355
 4305SOL    HW113814   6.536   1.313   4.310
 4305SOL    HW213815   6.689   1.368   4.291
 4306SOL     OW13816   6.346   5.882   5.774
 4306SOL    HW113817   6.391   5.908   5.689
 4306SOL    HW213818   6.316   5.787   5.769
 4307SOL     OW13819   4.894   3.091   6.750
 4307SOL    HW113820   4.945   3.069   6.666
 4307SOL    HW213821   4.953   3.078   6.829
 4308SOL     OW13822   4.255   6.556   5.132
 4308SOL    HW113823   4.351   6.575   5.112
 4308SOL    HW213824   4.232   6.589   5.223
 4309SOL     OW13825   1.361   1.482   0.783
 4309SOL    HW113826   1.337   1.578   0.771
 4309SOL    HW213827   1.284   1.425   0.752
 4310SOL     OW13828   1.252   0.968   2.309
 4310SOL    HW113829   1.228   0.871   2.314
 4310SOL    HW213830   1.321   0.989   2.378
 4311SOL     OW13831   1.596   6.077   4.227
 4311SOL    HW113832   1.681   6.117   4.192
 4311SOL    HW213833   1.532   6.064   4.152
 4312SOL     OW13834   2.007   5.335   2.235
 4312SOL    HW113835   2.018   5.382   2.323
 4312SOL    HW213836   2.043   5.392   2.162
 4313SOL     OW13837   4.832   0.507   1.674
 4313SOL    HW113838   4.887   0.428   1.647
 4313SOL    HW213839   4.793   0.550   1.592
 4314SOL     OW13840   5.067   3.439   2.924
 4314SOL    HW113841   5.103   3.423   3.016
 4314SOL    HW213842   5.005   3.518   2.926
 4315SOL     OW13843   2.587   1.883   1.956
 4315SOL    HW113844   2.562   1.830   1.875
 4315SOL    HW213845   2.505   1.915   2.002
 4316SOL     OW13846   0.059   0.330   2.349
 4316SOL    HW113847   0.050   0.430   2.341
 4316SOL    HW213848   0.018   0.287   2.268
 4317SOL     OW13849   3.978   0.625   3.138
 4317SOL    HW113850   4.018   0.621   3.047
 4317SOL    HW213851   4.049   0.655   3.203
 4318SOL     OW13852   0.333   2.890   3.939
 4318SOL    HW113853   0.393   2.906   3.861
 4318SOL    HW213854   0.256   2.954   3.935
 4319SOL     OW13855   2.455   3.505   5.801
 4319SOL    HW113856   2.384   3.564   5.838
 4319SOL    HW213857   2.445   3.412   5.838
 4320SOL     OW13858   0.435   6.440   2.798
 4320SOL    HW113859   0.505   6.458   2.729
 4320SOL    HW213860   0.364   6.382   2.759
 4321SOL     OW13861   0.849   0.525   4.937
 4321SOL    HW113862   0.817   0.619   4.940
 4321SOL    HW213863   0.781   0.467   4.892
 4322SOL     OW13864   5.467   1.097   0.495
 4322SOL    HW113865   5.539   1.036   0.462
 4322SOL    HW213866   5.392   1.043   0.532
 4323SOL     OW13867   6.594   2.763   3.869
 4323SOL    HW113868   6.680   2.802   3.838
 4323SOL    HW213869   6.612   2.681   3.922
 4324SOL     OW13870   6.299   3.721   5.836
 4324SOL    HW113871   6.269   3.763   5.751
 4324SOL    HW213872   6.260   3.772   5.913
 4325SOL     OW13873   1.770   1.832   5.688
 4325SOL    HW113874   1.858   1.805   5.651
 4325SOL    HW213875   1.780   1.858   5.784
 4326SOL     OW13876   6.196   2.054   5.688
 4326SOL    HW113877   6.175   2.019   5.780
 4326SOL    HW213878   6.179   1.982   5.621
 4327SOL     OW13879   5.611   0.295   3.351
 4327SOL    HW113880   5.539   0.229   3.372
 4327SOL    HW213881   5.585   0.385   3.384
 4328SOL     OW13882   5.500   5.302   0.573
 4328SOL    HW113883   5.508   5.236   0.498
 4328SOL    HW213884   5.588   5.348   0.586
 4329SOL     OW13885   3.741   1.486   5.855
 4329SOL    HW113886   3.659   1.431   5.837
 4329SOL    HW213887   3.721   1.553   5.926
 4330SOL     OW13888   0.899   0.291   6.412
 4330SOL    HW113889   0.998   0.302   6.410
 4330SOL    HW213890   0.870   0.232   6.336
 4331SOL     OW13891   5.761   2.778   0.709
 4331SOL    HW113892   5.807   2.807   0.793
 4331SOL    HW213893   5.804   2.696   0.674
 4332SOL     OW13894   5.377   3.516   1.388
 4332SOL    HW113895   5.456   3.475   1.342
 4332SOL    HW213896   5.335   3.584   1.328
 4333SOL     OW13897   5.428   1.738   5.337
 4333SOL    HW113898   5.452   1.650   5.296
 4333SOL    HW213899   5.344   1.773   5.295
 4334SOL     OW13900   4.316   0.739   1.847
 4334SOL    HW113901   4.388   0.698   1.903
 4334SOL    HW213902   4.229   0.733   1.895
 4335SOL     OW13903   3.666   3.896   5.436
 4335SOL    HW113904   3.662   3.839   5.518
 4335SOL    HW213905   3.651   3.992   5.461
 4336SOL     OW13906   1.913   6.592   4.308
 4336SOL    HW113907   1.835   6.623   4.254
 4336SOL    HW213908   1.907   6.629   4.400
 4337SOL     OW13909   0.499   5.070   0.809
 4337SOL    HW113910   0.415   5.071   0.754
 4337SOL    HW213911   0.549   4.985   0.792
 4338SOL     OW13912   6.541   6.195   3.748
 4338SOL    HW113913   6.580   6.125   3.808
 4338SOL    HW213914   6.607   6.219   3.677
 4339SOL     OW13915   6.049   1.135   6.417
 4339SOL    HW113916   6.103   1.210   6.378
 4339SOL    HW213917   6.032   1.153   6.514
 4340SOL     OW13918   4.871   2.866   2.172
 4340SOL    HW113919   4.812   2.938   2.135
 4340SOL    HW213920   4.959   2.869   2.125
 4341SOL     OW13921   0.619   4.198   0.293
 4341SOL    HW113922   0.527   4.179   0.258
 4341SOL    HW213923   0.657   4.115   0.334
 4342SOL     OW13924   0.111   3.015   2.897
 4342SOL    HW113925   0.158   3.102   2.910
 4342SOL    HW213926   0.043   3.003   2.969
 4343SOL     OW13927   2.332   1.812   1.495
 4343SOL    HW113928   2.316   1.822   1.397
 4343SOL    HW213929   2.260   1.860   1.546
 4344SOL     OW13930   2.233   4.037   3.068
 4344SOL    HW113931   2.256   4.086   2.984
 4344SOL    HW213932   2.189   3.950   3.044
 4345SOL     OW13933   2.079   1.770   6.106
 4345SOL    HW113934   2.023   1.850   6.085
 4345SOL    HW213935   2.166   1.798   6.145
 4346SOL     OW13936   0.604   2.736   1.564
 4346SOL    HW113937   0.603   2.816   1.503
 4346SOL    HW213938   0.693   2.728   1.608
 4347SOL     OW13939   6.299   5.609   2.935
 4347SOL    HW113940   6.388   5.654   2.946
 4347SOL    HW213941   6.226   5.675   2.955
 4348SOL     OW13942   1.006   3.696   0.164
 4348SOL    HW113943   0.992   3.761   0.089
 4348SOL    HW213944   1.032   3.746   0.246
 4349SOL     OW13945   6.735   0.145   3.431
 4349SOL    HW113946   6.715   0.242   3.424
 4349SOL    HW213947   6.737   0.105   3.339
 4350SOL     OW13948   5.349   1.501   3.962
 4350SOL    HW113949   5.348   1.560   4.042
 4350SOL    HW213950   5.355   1.557   3.879
 4351SOL     OW13951   3.280   6.444   0.750
 4351SOL    HW113952   3.330   6.460   0.835
 4351SOL    HW213953   3.183   6.432   0.771
 4352SOL     OW13954   6.433   1.414   1.965
 4352SOL    HW113955   6.523   1.372   1.976
 4352SOL    HW213956   6.381   1.363   1.895
 4353SOL     OW13957   3.366   5.434   0.708
 4353SOL    HW113958   3.464   5.417   0.719
 4353SOL    HW213959   3.321   5.421   0.796
 4354SOL     OW13960   1.467   0.263   1.207
 4354SOL    HW113961   1.431   0.281   1.298
 4354SOL    HW213962   1.525   0.339   1.178
 4355SOL     OW13963   5.001   0.971   1.009
 4355SOL    HW113964   5.067   1.034   0.968
 4355SOL    HW213965   4.934   1.024   1.063
 4356SOL     OW13966   4.320   4.175   0.160
 4356SOL    HW113967   4.253   4.160   0.088
 4356SOL    HW213968   4.412   4.156   0.125
 4357SOL     OW13969   6.399   0.984   6.706
 4357SOL    HW113970   6.398   0.887   6.730
 4357SOL    HW213971   6.493   1.018   6.710
 4358SOL     OW13972   0.265   0.148   1.532
 4358SOL    HW113973   0.361   0.162   1.508
 4358SOL    HW213974   0.254   0.156   1.631
 4359SOL     OW13975   6.364   2.528   4.291
 4359SOL    HW113976   6.335   2.578   4.209
 4359SOL    HW213977   6.331   2.575   4.373
 4360SOL     OW13978   2.292   3.247   0.936
 4360SOL    HW113979   2.344   3.243   0.850
 4360SOL    HW213980   2.301   3.160   0.984
 4361SOL     OW13981   5.076   1.585   2.016
 4361SOL    HW113982   5.000   1.573   2.079
 4361SOL    HW213983   5.152   1.630   2.063
 4362SOL     OW13984   5.749   4.568   3.911
 4362SOL    HW113985   5.842   4.553   3.877
 4362SOL    HW213986   5.720   4.488   3.965
 4363SOL     OW13987   5.027   1.696   5.507
 4363SOL    HW113988   5.089   1.746   5.568
 4363SOL    HW213989   4.986   1.620   5.558
 4364SOL     OW13990   3.414   3.488   5.205
 4364SOL    HW113991   3.335   3.504   5.146
 4364SOL    HW213992   3.389   3.426   5.279
 4365SOL     OW13993   2.902   1.561   1.445
 4365SOL    HW113994   2.866   1.507   1.369
 4365SOL    HW213995   3.001   1.571   1.435
 4366SOL     OW13996   5.433   5.587   1.130
 4366SOL    HW113997   5.524   5.603   1.168
 4366SOL    HW213998   5.441   5.529   1.049
 4367SOL     OW13999   0.471   6.225   0.223
 4367SOL    HW114000   0.538   6.272   0.166
 4367SOL    HW214001   0.518   6.159   0.282
 4368SOL     OW14002   5.239   3.542   1.840
 4368SOL    HW114003   5.151   3.525   1.884
 4368SOL    HW214004   5.311   3.495   1.891
 4369SOL     OW14005   3.065   5.831   1.661
 4369SOL    HW114006   3.083   5.840   1.563
 4369SOL    HW214007   3.091   5.740   1.691
 4370SOL     OW14008   5.253   5.103   2.899
 4370SOL    HW114009   5.227   5.016   2.942
 4370SOL    HW214010   5.351   5.105   2.884
 4371SOL     OW14011   0.009   1.569   2.239
 4371SOL    HW114012   6.964   1.639   2.223
 4371SOL    HW214013   0.005   1.501   2.166
 4372SOL     OW14014   4.744   6.778   3.661
 4372SOL    HW114015   4.844   6.776   3.652
 4372SOL    HW214016   4.711   6.687   3.684
 4373SOL     OW14017   0.232   1.658   6.232
 4373SOL    HW114018   0.208   1.561   6.235
 4373SOL    HW214019   0.268   1.680   6.141
 4374SOL     OW14020   2.956   2.148   1.086
 4374SOL    HW114021   2.993   2.055   1.095
 4374SOL    HW214022   2.871   2.144   1.032
 4375SOL     OW14023   3.472   6.805   4.151
 4375SOL    HW114024   3.443   6.896   4.181
 4375SOL    HW214025   3.506   6.754   4.230
 4376SOL     OW14026   6.291   1.729   4.117
 4376SOL    HW114027   6.219   1.798   4.115
 4376SOL    HW214028   6.330   1.719   4.025
 4377SOL     OW14029   5.970   5.365   6.631
 4377SOL    HW114030   5.948   5.400   6.541
 4377SOL    HW214031   5.942   5.269   6.637
 4378SOL     OW14032   2.180   1.147   3.634
 4378SOL    HW114033   2.186   1.210   3.711
 4378SOL    HW214034   2.262   1.156   3.578
 4379SOL     OW14035   2.824   1.914   4.960
 4379SOL    HW114036   2.917   1.945   4.980
 4379SOL    HW214037   2.824   1.861   4.875
 4380SOL     OW14038   0.670   1.182   2.018
 4380SOL    HW114039   0.702   1.138   2.102
 4380SOL    HW214040   0.573   1.161   2.005
 4381SOL     OW14041   1.838   6.077   6.507
 4381SOL    HW114042   1.843   6.014   6.430
 4381SOL    HW214043   1.860   6.170   6.475
 4382SOL     OW14044   0.545   3.953   5.247
 4382SOL    HW114045   0.466   3.893   5.234
 4382SOL    HW214046   0.629   3.903   5.225
 4383SOL     OW14047   6.599   3.445   6.836
 4383SOL    HW114048   6.612   3.389   6.755
 4383SOL    HW214049   6.612   3.542   6.812
 4384SOL     OW14050   5.538   6.672   3.878
 4384SOL    HW114051   5.626   6.637   3.912
 4384SOL    HW214052   5.496   6.730   3.947
 4385SOL     OW14053   4.160   1.624   5.176
 4385SOL    HW114054   4.171   1.679   5.093
 4385SOL    HW214055   4.063   1.615   5.197
 4386SOL     OW14056   2.018   3.692   5.096
 4386SOL    HW114057   1.973   3.691   5.007
 4386SOL    HW214058   1.950   3.710   5.168
 4387SOL     OW14059   6.534   1.797   0.325
 4387SOL    HW114060   6.589   1.816   0.245
 4387SOL    HW214061   6.551   1.703   0.356
 4388SOL     OW14062   5.027   3.332   6.625
 4388SOL    HW114063   5.018   3.292   6.534
 4388SOL    HW214064   4.978   3.275   6.691
 4389SOL     OW14065   0.848   3.319   0.995
 4389SOL    HW114066   0.799   3.362   1.071
 4389SOL    HW214067   0.836   3.374   0.912
 4390SOL     OW14068   6.941   1.280   0.670
 4390SOL    HW114069   6.899   1.257   0.583
 4390SOL    HW214070   6.943   1.199   0.729
 4391SOL     OW14071   1.385   5.877   0.747
 4391SOL    HW114072   1.422   5.826   0.825
 4391SOL    HW214073   1.388   5.819   0.666
 4392SOL     OW14074   1.288   2.820   5.478
 4392SOL    HW114075   1.268   2.734   5.527
 4392SOL    HW214076   1.214   2.884   5.492
 4393SOL     OW14077   5.042   0.799   2.133
 4393SOL    HW114078   5.128   0.754   2.157
 4393SOL    HW214079   5.061   0.871   2.066
 4394SOL     OW14080   1.337   0.334   2.213
 4394SOL    HW114081   1.314   0.279   2.132
 4394SOL    HW214082   1.305   0.288   2.295
 4395SOL     OW14083   2.580   4.959   1.670
 4395SOL    HW114084   2.586   4.905   1.754
 4395SOL    HW214085   2.670   4.966   1.628
 4396SOL     OW14086   2.989   0.634   3.076
 4396SOL    HW114087   2.981   0.568   3.151
 4396SOL    HW214088   3.041   0.714   3.107
 4397SOL     OW14089   3.301   1.867   4.374
 4397SOL    HW114090   3.342   1.820   4.296
 4397SOL    HW214091   3.278   1.800   4.445
 4398SOL     OW14092   1.925   3.049   5.404
 4398SOL    HW114093   1.854   2.980   5.388
 4398SOL    HW214094   1.978   3.061   5.321
 4399SOL     OW14095   2.661   6.432   1.891
 4399SOL    HW114096   2.711   6.358   1.937
 4399SOL    HW214097   2.571   6.399   1.864
 4400SOL     OW14098   2.045   5.565   4.561
 4400SOL    HW114099   2.121   5.530   4.507
 4400SOL    HW214100   1.998   5.489   4.606
 4401SOL     OW14101   3.280   6.435   0.022
 4401SOL    HW114102   3.189   6.427   7.007
 4401SOL    HW214103   3.307   6.347   0.061
 4402SOL     OW14104   1.752   0.513   3.103
 4402SOL    HW114105   1.728   0.582   3.035
 4402SOL    HW214106   1.813   0.554   3.171
 4403SOL     OW14107   1.040   5.233   2.053
 4403SOL    HW114108   0.984   5.154   2.032
 4403SOL    HW214109   1.034   5.299   1.979
 4404SOL     OW14110   0.168   6.827   6.182
 4404SOL    HW114111   0.156   6.829   6.281
 4404SOL    HW214112   0.265   6.831   6.160
 4405SOL     OW14113   2.215   5.906   2.470
 4405SOL    HW114114   2.178   5.901   2.377
 4405SOL    HW214115   2.189   5.824   2.521
 4406SOL     OW14116   5.613   4.071   2.295
 4406SOL    HW114117   5.584   4.164   2.274
 4406SOL    HW214118   5.582   4.010   2.222
 4407SOL     OW14119   6.127   6.820   1.815
 4407SOL    HW114120   6.139   6.723   1.793
 4407SOL    HW214121   6.135   6.834   1.913
 4408SOL     OW14122   4.194   1.053   0.446
 4408SOL    HW114123   4.103   1.012   0.442
 4408SOL    HW214124   4.192   1.132   0.508
 4409SOL     OW14125   2.667   0.630   3.297
 4409SOL    HW114126   2.679   0.729   3.288
 4409SOL    HW214127   2.750   0.583   3.268
 4410SOL     OW14128   0.503   6.563   0.994
 4410SOL    HW114129   0.523   6.626   0.919
 4410SOL    HW214130   0.460   6.613   1.069
 4411SOL     OW14131   3.679   4.585   5.413
 4411SOL    HW114132   3.579   4.585   5.414
 4411SOL    HW214133   3.713   4.495   5.386
 4412SOL     OW14134   4.715   6.494   2.605
 4412SOL    HW114135   4.659   6.442   2.539
 4412SOL    HW214136   4.655   6.546   2.666
 4413SOL     OW14137   4.828   6.021   3.891
 4413SOL    HW114138   4.733   6.000   3.867
 4413SOL    HW214139   4.869   5.941   3.935
 4414SOL     OW14140   5.108   3.831   1.480
 4414SOL    HW114141   5.037   3.899   1.464
 4414SOL    HW214142   5.180   3.869   1.538
 4415SOL     OW14143   2.168   2.835   1.850
 4415SOL    HW114144   2.166   2.907   1.781
 4415SOL    HW214145   2.155   2.746   1.807
 4416SOL     OW14146   5.007   2.451   3.534
 4416SOL    HW114147   5.053   2.502   3.606
 4416SOL    HW214148   4.960   2.514   3.473
 4417SOL     OW14149   6.690   4.452   2.298
 4417SOL    HW114150   6.760   4.487   2.361
 4417SOL    HW214151   6.723   4.369   2.253
 4418SOL     OW14152   6.303   6.764   5.650
 4418SOL    HW114153   6.394   6.732   5.677
 4418SOL    HW214154   6.307   6.799   5.557
 4419SOL     OW14155   6.693   5.687   6.543
 4419SOL    HW114156   6.657   5.601   6.507
 4419SOL    HW214157   6.699   5.682   6.642
 4420SOL     OW14158   3.638   2.262   0.889
 4420SOL    HW114159   3.563   2.277   0.954
 4420SOL    HW214160   3.722   2.301   0.927
 4421SOL     OW14161   1.796   2.424   0.297
 4421SOL    HW114162   1.879   2.420   0.242
 4421SOL    HW214163   1.811   2.377   0.384
 4422SOL     OW14164   6.545   3.651   6.256
 4422SOL    HW114165   6.535   3.634   6.158
 4422SOL    HW214166   6.480   3.596   6.307
 4423SOL     OW14167   6.206   4.271   5.082
 4423SOL    HW114168   6.179   4.365   5.105
 4423SOL    HW214169   6.153   4.239   5.004
 4424SOL     OW14170   4.937   5.901   2.356
 4424SOL    HW114171   5.023   5.856   2.376
 4424SOL    HW214172   4.942   5.997   2.385
 4425SOL     OW14173   1.152   5.127   1.129
 4425SOL    HW114174   1.251   5.114   1.140
 4425SOL    HW214175   1.114   5.164   1.214
 4426SOL     OW14176   0.597   0.484   4.519
 4426SOL    HW114177   0.631   0.530   4.601
 4426SOL    HW214178   0.514   0.432   4.541
 4427SOL     OW14179   2.712   5.567   2.115
 4427SOL    HW114180   2.692   5.493   2.178
 4427SOL    HW214181   2.638   5.635   2.119
 4428SOL     OW14182   5.820   5.894   3.872
 4428SOL    HW114183   5.796   5.883   3.969
 4428SOL    HW214184   5.736   5.895   3.817
 4429SOL     OW14185   2.846   6.248   3.388
 4429SOL    HW114186   2.840   6.150   3.372
 4429SOL    HW214187   2.756   6.283   3.415
 4430SOL     OW14188   5.376   3.679   5.086
 4430SOL    HW114189   5.395   3.718   5.176
 4430SOL    HW214190   5.432   3.597   5.073
 4431SOL     OW14191   3.937   6.773   4.179
 4431SOL    HW114192   4.027   6.767   4.137
 4431SOL    HW214193   3.888   6.687   4.164
 4432SOL     OW14194   0.715   3.571   6.348
 4432SOL    HW114195   0.755   3.520   6.272
 4432SOL    HW214196   0.672   3.507   6.412
 4433SOL     OW14197   1.258   0.975   5.829
 4433SOL    HW114198   1.159   0.986   5.835
 4433SOL    HW214199   1.302   1.065   5.835
 4434SOL     OW14200   0.340   0.361   2.619
 4434SOL    HW114201   0.241   0.348   2.620
 4434SOL    HW214202   0.385   0.274   2.600
 4435SOL     OW14203   2.594   4.051   0.612
 4435SOL    HW114204   2.500   4.079   0.591
 4435SOL    HW214205   2.620   3.975   0.553
 4436SOL     OW14206   4.533   1.986   1.528
 4436SOL    HW114207   4.598   1.949   1.461
 4436SOL    HW214208   4.575   2.063   1.575
 4437SOL     OW14209   6.777   4.319   0.026
 4437SOL    HW114210   6.821   4.346   6.965
 4437SOL    HW214211   6.681   4.348   0.024
 4438SOL     OW14212   3.829   0.821   5.560
 4438SOL    HW114213   3.912   0.863   5.524
 4438SOL    HW214214   3.750   0.876   5.533
 4439SOL     OW14215   2.887   6.586   2.765
 4439SOL    HW114216   2.964   6.528   2.794
 4439SOL    HW214217   2.895   6.676   2.806
 4440SOL     OW14218   1.473   4.513   6.834
 4440SOL    HW114219   1.486   4.575   6.756
 4440SOL    HW214220   1.449   4.566   6.915
 4441SOL     OW14221   0.077   2.018   1.276
 4441SOL    HW114222   0.147   2.090   1.279
 4441SOL    HW214223   0.030   2.014   1.364
 4442SOL     OW14224   2.398   5.505   6.842
 4442SOL    HW114225   2.330   5.577   6.827
 4442SOL    HW214226   2.402   5.445   6.762
 4443SOL     OW14227   0.907   5.705   5.897
 4443SOL    HW114228   0.981   5.677   5.959
 4443SOL    HW214229   0.832   5.745   5.950
 4444SOL     OW14230   6.101   5.313   7.009
 4444SOL    HW114231   6.164   5.275   0.052
 4444SOL    HW214232   6.054   5.239   6.962
 4445SOL     OW14233   1.122   4.450   0.527
 4445SOL    HW114234   1.085   4.420   0.615
 4445SOL    HW214235   1.048   4.462   0.461
 4446SOL     OW14236   4.719   1.805   1.368
 4446SOL    HW114237   4.794   1.756   1.412
 4446SOL    HW214238   4.643   1.741   1.351
 4447SOL     OW14239   4.310   5.572   5.437
 4447SOL    HW114240   4.326   5.560   5.339
 4447SOL    HW214241   4.215   5.600   5.451
 4448SOL     OW14242   3.859   6.466   1.504
 4448SOL    HW114243   3.915   6.423   1.575
 4448SOL    HW214244   3.773   6.497   1.543
 4449SOL     OW14245   3.385   1.808   5.695
 4449SOL    HW114246   3.355   1.715   5.717
 4449SOL    HW214247   3.381   1.864   5.778
 4450SOL     OW14248   2.709   6.813   0.193
 4450SOL    HW114249   2.710   6.874   0.272
 4450SOL    HW214250   2.683   6.865   0.111
 4451SOL     OW14251   4.705   5.467   3.326
 4451SOL    HW114252   4.712   5.538   3.256
 4451SOL    HW214253   4.789   5.412   3.327
 4452SOL     OW14254   4.831   6.137   4.157
 4452SOL    HW114255   4.775   6.137   4.074
 4452SOL    HW214256   4.896   6.213   4.152
 4453SOL     OW14257   6.661   4.411   0.431
 4453SOL    HW114258   6.627   4.448   0.517
 4453SOL    HW214259   6.761   4.407   0.433
 4454SOL     OW14260   1.281   3.013   0.719
 4454SOL    HW114261   1.238   3.068   0.791
 4454SOL    HW214262   1.291   3.067   0.636
 4455SOL     OW14263   1.166   7.007   5.183
 4455SOL    HW114264   1.091   6.990   5.119
 4455SOL    HW214265   1.186   6.922   5.233
 4456SOL     OW14266   2.430   6.870   4.685
 4456SOL    HW114267   2.334   6.843   4.695
 4456SOL    HW214268   2.434   6.965   4.654
 4457SOL     OW14269   1.820   1.587   4.173
 4457SOL    HW114270   1.801   1.561   4.268
 4457SOL    HW214271   1.908   1.635   4.169
 4458SOL     OW14272   1.186   3.599   6.956
 4458SOL    HW114273   1.155   3.657   6.881
 4458SOL    HW214274   1.129   3.615   0.012
 4459SOL     OW14275   0.600   2.800   3.137
 4459SOL    HW114276   0.524   2.748   3.097
 4459SOL    HW214277   0.567   2.889   3.168
 4460SOL     OW14278   6.999   2.478   5.015
 4460SOL    HW114279   7.022   2.488   4.918
 4460SOL    HW214280   6.912   2.430   5.023
 4461SOL     OW14281   1.927   0.437   0.677
 4461SOL    HW114282   1.959   0.427   0.772
 4461SOL    HW214283   2.006   0.437   0.616
 4462SOL     OW14284   6.622   3.955   3.203
 4462SOL    HW114285   6.528   3.988   3.210
 4462SOL    HW214286   6.662   3.987   3.117
 4463SOL     OW14287   5.637   1.755   0.630
 4463SOL    HW114288   5.601   1.749   0.537
 4463SOL    HW214289   5.666   1.664   0.661
 4464SOL     OW14290   0.279   4.421   1.397
 4464SOL    HW114291   0.191   4.446   1.437
 4464SOL    HW214292   0.266   4.390   1.303
 4465SOL     OW14293   3.439   5.636   1.624
 4465SOL    HW114294   3.475   5.691   1.549
 4465SOL    HW214295   3.435   5.540   1.596
 4466SOL     OW14296   1.302   2.330   1.976
 4466SOL    HW114297   1.258   2.241   1.981
 4466SOL    HW214298   1.365   2.333   1.898
 4467SOL     OW14299   5.229   5.217   2.595
 4467SOL    HW114300   5.317   5.265   2.586
 4467SOL    HW214301   5.212   5.197   2.692
 4468SOL     OW14302   1.953   3.115   1.391
 4468SOL    HW114303   1.899   3.100   1.474
 4468SOL    HW214304   1.969   3.213   1.379
 4469SOL     OW14305   2.622   5.854   1.608
 4469SOL    HW114306   2.533   5.807   1.611
 4469SOL    HW214307   2.661   5.846   1.516
 4470SOL     OW14308   1.561   0.070   3.120
 4470SOL    HW114309   1.626   0.143   3.097
 4470SOL    HW214310   1.552   0.007   3.043
 4471SOL     OW14311   1.072   6.967   6.540
 4471SOL    HW114312   1.021   0.000   6.604
 4471SOL    HW214313   1.165   7.001   6.531
 4472SOL     OW14314   1.805   2.556   0.618
 4472SOL    HW114315   1.735   2.501   0.573
 4472SOL    HW214316   1.801   2.542   0.717
 4473SOL     OW14317   0.565   3.086   4.565
 4473SOL    HW114318   0.582   3.089   4.664
 4473SOL    HW214319   0.649   3.114   4.517
 4474SOL     OW14320   3.216   5.916   0.758
 4474SOL    HW114321   3.258   5.860   0.687
 4474SOL    HW214322   3.133   5.870   0.792
 4475SOL     OW14323   1.003   3.878   1.007
 4475SOL    HW114324   1.091   3.839   0.982
 4475SOL    HW214325   0.963   3.926   0.929
 4476SOL     OW14326   5.311   1.054   4.199
 4476SOL    HW114327   5.240   1.103   4.148
 4476SOL    HW214328   5.377   1.015   4.135
 4477SOL     OW14329   0.799   0.796   4.908
 4477SOL    HW114330   0.893   0.791   4.875
 4477SOL    HW214331   0.794   0.860   4.985
 4478SOL     OW14332   1.460   6.928   1.380
 4478SOL    HW114333   1.495   6.994   1.314
 4478SOL    HW214334   1.534   6.868   1.410
 4479SOL     OW14335   1.674   2.124   6.975
 4479SOL    HW114336   1.741   2.121   0.023
 4479SOL    HW214337   1.710   2.078   6.894
 4480SOL     OW14338   1.029   6.704   3.642
 4480SOL    HW114339   0.952   6.762   3.671
 4480SOL    HW214340   1.095   6.760   3.592
 4481SOL     OW14341   2.051   3.875   6.182
 4481SOL    HW114342   1.962   3.911   6.209
 4481SOL    HW214343   2.063   3.782   6.219
 4482SOL     OW14344   2.074   6.934   1.648
 4482SOL    HW114345   2.100   6.839   1.629
 4482SOL    HW214346   2.034   6.940   1.739
 4483SOL     OW14347   1.318   3.781   0.667
 4483SOL    HW114348   1.266   3.695   0.663
 4483SOL    HW214349   1.388   3.780   0.596
 4484SOL     OW14350   2.319   1.034   6.875
 4484SOL    HW114351   2.374   1.021   6.792
 4484SOL    HW214352   2.239   0.975   6.871
 4485SOL     OW14353   6.438   2.424   5.218
 4485SOL    HW114354   6.500   2.454   5.289
 4485SOL    HW214355   6.450   2.479   5.136
 4486SOL     OW14356   4.788   4.943   4.544
 4486SOL    HW114357   4.857   5.013   4.525
 4486SOL    HW214358   4.792   4.873   4.473
 4487SOL     OW14359   0.570   2.804   6.590
 4487SOL    HW114360   0.591   2.772   6.682
 4487SOL    HW214361   0.525   2.893   6.595
 4488SOL     OW14362   6.953   4.078   3.170
 4488SOL    HW114363   6.881   4.104   3.234
 4488SOL    HW214364   6.962   4.148   3.100
 4489SOL     OW14365   3.986   6.456   5.823
 4489SOL    HW114366   4.068   6.512   5.829
 4489SOL    HW214367   3.969   6.433   5.727
 4490SOL     OW14368   5.192   1.196   1.773
 4490SOL    HW114369   5.252   1.274   1.785
 4490SOL    HW214370   5.115   1.222   1.715
 4491SOL     OW14371   0.742   3.124   2.916
 4491SOL    HW114372   0.644   3.108   2.921
 4491SOL    HW214373   0.783   3.104   3.005
 4492SOL     OW14374   0.202   0.851   2.461
 4492SOL    HW114375   0.163   0.874   2.550
 4492SOL    HW214376   0.218   0.936   2.409
 4493SOL     OW14377   5.200   1.521   5.867
 4493SOL    HW114378   5.133   1.589   5.898
 4493SOL    HW214379   5.280   1.524   5.928
 4494SOL     OW14380   1.407   0.184   1.479
 4494SOL    HW114381   1.506   0.174   1.463
 4494SOL    HW214382   1.376   0.111   1.540
 4495SOL     OW14383   4.419   6.657   0.979
 4495SOL    HW114384   4.335   6.619   0.940
 4495SOL    HW214385   4.498   6.615   0.935
 4496SOL     OW14386   2.780   6.211   5.627
 4496SOL    HW114387   2.766   6.191   5.530
 4496SOL    HW214388   2.862   6.163   5.659
 4497SOL     OW14389   3.637   1.171   6.162
 4497SOL    HW114390   3.602   1.115   6.087
 4497SOL    HW214391   3.587   1.149   6.246
 4498SOL     OW14392   0.578   4.791   4.495
 4498SOL    HW114393   0.579   4.838   4.407
 4498SOL    HW214394   0.611   4.697   4.482
 4499SOL     OW14395   5.577   1.214   2.286
 4499SOL    HW114396   5.543   1.199   2.379
 4499SOL    HW214397   5.554   1.306   2.256
 4500SOL     OW14398   4.042   5.924   0.426
 4500SOL    HW114399   4.066   5.889   0.335
 4500SOL    HW214400   4.125   5.947   0.476
 4501SOL     OW14401   6.061   0.594   2.712
 4501SOL    HW114402   6.075   0.498   2.736
 4501SOL    HW214403   6.125   0.620   2.639
 4502SOL     OW14404   0.173   3.768   6.599
 4502SOL    HW114405   0.243   3.835   6.621
 4502SOL    HW214406   0.149   3.774   6.502
 4503SOL     OW14407   3.538   1.794   2.735
 4503SOL    HW114408   3.566   1.703   2.703
 4503SOL    HW214409   3.577   1.864   2.675
 4504SOL     OW14410   0.709   2.467   2.313
 4504SOL    HW114411   0.732   2.466   2.410
 4504SOL    HW214412   0.649   2.545   2.294
 4505SOL     OW14413   5.710   3.576   3.724
 4505SOL    HW114414   5.804   3.546   3.713
 4505SOL    HW214415   5.694   3.602   3.819
 4506SOL     OW14416   4.946   3.063   6.304
 4506SOL    HW114417   5.013   3.052   6.230
 4506SOL    HW214418   4.992   3.059   6.392
 4507SOL     OW14419   6.268   2.001   3.545
 4507SOL    HW114420   6.200   1.991   3.472
 4507SOL    HW214421   6.298   1.911   3.575
 4508SOL     OW14422   0.017   4.583   0.632
 4508SOL    HW114423   0.072   4.633   0.565
 4508SOL    HW214424   6.988   4.513   0.585
 4509SOL     OW14425   5.027   2.453   2.212
 4509SOL    HW114426   5.122   2.430   2.235
 4509SOL    HW214427   4.994   2.525   2.273
 4510SOL     OW14428   4.086   1.290   4.786
 4510SOL    HW114429   4.186   1.289   4.777
 4510SOL    HW214430   4.050   1.378   4.756
 4511SOL     OW14431   6.858   5.190   6.656
 4511SOL    HW114432   6.761   5.166   6.665
 4511SOL    HW214433   6.886   5.182   6.560
 4512SOL     OW14434   3.144   3.202   5.479
 4512SOL    HW114435   3.113   3.291   5.513
 4512SOL    HW214436   3.069   3.155   5.434
 4513SOL     OW14437   0.169   6.572   0.548
 4513SOL    HW114438   0.243   6.600   0.609
 4513SOL    HW214439   0.116   6.652   0.520
 4514SOL     OW14440   4.298   4.850   6.980
 4514SOL    HW114441   4.326   4.944   6.965
 4514SOL    HW214442   4.277   4.837   0.052
 4515SOL     OW14443   3.572   0.933   6.612
 4515SOL    HW114444   3.603   0.863   6.676
 4515SOL    HW214445   3.545   0.889   6.526
 4516SOL     OW14446   3.104   2.456   5.681
 4516SOL    HW114447   3.107   2.439   5.583
 4516SOL    HW214448   3.010   2.475   5.709
 4517SOL     OW14449   4.354   1.032   5.362
 4517SOL    HW114450   4.426   1.036   5.293
 4517SOL    HW214451   4.266   1.015   5.317
 4518SOL     OW14452   0.427   6.399   0.711
 4518SOL    HW114453   0.480   6.423   0.630
 4518SOL    HW214454   0.398   6.483   0.757
 4519SOL     OW14455   4.717   6.669   0.017
 4519SOL    HW114456   4.752   6.669   0.111
 4519SOL    HW214457   4.701   6.575   7.013
 4520SOL     OW14458   4.641   5.611   5.324
 4520SOL    HW114459   4.618   5.664   5.406
 4520SOL    HW214460   4.733   5.634   5.294
 4521SOL     OW14461   4.169   2.279   4.120
 4521SOL    HW114462   4.189   2.181   4.115
 4521SOL    HW214463   4.141   2.312   4.030
 4522SOL     OW14464   5.703   3.854   3.582
 4522SOL    HW114465   5.742   3.824   3.494
 4522SOL    HW214466   5.675   3.774   3.635
 4523SOL     OW14467   6.968   2.932   5.812
 4523SOL    HW114468   6.916   2.996   5.869
 4523SOL    HW214469   0.035   2.920   5.849
 4524SOL     OW14470   1.837   3.655   2.241
 4524SOL    HW114471   1.869   3.693   2.328
 4524SOL    HW214472   1.901   3.679   2.168
 4525SOL     OW14473   3.524   2.622   5.588
 4525SOL    HW114474   3.578   2.557   5.535
 4525SOL    HW214475   3.575   2.709   5.594
 4526SOL     OW14476   1.270   0.130   5.408
 4526SOL    HW114477   1.242   0.072   5.484
 4526SOL    HW214478   1.245   0.086   5.322
 4527SOL     OW14479   0.593   1.500   2.815
 4527SOL    HW114480   0.648   1.498   2.731
 4527SOL    HW214481   0.498   1.523   2.792
 4528SOL     OW14482   5.091   0.787   4.846
 4528SOL    HW114483   5.106   0.836   4.931
 4528SOL    HW214484   5.141   0.700   4.848
 4529SOL     OW14485   2.200   1.752   3.638
 4529SOL    HW114486   2.185   1.655   3.618
 4529SOL    HW214487   2.284   1.763   3.691
 4530SOL     OW14488   4.149   6.025   6.601
 4530SOL    HW114489   4.156   6.061   6.507
 4530SOL    HW214490   4.237   5.988   6.629
 4531SOL     OW14491   1.720   6.172   5.163
 4531SOL    HW114492   1.815   6.184   5.134
 4531SOL    HW214493   1.718   6.160   5.262
 4532SOL     OW14494   6.405   1.475   2.691
 4532SOL    HW114495   6.306   1.463   2.694
 4532SOL    HW214496   6.449   1.387   2.712
 4533SOL     OW14497   2.767   0.556   1.291
 4533SOL    HW114498   2.804   0.627   1.351
 4533SOL    HW214499   2.796   0.574   1.197
 4534SOL     OW14500   4.917   1.714   4.336
 4534SOL    HW114501   4.938   1.671   4.248
 4534SOL    HW214502   4.936   1.812   4.331
 4535SOL     OW14503   1.594   0.377   0.188
 4535SOL    HW114504   1.627   0.361   0.281
 4535SOL    HW214505   1.668   0.360   0.123
 4536SOL     OW14506   3.553   0.146   6.017
 4536SOL    HW114507   3.455   0.132   6.031
 4536SOL    HW214508   3.575   0.243   6.030
 4537SOL     OW14509   2.952   3.208   3.423
 4537SOL    HW114510   2.987   3.136   3.483
 4537SOL    HW214511   3.028   3.260   3.385
 4538SOL     OW14512   0.227   2.249   0.744
 4538SOL    HW114513   0.147   2.270   0.801
 4538SOL    HW214514   0.260   2.333   0.701
 4539SOL     OW14515   1.583   5.807   5.227
 4539SOL    HW114516   1.648   5.766   5.162
 4539SOL    HW214517   1.516   5.862   5.177
 4540SOL     OW14518   1.404   2.114   0.530
 4540SOL    HW114519   1.450   2.071   0.452
 4540SOL    HW214520   1.316   2.150   0.501
 4541SOL     OW14521   4.233   3.310   6.586
 4541SOL    HW114522   4.177   3.389   6.612
 4541SOL    HW214523   4.177   3.227   6.589
 4542SOL     OW14524   0.440   1.411   6.243
 4542SOL    HW114525   0.470   1.332   6.296
 4542SOL    HW214526   0.341   1.404   6.226
 4543SOL     OW14527   3.551   2.024   0.806
 4543SOL    HW114528   3.590   2.112   0.832
 4543SOL    HW214529   3.535   2.022   0.707
 4544SOL     OW14530   4.762   6.781   0.810
 4544SOL    HW114531   4.697   6.705   0.804
 4544SOL    HW214532   4.719   6.860   0.853
 4545SOL     OW14533   2.349   2.868   5.641
 4545SOL    HW114534   2.344   2.931   5.718
 4545SOL    HW214535   2.420   2.898   5.577
 4546SOL     OW14536   3.370   0.669   5.586
 4546SOL    HW114537   3.304   0.596   5.569
 4546SOL    HW214538   3.370   0.732   5.508
 4547SOL     OW14539   0.402   0.261   7.020
 4547SOL    HW114540   0.493   0.225   0.012
 4547SOL    HW214541   0.345   0.247   0.076
 4548SOL     OW14542   3.229   1.772   1.731
 4548SOL    HW114543   3.308   1.730   1.775
 4548SOL    HW214544   3.244   1.870   1.720
 4549SOL     OW14545   0.615   3.646   3.906
 4549SOL    HW114546   0.527   3.605   3.928
 4549SOL    HW214547   0.687   3.602   3.961
 4550SOL     OW14548   2.292   5.371   4.685
 4550SOL    HW114549   2.296   5.278   4.647
 4550SOL    HW214550   2.293   5.366   4.785
 4551SOL     OW14551   2.623   2.559   5.714
 4551SOL    HW114552   2.660   2.587   5.626
 4551SOL    HW214553   2.685   2.493   5.756
 4552SOL     OW14554   4.622   1.114   0.773
 4552SOL    HW114555   4.659   1.173   0.845
 4552SOL    HW214556   4.687   1.111   0.696
 4553SOL     OW14557   0.301   6.009   0.273
 4553SOL    HW114558   0.348   6.098   0.269
 4553SOL    HW214559   0.309   5.963   0.185
 4554SOL     OW14560   5.833   0.039   2.812
 4554SOL    HW114561   5.913   0.050   2.871
 4554SOL    HW214562   5.782   6.983   2.840
 4555SOL     OW14563   0.558   0.757   1.163
 4555SOL    HW114564   0.656   0.747   1.147
 4555SOL    HW214565   0.541   0.840   1.216
 4556SOL     OW14566   5.146   4.748   4.187
 4556SOL    HW114567   5.204   4.762   4.106
 4556SOL    HW214568   5.073   4.816   4.188
 4557SOL     OW14569   0.336   4.835   4.083
 4557SOL    HW114570   0.355   4.894   4.162
 4557SOL    HW214571   0.322   4.892   4.002
 4558SOL     OW14572   1.506   4.221   4.965
 4558SOL    HW114573   1.445   4.246   4.890
 4558SOL    HW214574   1.453   4.211   5.049
 4559SOL     OW14575   0.092   3.062   3.894
 4559SOL    HW114576   0.116   3.127   3.967
 4559SOL    HW214577   0.012   3.009   3.923
 4560SOL     OW14578   5.289   4.507   2.834
 4560SOL    HW114579   5.309   4.573   2.907
 4560SOL    HW214580   5.207   4.454   2.858
 4561SOL     OW14581   5.004   2.703   4.107
 4561SOL    HW114582   5.083   2.749   4.147
 4561SOL    HW214583   4.990   2.616   4.154
 4562SOL     OW14584   3.597   1.027   0.316
 4562SOL    HW114585   3.549   1.111   0.344
 4562SOL    HW214586   3.664   1.049   0.246
 4563SOL     OW14587   0.760   4.658   2.209
 4563SOL    HW114588   0.844   4.698   2.173
 4563SOL    HW214589   0.774   4.560   2.223
 4564SOL     OW14590   2.219   3.955   2.692
 4564SOL    HW114591   2.193   3.892   2.765
 4564SOL    HW214592   2.241   4.045   2.731
 4565SOL     OW14593   1.648   6.853   5.816
 4565SOL    HW114594   1.727   6.912   5.828
 4565SOL    HW214595   1.564   6.907   5.823
 4566SOL     OW14596   6.300   4.271   3.070
 4566SOL    HW114597   6.352   4.194   3.033
 4566SOL    HW214598   6.218   4.236   3.116
 4567SOL     OW14599   0.186   0.089   6.693
 4567SOL    HW114600   0.100   0.038   6.704
 4567SOL    HW214601   0.209   0.095   6.596
 4568SOL     OW14602   1.366   5.152   3.611
 4568SOL    HW114603   1.421   5.179   3.689
 4568SOL    HW214604   1.390   5.058   3.584
 4569SOL     OW14605   2.110   1.605   3.098
 4569SOL    HW114606   2.129   1.645   3.187
 4569SOL    HW214607   2.029   1.649   3.058
 4570SOL     OW14608   5.379   5.356   1.606
 4570SOL    HW114609   5.427   5.387   1.524
 4570SOL    HW214610   5.315   5.282   1.582
 4571SOL     OW14611   2.451   3.584   6.146
 4571SOL    HW114612   2.375   3.590   6.081
 4571SOL    HW214613   2.483   3.676   6.168
 4572SOL     OW14614   3.319   2.939   2.477
 4572SOL    HW114615   3.253   2.864   2.475
 4572SOL    HW214616   3.357   2.953   2.386
 4573SOL     OW14617   3.050   5.342   0.095
 4573SOL    HW114618   2.951   5.351   0.079
 4573SOL    HW214619   3.065   5.279   0.172
 4574SOL     OW14620   4.715   0.926   2.062
 4574SOL    HW114621   4.779   0.921   1.986
 4574SOL    HW214622   4.735   0.854   2.128
 4575SOL     OW14623   0.702   0.317   5.168
 4575SOL    HW114624   0.646   0.397   5.188
 4575SOL    HW214625   0.709   0.305   5.069
 4576SOL     OW14626   3.363   4.348   6.589
 4576SOL    HW114627   3.276   4.396   6.587
 4576SOL    HW214628   3.373   4.291   6.508
 4577SOL     OW14629   0.928   1.843   2.158
 4577SOL    HW114630   0.897   1.771   2.221
 4577SOL    HW214631   0.989   1.905   2.206
 4578SOL     OW14632   1.377   1.370   2.283
 4578SOL    HW114633   1.449   1.421   2.330
 4578SOL    HW214634   1.415   1.324   2.203
 4579SOL     OW14635   4.648   0.861   3.605
 4579SOL    HW114636   4.642   0.949   3.558
 4579SOL    HW214637   4.692   0.873   3.694
 4580SOL     OW14638   0.430   1.390   0.689
 4580SOL    HW114639   0.451   1.297   0.718
 4580SOL    HW214640   0.338   1.393   0.650
 4581SOL     OW14641   2.585   0.651   0.895
 4581SOL    HW114642   2.608   0.656   0.797
 4581SOL    HW214643   2.668   0.634   0.947
 4582SOL     OW14644   6.797   0.552   3.906
 4582SOL    HW114645   6.852   0.613   3.849
 4582SOL    HW214646   6.838   0.461   3.907
 4583SOL     OW14647   1.814   0.332   0.034
 4583SOL    HW114648   1.907   0.324   0.069
 4583SOL    HW214649   1.793   0.253   7.002
 4584SOL     OW14650   0.371   1.813   4.260
 4584SOL    HW114651   0.455   1.773   4.223
 4584SOL    HW214652   0.395   1.886   4.325
 4585SOL     OW14653   1.252   2.740   3.316
 4585SOL    HW114654   1.312   2.820   3.319
 4585SOL    HW214655   1.254   2.692   3.404
 4586SOL     OW14656   6.158   5.037   6.541
 4586SOL    HW114657   6.184   5.065   6.633
 4586SOL    HW214658   6.186   5.108   6.476
 4587SOL     OW14659   3.924   4.161   5.603
 4587SOL    HW114660   3.936   4.148   5.702
 4587SOL    HW214661   3.828   4.151   5.580
 4588SOL     OW14662   3.209   3.868   6.359
 4588SOL    HW114663   3.159   3.799   6.308
 4588SOL    HW214664   3.144   3.935   6.397
 4589SOL     OW14665   5.931   6.316   2.477
 4589SOL    HW114666   5.979   6.242   2.524
 4589SOL    HW214667   5.997   6.383   2.444
 4590SOL     OW14668   3.883   5.860   1.647
 4590SOL    HW114669   3.925   5.810   1.572
 4590SOL    HW214670   3.948   5.867   1.723
 4591SOL     OW14671   2.600   0.703   5.205
 4591SOL    HW114672   2.555   0.700   5.116
 4591SOL    HW214673   2.643   0.792   5.218
 4592SOL     OW14674   2.228   1.302   3.858
 4592SOL    HW114675   2.168   1.368   3.904
 4592SOL    HW214676   2.300   1.351   3.809
 4593SOL     OW14677   1.201   5.800   4.399
 4593SOL    HW114678   1.233   5.708   4.376
 4593SOL    HW214679   1.260   5.838   4.470
 4594SOL     OW14680   2.360   6.852   3.208
 4594SOL    HW114681   2.321   6.803   3.285
 4594SOL    HW214682   2.298   6.848   3.130
 4595SOL     OW14683   5.580   2.300   5.987
 4595SOL    HW114684   5.500   2.246   5.961
 4595SOL    HW214685   5.653   2.286   5.919
 4596SOL     OW14686   1.060   0.530   2.128
 4596SOL    HW114687   0.975   0.523   2.181
 4596SOL    HW214688   1.137   0.506   2.187
 4597SOL     OW14689   2.393   5.838   0.757
 4597SOL    HW114690   2.483   5.882   0.760
 4597SOL    HW214691   2.322   5.908   0.764
 4598SOL     OW14692   0.589   4.463   0.426
 4598SOL    HW114693   0.513   4.463   0.490
 4598SOL    HW214694   0.591   4.375   0.377
 4599SOL     OW14695   3.906   6.695   1.908
 4599SOL    HW114696   3.891   6.724   1.814
 4599SOL    HW214697   4.000   6.662   1.919
 4600SOL     OW14698   0.544   6.812   6.421
 4600SOL    HW114699   0.482   6.746   6.464
 4600SOL    HW214700   0.495   6.896   6.400
 4601SOL     OW14701   1.874   0.290   5.272
 4601SOL    HW114702   1.898   0.360   5.204
 4601SOL    HW214703   1.929   0.208   5.256
 4602SOL     OW14704   2.790   1.905   6.053
 4602SOL    HW114705   2.715   1.963   6.020
 4602SOL    HW214706   2.849   1.880   5.977
 4603SOL     OW14707   4.001   6.754   1.042
 4603SOL    HW114708   3.980   6.817   0.967
 4603SOL    HW214709   4.094   6.771   1.075
 4604SOL     OW14710   6.927   6.971   4.323
 4604SOL    HW114711   6.882   6.918   4.394
 4604SOL    HW214712   7.015   6.929   4.300
 4605SOL     OW14713   3.475   0.310   1.502
 4605SOL    HW114714   3.469   0.348   1.410
 4605SOL    HW214715   3.411   0.358   1.562
 4606SOL     OW14716   0.245   6.152   4.932
 4606SOL    HW114717   0.268   6.218   5.004
 4606SOL    HW214718   0.188   6.197   4.863
 4607SOL     OW14719   1.948   1.790   1.022
 4607SOL    HW114720   1.891   1.820   0.945
 4607SOL    HW214721   1.926   1.844   1.103
 4608SOL     OW14722   0.328   2.965   5.016
 4608SOL    HW114723   0.230   2.985   5.016
 4608SOL    HW214724   0.342   2.868   4.999
 4609SOL     OW14725   5.010   5.206   0.056
 4609SOL    HW114726   5.019   5.142   7.005
 4609SOL    HW214727   5.097   5.214   0.104
 4610SOL     OW14728   5.304   4.940   0.305
 4610SOL    HW114729   5.326   4.861   0.364
 4610SOL    HW214730   5.263   4.907   0.220
 4611SOL     OW14731   0.194   1.305   6.672
 4611SOL    HW114732   0.202   1.403   6.654
 4611SOL    HW214733   0.132   1.290   6.748
 4612SOL     OW14734   2.088   1.404   2.056
 4612SOL    HW114735   1.992   1.393   2.029
 4612SOL    HW214736   2.122   1.318   2.092
 4613SOL     OW14737   1.394   4.841   1.758
 4613SOL    HW114738   1.384   4.817   1.661
 4613SOL    HW214739   1.329   4.914   1.781
 4614SOL     OW14740   6.825   4.371   3.984
 4614SOL    HW114741   6.752   4.437   3.969
 4614SOL    HW214742   6.887   4.371   3.906
 4615SOL     OW14743   1.792   4.233   6.585
 4615SOL    HW114744   1.766   4.308   6.525
 4615SOL    HW214745   1.760   4.146   6.547
 4616SOL     OW14746   0.796   3.333   6.122
 4616SOL    HW114747   0.792   3.422   6.077
 4616SOL    HW214748   0.704   3.301   6.142
 4617SOL     OW14749   0.205   2.719   3.702
 4617SOL    HW114750   0.172   2.642   3.758
 4617SOL    HW214751   0.220   2.687   3.608
 4618SOL     OW14752   1.939   4.124   5.770
 4618SOL    HW114753   2.005   4.096   5.839
 4618SOL    HW214754   1.848   4.127   5.810
 4619SOL     OW14755   4.931   6.601   6.275
 4619SOL    HW114756   4.893   6.651   6.353
 4619SOL    HW214757   5.000   6.658   6.230
 4620SOL     OW14758   0.420   4.840   2.079
 4620SOL    HW114759   0.465   4.872   2.163
 4620SOL    HW214760   0.423   4.913   2.010
 4621SOL     OW14761   3.321   0.282   2.846
 4621SOL    HW114762   3.337   0.186   2.867
 4621SOL    HW214763   3.391   0.315   2.782
 4622SOL     OW14764   5.640   6.878   0.312
 4622SOL    HW114765   5.564   6.821   0.342
 4622SOL    HW214766   5.688   6.915   0.392
 4623SOL     OW14767   3.223   4.899   1.971
 4623SOL    HW114768   3.235   4.834   1.896
 4623SOL    HW214769   3.145   4.871   2.027
 4624SOL     OW14770   4.312   1.334   2.032
 4624SOL    HW114771   4.294   1.392   2.112
 4624SOL    HW214772   4.308   1.389   1.949
 4625SOL     OW14773   1.724   5.854   1.800
 4625SOL    HW114774   1.779   5.938   1.797
 4625SOL    HW214775   1.711   5.820   1.707
 4626SOL     OW14776   3.942   2.996   2.044
 4626SOL    HW114777   4.033   3.036   2.042
 4626SOL    HW214778   3.878   3.055   1.996
 4627SOL     OW14779   5.565   0.163   5.277
 4627SOL    HW114780   5.649   0.217   5.284
 4627SOL    HW214781   5.586   0.076   5.234
 4628SOL     OW14782   5.410   4.552   3.541
 4628SOL    HW114783   5.506   4.558   3.517
 4628SOL    HW214784   5.354   4.552   3.457
 4629SOL     OW14785   1.900   5.500   0.307
 4629SOL    HW114786   1.938   5.592   0.307
 4629SOL    HW214787   1.847   5.486   0.223
 4630SOL     OW14788   2.109   3.789   1.549
 4630SOL    HW114789   2.199   3.769   1.587
 4630SOL    HW214790   2.048   3.820   1.621
 4631SOL     OW14791   6.671   0.687   2.835
 4631SOL    HW114792   6.733   0.612   2.857
 4631SOL    HW214793   6.655   0.689   2.736
 4632SOL     OW14794   3.189   5.143   2.967
 4632SOL    HW114795   3.213   5.049   2.945
 4632SOL    HW214796   3.090   5.152   2.974
 4633SOL     OW14797   5.142   2.163   4.825
 4633SOL    HW114798   5.237   2.172   4.795
 4633SOL    HW214799   5.082   2.153   4.745
 4634SOL     OW14800   4.029   3.515   5.091
 4634SOL    HW114801   3.994   3.592   5.037
 4634SOL    HW214802   4.075   3.450   5.030
 4635SOL     OW14803   4.364   6.012   1.793
 4635SOL    HW114804   4.417   6.096   1.802
 4635SOL    HW214805   4.333   6.002   1.699
 4636SOL     OW14806   1.553   5.408   6.698
 4636SOL    HW114807   1.478   5.388   6.635
 4636SOL    HW214808   1.570   5.328   6.756
 4637SOL     OW14809   3.092   1.691   3.493
 4637SOL    HW114810   3.055   1.614   3.544
 4637SOL    HW214811   3.164   1.658   3.431
 4638SOL     OW14812   4.661   4.708   0.200
 4638SOL    HW114813   4.606   4.662   0.131
 4638SOL    HW214814   4.744   4.656   0.218
 4639SOL     OW14815   3.928   2.372   1.777
 4639SOL    HW114816   3.843   2.355   1.827
 4639SOL    HW214817   3.929   2.466   1.744
 4640SOL     OW14818   6.256   3.654   0.176
 4640SOL    HW114819   6.175   3.661   0.118
 4640SOL    HW214820   6.333   3.618   0.122
 4641SOL     OW14821   1.793   5.660   4.479
 4641SOL    HW114822   1.890   5.649   4.460
 4641SOL    HW214823   1.744   5.576   4.455
 4642SOL     OW14824   6.631   1.179   4.729
 4642SOL    HW114825   6.601   1.267   4.767
 4642SOL    HW214826   6.720   1.190   4.685
 4643SOL     OW14827   0.829   1.996   0.048
 4643SOL    HW114828   0.748   1.941   0.066
 4643SOL    HW214829   0.866   1.972   6.984
 4644SOL     OW14830   1.687   0.263   0.462
 4644SOL    HW114831   1.667   0.329   0.535
 4644SOL    HW214832   1.780   0.228   0.474
 4645SOL     OW14833   6.495   1.325   5.049
 4645SOL    HW114834   6.535   1.374   5.126
 4645SOL    HW214835   6.509   1.378   4.965
 4646SOL     OW14836   2.347   4.387   3.774
 4646SOL    HW114837   2.314   4.328   3.701
 4646SOL    HW214838   2.301   4.363   3.860
 4647SOL     OW14839   1.641   6.712   1.555
 4647SOL    HW114840   1.572   6.655   1.599
 4647SOL    HW214841   1.717   6.656   1.525
 4648SOL     OW14842   2.801   1.279   5.091
 4648SOL    HW114843   2.704   1.269   5.115
 4648SOL    HW214844   2.827   1.376   5.095
 4649SOL     OW14845   5.919   1.567   0.490
 4649SOL    HW114846   5.870   1.525   0.414
 4649SOL    HW214847   5.871   1.548   0.575
 4650SOL     OW14848   5.086   6.182   0.862
 4650SOL    HW114849   5.102   6.219   0.954
 4650SOL    HW214850   5.078   6.083   0.868
 4651SOL     OW14851   7.020   3.405   5.901
 4651SOL    HW114852   6.925   3.384   5.926
 4651SOL    HW214853   0.052   3.325   5.917
 4652SOL     OW14854   0.305   6.382   5.094
 4652SOL    HW114855   0.277   6.458   5.153
 4652SOL    HW214856   0.322   6.416   5.002
 4653SOL     OW14857   6.666   5.746   1.074
 4653SOL    HW114858   6.710   5.680   1.013
 4653SOL    HW214859   6.574   5.767   1.040
 4654SOL     OW14860   0.551   0.160   5.778
 4654SOL    HW114861   0.629   0.123   5.727
 4654SOL    HW214862   0.517   0.242   5.733
 4655SOL     OW14863   5.341   3.247   2.123
 4655SOL    HW114864   5.261   3.239   2.183
 4655SOL    HW214865   5.320   3.207   2.034
 4656SOL     OW14866   0.101   0.961   2.144
 4656SOL    HW114867   0.097   1.050   2.190
 4656SOL    HW214868   0.008   0.927   2.130
 4657SOL     OW14869   3.380   1.239   3.209
 4657SOL    HW114870   3.291   1.235   3.165
 4657SOL    HW214871   3.417   1.332   3.204
 4658SOL     OW14872   1.195   2.130   6.271
 4658SOL    HW114873   1.251   2.066   6.324
 4658SOL    HW214874   1.102   2.095   6.265
 4659SOL     OW14875   1.916   4.119   0.335
 4659SOL    HW114876   1.827   4.131   0.380
 4659SOL    HW214877   1.956   4.209   0.315
 4660SOL     OW14878   0.997   5.270   3.424
 4660SOL    HW114879   1.055   5.350   3.441
 4660SOL    HW214880   1.054   5.191   3.403
 4661SOL     OW14881   1.014   1.585   5.987
 4661SOL    HW114882   1.003   1.598   6.086
 4661SOL    HW214883   1.110   1.563   5.968
 4662SOL     OW14884   1.976   0.055   5.591
 4662SOL    HW114885   1.982   0.010   5.502
 4662SOL    HW214886   2.023   0.143   5.587
 4663SOL     OW14887   1.434   0.156   0.087
 4663SOL    HW114888   1.513   0.098   0.068
 4663SOL    HW214889   1.465   0.249   0.108
 4664SOL     OW14890   6.023   0.075   6.034
 4664SOL    HW114891   5.966   0.104   5.958
 4664SOL    HW214892   6.012   7.002   6.049
 4665SOL     OW14893   0.708   0.522   3.637
 4665SOL    HW114894   0.618   0.546   3.672
 4665SOL    HW214895   0.752   0.605   3.601
 4666SOL     OW14896   1.726   2.190   5.526
 4666SOL    HW114897   1.658   2.160   5.592
 4666SOL    HW214898   1.812   2.211   5.573
 4667SOL     OW14899   6.672   3.579   1.095
 4667SOL    HW114900   6.599   3.625   1.145
 4667SOL    HW214901   6.730   3.647   1.050
 4668SOL     OW14902   4.981   2.105   4.596
 4668SOL    HW114903   4.984   2.005   4.600
 4668SOL    HW214904   4.886   2.135   4.605
 4669SOL     OW14905   5.245   0.050   6.223
 4669SOL    HW114906   5.313   0.057   6.149
 4669SOL    HW214907   5.293   0.043   6.311
 4670SOL     OW14908   0.073   3.092   6.788
 4670SOL    HW114909   0.121   3.082   6.875
 4670SOL    HW214910   0.129   3.052   6.715
 4671SOL     OW14911   0.799   3.167   1.596
 4671SOL    HW114912   0.812   3.111   1.678
 4671SOL    HW214913   0.888   3.187   1.555
 4672SOL     OW14914   3.273   4.039   7.013
 4672SOL    HW114915   3.225   4.000   6.935
 4672SOL    HW214916   3.289   4.136   6.999
 4673SOL     OW14917   6.290   0.934   0.763
 4673SOL    HW114918   6.298   1.008   0.830
 4673SOL    HW214919   6.210   0.878   0.785
 4674SOL     OW14920   0.746   2.623   0.712
 4674SOL    HW114921   0.684   2.695   0.743
 4674SOL    HW214922   0.835   2.635   0.755
 4675SOL     OW14923   1.799   5.455   6.823
 4675SOL    HW114924   1.716   5.436   6.770
 4675SOL    HW214925   1.874   5.397   6.789
 4676SOL     OW14926   0.741   6.226   3.794
 4676SOL    HW114927   0.838   6.247   3.780
 4676SOL    HW214928   0.687   6.311   3.787
 4677SOL     OW14929   3.912   7.005   6.899
 4677SOL    HW114930   3.879   7.007   6.993
 4677SOL    HW214931   3.892   0.067   6.854
 4678SOL     OW14932   2.694   4.292   0.077
 4678SOL    HW114933   2.651   4.270   7.014
 4678SOL    HW214934   2.759   4.368   0.065
 4679SOL     OW14935   2.515   6.700   5.718
 4679SOL    HW114936   2.471   6.617   5.683
 4679SOL    HW214937   2.533   6.763   5.643
 4680SOL     OW14938   1.821   4.448   0.194
 4680SOL    HW114939   1.899   4.406   0.147
 4680SOL    HW214940   1.815   4.544   0.170
 4681SOL     OW14941   6.835   5.646   4.527
 4681SOL    HW114942   6.830   5.550   4.502
 4681SOL    HW214943   6.931   5.674   4.532
 4682SOL     OW14944   3.149   6.095   0.959
 4682SOL    HW114945   3.053   6.103   0.934
 4682SOL    HW214946   3.191   6.019   0.908
 4683SOL     OW14947   6.764   4.355   2.868
 4683SOL    HW114948   6.715   4.442   2.865
 4683SOL    HW214949   6.776   4.320   2.775
 4684SOL     OW14950   0.999   1.356   5.005
 4684SOL    HW114951   1.020   1.444   4.962
 4684SOL    HW214952   0.960   1.294   4.936
 4685SOL     OW14953   4.834   4.556   5.041
 4685SOL    HW114954   4.740   4.566   5.008
 4685SOL    HW214955   4.836   4.499   5.122
 4686SOL     OW14956   5.451   5.938   0.395
 4686SOL    HW114957   5.438   5.993   0.312
 4686SOL    HW214958   5.545   5.947   0.427
 4687SOL     OW14959   5.627   6.604   4.517
 4687SOL    HW114960   5.594   6.633   4.427
 4687SOL    HW214961   5.727   6.592   4.513
 4688SOL     OW14962   1.062   2.092   0.661
 4688SOL    HW114963   1.020   2.164   0.716
 4688SOL    HW214964   1.105   2.131   0.580
 4689SOL     OW14965   1.923   5.095   4.735
 4689SOL    HW114966   1.991   5.030   4.702
 4689SOL    HW214967   1.894   5.069   4.828
 4690SOL     OW14968   1.537   1.738   0.432
 4690SOL    HW114969   1.471   1.667   0.408
 4690SOL    HW214970   1.555   1.735   0.531
 4691SOL     OW14971   3.850   4.446   0.386
 4691SOL    HW114972   3.841   4.350   0.361
 4691SOL    HW214973   3.919   4.489   0.327
 4692SOL     OW14974   0.317   6.026   2.961
 4692SOL    HW114975   0.302   5.934   2.922
 4692SOL    HW214976   0.308   6.094   2.888
 4693SOL     OW14977   0.653   0.984   3.947
 4693SOL    HW114978   0.711   0.941   4.016
 4693SOL    HW214979   0.686   0.958   3.856
 4694SOL     OW14980   0.951   1.159   6.198
 4694SOL    HW114981   1.051   1.162   6.187
 4694SOL    HW214982   0.918   1.068   6.172
 4695SOL     OW14983   2.820   3.116   1.708
 4695SOL    HW114984   2.870   3.141   1.791
 4695SOL    HW214985   2.802   3.017   1.709
 4696SOL     OW14986   5.611   3.391   0.144
 4696SOL    HW114987   5.646   3.299   0.158
 4696SOL    HW214988   5.604   3.410   0.046
 4697SOL     OW14989   1.079   5.008   6.914
 4697SOL    HW114990   1.013   5.075   6.880
 4697SOL    HW214991   1.038   4.959   6.992
 4698SOL     OW14992   6.104   3.489   2.102
 4698SOL    HW114993   6.130   3.572   2.052
 4698SOL    HW214994   6.165   3.414   2.076
 4699SOL     OW14995   6.457   7.005   3.175
 4699SOL    HW114996   6.425   0.065   3.133
 4699SOL    HW214997   6.413   6.994   3.264
 4700SOL     OW14998   5.190   6.752   6.835
 4700SOL    HW114999   5.162   6.757   6.740
 4700SOL    HW215000   5.109   6.745   6.894
 4701SOL     OW15001   0.238   0.698   0.589
 4701SOL    HW115002   0.179   0.731   0.663
 4701SOL    HW215003   0.324   0.749   0.590
 4702SOL     OW15004   2.975   3.178   0.171
 4702SOL    HW115005   2.968   3.188   0.071
 4702SOL    HW215006   2.901   3.230   0.214
 4703SOL     OW15007   1.764   1.059   1.271
 4703SOL    HW115008   1.833   0.988   1.289
 4703SOL    HW215009   1.752   1.115   1.352
 4704SOL     OW15010   4.693   6.954   0.119
 4704SOL    HW115011   4.779   6.990   0.082
 4704SOL    HW215012   4.647   0.001   0.170
 4705SOL     OW15013   3.156   4.039   3.838
 4705SOL    HW115014   3.244   4.066   3.877
 4705SOL    HW215015   3.094   4.011   3.911
 4706SOL     OW15016   4.798   5.459   1.018
 4706SOL    HW115017   4.757   5.393   1.081
 4706SOL    HW215018   4.726   5.510   0.971
 4707SOL     OW15019   3.492   6.167   1.495
 4707SOL    HW115020   3.571   6.120   1.534
 4707SOL    HW215021   3.522   6.230   1.424
 4708SOL     OW15022   1.530   2.822   2.811
 4708SOL    HW115023   1.571   2.830   2.720
 4708SOL    HW215024   1.456   2.889   2.821
 4709SOL     OW15025   3.205   3.644   0.197
 4709SOL    HW115026   3.223   3.677   0.290
 4709SOL    HW215027   3.290   3.647   0.144
 4710SOL     OW15028   5.090   2.489   1.187
 4710SOL    HW115029   5.016   2.550   1.214
 4710SOL    HW215030   5.079   2.401   1.232
 4711SOL     OW15031   3.136   6.632   3.219
 4711SOL    HW115032   3.104   6.539   3.237
 4711SOL    HW215033   3.058   6.691   3.199
 4712SOL     OW15034   1.668   4.094   0.450
 4712SOL    HW115035   1.666   4.112   0.548
 4712SOL    HW215036   1.625   4.170   0.401
 4713SOL     OW15037   2.442   6.196   1.214
 4713SOL    HW115038   2.521   6.194   1.277
 4713SOL    HW215039   2.407   6.104   1.202
 4714SOL     OW15040   3.203   1.985   0.500
 4714SOL    HW115041   3.136   2.052   0.469
 4714SOL    HW215042   3.292   2.006   0.459
 4715SOL     OW15043   5.436   4.334   4.684
 4715SOL    HW115044   5.481   4.245   4.680
 4715SOL    HW215045   5.402   4.357   4.593
 4716SOL     OW15046   2.875   5.202   0.682
 4716SOL    HW115047   2.862   5.160   0.592
 4716SOL    HW215048   2.935   5.282   0.673
 4717SOL     OW15049   1.674   5.420   4.349
 4717SOL    HW115050   1.751   5.357   4.362
 4717SOL    HW215051   1.589   5.368   4.340
 4718SOL     OW15052   5.228   1.148   6.655
 4718SOL    HW115053   5.188   1.090   6.584
 4718SOL    HW215054   5.327   1.154   6.641
 4719SOL     OW15055   4.417   2.980   1.661
 4719SOL    HW115056   4.453   3.013   1.748
 4719SOL    HW215057   4.463   3.028   1.586
 4720SOL     OW15058   2.793   0.730   4.028
 4720SOL    HW115059   2.824   0.795   4.098
 4720SOL    HW215060   2.723   0.773   3.971
 4721SOL     OW15061   1.004   1.643   0.920
 4721SOL    HW115062   0.988   1.715   0.988
 4721SOL    HW215063   1.088   1.665   0.868
 4722SOL     OW15064   2.731   0.611   2.201
 4722SOL    HW115065   2.789   0.583   2.125
 4722SOL    HW215066   2.707   0.708   2.191
 4723SOL     OW15067   2.603   6.616   6.285
 4723SOL    HW115068   2.540   6.572   6.221
 4723SOL    HW215069   2.651   6.546   6.338
 4724SOL     OW15070   4.056   5.255   1.653
 4724SOL    HW115071   3.979   5.212   1.606
 4724SOL    HW215072   4.119   5.294   1.587
 4725SOL     OW15073   5.593   5.501   3.472
 4725SOL    HW115074   5.635   5.577   3.523
 4725SOL    HW215075   5.541   5.538   3.395
 4726SOL     OW15076   0.615   6.009   5.541
 4726SOL    HW115077   0.565   5.923   5.534
 4726SOL    HW215078   0.602   6.048   5.633
 4727SOL     OW15079   6.178   6.400   0.992
 4727SOL    HW115080   6.268   6.363   1.015
 4727SOL    HW215081   6.189   6.476   0.928
 4728SOL     OW15082   0.229   1.068   0.113
 4728SOL    HW115083   0.216   1.158   0.153
 4728SOL    HW215084   0.236   0.999   0.185
 4729SOL     OW15085   2.845   0.129   0.545
 4729SOL    HW115086   2.872   0.187   0.467
 4729SOL    HW215087   2.798   0.185   0.613
 4730SOL     OW15088   2.038   0.755   5.572
 4730SOL    HW115089   2.138   0.748   5.575
 4730SOL    HW215090   2.000   0.669   5.540
 4731SOL     OW15091   5.788   2.153   6.414
 4731SOL    HW115092   5.742   2.155   6.503
 4731SOL    HW215093   5.882   2.121   6.427
 4732SOL     OW15094   0.113   1.715   0.611
 4732SOL    HW115095   0.129   1.788   0.544
 4732SOL    HW215096   0.168   1.733   0.693
 4733SOL     OW15097   6.866   3.528   4.149
 4733SOL    HW115098   6.889   3.435   4.177
 4733SOL    HW215099   6.796   3.525   4.077
 4734SOL     OW15100   5.101   4.346   5.843
 4734SOL    HW115101   5.018   4.289   5.844
 4734SOL    HW215102   5.084   4.431   5.892
 4735SOL     OW15103   6.943   4.605   3.763
 4735SOL    HW115104   7.001   4.523   3.768
 4735SOL    HW215105   6.991   4.682   3.805
 4736SOL     OW15106   2.034   7.005   1.206
 4736SOL    HW115107   2.096   6.942   1.160
 4736SOL    HW215108   2.079   0.068   1.218
 4737SOL     OW15109   3.500   5.354   1.563
 4737SOL    HW115110   3.575   5.376   1.626
 4737SOL    HW215111   3.538   5.331   1.473
 4738SOL     OW15112   0.052   6.282   3.507
 4738SOL    HW115113   0.127   6.306   3.446
 4738SOL    HW215114   7.012   6.358   3.511
 4739SOL     OW15115   4.574   0.429   1.169
 4739SOL    HW115116   4.565   0.509   1.109
 4739SOL    HW215117   4.567   0.458   1.264
 4740SOL     OW15118   1.183   2.198   3.589
 4740SOL    HW115119   1.100   2.254   3.592
 4740SOL    HW215120   1.158   2.103   3.573
 4741SOL     OW15121   3.869   3.732   1.264
 4741SOL    HW115122   3.891   3.738   1.167
 4741SOL    HW215123   3.919   3.655   1.304
 4742SOL     OW15124   3.745   1.027   0.623
 4742SOL    HW115125   3.656   0.983   0.635
 4742SOL    HW215126   3.800   1.014   0.705
 4743SOL     OW15127   1.723   5.476   0.554
 4743SOL    HW115128   1.636   5.442   0.519
 4743SOL    HW215129   1.790   5.480   0.480
 4744SOL     OW15130   2.301   5.846   1.107
 4744SOL    HW115131   2.244   5.926   1.088
 4744SOL    HW215132   2.298   5.784   1.029
 4745SOL     OW15133   1.309   3.466   0.324
 4745SOL    HW115134   1.312   3.562   0.353
 4745SOL    HW215135   1.400   3.426   0.336
 4746SOL     OW15136   4.731   5.491   4.226
 4746SOL    HW115137   4.778   5.496   4.314
 4746SOL    HW215138   4.675   5.573   4.213
 4747SOL     OW15139   2.207   0.674   6.933
 4747SOL    HW115140   2.205   0.736   7.011
 4747SOL    HW215141   2.284   0.611   6.942
 4748SOL     OW15142   2.211   6.632   1.514
 4748SOL    HW115143   2.291   6.592   1.469
 4748SOL    HW215144   2.129   6.615   1.458
 4749SOL     OW15145   2.246   1.686   0.398
 4749SOL    HW115146   2.283   1.595   0.376
 4749SOL    HW215147   2.318   1.741   0.440
 4750SOL     OW15148   5.055   2.853   5.552
 4750SOL    HW115149   5.041   2.777   5.488
 4750SOL    HW215150   4.967   2.895   5.572
 4751SOL     OW15151   4.552   1.127   3.311
 4751SOL    HW115152   4.551   1.225   3.295
 4751SOL    HW215153   4.606   1.107   3.393
 4752SOL     OW15154   5.499   1.395   6.477
 4752SOL    HW115155   5.585   1.419   6.432
 4752SOL    HW215156   5.470   1.470   6.536
 4753SOL     OW15157   3.443   6.634   4.855
 4753SOL    HW115158   3.403   6.643   4.764
 4753SOL    HW215159   3.378   6.587   4.915
 4754SOL     OW15160   4.488   4.551   6.218
 4754SOL    HW115161   4.524   4.579   6.307
 4754SOL    HW215162   4.483   4.631   6.158
 4755SOL     OW15163   0.571   1.012   1.275
 4755SOL    HW115164   0.564   1.107   1.246
 4755SOL    HW215165   0.661   0.996   1.316
 4756SOL     OW15166   6.826   4.362   5.444
 4756SOL    HW115167   6.850   4.389   5.351
 4756SOL    HW215168   6.756   4.291   5.441
 4757SOL     OW15169   1.950   3.492   0.265
 4757SOL    HW115170   1.896   3.566   0.225
 4757SOL    HW215171   2.022   3.530   0.323
 4758SOL     OW15172   2.363   5.868   3.384
 4758SOL    HW115173   2.305   5.794   3.418
 4758SOL    HW215174   2.369   5.941   3.453
 4759SOL     OW15175   0.591   6.704   1.593
 4759SOL    HW115176   0.604   6.611   1.560
 4759SOL    HW215177   0.669   6.731   1.650
 4760SOL     OW15178   1.644   5.559   0.816
 4760SOL    HW115179   1.732   5.562   0.864
 4760SOL    HW215180   1.658   5.531   0.721
 4761SOL     OW15181   5.640   6.907   1.558
 4761SOL    HW115182   5.728   6.934   1.599
 4761SOL    HW215183   5.634   6.808   1.555
 4762SOL     OW15184   2.090   0.356   2.474
 4762SOL    HW115185   2.068   0.262   2.498
 4762SOL    HW215186   2.025   0.390   2.406
 4763SOL     OW15187   5.792   5.418   2.412
 4763SOL    HW115188   5.736   5.336   2.405
 4763SOL    HW215189   5.876   5.398   2.463
 4764SOL     OW15190   5.281   3.095   0.345
 4764SOL    HW115191   5.213   3.154   0.301
 4764SOL    HW215192   5.254   3.077   0.440
 4765SOL     OW15193   3.924   1.708   5.935
 4765SOL    HW115194   3.930   1.802   5.902
 4765SOL    HW215195   3.989   1.651   5.885
 4766SOL     OW15196   1.071   0.735   4.817
 4766SOL    HW115197   1.074   0.636   4.798
 4766SOL    HW215198   1.137   0.782   4.757
 4767SOL     OW15199   2.153   4.203   3.272
 4767SOL    HW115200   2.238   4.250   3.293
 4767SOL    HW215201   2.159   4.160   3.182
 4768SOL     OW15202   4.607   2.539   6.416
 4768SOL    HW115203   4.704   2.528   6.394
 4768SOL    HW215204   4.598   2.600   6.495
 4769SOL     OW15205   1.712   2.865   0.346
 4769SOL    HW115206   1.704   2.959   0.314
 4769SOL    HW215207   1.798   2.854   0.397
 4770SOL     OW15208   0.173   1.587   3.886
 4770SOL    HW115209   0.124   1.661   3.932
 4770SOL    HW215210   0.192   1.614   3.791
 4771SOL     OW15211   1.853   6.973   4.179
 4771SOL    HW115212   1.945   6.960   4.217
 4771SOL    HW215213   1.851   6.942   4.084
 4772SOL     OW15214   3.201   5.576   2.506
 4772SOL    HW115215   3.185   5.505   2.437
 4772SOL    HW215216   3.147   5.657   2.485
 4773SOL     OW15217   3.024   4.884   4.908
 4773SOL    HW115218   2.965   4.803   4.909
 4773SOL    HW215219   2.968   4.966   4.895
 4774SOL     OW15220   0.833   4.296   0.766
 4774SOL    HW115221   0.766   4.318   0.837
 4774SOL    HW215222   0.911   4.358   0.773
 4775SOL     OW15223   6.071   5.671   4.981
 4775SOL    HW115224   6.155   5.675   4.927
 4775SOL    HW215225   6.034   5.763   4.993
 4776SOL     OW15226   0.370   1.183   5.379
 4776SOL    HW115227   0.297   1.175   5.446
 4776SOL    HW215228   0.430   1.102   5.385
 4777SOL     OW15229   1.814   6.975   2.919
 4777SOL    HW115230   1.717   6.954   2.930
 4777SOL    HW215231   1.824   0.034   2.866
 4778SOL     OW15232   1.798   1.247   0.222
 4778SOL    HW115233   1.794   1.254   0.322
 4778SOL    HW215234   1.879   1.295   0.189
 4779SOL     OW15235   4.831   0.834   4.803
 4779SOL    HW115236   4.814   0.835   4.704
 4779SOL    HW215237   4.926   0.808   4.821
 4780SOL     OW15238   4.950   2.760   4.593
 4780SOL    HW115239   4.952   2.859   4.582
 4780SOL    HW215240   4.880   2.720   4.533
 4781SOL     OW15241   1.548   5.389   1.779
 4781SOL    HW115242   1.459   5.352   1.805
 4781SOL    HW215243   1.568   5.363   1.685
 4782SOL     OW15244   6.767   6.681   4.305
 4782SOL    HW115245   6.718   6.730   4.377
 4782SOL    HW215246   6.707   6.610   4.267
 4783SOL     OW15247   0.186   3.991   6.157
 4783SOL    HW115248   0.266   4.025   6.107
 4783SOL    HW215249   0.115   3.963   6.092
 4784SOL     OW15250   5.167   3.420   6.989
 4784SOL    HW115251   5.216   3.389   6.907
 4784SOL    HW215252   5.164   3.520   6.990
 4785SOL     OW15253   0.736   0.445   4.106
 4785SOL    HW115254   0.643   0.414   4.087
 4785SOL    HW215255   0.756   0.526   4.051
 4786SOL     OW15256   0.647   5.891   0.115
 4786SOL    HW115257   0.709   5.967   0.132
 4786SOL    HW215258   0.631   5.842   0.201
 4787SOL     OW15259   4.609   1.137   4.787
 4787SOL    HW115260   4.546   1.064   4.815
 4787SOL    HW215261   4.680   1.147   4.856
 4788SOL     OW15262   0.235   5.846   0.977
 4788SOL    HW115263   0.318   5.820   0.927
 4788SOL    HW215264   0.189   5.920   0.928
 4789SOL     OW15265   6.433   1.069   2.944
 4789SOL    HW115266   6.337   1.059   2.919
 4789SOL    HW215267   6.469   0.981   2.975
 4790SOL     OW15268   6.887   1.868   4.758
 4790SOL    HW115269   6.817   1.814   4.806
 4790SOL    HW215270   6.851   1.959   4.738
 4791SOL     OW15271   0.657   0.108   0.303
 4791SOL    HW115272   0.715   0.098   0.383
 4791SOL    HW215273   0.622   0.202   0.299
 4792SOL     OW15274   1.814   3.315   2.288
 4792SOL    HW115275   1.910   3.304   2.261
 4792SOL    HW215276   1.809   3.367   2.373
 4793SOL     OW15277   1.347   3.988   5.765
 4793SOL    HW115278   1.279   3.946   5.704
 4793SOL    HW215279   1.439   3.967   5.731
 4794SOL     OW15280   4.768   1.979   4.754
 4794SOL    HW115281   4.758   1.939   4.845
 4794SOL    HW215282   4.704   1.935   4.691
 4795SOL     OW15283   0.194   1.079   6.263
 4795SOL    HW115284   0.221   1.157   6.207
 4795SOL    HW215285   0.270   1.053   6.323
 4796SOL     OW15286   4.383   1.530   5.273
 4796SOL    HW115287   4.292   1.542   5.232
 4796SOL    HW215288   4.442   1.483   5.208
 4797SOL     OW15289   2.203   4.770   6.521
 4797SOL    HW115290   2.204   4.739   6.616
 4797SOL    HW215291   2.271   4.842   6.508
 4798SOL     OW15292   3.926   5.676   0.437
 4798SOL    HW115293   3.960   5.768   0.455
 4798SOL    HW215294   4.000   5.610   0.450
 4799SOL     OW15295   4.195   2.632   0.344
 4799SOL    HW115296   4.289   2.652   0.317
 4799SOL    HW215297   4.193   2.551   0.403
 4800SOL     OW15298   0.281   4.375   6.953
 4800SOL    HW115299   0.374   4.380   6.990
 4800SOL    HW215300   0.239   4.288   6.981
 4801SOL     OW15301   5.671   2.291   2.512
 4801SOL    HW115302   5.618   2.311   2.595
 4801SOL    HW215303   5.766   2.274   2.536
 4802SOL     OW15304   6.544   0.127   4.482
 4802SOL    HW115305   6.498   0.108   4.395
 4802SOL    HW215306   6.562   0.225   4.490
 4803SOL     OW15307   5.183   3.964   5.430
 4803SOL    HW115308   5.244   3.947   5.508
 4803SOL    HW215309   5.116   4.035   5.455
 4804SOL     OW15310   5.077   2.127   0.910
 4804SOL    HW115311   5.063   2.177   0.825
 4804SOL    HW215312   5.159   2.162   0.956
 4805SOL     OW15313   5.752   1.519   6.975
 4805SOL    HW115314   5.678   1.515   6.908
 4805SOL    HW215315   5.803   1.604   6.964
 4806SOL     OW15316   1.531   1.533   3.288
 4806SOL    HW115317   1.547   1.442   3.248
 4806SOL    HW215318   1.594   1.547   3.364
 4807SOL     OW15319   0.055   4.435   6.351
 4807SOL    HW115320   0.037   4.338   6.367
 4807SOL    HW215321   0.030   4.459   6.258
 4808SOL     OW15322   3.515   5.795   1.866
 4808SOL    HW115323   3.437   5.822   1.923
 4808SOL    HW215324   3.482   5.737   1.791
 4809SOL     OW15325   3.210   3.961   1.675
 4809SOL    HW115326   3.184   3.985   1.582
 4809SOL    HW215327   3.307   3.979   1.689
 4810SOL     OW15328   1.898   5.720   4.088
 4810SOL    HW115329   1.978   5.756   4.138
 4810SOL    HW215330   1.827   5.695   4.154
 4811SOL     OW15331   3.471   3.475   4.303
 4811SOL    HW115332   3.429   3.559   4.336
 4811SOL    HW215333   3.430   3.449   4.216
 4812SOL     OW15334   1.590   6.652   3.087
 4812SOL    HW115335   1.670   6.608   3.047
 4812SOL    HW215336   1.604   6.664   3.185
 4813SOL     OW15337   0.676   2.044   5.234
 4813SOL    HW115338   0.596   2.004   5.280
 4813SOL    HW215339   0.756   2.033   5.292
 4814SOL     OW15340   6.419   3.708   1.215
 4814SOL    HW115341   6.435   3.736   1.310
 4814SOL    HW215342   6.322   3.689   1.202
 4815SOL     OW15343   6.190   4.834   2.586
 4815SOL    HW115344   6.183   4.784   2.500
 4815SOL    HW215345   6.220   4.927   2.568
 4816SOL     OW15346   3.175   0.522   2.828
 4816SOL    HW115347   3.243   0.596   2.833
 4816SOL    HW215348   3.222   0.434   2.829
 4817SOL     OW15349   4.049   1.888   1.196
 4817SOL    HW115350   4.023   1.925   1.286
 4817SOL    HW215351   4.017   1.794   1.189
 4818SOL     OW15352   3.910   0.436   4.567
 4818SOL    HW115353   3.998   0.460   4.609
 4818SOL    HW215354   3.912   0.459   4.470
 4819SOL     OW15355   3.020   1.005   0.258
 4819SOL    HW115356   3.058   1.063   0.185
 4819SOL    HW215357   3.089   0.941   0.289
 4820SOL     OW15358   5.913   4.204   1.748
 4820SOL    HW115359   5.833   4.236   1.697
 4820SOL    HW215360   5.988   4.268   1.735
 4821SOL     OW15361   0.255   5.947   1.923
 4821SOL    HW115362   0.256   6.046   1.930
 4821SOL    HW215363   0.235   5.920   1.828
 4822SOL     OW15364   0.795   4.054   1.714
 4822SOL    HW115365   0.695   4.045   1.717
 4822SOL    HW215366   0.833   4.025   1.802
 4823SOL     OW15367   0.769   1.297   3.381
 4823SOL    HW115368   0.788   1.280   3.478
 4823SOL    HW215369   0.686   1.353   3.373
 4824SOL     OW15370   5.564   2.687   1.889
 4824SOL    HW115371   5.511   2.718   1.810
 4824SOL    HW215372   5.655   2.661   1.859
 4825SOL     OW15373   0.184   3.204   4.122
 4825SOL    HW115374   0.234   3.288   4.100
 4825SOL    HW215375   0.242   3.145   4.178
 4826SOL     OW15376   6.899   6.759   6.891
 4826SOL    HW115377   6.963   6.810   6.834
 4826SOL    HW215378   6.824   6.819   6.919
 4827SOL     OW15379   4.965   1.554   0.542
 4827SOL    HW115380   4.968   1.654   0.545
 4827SOL    HW215381   4.957   1.524   0.447
 4828SOL     OW15382   5.290   3.364   6.725
 4828SOL    HW115383   5.340   3.426   6.665
 4828SOL    HW215384   5.195   3.358   6.695
 4829SOL     OW15385   3.920   0.394   5.281
 4829SOL    HW115386   3.821   0.383   5.275
 4829SOL    HW215387   3.947   0.406   5.377
 4830SOL     OW15388   4.639   5.950   5.221
 4830SOL    HW115389   4.545   5.941   5.254
 4830SOL    HW215390   4.640   5.941   5.122
 4831SOL     OW15391   5.958   3.476   6.377
 4831SOL    HW115392   5.966   3.387   6.332
 4831SOL    HW215393   5.983   3.467   6.473
 4832SOL     OW15394   1.797   2.643   6.529
 4832SOL    HW115395   1.789   2.743   6.528
 4832SOL    HW215396   1.814   2.610   6.436
 4833SOL     OW15397   6.355   1.722   3.569
 4833SOL    HW115398   6.338   1.635   3.523
 4833SOL    HW215399   6.449   1.750   3.552
 4834SOL     OW15400   5.665   0.692   3.178
 4834SOL    HW115401   5.621   0.667   3.092
 4834SOL    HW215402   5.613   0.654   3.255
 4835SOL     OW15403   1.376   1.213   6.080
 4835SOL    HW115404   1.432   1.158   6.142
 4835SOL    HW215405   1.391   1.310   6.098
 4836SOL     OW15406   5.898   2.962   2.010
 4836SOL    HW115407   5.870   2.909   1.930
 4836SOL    HW215408   5.819   2.975   2.070
 4837SOL     OW15409   0.135   3.889   1.037
 4837SOL    HW115410   0.059   3.873   1.099
 4837SOL    HW215411   0.128   3.981   0.998
 4838SOL     OW15412   2.775   5.188   2.318
 4838SOL    HW115413   2.815   5.216   2.405
 4838SOL    HW215414   2.841   5.132   2.268
 4839SOL     OW15415   0.649   6.826   6.674
 4839SOL    HW115416   0.621   6.814   6.579
 4839SOL    HW215417   0.665   6.923   6.692
 4840SOL     OW15418   6.045   6.783   6.466
 4840SOL    HW115419   6.131   6.816   6.426
 4840SOL    HW215420   6.019   6.696   6.422
 4841SOL     OW15421   2.520   5.755   2.078
 4841SOL    HW115422   2.579   5.772   1.999
 4841SOL    HW215423   2.431   5.722   2.047
 4842SOL     OW15424   3.439   6.506   1.761
 4842SOL    HW115425   3.465   6.571   1.690
 4842SOL    HW215426   3.518   6.449   1.784
 4843SOL     OW15427   0.824   2.726   6.386
 4843SOL    HW115428   0.903   2.676   6.348
 4843SOL    HW215429   0.743   2.669   6.380
 4844SOL     OW15430   0.805   1.643   5.354
 4844SOL    HW115431   0.855   1.556   5.360
 4844SOL    HW215432   0.753   1.645   5.269
 4845SOL     OW15433   5.627   5.142   3.730
 4845SOL    HW115434   5.693   5.216   3.747
 4845SOL    HW215435   5.582   5.117   3.815
 4846SOL     OW15436   0.231   5.185   6.887
 4846SOL    HW115437   0.288   5.254   6.842
 4846SOL    HW215438   0.219   5.107   6.827
 4847SOL     OW15439   4.760   2.674   4.389
 4847SOL    HW115440   4.803   2.609   4.328
 4847SOL    HW215441   4.660   2.661   4.388
 4848SOL     OW15442   2.194   2.112   1.954
 4848SOL    HW115443   2.247   2.048   2.009
 4848SOL    HW215444   2.112   2.066   1.920
 4849SOL     OW15445   0.935   6.448   6.066
 4849SOL    HW115446   0.889   6.486   6.147
 4849SOL    HW215447   0.919   6.508   5.988
 4850SOL     OW15448   4.223   0.578   3.608
 4850SOL    HW115449   4.194   0.672   3.592
 4850SOL    HW215450   4.318   0.577   3.640
 4851SOL     OW15451   5.208   1.234   5.183
 4851SOL    HW115452   5.276   1.215   5.254
 4851SOL    HW215453   5.186   1.150   5.135
 4852SOL     OW15454   1.561   1.773   1.780
 4852SOL    HW115455   1.525   1.855   1.825
 4852SOL    HW215456   1.592   1.708   1.850
 4853SOL     OW15457   3.697   1.780   1.448
 4853SOL    HW115458   3.627   1.724   1.492
 4853SOL    HW215459   3.691   1.769   1.348
 4854SOL     OW15460   3.736   6.993   0.059
 4854SOL    HW115461   3.701   7.017   0.150
 4854SOL    HW215462   3.678   6.923   0.019
 4855SOL     OW15463   6.834   2.803   2.432
 4855SOL    HW115464   6.798   2.710   2.426
 4855SOL    HW215465   6.934   2.800   2.433
 4856SOL     OW15466   1.912   4.010   3.435
 4856SOL    HW115467   1.973   4.060   3.497
 4856SOL    HW215468   1.821   4.004   3.476
 4857SOL     OW15469   0.626   1.159   5.962
 4857SOL    HW115470   0.673   1.248   5.962
 4857SOL    HW215471   0.669   1.100   6.030
 4858SOL     OW15472   1.243   0.745   3.748
 4858SOL    HW115473   1.317   0.812   3.744
 4858SOL    HW215474   1.277   0.661   3.791
 4859SOL     OW15475   3.364   5.536   6.005
 4859SOL    HW115476   3.305   5.473   5.954
 4859SOL    HW215477   3.445   5.557   5.950
 4860SOL     OW15478   4.456   3.910   0.592
 4860SOL    HW115479   4.371   3.931   0.640
 4860SOL    HW215480   4.442   3.920   0.493
 4861SOL     OW15481   5.277   3.541   5.966
 4861SOL    HW115482   5.232   3.452   5.966
 4861SOL    HW215483   5.245   3.595   5.888
 4862SOL     OW15484   1.107   6.479   0.853
 4862SOL    HW115485   1.015   6.455   0.882
 4862SOL    HW215486   1.108   6.572   0.816
 4863SOL     OW15487   5.034   3.893   6.454
 4863SOL    HW115488   4.966   3.908   6.382
 4863SOL    HW215489   5.119   3.859   6.413
 4864SOL     OW15490   3.035   0.921   4.139
 4864SOL    HW115491   3.132   0.909   4.116
 4864SOL    HW215492   3.027   0.941   4.237
 4865SOL     OW15493   2.042   6.521   5.280
 4865SOL    HW115494   2.130   6.564   5.302
 4865SOL    HW215495   1.970   6.562   5.336
 4866SOL     OW15496   6.545   4.125   6.545
 4866SOL    HW115497   6.531   4.026   6.544
 4866SOL    HW215498   6.496   4.166   6.467
 4867SOL     OW15499   4.503   0.784   3.067
 4867SOL    HW115500   4.472   0.741   2.982
 4867SOL    HW215501   4.536   0.714   3.129
 4868SOL     OW15502   6.895   4.548   0.868
 4868SOL    HW115503   6.954   4.556   0.787
 4868SOL    HW215504   6.848   4.636   0.883
 4869SOL     OW15505   0.500   1.093   0.776
 4869SOL    HW115506   0.458   1.137   0.855
 4869SOL    HW215507   0.590   1.134   0.760
 4870SOL     OW15508   0.598   6.762   2.011
 4870SOL    HW115509   0.521   6.719   1.964
 4870SOL    HW215510   0.567   6.843   2.060
 4871SOL     OW15511   1.759   1.493   3.540
 4871SOL    HW115512   1.702   1.536   3.610
 4871SOL    HW215513   1.839   1.452   3.584
 4872SOL     OW15514   5.940   6.222   2.991
 4872SOL    HW115515   6.027   6.224   3.039
 4872SOL    HW215516   5.956   6.218   2.892
 4873SOL     OW15517   6.327   5.301   4.861
 4873SOL    HW115518   6.396   5.335   4.798
 4873SOL    HW215519   6.242   5.283   4.811
 4874SOL     OW15520   4.880   3.109   3.135
 4874SOL    HW115521   4.821   3.165   3.195
 4874SOL    HW215522   4.910   3.028   3.185
 4875SOL     OW15523   5.765   6.318   5.230
 4875SOL    HW115524   5.834   6.348   5.295
 4875SOL    HW215525   5.680   6.297   5.279
 4876SOL     OW15526   0.809   0.758   2.149
 4876SOL    HW115527   0.791   0.838   2.206
 4876SOL    HW215528   0.877   0.780   2.080
 4877SOL     OW15529   6.737   1.631   5.975
 4877SOL    HW115530   6.683   1.706   6.014
 4877SOL    HW215531   6.676   1.563   5.936
 4878SOL     OW15532   0.106   3.497   2.170
 4878SOL    HW115533   0.162   3.452   2.239
 4878SOL    HW215534   0.115   3.450   2.082
 4879SOL     OW15535   5.987   0.783   2.873
 4879SOL    HW115536   6.019   0.700   2.827
 4879SOL    HW215537   5.893   0.801   2.847
 4880SOL     OW15538   6.528   2.882   6.828
 4880SOL    HW115539   6.491   2.973   6.843
 4880SOL    HW215540   6.527   2.861   6.731
 4881SOL     OW15541   1.772   3.043   1.584
 4881SOL    HW115542   1.782   2.944   1.578
 4881SOL    HW215543   1.773   3.071   1.680
 4882SOL     OW15544   4.502   2.551   4.394
 4882SOL    HW115545   4.482   2.466   4.442
 4882SOL    HW215546   4.427   2.574   4.332
 4883SOL     OW15547   6.437   4.631   0.503
 4883SOL    HW115548   6.479   4.618   0.413
 4883SOL    HW215549   6.410   4.726   0.513
 4884SOL     OW15550   1.688   0.770   1.476
 4884SOL    HW115551   1.637   0.697   1.431
 4884SOL    HW215552   1.766   0.796   1.418
 4885SOL     OW15553   1.288   4.124   0.326
 4885SOL    HW115554   1.320   4.050   0.267
 4885SOL    HW215555   1.298   4.211   0.278
 4886SOL     OW15556   2.486   1.108   2.096
 4886SOL    HW115557   2.508   1.205   2.094
 4886SOL    HW215558   2.442   1.085   2.183
 4887SOL     OW15559   5.811   6.640   7.005
 4887SOL    HW115560   5.820   6.704   0.056
 4887SOL    HW215561   5.820   6.546   0.015
 4888SOL     OW15562   4.161   0.420   2.966
 4888SOL    HW115563   4.238   0.401   2.904
 4888SOL    HW215564   4.112   0.335   2.985
 4889SOL     OW15565   6.916   3.265   4.193
 4889SOL    HW115566   6.875   3.270   4.102
 4889SOL    HW215567   6.945   3.171   4.212
 4890SOL     OW15568   6.987   1.486   4.457
 4890SOL    HW115569   6.973   1.518   4.363
 4890SOL    HW215570   6.934   1.544   4.520
 4891SOL     OW15571   2.906   5.197   6.383
 4891SOL    HW115572   2.810   5.208   6.408
 4891SOL    HW215573   2.939   5.108   6.416
 4892SOL     OW15574   4.960   5.345   2.188
 4892SOL    HW115575   4.932   5.424   2.244
 4892SOL    HW215576   4.888   5.324   2.122
 4893SOL     OW15577   1.068   3.173   1.087
 4893SOL    HW115578   1.001   3.233   1.044
 4893SOL    HW215579   1.152   3.225   1.106
 4894SOL     OW15580   5.228   6.598   1.761
 4894SOL    HW115581   5.185   6.675   1.713
 4894SOL    HW215582   5.182   6.584   1.849
 4895SOL     OW15583   7.000   4.642   5.192
 4895SOL    HW115584   0.062   4.683   5.220
 4895SOL    HW215585   6.990   4.650   5.093
 4896SOL     OW15586   2.477   4.916   4.721
 4896SOL    HW115587   2.559   4.860   4.729
 4896SOL    HW215588   2.451   4.951   4.811
 4897SOL     OW15589   1.649   0.419   4.836
 4897SOL    HW115590   1.611   0.511   4.834
 4897SOL    HW215591   1.575   0.352   4.833
 4898SOL     OW15592   5.073   1.679   3.567
 4898SOL    HW115593   5.065   1.596   3.512
 4898SOL    HW215594   5.058   1.759   3.509
 4899SOL     OW15595   6.174   6.682   1.225
 4899SOL    HW115596   6.136   6.728   1.305
 4899SOL    HW215597   6.101   6.662   1.160
 4900SOL     OW15598   3.665   6.024   5.742
 4900SOL    HW115599   3.702   5.968   5.667
 4900SOL    HW215600   3.568   6.041   5.726
 4901SOL     OW15601   0.727   0.721   6.654
 4901SOL    HW115602   0.818   0.763   6.651
 4901SOL    HW215603   0.735   0.622   6.640
 4902SOL     OW15604   2.428   0.294   5.377
 4902SOL    HW115605   2.406   0.390   5.355
 4902SOL    HW215606   2.365   0.234   5.329
 4903SOL     OW15607   4.929   3.663   3.274
 4903SOL    HW115608   4.886   3.742   3.318
 4903SOL    HW215609   4.912   3.667   3.175
 4904SOL     OW15610   1.696   0.049   0.723
 4904SOL    HW115611   1.657   6.988   0.689
 4904SOL    HW215612   1.625   0.120   0.724
 4905SOL     OW15613   2.781   6.897   3.359
 4905SOL    HW115614   2.734   6.809   3.362
 4905SOL    HW215615   2.842   6.905   3.438
 4906SOL     OW15616   4.946   3.744   4.827
 4906SOL    HW115617   4.988   3.660   4.792
 4906SOL    HW215618   4.905   3.726   4.917
 4907SOL     OW15619   4.320   2.000   0.183
 4907SOL    HW115620   4.321   1.926   0.116
 4907SOL    HW215621   4.331   1.962   0.275
 4908SOL     OW15622   3.377   0.179   0.127
 4908SOL    HW115623   3.425   0.092   0.119
 4908SOL    HW215624   3.280   0.165   0.107
 4909SOL     OW15625   5.235   4.885   4.606
 4909SOL    HW115626   5.193   4.844   4.687
 4909SOL    HW215627   5.242   4.816   4.534
 4910SOL     OW15628   4.700   2.404   6.058
 4910SOL    HW115629   4.629   2.367   5.998
 4910SOL    HW215630   4.674   2.497   6.086
 4911SOL     OW15631   6.547   3.548   2.686
 4911SOL    HW115632   6.555   3.543   2.587
 4911SOL    HW215633   6.600   3.626   2.720
 4912SOL     OW15634   5.682   2.483   4.042
 4912SOL    HW115635   5.697   2.425   4.122
 4912SOL    HW215636   5.604   2.542   4.057
 4913SOL     OW15637   0.889   4.191   5.315
 4913SOL    HW115638   0.912   4.203   5.218
 4913SOL    HW215639   0.971   4.163   5.365
 4914SOL     OW15640   4.130   0.703   3.959
 4914SOL    HW115641   4.094   0.661   4.042
 4914SOL    HW215642   4.212   0.653   3.930
 4915SOL     OW15643   3.653   5.421   5.609
 4915SOL    HW115644   3.606   5.430   5.522
 4915SOL    HW215645   3.734   5.479   5.610
 4916SOL     OW15646   5.836   1.909   3.841
 4916SOL    HW115647   5.893   1.882   3.919
 4916SOL    HW215648   5.771   1.979   3.870
 4917SOL     OW15649   3.939   6.598   7.002
 4917SOL    HW115650   3.883   6.671   6.962
 4917SOL    HW215651   4.010   6.572   6.937
 4918SOL     OW15652   5.574   4.989   3.522
 4918SOL    HW115653   5.658   4.937   3.506
 4918SOL    HW215654   5.588   5.054   3.596
 4919SOL     OW15655   3.159   3.682   1.718
 4919SOL    HW115656   3.188   3.778   1.728
 4919SOL    HW215657   3.224   3.635   1.658
 4920SOL     OW15658   5.762   1.878   6.016
 4920SOL    HW115659   5.805   1.790   6.032
 4920SOL    HW215660   5.706   1.903   6.096
 4921SOL     OW15661   7.012   0.156   2.146
 4921SOL    HW115662   0.046   0.177   2.068
 4921SOL    HW215663   6.965   0.070   2.131
 4922SOL     OW15664   3.255   1.391   6.052
 4922SOL    HW115665   3.167   1.436   6.039
 4922SOL    HW215666   3.328   1.460   6.049
 4923SOL     OW15667   3.475   1.124   1.829
 4923SOL    HW115668   3.515   1.112   1.920
 4923SOL    HW215669   3.404   1.055   1.815
 4924SOL     OW15670   2.381   0.542   5.331
 4924SOL    HW115671   2.442   0.587   5.267
 4924SOL    HW215672   2.374   0.597   5.415
 4925SOL     OW15673   5.734   5.668   3.664
 4925SOL    HW115674   5.679   5.611   3.725
 4925SOL    HW215675   5.804   5.715   3.718
 4926SOL     OW15676   5.211   2.656   0.995
 4926SOL    HW115677   5.185   2.587   1.062
 4926SOL    HW215678   5.300   2.696   1.020
 4927SOL     OW15679   2.869   1.291   0.047
 4927SOL    HW115680   2.838   1.335   6.988
 4927SOL    HW215681   2.802   1.309   0.120
 4928SOL     OW15682   6.370   2.147   0.888
 4928SOL    HW115683   6.413   2.116   0.972
 4928SOL    HW215684   6.307   2.222   0.908
 4929SOL     OW15685   1.041   6.400   4.802
 4929SOL    HW115686   1.076   6.425   4.892
 4929SOL    HW215687   0.941   6.406   4.802
 4930SOL     OW15688   5.308   5.844   2.641
 4930SOL    HW115689   5.346   5.934   2.622
 4930SOL    HW215690   5.353   5.806   2.723
 4931SOL     OW15691   6.983   6.445   0.685
 4931SOL    HW115692   6.905   6.508   0.676
 4931SOL    HW215693   0.036   6.481   0.634
 4932SOL     OW15694   3.794   3.226   2.685
 4932SOL    HW115695   3.768   3.134   2.655
 4932SOL    HW215696   3.712   3.280   2.701
 4933SOL     OW15697   1.506   0.417   5.932
 4933SOL    HW115698   1.492   0.475   5.851
 4933SOL    HW215699   1.419   0.379   5.961
 4934SOL     OW15700   4.241   6.469   2.268
 4934SOL    HW115701   4.315   6.490   2.205
 4934SOL    HW215702   4.175   6.408   2.223
 4935SOL     OW15703   0.248   0.811   5.412
 4935SOL    HW115704   0.170   0.829   5.472
 4935SOL    HW215705   0.216   0.768   5.328
 4936SOL     OW15706   4.208   2.473   1.309
 4936SOL    HW115707   4.159   2.435   1.387
 4936SOL    HW215708   4.307   2.459   1.321
 4937SOL     OW15709   4.621   2.835   5.232
 4937SOL    HW115710   4.663   2.769   5.294
 4937SOL    HW215711   4.628   2.802   5.138
 4938SOL     OW15712   3.951   4.751   6.676
 4938SOL    HW115713   3.954   4.670   6.617
 4938SOL    HW215714   3.877   4.741   6.743
 4939SOL     OW15715   4.779   3.436   5.914
 4939SOL    HW115716   4.761   3.388   5.999
 4939SOL    HW215717   4.762   3.534   5.927
 4940SOL     OW15718   2.421   6.517   3.847
 4940SOL    HW115719   2.367   6.592   3.809
 4940SOL    HW215720   2.463   6.546   3.933
 4941SOL     OW15721   5.670   0.319   0.980
 4941SOL    HW115722   5.583   0.330   1.027
 4941SOL    HW215723   5.654   0.300   0.883
 4942SOL     OW15724   4.871   2.669   6.136
 4942SOL    HW115725   4.858   2.624   6.225
 4942SOL    HW215726   4.969   2.683   6.120
 4943SOL     OW15727   5.363   2.365   1.457
 4943SOL    HW115728   5.452   2.392   1.420
 4943SOL    HW215729   5.320   2.443   1.501
 4944SOL     OW15730   2.203   4.196   2.404
 4944SOL    HW115731   2.177   4.100   2.390
 4944SOL    HW215732   2.129   4.255   2.370
 4945SOL     OW15733   7.013   6.557   4.703
 4945SOL    HW115734   7.018   6.590   4.609
 4945SOL    HW215735   6.927   6.587   4.744
 4946SOL     OW15736   0.432   4.313   2.171
 4946SOL    HW115737   0.514   4.281   2.123
 4946SOL    HW215738   0.354   4.311   2.109
 4947SOL     OW15739   6.413   0.036   1.155
 4947SOL    HW115740   6.385   6.987   1.216
 4947SOL    HW215741   6.377   0.122   1.190
 4948SOL     OW15742   2.261   1.376   1.813
 4948SOL    HW115743   2.310   1.461   1.792
 4948SOL    HW215744   2.204   1.390   1.894
 4949SOL     OW15745   5.384   2.263   4.750
 4949SOL    HW115746   5.385   2.267   4.650
 4949SOL    HW215747   5.471   2.227   4.784
 4950SOL     OW15748   3.497   5.045   4.976
 4950SOL    HW115749   3.416   4.995   5.006
 4950SOL    HW215750   3.573   5.028   5.038
 4951SOL     OW15751   4.428   2.326   4.225
 4951SOL    HW115752   4.463   2.410   4.183
 4951SOL    HW215753   4.331   2.317   4.206
 4952SOL     OW15754   0.045   4.957   5.109
 4952SOL    HW115755   0.100   4.901   5.171
 4952SOL    HW215756   6.978   4.968   5.146
 4953SOL     OW15757   1.688   5.126   2.052
 4953SOL    HW115758   1.652   5.220   2.052
 4953SOL    HW215759   1.724   5.105   2.143
 4954SOL     OW15760   6.886   6.486   6.873
 4954SOL    HW115761   6.872   6.459   6.968
 4954SOL    HW215762   6.892   6.586   6.868
 4955SOL     OW15763   1.024   0.737   0.740
 4955SOL    HW115764   0.987   0.820   0.698
 4955SOL    HW215765   1.088   0.763   0.813
 4956SOL     OW15766   6.098   6.893   4.374
 4956SOL    HW115767   6.118   6.956   4.448
 4956SOL    HW215768   6.025   6.930   4.317
 4957SOL     OW15769   1.879   6.228   3.668
 4957SOL    HW115770   1.913   6.266   3.754
 4957SOL    HW215771   1.847   6.134   3.683
 4958SOL     OW15772   0.340   6.687   6.562
 4958SOL    HW115773   0.321   6.748   6.639
 4958SOL    HW215774   0.370   6.598   6.596
 4959SOL     OW15775   0.319   1.417   6.999
 4959SOL    HW115776   0.239   1.418   0.034
 4959SOL    HW215777   0.349   1.511   6.983
 4960SOL     OW15778   3.847   6.676   5.141
 4960SOL    HW115779   3.871   6.656   5.045
 4960SOL    HW215780   3.761   6.725   5.144
 4961SOL     OW15781   4.484   0.783   5.967
 4961SOL    HW115782   4.511   0.716   6.036
 4961SOL    HW215783   4.430   0.855   6.010
 4962SOL     OW15784   6.411   2.361   2.196
 4962SOL    HW115785   6.333   2.337   2.253
 4962SOL    HW215786   6.383   2.362   2.100
 4963SOL     OW15787   6.786   4.826   0.873
 4963SOL    HW115788   6.687   4.827   0.883
 4963SOL    HW215789   6.828   4.829   0.964
 4964SOL     OW15790   3.810   6.586   2.816
 4964SOL    HW115791   3.846   6.571   2.907
 4964SOL    HW215792   3.802   6.685   2.799
 4965SOL     OW15793   0.126   6.331   4.778
 4965SOL    HW115794   0.069   6.413   4.767
 4965SOL    HW215795   0.223   6.357   4.770
 4966SOL     OW15796   4.144   5.520   4.917
 4966SOL    HW115797   4.224   5.575   4.893
 4966SOL    HW215798   4.155   5.484   5.009
 4967SOL     OW15799   5.142   1.953   6.619
 4967SOL    HW115800   5.076   2.016   6.660
 4967SOL    HW215801   5.165   1.882   6.685
 4968SOL     OW15802   5.656   4.268   6.436
 4968SOL    HW115803   5.648   4.368   6.431
 4968SOL    HW215804   5.671   4.240   6.530
 4969SOL     OW15805   0.481   1.927   1.142
 4969SOL    HW115806   0.381   1.930   1.141
 4969SOL    HW215807   0.517   2.010   1.099
 4970SOL     OW15808   1.253   2.786   6.034
 4970SOL    HW115809   1.335   2.750   6.078
 4970SOL    HW215810   1.276   2.869   5.983
 4971SOL     OW15811   0.131   5.484   3.636
 4971SOL    HW115812   0.158   5.402   3.688
 4971SOL    HW215813   0.124   5.561   3.698
 4972SOL     OW15814   1.887   2.063   5.326
 4972SOL    HW115815   1.957   2.008   5.372
 4972SOL    HW215816   1.821   2.096   5.394
 4973SOL     OW15817   5.808   5.983   3.023
 4973SOL    HW115818   5.764   5.958   2.936
 4973SOL    HW215819   5.871   6.059   3.008
 4974SOL     OW15820   4.353   6.686   0.579
 4974SOL    HW115821   4.299   6.728   0.653
 4974SOL    HW215822   4.431   6.744   0.558
 4975SOL     OW15823   4.409   6.096   0.136
 4975SOL    HW115824   4.368   6.132   0.052
 4975SOL    HW215825   4.396   5.997   0.140
 4976SOL     OW15826   2.977   1.015   4.387
 4976SOL    HW115827   2.884   0.984   4.402
 4976SOL    HW215828   2.994   1.099   4.440
 4977SOL     OW15829   3.216   2.948   6.986
 4977SOL    HW115830   3.183   2.936   0.055
 4977SOL    HW215831   3.315   2.941   6.984
 4978SOL     OW15832   6.194   4.094   6.890
 4978SOL    HW115833   6.284   4.115   6.927
 4978SOL    HW215834   6.191   4.119   6.793
 4979SOL     OW15835   1.372   3.195   3.868
 4979SOL    HW115836   1.445   3.134   3.836
 4979SOL    HW215837   1.400   3.290   3.855
 4980SOL     OW15838   2.720   5.276   3.471
 4980SOL    HW115839   2.794   5.226   3.427
 4980SOL    HW215840   2.741   5.288   3.568
 4981SOL     OW15841   4.768   6.683   5.647
 4981SOL    HW115842   4.805   6.625   5.720
 4981SOL    HW215843   4.744   6.773   5.685
 4982SOL     OW15844   2.595   2.243   0.080
 4982SOL    HW115845   2.600   2.305   0.158
 4982SOL    HW215846   2.601   2.148   0.112
 4983SOL     OW15847   6.421   2.907   4.748
 4983SOL    HW115848   6.337   2.865   4.712
 4983SOL    HW215849   6.397   2.979   4.814
 4984SOL     OW15850   4.650   4.280   2.940
 4984SOL    HW115851   4.615   4.352   2.999
 4984SOL    HW215852   4.704   4.216   2.994
 4985SOL     OW15853   5.352   4.178   1.844
 4985SOL    HW115854   5.445   4.191   1.879
 4985SOL    HW215855   5.338   4.235   1.764
 4986SOL     OW15856   4.526   4.779   3.145
 4986SOL    HW115857   4.488   4.724   3.219
 4986SOL    HW215858   4.479   4.867   3.141
 4987SOL     OW15859   0.425   4.039   1.141
 4987SOL    HW115860   0.346   4.054   1.201
 4987SOL    HW215861   0.393   4.004   1.053
 4988SOL     OW15862   1.230   2.301   4.826
 4988SOL    HW115863   1.231   2.389   4.778
 4988SOL    HW215864   1.160   2.304   4.897
 4989SOL     OW15865   6.780   0.939   0.506
 4989SOL    HW115866   6.698   0.943   0.563
 4989SOL    HW215867   6.815   0.845   0.504
 4990SOL     OW15868   0.989   2.407   6.200
 4990SOL    HW115869   1.028   2.337   6.141
 4990SOL    HW215870   1.039   2.410   6.287
 4991SOL     OW15871   2.441   1.988   4.868
 4991SOL    HW115872   2.499   2.004   4.947
 4991SOL    HW215873   2.390   1.903   4.881
 4992SOL     OW15874   4.047   0.623   4.231
 4992SOL    HW115875   4.111   0.547   4.244
 4992SOL    HW215876   4.075   0.700   4.288
 4993SOL     OW15877   1.827   6.383   3.921
 4993SOL    HW115878   1.786   6.464   3.878
 4993SOL    HW215879   1.915   6.407   3.961
 4994SOL     OW15880   0.573   0.036   2.579
 4994SOL    HW115881   0.475   0.041   2.559
 4994SOL    HW215882   0.587   7.020   2.669
 4995SOL     OW15883   6.425   3.153   5.722
 4995SOL    HW115884   6.403   3.249   5.735
 4995SOL    HW215885   6.410   3.128   5.627
 4996SOL     OW15886   0.475   1.553   3.854
 4996SOL    HW115887   0.384   1.550   3.895
 4996SOL    HW215888   0.499   1.463   3.819
 4997SOL     OW15889   0.233   2.047   4.152
 4997SOL    HW115890   0.140   2.044   4.189
 4997SOL    HW215891   0.271   1.954   4.150
 4998SOL     OW15892   1.002   5.372   5.210
 4998SOL    HW115893   1.039   5.413   5.293
 4998SOL    HW215894   1.048   5.285   5.192
 4999SOL     OW15895   6.217   5.295   1.096
 4999SOL    HW115896   6.130   5.306   1.050
 4999SOL    HW215897   6.221   5.204   1.138
 5000SOL     OW15898   0.009   5.458   3.906
 5000SOL    HW115899   6.983   5.542   3.923
 5000SOL    HW215900   6.972   5.389   3.867
 5001SOL     OW15901   4.582   4.576   5.274
 5001SOL    HW115902   4.638   4.511   5.326
 5001SOL    HW215903   4.639   4.620   5.204
 5002SOL     OW15904   1.997   2.553   1.902
 5002SOL    HW115905   1.941   2.515   1.976
 5002SOL    HW215906   1.968   2.646   1.882
 5003SOL     OW15907   6.758   4.853   4.001
 5003SOL    HW115908   6.854   4.837   3.977
 5003SOL    HW215909   6.752   4.922   4.073
 5004SOL     OW15910   3.140   4.379   6.254
 5004SOL    HW115911   3.140   4.478   6.270
 5004SOL    HW215912   3.062   4.355   6.196
 5005SOL     OW15913   4.717   1.937   0.077
 5005SOL    HW115914   4.686   2.024   0.113
 5005SOL    HW215915   4.699   1.864   0.144
 5006SOL     OW15916   5.710   4.625   2.583
 5006SOL    HW115917   5.641   4.572   2.535
 5006SOL    HW215918   5.765   4.676   2.517
 5007SOL     OW15919   3.881   1.855   5.014
 5007SOL    HW115920   3.830   1.939   5.030
 5007SOL    HW215921   3.966   1.875   4.966
 5008SOL     OW15922   6.221   0.778   3.886
 5008SOL    HW115923   6.153   0.801   3.956
 5008SOL    HW215924   6.214   0.842   3.810
 5009SOL     OW15925   1.804   5.821   2.235
 5009SOL    HW115926   1.816   5.757   2.159
 5009SOL    HW215927   1.716   5.804   2.279
 5010SOL     OW15928   3.407   3.087   5.075
 5010SOL    HW115929   3.405   3.167   5.135
 5010SOL    HW215930   3.498   3.045   5.077
 5011SOL     OW15931   1.196   2.618   3.563
 5011SOL    HW115932   1.174   2.524   3.539
 5011SOL    HW215933   1.259   2.620   3.640
 5012SOL     OW15934   6.035   2.935   0.027
 5012SOL    HW115935   6.122   2.896   0.057
 5012SOL    HW215936   6.023   3.026   0.065
 5013SOL     OW15937   5.037   2.451   5.473
 5013SOL    HW115938   4.986   2.374   5.433
 5013SOL    HW215939   5.133   2.446   5.445
 5014SOL     OW15940   6.181   6.235   6.036
 5014SOL    HW115941   6.152   6.303   6.103
 5014SOL    HW215942   6.229   6.161   6.082
 5015SOL     OW15943   5.536   2.001   3.702
 5015SOL    HW115944   5.632   2.007   3.675
 5015SOL    HW215945   5.478   2.033   3.627
 5016SOL     OW15946   2.283   6.629   2.466
 5016SOL    HW115947   2.207   6.570   2.440
 5016SOL    HW215948   2.367   6.574   2.470
 5017SOL     OW15949   1.864   2.027   2.147
 5017SOL    HW115950   1.768   2.013   2.173
 5017SOL    HW215951   1.883   2.125   2.142
 5018SOL     OW15952   0.152   5.207   3.676
 5018SOL    HW115953   0.152   5.189   3.578
 5018SOL    HW215954   0.059   5.227   3.707
 5019SOL     OW15955   2.844   5.394   5.557
 5019SOL    HW115956   2.839   5.354   5.466
 5019SOL    HW215957   2.792   5.338   5.622
 5020SOL     OW15958   4.276   5.584   6.589
 5020SOL    HW115959   4.181   5.555   6.597
 5020SOL    HW215960   4.297   5.651   6.660
 5021SOL     OW15961   2.563   4.457   5.760
 5021SOL    HW115962   2.560   4.470   5.859
 5021SOL    HW215963   2.593   4.542   5.716
 5022SOL     OW15964   2.080   4.086   1.333
 5022SOL    HW115965   2.016   4.103   1.258
 5022SOL    HW215966   2.136   4.006   1.311
 5023SOL     OW15967   6.375   2.936   3.956
 5023SOL    HW115968   6.412   2.863   3.899
 5023SOL    HW215969   6.290   2.970   3.915
 5024SOL     OW15970   5.137   3.475   5.603
 5024SOL    HW115971   5.071   3.449   5.532
 5024SOL    HW215972   5.197   3.398   5.623
 5025SOL     OW15973   6.717   1.461   3.496
 5025SOL    HW115974   6.676   1.377   3.530
 5025SOL    HW215975   6.808   1.442   3.459
 5026SOL     OW15976   0.698   6.081   2.890
 5026SOL    HW115977   0.704   6.178   2.869
 5026SOL    HW215978   0.714   6.067   2.987
 5027SOL     OW15979   0.585   5.999   3.680
 5027SOL    HW115980   0.622   6.020   3.589
 5027SOL    HW215981   0.640   6.043   3.750
 5028SOL     OW15982   0.458   0.297   3.133
 5028SOL    HW115983   0.520   0.303   3.211
 5028SOL    HW215984   0.496   0.348   3.056
 5029SOL     OW15985   6.923   1.226   3.469
 5029SOL    HW115986   6.957   1.136   3.441
 5029SOL    HW215987   7.000   1.291   3.472
 5030SOL     OW15988   2.189   5.720   0.001
 5030SOL    HW115989   2.213   5.762   0.088
 5030SOL    HW215990   2.158   5.626   0.016
 5031SOL     OW15991   5.480   1.293   6.052
 5031SOL    HW115992   5.431   1.292   6.139
 5031SOL    HW215993   5.424   1.251   5.981
 5032SOL     OW15994   1.499   6.059   2.164
 5032SOL    HW115995   1.433   5.986   2.149
 5032SOL    HW215996   1.500   6.084   2.261
 5033SOL     OW15997   0.211   4.073   5.161
 5033SOL    HW115998   0.283   4.140   5.144
 5033SOL    HW215999   0.163   4.097   5.246
 5034SOL     OW16000   0.141   3.784   6.323
 5034SOL    HW116001   0.161   3.711   6.258
 5034SOL    HW216002   0.166   3.872   6.283
 5035SOL     OW16003   5.927   4.531   1.439
 5035SOL    HW116004   5.915   4.629   1.422
 5035SOL    HW216005   6.020   4.514   1.471
 5036SOL     OW16006   1.613   0.295   1.816
 5036SOL    HW116007   1.548   0.342   1.757
 5036SOL    HW216008   1.698   0.347   1.819
 5037SOL     OW16009   4.817   2.827   2.985
 5037SOL    HW116010   4.883   2.860   3.052
 5037SOL    HW216011   4.781   2.904   2.933
 5038SOL     OW16012   3.144   5.659   5.009
 5038SOL    HW116013   3.115   5.625   5.098
 5038SOL    HW216014   3.183   5.750   5.019
 5039SOL     OW16015   1.478   2.363   3.046
 5039SOL    HW116016   1.420   2.342   3.125
 5039SOL    HW216017   1.574   2.355   3.071
 5040SOL     OW16018   3.044   3.715   5.832
 5040SOL    HW116019   3.032   3.794   5.892
 5040SOL    HW216020   3.063   3.634   5.888
 5041SOL     OW16021   0.725   5.442   0.605
 5041SOL    HW116022   0.773   5.370   0.555
 5041SOL    HW216023   0.661   5.402   0.670
 5042SOL     OW16024   5.998   1.644   5.734
 5042SOL    HW116025   5.936   1.647   5.811
 5042SOL    HW216026   5.966   1.576   5.667
 5043SOL     OW16027   4.866   0.126   3.838
 5043SOL    HW116028   4.875   0.224   3.854
 5043SOL    HW216029   4.829   0.082   3.919
 5044SOL     OW16030   5.546   4.604   1.984
 5044SOL    HW116031   5.470   4.640   2.038
 5044SOL    HW216032   5.623   4.668   1.987
 5045SOL     OW16033   5.488   3.268   5.280
 5045SOL    HW116034   5.445   3.337   5.338
 5045SOL    HW216035   5.418   3.211   5.238
 5046SOL     OW16036   3.833   3.383   5.719
 5046SOL    HW116037   3.807   3.287   5.732
 5046SOL    HW216038   3.904   3.390   5.649
 5047SOL     OW16039   0.870   1.521   2.123
 5047SOL    HW116040   0.843   1.554   2.214
 5047SOL    HW216041   0.797   1.540   2.058
 5048SOL     OW16042   6.022   3.666   1.448
 5048SOL    HW116043   5.923   3.655   1.451
 5048SOL    HW216044   6.063   3.626   1.531
 5049SOL     OW16045   0.998   2.190   1.609
 5049SOL    HW116046   0.982   2.236   1.521
 5049SOL    HW216047   0.981   2.092   1.598
 5050SOL     OW16048   1.153   3.549   0.684
 5050SOL    HW116049   1.144   3.545   0.783
 5050SOL    HW216050   1.134   3.459   0.645
 5051SOL     OW16051   2.065   3.322   6.850
 5051SOL    HW116052   2.067   3.299   6.948
 5051SOL    HW216053   2.154   3.306   6.810
 5052SOL     OW16054   5.650   3.401   0.571
 5052SOL    HW116055   5.725   3.435   0.628
 5052SOL    HW216056   5.650   3.301   0.571
 5053SOL     OW16057   2.259   4.306   1.301
 5053SOL    HW116058   2.358   4.292   1.303
 5053SOL    HW216059   2.212   4.218   1.305
 5054SOL     OW16060   4.255   6.127   5.181
 5054SOL    HW116061   4.205   6.097   5.263
 5054SOL    HW216062   4.205   6.201   5.136
 5055SOL     OW16063   1.590   1.632   3.739
 5055SOL    HW116064   1.595   1.641   3.839
 5055SOL    HW216065   1.634   1.710   3.696
 5056SOL     OW16066   2.826   2.277   5.052
 5056SOL    HW116067   2.916   2.320   5.039
 5056SOL    HW216068   2.818   2.243   5.145
 5057SOL     OW16069   0.308   4.059   2.659
 5057SOL    HW116070   0.391   4.115   2.653
 5057SOL    HW216071   0.255   4.087   2.739
 5058SOL     OW16072   3.666   2.681   0.271
 5058SOL    HW116073   3.727   2.603   0.272
 5058SOL    HW216074   3.664   2.724   0.362
 5059SOL     OW16075   4.444   2.044   2.922
 5059SOL    HW116076   4.461   2.119   2.858
 5059SOL    HW216077   4.369   1.988   2.889
 5060SOL     OW16078   0.324   3.514   5.769
 5060SOL    HW116079   0.231   3.497   5.738
 5060SOL    HW216080   0.372   3.427   5.780
 5061SOL     OW16081   4.485   2.537   5.850
 5061SOL    HW116082   4.534   2.606   5.904
 5061SOL    HW216083   4.387   2.542   5.870
 5062SOL     OW16084   5.369   1.236   3.363
 5062SOL    HW116085   5.386   1.285   3.448
 5062SOL    HW216086   5.295   1.281   3.313
 5063SOL     OW16087   1.105   1.004   1.526
 5063SOL    HW116088   1.111   1.097   1.490
 5063SOL    HW216089   1.115   1.006   1.626
 5064SOL     OW16090   5.636   4.842   0.835
 5064SOL    HW116091   5.618   4.927   0.885
 5064SOL    HW216092   5.623   4.858   0.737
 5065SOL     OW16093   2.496   1.368   2.205
 5065SOL    HW116094   2.465   1.463   2.209
 5065SOL    HW216095   2.435   1.311   2.259
 5066SOL     OW16096   1.898   5.275   2.567
 5066SOL    HW116097   1.911   5.269   2.666
 5066SOL    HW216098   1.914   5.186   2.526
 5067SOL     OW16099   5.972   2.790   1.445
 5067SOL    HW116100   5.989   2.846   1.364
 5067SOL    HW216101   5.941   2.848   1.520
 5068SOL     OW16102   1.909   5.902   0.487
 5068SOL    HW116103   1.865   5.905   0.577
 5068SOL    HW216104   1.840   5.893   0.416
 5069SOL     OW16105   4.186   5.260   5.384
 5069SOL    HW116106   4.133   5.190   5.433
 5069SOL    HW216107   4.238   5.314   5.450
 5070SOL     OW16108   5.937   3.426   5.212
 5070SOL    HW116109   5.961   3.340   5.167
 5070SOL    HW216110   6.020   3.467   5.251
 5071SOL     OW16111   2.643   6.413   3.726
 5071SOL    HW116112   2.555   6.444   3.762
 5071SOL    HW216113   2.671   6.329   3.772
 5072SOL     OW16114   0.805   1.261   1.761
 5072SOL    HW116115   0.838   1.234   1.851
 5072SOL    HW216116   0.881   1.262   1.697
 5073SOL     OW16117   2.032   0.747   3.470
 5073SOL    HW116118   2.015   0.845   3.480
 5073SOL    HW216119   2.047   0.707   3.560
 5074SOL     OW16120   3.406   2.130   1.758
 5074SOL    HW116121   3.472   2.074   1.808
 5074SOL    HW216122   3.446   2.220   1.740
 5075SOL     OW16123   6.664   3.241   0.673
 5075SOL    HW116124   6.686   3.231   0.770
 5075SOL    HW216125   6.666   3.338   0.648
 5076SOL     OW16126   0.287   0.567   5.990
 5076SOL    HW116127   0.310   0.645   6.048
 5076SOL    HW216128   0.367   0.541   5.936
 5077SOL     OW16129   0.713   4.435   3.974
 5077SOL    HW116130   0.615   4.425   3.994
 5077SOL    HW216131   0.747   4.519   4.016
 5078SOL     OW16132   6.461   2.167   3.691
 5078SOL    HW116133   6.474   2.100   3.764
 5078SOL    HW216134   6.382   2.142   3.635
 5079SOL     OW16135   1.806   3.452   5.481
 5079SOL    HW116136   1.775   3.505   5.559
 5079SOL    HW216137   1.836   3.362   5.511
 5080SOL     OW16138   6.178   5.484   6.796
 5080SOL    HW116139   6.186   5.407   6.860
 5080SOL    HW216140   6.109   5.463   6.727
 5081SOL     OW16141   2.410   4.319   5.281
 5081SOL    HW116142   2.435   4.226   5.307
 5081SOL    HW216143   2.490   4.378   5.285
 5082SOL     OW16144   5.962   5.959   1.153
 5082SOL    HW116145   6.028   5.911   1.210
 5082SOL    HW216146   5.911   6.025   1.209
 5083SOL     OW16147   2.685   0.046   3.972
 5083SOL    HW116148   2.625   0.002   4.039
 5083SOL    HW216149   2.780   0.022   3.992
 5084SOL     OW16150   3.185   4.284   5.567
 5084SOL    HW116151   3.103   4.306   5.620
 5084SOL    HW216152   3.159   4.261   5.473
 5085SOL     OW16153   0.265   4.598   5.512
 5085SOL    HW116154   0.180   4.545   5.512
 5085SOL    HW216155   0.332   4.554   5.453
 5086SOL     OW16156   1.323   5.063   2.318
 5086SOL    HW116157   1.397   5.016   2.366
 5086SOL    HW216158   1.289   5.005   2.244
 5087SOL     OW16159   6.942   4.822   2.422
 5087SOL    HW116160   6.884   4.896   2.456
 5087SOL    HW216161   6.894   4.772   2.350
 5088SOL     OW16162   4.418   5.492   2.400
 5088SOL    HW116163   4.402   5.394   2.398
 5088SOL    HW216164   4.438   5.521   2.494
 5089SOL     OW16165   4.731   5.951   6.185
 5089SOL    HW116166   4.683   5.872   6.148
 5089SOL    HW216167   4.746   5.938   6.283
 5090SOL     OW16168   2.401   6.544   5.038
 5090SOL    HW116169   2.365   6.453   5.058
 5090SOL    HW216170   2.500   6.545   5.052
 5091SOL     OW16171   6.991   6.530   6.261
 5091SOL    HW116172   0.018   6.512   6.178
 5091SOL    HW216173   0.023   6.511   6.341
 5092SOL     OW16174   3.974   3.667   4.213
 5092SOL    HW116175   4.056   3.609   4.216
 5092SOL    HW216176   3.931   3.660   4.123
 5093SOL     OW16177   2.868   2.162   2.948
 5093SOL    HW116178   2.907   2.187   2.859
 5093SOL    HW216179   2.938   2.116   3.003
 5094SOL     OW16180   1.551   5.741   4.615
 5094SOL    HW116181   1.526   5.804   4.540
 5094SOL    HW216182   1.630   5.687   4.587
 5095SOL     OW16183   0.000   1.088   2.748
 5095SOL    HW116184   6.938   1.091   2.796
 5095SOL    HW216185   7.011   1.102   2.650
 5096SOL     OW16186   6.889   3.156   5.331
 5096SOL    HW116187   6.954   3.225   5.300
 5096SOL    HW216188   6.926   3.109   5.411
 5097SOL     OW16189   1.048   0.368   5.806
 5097SOL    HW116190   0.951   0.359   5.784
 5097SOL    HW216191   1.065   0.457   5.846
 5098SOL     OW16192   3.517   2.951   6.928
 5098SOL    HW116193   3.459   2.916   6.855
 5098SOL    HW216194   3.612   2.923   6.912
 5099SOL     OW16195   1.708   6.468   1.798
 5099SOL    HW116196   1.802   6.451   1.769
 5099SOL    HW216197   1.706   6.549   1.857
 5100SOL     OW16198   5.208   3.102   1.909
 5100SOL    HW116199   5.189   3.098   1.811
 5100SOL    HW216200   5.126   3.134   1.958
 5101SOL     OW16201   3.294   0.236   5.523
 5101SOL    HW116202   3.245   0.316   5.555
 5101SOL    HW216203   3.308   0.242   5.424
 5102SOL     OW16204   5.206   5.345   4.428
 5102SOL    HW116205   5.175   5.274   4.491
 5102SOL    HW216206   5.234   5.302   4.342
 5103SOL     OW16207   1.122   0.542   6.160
 5103SOL    HW116208   1.131   0.442   6.162
 5103SOL    HW216209   1.210   0.584   6.180
 5104SOL     OW16210   3.926   3.300   2.912
 5104SOL    HW116211   3.992   3.373   2.893
 5104SOL    HW216212   3.889   3.266   2.825
 5105SOL     OW16213   4.043   2.928   6.983
 5105SOL    HW116214   4.059   2.843   0.009
 5105SOL    HW216215   4.071   2.915   6.888
 5106SOL     OW16216   3.639   1.732   1.181
 5106SOL    HW116217   3.719   1.673   1.186
 5106SOL    HW216218   3.666   1.824   1.153
 5107SOL     OW16219   5.841   5.026   0.588
 5107SOL    HW116220   5.755   5.020   0.639
 5107SOL    HW216221   5.828   5.084   0.508
 5108SOL     OW16222   3.649   4.964   1.307
 5108SOL    HW116223   3.693   4.912   1.234
 5108SOL    HW216224   3.659   5.062   1.290
 5109SOL     OW16225   1.327   2.900   2.413
 5109SOL    HW116226   1.398   2.968   2.431
 5109SOL    HW216227   1.335   2.825   2.479
 5110SOL     OW16228   5.025   0.207   5.586
 5110SOL    HW116229   4.946   0.146   5.591
 5110SOL    HW216230   5.038   0.253   5.674
 5111SOL     OW16231   1.295   5.420   5.363
 5111SOL    HW116232   1.298   5.341   5.302
 5111SOL    HW216233   1.387   5.442   5.394
 5112SOL     OW16234   1.105   6.120   3.562
 5112SOL    HW116235   1.195   6.162   3.549
 5112SOL    HW216236   1.110   6.024   3.534
 5113SOL     OW16237   2.205   4.433   0.119
 5113SOL    HW116238   2.292   4.394   0.151
 5113SOL    HW216239   2.199   4.529   0.148
 5114SOL     OW16240   4.620   4.540   1.333
 5114SOL    HW116241   4.522   4.527   1.318
 5114SOL    HW216242   4.638   4.545   1.431
 5115SOL     OW16243   1.941   3.582   0.731
 5115SOL    HW116244   2.039   3.603   0.724
 5115SOL    HW216245   1.890   3.667   0.744
 5116SOL     OW16246   0.910   6.885   5.327
 5116SOL    HW116247   0.856   6.812   5.284
 5116SOL    HW216248   0.885   6.973   5.287
 5117SOL     OW16249   0.066   2.059   3.712
 5117SOL    HW116250   0.127   2.116   3.767
 5117SOL    HW216251   0.106   2.045   3.622
 5118SOL     OW16252   4.435   5.560   0.225
 5118SOL    HW116253   4.424   5.475   0.174
 5118SOL    HW216254   4.508   5.549   0.292
 5119SOL     OW16255   5.753   1.519   0.718
 5119SOL    HW116256   5.740   1.422   0.698
 5119SOL    HW216257   5.731   1.536   0.814
 5120SOL     OW16258   4.968   6.754   7.003
 5120SOL    HW116259   5.014   6.681   0.030
 5120SOL    HW216260   4.870   6.736   7.000
 5121SOL     OW16261   1.209   3.411   5.992
 5121SOL    HW116262   1.179   3.490   6.046
 5121SOL    HW216263   1.307   3.399   6.002
 5122SOL     OW16264   4.810   4.822   3.555
 5122SOL    HW116265   4.733   4.817   3.491
 5122SOL    HW216266   4.785   4.881   3.632
 5123SOL     OW16267   4.943   2.659   2.373
 5123SOL    HW116268   4.850   2.642   2.406
 5123SOL    HW216269   4.939   2.720   2.294
 5124SOL     OW16270   1.428   6.181   5.368
 5124SOL    HW116271   1.523   6.180   5.399
 5124SOL    HW216272   1.375   6.114   5.420
 5125SOL     OW16273   6.395   1.753   3.854
 5125SOL    HW116274   6.407   1.849   3.879
 5125SOL    HW216275   6.395   1.744   3.754
 5126SOL     OW16276   1.800   0.802   1.724
 5126SOL    HW116277   1.730   0.798   1.652
 5126SOL    HW216278   1.765   0.856   1.801
 5127SOL     OW16279   2.613   6.245   0.142
 5127SOL    HW116280   2.523   6.246   0.099
 5127SOL    HW216281   2.671   6.314   0.098
 5128SOL     OW16282   5.910   6.877   1.680
 5128SOL    HW116283   5.911   6.977   1.679
 5128SOL    HW216284   5.980   6.844   1.743
 5129SOL     OW16285   6.650   6.628   0.129
 5129SOL    HW116286   6.673   6.551   0.188
 5129SOL    HW216287   6.694   6.616   0.040
 5130SOL     OW16288   6.240   4.830   2.843
 5130SOL    HW116289   6.161   4.844   2.903
 5130SOL    HW216290   6.213   4.847   2.748
 5131SOL     OW16291   1.777   2.490   2.700
 5131SOL    HW116292   1.786   2.412   2.762
 5131SOL    HW216293   1.813   2.572   2.746
 5132SOL     OW16294   2.733   5.941   4.763
 5132SOL    HW116295   2.715   5.933   4.861
 5132SOL    HW216296   2.655   5.983   4.718
 5133SOL     OW16297   3.889   6.237   5.271
 5133SOL    HW116298   3.952   6.276   5.204
 5133SOL    HW216299   3.807   6.204   5.224
 5134SOL     OW16300   6.050   3.732   6.086
 5134SOL    HW116301   5.961   3.694   6.112
 5134SOL    HW216302   6.098   3.763   6.168
 5135SOL     OW16303   5.935   1.318   4.477
 5135SOL    HW116304   5.929   1.412   4.443
 5135SOL    HW216305   5.929   1.254   4.400
 5136SOL     OW16306   3.846   1.767   5.497
 5136SOL    HW116307   3.746   1.758   5.507
 5136SOL    HW216308   3.890   1.686   5.535
 5137SOL     OW16309   3.426   4.074   6.699
 5137SOL    HW116310   3.357   4.015   6.741
 5137SOL    HW216311   3.382   4.155   6.660
 5138SOL     OW16312   2.495   3.064   6.203
 5138SOL    HW116313   2.573   3.074   6.264
 5138SOL    HW216314   2.471   2.967   6.196
 5139SOL     OW16315   0.366   0.151   3.702
 5139SOL    HW116316   0.369   0.079   3.771
 5139SOL    HW216317   0.372   0.111   3.611
 5140SOL     OW16318   3.511   2.844   1.996
 5140SOL    HW116319   3.456   2.780   1.942
 5140SOL    HW216320   3.580   2.887   1.937
 5141SOL     OW16321   0.584   3.992   5.832
 5141SOL    HW116322   0.519   4.021   5.902
 5141SOL    HW216323   0.599   4.066   5.767
 5142SOL     OW16324   5.794   2.927   2.938
 5142SOL    HW116325   5.866   2.895   2.876
 5142SOL    HW216326   5.826   3.007   2.989
 5143SOL     OW16327   6.824   5.198   5.068
 5143SOL    HW116328   6.882   5.262   5.118
 5143SOL    HW216329   6.817   5.112   5.119
 5144SOL     OW16330   1.804   1.666   4.897
 5144SOL    HW116331   1.723   1.643   4.842
 5144SOL    HW216332   1.870   1.714   4.839
 5145SOL     OW16333   3.594   5.609   5.880
 5145SOL    HW116334   3.631   5.646   5.965
 5145SOL    HW216335   3.666   5.562   5.829
 5146SOL     OW16336   2.857   5.116   6.782
 5146SOL    HW116337   2.768   5.158   6.763
 5146SOL    HW216338   2.861   5.088   6.878
 5147SOL     OW16339   6.630   5.354   6.253
 5147SOL    HW116340   6.623   5.254   6.258
 5147SOL    HW216341   6.617   5.393   6.345
 5148SOL     OW16342   0.976   0.173   1.202
 5148SOL    HW116343   1.023   0.085   1.210
 5148SOL    HW216344   1.042   0.244   1.176
 5149SOL     OW16345   6.970   0.116   5.548
 5149SOL    HW116346   6.915   0.153   5.474
 5149SOL    HW216347   6.914   0.110   5.631
 5150SOL     OW16348   2.127   5.307   4.265
 5150SOL    HW116349   2.140   5.380   4.332
 5150SOL    HW216350   2.103   5.222   4.313
 5151SOL     OW16351   4.335   1.010   6.057
 5151SOL    HW116352   4.374   1.040   6.144
 5151SOL    HW216353   4.335   1.086   5.992
 5152SOL     OW16354   0.596   4.690   0.579
 5152SOL    HW116355   0.617   4.612   0.520
 5152SOL    HW216356   0.544   4.758   0.526
 5153SOL     OW16357   1.919   2.245   1.054
 5153SOL    HW116358   1.952   2.201   1.138
 5153SOL    HW216359   1.933   2.184   0.977
 5154SOL     OW16360   1.554   3.861   5.446
 5154SOL    HW116361   1.532   3.765   5.425
 5154SOL    HW216362   1.587   3.869   5.540
 5155SOL     OW16363   3.396   0.847   2.404
 5155SOL    HW116364   3.418   0.750   2.397
 5155SOL    HW216365   3.381   0.885   2.313
 5156SOL     OW16366   5.995   2.617   6.090
 5156SOL    HW116367   6.006   2.658   5.999
 5156SOL    HW216368   5.983   2.518   6.080
 5157SOL     OW16369   5.868   2.699   3.994
 5157SOL    HW116370   5.818   2.623   4.036
 5157SOL    HW216371   5.803   2.769   3.965
 5158SOL     OW16372   3.724   0.531   0.859
 5158SOL    HW116373   3.680   0.489   0.779
 5158SOL    HW216374   3.757   0.459   0.920
 5159SOL     OW16375   2.129   3.408   5.015
 5159SOL    HW116376   2.180   3.350   5.079
 5159SOL    HW216377   2.129   3.502   5.049
 5160SOL     OW16378   1.506   3.008   4.156
 5160SOL    HW116379   1.578   3.038   4.219
 5160SOL    HW216380   1.441   3.082   4.142
 5161SOL     OW16381   1.628   3.431   6.566
 5161SOL    HW116382   1.563   3.414   6.640
 5161SOL    HW216383   1.721   3.433   6.603
 5162SOL     OW16384   6.513   5.302   4.387
 5162SOL    HW116385   6.603   5.271   4.358
 5162SOL    HW216386   6.518   5.333   4.482
 5163SOL     OW16387   5.399   3.984   0.715
 5163SOL    HW116388   5.474   3.991   0.650
 5163SOL    HW216389   5.312   3.986   0.666
 5164SOL     OW16390   5.874   5.554   5.597
 5164SOL    HW116391   5.821   5.612   5.658
 5164SOL    HW216392   5.850   5.458   5.611
 5165SOL     OW16393   6.318   3.473   4.358
 5165SOL    HW116394   6.396   3.486   4.297
 5165SOL    HW216395   6.333   3.392   4.415
 5166SOL     OW16396   1.727   0.073   1.528
 5166SOL    HW116397   1.773   0.010   1.466
 5166SOL    HW216398   1.742   0.043   1.623
 5167SOL     OW16399   1.534   0.113   5.411
 5167SOL    HW116400   1.566   0.207   5.419
 5167SOL    HW216401   1.435   0.109   5.423
 5168SOL     OW16402   4.233   1.875   2.873
 5168SOL    HW116403   4.175   1.881   2.955
 5168SOL    HW216404   4.184   1.825   2.802
 5169SOL     OW16405   3.901   4.364   6.554
 5169SOL    HW116406   3.830   4.381   6.485
 5169SOL    HW216407   3.873   4.289   6.613
 5170SOL     OW16408   4.312   4.955   4.497
 5170SOL    HW116409   4.313   4.947   4.398
 5170SOL    HW216410   4.221   4.935   4.532
 5171SOL     OW16411   2.691   4.892   5.030
 5171SOL    HW116412   2.723   4.798   5.015
 5171SOL    HW216413   2.734   4.953   4.964
 5172SOL     OW16414   2.516   4.607   0.021
 5172SOL    HW116415   2.433   4.620   0.075
 5172SOL    HW216416   2.594   4.648   0.069
 5173SOL     OW16417   6.759   3.122   6.301
 5173SOL    HW116418   6.792   3.037   6.344
 5173SOL    HW216419   6.673   3.149   6.343
 5174SOL     OW16420   1.602   4.717   6.073
 5174SOL    HW116421   1.614   4.816   6.067
 5174SOL    HW216422   1.571   4.693   6.166
 5175SOL     OW16423   0.519   5.110   5.924
 5175SOL    HW116424   0.551   5.054   5.848
 5175SOL    HW216425   0.569   5.197   5.925
 5176SOL     OW16426   5.327   4.188   5.898
 5176SOL    HW116427   5.269   4.264   5.927
 5176SOL    HW216428   5.411   4.223   5.858
 5177SOL     OW16429   5.095   5.800   6.419
 5177SOL    HW116430   5.101   5.805   6.518
 5177SOL    HW216431   5.096   5.704   6.390
 5178SOL     OW16432   2.757   2.257   1.798
 5178SOL    HW116433   2.803   2.319   1.862
 5178SOL    HW216434   2.785   2.163   1.815
 5179SOL     OW16435   3.522   6.178   4.972
 5179SOL    HW116436   3.612   6.185   4.930
 5179SOL    HW216437   3.532   6.160   5.070
 5180SOL     OW16438   2.851   1.706   0.222
 5180SOL    HW116439   2.868   1.701   0.124
 5180SOL    HW216440   2.927   1.663   0.271
 5181SOL     OW16441   2.757   5.647   2.759
 5181SOL    HW116442   2.815   5.631   2.838
 5181SOL    HW216443   2.664   5.616   2.778
 5182SOL     OW16444   4.992   4.164   1.618
 5182SOL    HW116445   4.953   4.244   1.665
 5182SOL    HW216446   4.932   4.085   1.631
 5183SOL     OW16447   3.798   0.940   3.428
 5183SOL    HW116448   3.772   0.844   3.413
 5183SOL    HW216449   3.841   0.976   3.346
 5184SOL     OW16450   0.948   2.124   3.030
 5184SOL    HW116451   1.023   2.137   2.965
 5184SOL    HW216452   0.985   2.116   3.122
 5185SOL     OW16453   3.949   0.361   1.814
 5185SOL    HW116454   3.874   0.403   1.763
 5185SOL    HW216455   3.953   0.263   1.792
 5186SOL     OW16456   5.460   4.671   7.015
 5186SOL    HW116457   5.456   4.658   0.089
 5186SOL    HW216458   5.526   4.608   6.976
 5187SOL     OW16459   5.254   1.608   4.499
 5187SOL    HW116460   5.251   1.516   4.460
 5187SOL    HW216461   5.260   1.603   4.598
 5188SOL     OW16462   1.116   2.824   4.169
 5188SOL    HW116463   1.207   2.809   4.131
 5188SOL    HW216464   1.105   2.769   4.252
 5189SOL     OW16465   4.429   5.513   6.853
 5189SOL    HW116466   4.402   5.609   6.859
 5189SOL    HW216467   4.527   5.504   6.873
 5190SOL     OW16468   2.173   3.128   3.175
 5190SOL    HW116469   2.081   3.090   3.168
 5190SOL    HW216470   2.236   3.072   3.121
 5191SOL     OW16471   4.819   0.675   2.205
 5191SOL    HW116472   4.887   0.748   2.198
 5191SOL    HW216473   4.847   0.598   2.148
 5192SOL     OW16474   6.135   4.490   2.033
 5192SOL    HW116475   6.231   4.476   2.008
 5192SOL    HW216476   6.090   4.545   1.963
 5193SOL     OW16477   4.847   3.906   2.271
 5193SOL    HW116478   4.864   3.819   2.224
 5193SOL    HW216479   4.875   3.981   2.211
 5194SOL     OW16480   5.077   1.279   0.035
 5194SOL    HW116481   4.995   1.225   0.056
 5194SOL    HW216482   5.089   1.350   0.105
 5195SOL     OW16483   6.231   6.266   5.138
 5195SOL    HW116484   6.231   6.208   5.219
 5195SOL    HW216485   6.139   6.301   5.121
 5196SOL     OW16486   0.542   3.142   2.219
 5196SOL    HW116487   0.616   3.100   2.167
 5196SOL    HW216488   0.459   3.145   2.164
 5197SOL     OW16489   3.463   5.922   5.299
 5197SOL    HW116490   3.408   5.861   5.356
 5197SOL    HW216491   3.470   5.883   5.207
 5198SOL     OW16492   4.062   0.931   5.473
 5198SOL    HW116493   4.125   0.893   5.540
 5198SOL    HW216494   4.062   0.874   5.391
 5199SOL     OW16495   0.431   5.366   1.802
 5199SOL    HW116496   0.414   5.415   1.888
 5199SOL    HW216497   0.448   5.432   1.729
 5200SOL     OW16498   0.297   6.739   5.102
 5200SOL    HW116499   0.272   6.823   5.150
 5200SOL    HW216500   0.244   6.733   5.017
 5201SOL     OW16501   5.965   4.915   4.984
 5201SOL    HW116502   5.969   4.995   4.923
 5201SOL    HW216503   5.905   4.845   4.944
 5202SOL     OW16504   3.607   3.025   5.912
 5202SOL    HW116505   3.586   3.012   6.010
 5202SOL    HW216506   3.525   3.059   5.866
 5203SOL     OW16507   1.172   0.298   6.431
 5203SOL    HW116508   1.239   0.368   6.458
 5203SOL    HW216509   1.202   0.209   6.465
 5204SOL     OW16510   2.192   0.645   0.704
 5204SOL    HW116511   2.096   0.673   0.712
 5204SOL    HW216512   2.239   0.661   0.790
 5205SOL     OW16513   6.933   0.041   1.337
 5205SOL    HW116514   6.948   0.053   1.239
 5205SOL    HW216515   6.876   6.985   1.352
 5206SOL     OW16516   1.152   4.173   3.973
 5206SOL    HW116517   1.192   4.199   4.061
 5206SOL    HW216518   1.224   4.168   3.904
 5207SOL     OW16519   5.638   6.944   5.163
 5207SOL    HW116520   5.665   6.887   5.241
 5207SOL    HW216521   5.564   6.899   5.113
 5208SOL     OW16522   6.583   1.567   0.457
 5208SOL    HW116523   6.515   1.565   0.530
 5208SOL    HW216524   6.667   1.523   0.489
 5209SOL     OW16525   5.489   6.778   3.280
 5209SOL    HW116526   5.567   6.836   3.302
 5209SOL    HW216527   5.515   6.682   3.292
 5210SOL     OW16528   5.417   4.374   1.045
 5210SOL    HW116529   5.480   4.451   1.033
 5210SOL    HW216530   5.374   4.380   1.135
 5211SOL     OW16531   5.489   2.707   5.012
 5211SOL    HW116532   5.498   2.802   5.044
 5211SOL    HW216533   5.394   2.689   4.988
 5212SOL     OW16534   7.011   3.826   0.572
 5212SOL    HW116535   6.948   3.750   0.555
 5212SOL    HW216536   0.032   3.813   0.659
 5213SOL     OW16537   4.137   3.520   2.761
 5213SOL    HW116538   4.147   3.445   2.696
 5213SOL    HW216539   4.194   3.502   2.842
 5214SOL     OW16540   5.745   3.065   5.620
 5214SOL    HW116541   5.790   3.094   5.536
 5214SOL    HW216542   5.814   3.032   5.685
 5215SOL     OW16543   0.245   5.126   5.155
 5215SOL    HW116544   0.183   5.049   5.142
 5215SOL    HW216545   0.268   5.166   5.066
 5216SOL     OW16546   5.578   4.779   1.247
 5216SOL    HW116547   5.517   4.762   1.170
 5216SOL    HW216548   5.531   4.753   1.332
 5217SOL     OW16549   4.884   6.709   2.820
 5217SOL    HW116550   4.825   6.776   2.775
 5217SOL    HW216551   4.962   6.757   2.861
 5218SOL     OW16552   6.328   7.020   0.308
 5218SOL    HW116553   6.325   0.039   0.397
 5218SOL    HW216554   6.404   6.955   0.306
 5219SOL     OW16555   3.348   1.265   5.425
 5219SOL    HW116556   3.300   1.226   5.347
 5219SOL    HW216557   3.441   1.291   5.398
 5220SOL     OW16558   2.067   4.863   4.687
 5220SOL    HW116559   2.119   4.831   4.766
 5220SOL    HW216560   2.095   4.813   4.606
 5221SOL     OW16561   5.279   6.192   1.409
 5221SOL    HW116562   5.340   6.142   1.347
 5221SOL    HW216563   5.184   6.167   1.389
 5222SOL     OW16564   7.012   3.171   1.815
 5222SOL    HW116565   6.967   3.260   1.813
 5222SOL    HW216566   6.980   3.120   1.894
 5223SOL     OW16567   6.412   3.109   0.753
 5223SOL    HW116568   6.367   3.132   0.840
 5223SOL    HW216569   6.487   3.173   0.736
 5224SOL     OW16570   1.125   1.427   5.266
 5224SOL    HW116571   1.107   1.440   5.168
 5224SOL    HW216572   1.193   1.356   5.278
 5225SOL     OW16573   6.851   1.565   4.684
 5225SOL    HW116574   6.931   1.508   4.704
 5225SOL    HW216575   6.881   1.658   4.663
 5226SOL     OW16576   0.430   6.195   4.389
 5226SOL    HW116577   0.447   6.097   4.399
 5226SOL    HW216578   0.493   6.233   4.321
 5227SOL     OW16579   0.776   3.546   5.956
 5227SOL    HW116580   0.794   3.637   5.920
 5227SOL    HW216581   0.793   3.478   5.885
 5228SOL     OW16582   0.907   1.943   5.384
 5228SOL    HW116583   0.993   1.913   5.425
 5228SOL    HW216584   0.838   1.872   5.394
 5229SOL     OW16585   3.335   1.937   5.936
 5229SOL    HW116586   3.391   2.003   5.985
 5229SOL    HW216587   3.307   1.864   5.998
 5230SOL     OW16588   6.688   6.997   2.899
 5230SOL    HW116589   6.712   0.023   2.982
 5230SOL    HW216590   6.771   6.981   2.846
 5231SOL     OW16591   6.246   3.484   2.412
 5231SOL    HW116592   6.268   3.534   2.496
 5231SOL    HW216593   6.166   3.525   2.368
 5232SOL     OW16594   1.651   2.382   5.842
 5232SOL    HW116595   1.571   2.407   5.789
 5232SOL    HW216596   1.647   2.285   5.867
 5233SOL     OW16597   3.826   6.887   2.784
 5233SOL    HW116598   3.760   6.959   2.762
 5233SOL    HW216599   3.879   6.864   2.703
 5234SOL     OW16600   2.973   2.481   5.988
 5234SOL    HW116601   2.955   2.485   6.086
 5234SOL    HW216602   2.916   2.549   5.941
 5235SOL     OW16603   2.622   1.960   1.527
 5235SOL    HW116604   2.540   1.907   1.505
 5235SOL    HW216605   2.595   2.054   1.549
 5236SOL     OW16606   3.013   5.069   1.719
 5236SOL    HW116607   3.085   5.108   1.775
 5236SOL    HW216608   2.964   4.998   1.770
 5237SOL     OW16609   1.806   1.602   1.933
 5237SOL    HW116610   1.749   1.629   2.010
 5237SOL    HW216611   1.796   1.504   1.917
 5238SOL     OW16612   0.080   0.364   3.145
 5238SOL    HW116613   0.128   0.449   3.121
 5238SOL    HW216614   0.108   0.292   3.081
 5239SOL     OW16615   2.664   4.590   0.841
 5239SOL    HW116616   2.615   4.677   0.841
 5239SOL    HW216617   2.603   4.518   0.810
 5240SOL     OW16618   2.104   4.019   5.966
 5240SOL    HW116619   2.141   4.107   5.996
 5240SOL    HW216620   2.079   3.965   6.046
 5241SOL     OW16621   2.147   6.129   2.638
 5241SOL    HW116622   2.149   6.061   2.565
 5241SOL    HW216623   2.199   6.096   2.716
 5242SOL     OW16624   3.662   6.428   6.272
 5242SOL    HW116625   3.586   6.363   6.276
 5242SOL    HW216626   3.704   6.426   6.182
 5243SOL     OW16627   2.749   6.242   2.973
 5243SOL    HW116628   2.827   6.255   2.912
 5243SOL    HW216629   2.757   6.154   3.021
 5244SOL     OW16630   4.302   1.162   0.196
 5244SOL    HW116631   4.309   1.116   0.285
 5244SOL    HW216632   4.214   1.139   0.155
 5245SOL     OW16633   3.255   4.247   1.570
 5245SOL    HW116634   3.210   4.191   1.501
 5245SOL    HW216635   3.193   4.260   1.648
 5246SOL     OW16636   5.979   4.331   6.388
 5246SOL    HW116637   5.910   4.348   6.318
 5246SOL    HW216638   6.058   4.390   6.373
 5247SOL     OW16639   4.993   1.810   6.455
 5247SOL    HW116640   5.058   1.874   6.496
 5247SOL    HW216641   4.903   1.853   6.450
 5248SOL     OW16642   5.251   1.357   4.443
 5248SOL    HW116643   5.332   1.308   4.477
 5248SOL    HW216644   5.177   1.292   4.427
 5249SOL     OW16645   6.813   5.196   0.932
 5249SOL    HW116646   6.777   5.126   0.870
 5249SOL    HW216647   6.913   5.196   0.927
 5250SOL     OW16648   2.598   5.484   1.161
 5250SOL    HW116649   2.534   5.412   1.133
 5250SOL    HW216650   2.580   5.509   1.256
 5251SOL     OW16651   0.402   5.114   0.082
 5251SOL    HW116652   0.429   5.023   0.053
 5251SOL    HW216653   0.340   5.154   0.015
 5252SOL     OW16654   3.784   5.810   2.464
 5252SOL    HW116655   3.766   5.712   2.469
 5252SOL    HW216656   3.779   5.840   2.368
 5253SOL     OW16657   0.266   5.614   4.954
 5253SOL    HW116658   0.358   5.649   4.936
 5253SOL    HW216659   0.218   5.675   5.017
 5254SOL     OW16660   4.837   5.941   2.636
 5254SOL    HW116661   4.896   5.986   2.703
 5254SOL    HW216662   4.893   5.892   2.569
 5255SOL     OW16663   6.728   1.529   5.666
 5255SOL    HW116664   6.803   1.592   5.683
 5255SOL    HW216665   6.764   1.437   5.654
 5256SOL     OW16666   6.146   1.919   2.794
 5256SOL    HW116667   6.145   1.915   2.694
 5256SOL    HW216668   6.092   1.844   2.831
 5257SOL     OW16669   4.473   1.885   6.141
 5257SOL    HW116670   4.381   1.903   6.106
 5257SOL    HW216671   4.483   1.924   6.232
 5258SOL     OW16672   4.704   1.548   4.943
 5258SOL    HW116673   4.624   1.598   4.909
 5258SOL    HW216674   4.788   1.592   4.910
 5259SOL     OW16675   5.480   5.095   3.963
 5259SOL    HW116676   5.433   5.177   3.995
 5259SOL    HW216677   5.509   5.041   4.042
 5260SOL     OW16678   2.253   6.073   1.768
 5260SOL    HW116679   2.197   6.009   1.715
 5260SOL    HW216680   2.349   6.063   1.742
 5261SOL     OW16681   5.805   4.570   6.728
 5261SOL    HW116682   5.792   4.645   6.792
 5261SOL    HW216683   5.776   4.599   6.637
 5262SOL     OW16684   1.525   0.986   1.558
 5262SOL    HW116685   1.580   1.065   1.531
 5262SOL    HW216686   1.576   0.902   1.539
 5263SOL     OW16687   1.587   6.243   3.122
 5263SOL    HW116688   1.657   6.315   3.116
 5263SOL    HW216689   1.570   6.206   3.031
 5264SOL     OW16690   6.774   2.308   1.904
 5264SOL    HW116691   6.749   2.264   1.990
 5264SOL    HW216692   6.859   2.267   1.869
 5265SOL     OW16693   6.778   5.808   5.508
 5265SOL    HW116694   6.750   5.812   5.603
 5265SOL    HW216695   6.704   5.772   5.452
 5266SOL     OW16696   1.401   6.638   6.391
 5266SOL    HW116697   1.488   6.685   6.407
 5266SOL    HW216698   1.338   6.661   6.465
 5267SOL     OW16699   5.530   1.946   3.973
 5267SOL    HW116700   5.521   1.951   3.873
 5267SOL    HW216701   5.475   2.019   4.015
 5268SOL     OW16702   5.600   0.175   6.626
 5268SOL    HW116703   5.514   0.222   6.645
 5268SOL    HW216704   5.581   0.079   6.605
 5269SOL     OW16705   1.348   0.273   3.689
 5269SOL    HW116706   1.342   0.360   3.737
 5269SOL    HW216707   1.410   0.283   3.611
 5270SOL     OW16708   0.422   1.978   6.119
 5270SOL    HW116709   0.423   2.020   6.028
 5270SOL    HW216710   0.401   2.048   6.187
 5271SOL     OW16711   1.341   4.703   3.608
 5271SOL    HW116712   1.255   4.750   3.588
 5271SOL    HW216713   1.377   4.662   3.524
 5272SOL     OW16714   3.897   0.945   6.556
 5272SOL    HW116715   3.974   0.952   6.492
 5272SOL    HW216716   3.932   0.951   6.650
 5273SOL     OW16717   3.305   1.786   3.105
 5273SOL    HW116718   3.222   1.839   3.088
 5273SOL    HW216719   3.307   1.757   3.201
 5274SOL     OW16720   5.427   5.159   1.327
 5274SOL    HW116721   5.459   5.085   1.386
 5274SOL    HW216722   5.338   5.134   1.288
 5275SOL     OW16723   4.909   2.072   6.676
 5275SOL    HW116724   4.914   2.172   6.675
 5275SOL    HW216725   4.843   2.042   6.745
 5276SOL     OW16726   4.208   6.416   1.810
 5276SOL    HW116727   4.171   6.339   1.861
 5276SOL    HW216728   4.210   6.497   1.870
 5277SOL     OW16729   2.215   2.661   2.146
 5277SOL    HW116730   2.196   2.759   2.134
 5277SOL    HW216731   2.287   2.633   2.083
 5278SOL     OW16732   4.173   3.478   2.419
 5278SOL    HW116733   4.097   3.441   2.472
 5278SOL    HW216734   4.247   3.505   2.480
 5279SOL     OW16735   1.442   5.979   2.451
 5279SOL    HW116736   1.363   6.005   2.507
 5279SOL    HW216737   1.508   6.053   2.449
 5280SOL     OW16738   3.669   0.921   4.583
 5280SOL    HW116739   3.710   0.903   4.672
 5280SOL    HW216740   3.611   0.844   4.558
 5281SOL     OW16741   6.864   2.550   3.865
 5281SOL    HW116742   6.811   2.529   3.947
 5281SOL    HW216743   6.944   2.491   3.861
 5282SOL     OW16744   4.799   1.331   1.437
 5282SOL    HW116745   4.711   1.310   1.481
 5282SOL    HW216746   4.803   1.429   1.415
 5283SOL     OW16747   4.784   4.676   6.062
 5283SOL    HW116748   4.748   4.767   6.042
 5283SOL    HW216749   4.715   4.607   6.040
 5284SOL     OW16750   4.868   2.937   3.793
 5284SOL    HW116751   4.961   2.917   3.761
 5284SOL    HW216752   4.861   3.033   3.818
 5285SOL     OW16753   4.305   6.605   2.729
 5285SOL    HW116754   4.210   6.635   2.722
 5285SOL    HW216755   4.319   6.526   2.669
 5286SOL     OW16756   2.086   5.074   2.141
 5286SOL    HW116757   2.039   5.036   2.062
 5286SOL    HW216758   2.066   5.172   2.148
 5287SOL     OW16759   0.395   1.366   2.180
 5287SOL    HW116760   0.409   1.275   2.141
 5287SOL    HW216761   0.390   1.359   2.280
 5288SOL     OW16762   4.483   0.302   0.798
 5288SOL    HW116763   4.415   0.374   0.812
 5288SOL    HW216764   4.564   0.322   0.852
 5289SOL     OW16765   1.405   5.836   1.250
 5289SOL    HW116766   1.392   5.845   1.348
 5289SOL    HW216767   1.363   5.914   1.203
 5290SOL     OW16768   5.913   5.960   6.999
 5290SOL    HW116769   5.968   6.024   6.945
 5290SOL    HW216770   5.816   5.980   6.985
 5291SOL     OW16771   1.182   5.587   6.696
 5291SOL    HW116772   1.204   5.579   6.793
 5291SOL    HW216773   1.197   5.681   6.666
 5292SOL     OW16774   5.386   1.337   0.715
 5292SOL    HW116775   5.331   1.363   0.635
 5292SOL    HW216776   5.364   1.398   0.791
 5293SOL     OW16777   1.329   1.496   3.668
 5293SOL    HW116778   1.243   1.542   3.647
 5293SOL    HW216779   1.404   1.562   3.666
 5294SOL     OW16780   4.731   2.688   5.708
 5294SOL    HW116781   4.764   2.780   5.688
 5294SOL    HW216782   4.657   2.665   5.644
 5295SOL     OW16783   6.453   1.125   2.485
 5295SOL    HW116784   6.469   1.042   2.432
 5295SOL    HW216785   6.443   1.203   2.423
 5296SOL     OW16786   0.519   3.156   0.062
 5296SOL    HW116787   0.608   3.184   0.098
 5296SOL    HW216788   0.487   3.223   7.020
 5297SOL     OW16789   1.439   3.076   2.091
 5297SOL    HW116790   1.446   3.093   1.993
 5297SOL    HW216791   1.453   2.979   2.110
 5298SOL     OW16792   1.012   4.462   1.720
 5298SOL    HW116793   1.003   4.403   1.800
 5298SOL    HW216794   1.072   4.418   1.652
 5299SOL     OW16795   3.142   0.278   1.201
 5299SOL    HW116796   3.164   0.375   1.207
 5299SOL    HW216797   3.119   0.243   1.292
 5300SOL     OW16798   0.474   4.742   3.656
 5300SOL    HW116799   0.387   4.791   3.653
 5300SOL    HW216800   0.524   4.769   3.739
 5301SOL     OW16801   4.490   0.457   0.340
 5301SOL    HW116802   4.413   0.505   0.383
 5301SOL    HW216803   4.477   0.458   0.240
 5302SOL     OW16804   6.369   4.175   3.520
 5302SOL    HW116805   6.321   4.186   3.607
 5302SOL    HW216806   6.466   4.195   3.534
 5303SOL     OW16807   1.772   5.118   3.026
 5303SOL    HW116808   1.790   5.160   3.116
 5303SOL    HW216809   1.746   5.190   2.961
 5304SOL     OW16810   5.042   2.687   5.336
 5304SOL    HW116811   5.007   2.606   5.383
 5304SOL    HW216812   4.995   2.699   5.249
 5305SOL     OW16813   2.856   1.117   4.072
 5305SOL    HW116814   2.903   1.204   4.079
 5305SOL    HW216815   2.911   1.045   4.114
 5306SOL     OW16816   2.856   6.401   4.702
 5306SOL    HW116817   2.889   6.379   4.610
 5306SOL    HW216818   2.894   6.336   4.768
 5307SOL     OW16819   4.169   7.015   0.228
 5307SOL    HW116820   4.096   0.047   0.267
 5307SOL    HW216821   4.138   6.920   0.227
 5308SOL     OW16822   0.377   1.157   2.024
 5308SOL    HW116823   0.284   1.183   2.001
 5308SOL    HW216824   0.378   1.064   2.059
 5309SOL     OW16825   3.421   3.735   4.739
 5309SOL    HW116826   3.497   3.675   4.762
 5309SOL    HW216827   3.335   3.687   4.754
 5310SOL     OW16828   5.556   3.101   0.490
 5310SOL    HW116829   5.491   3.132   0.421
 5310SOL    HW216830   5.583   3.006   0.471
 5311SOL     OW16831   0.612   6.341   6.245
 5311SOL    HW116832   0.668   6.423   6.240
 5311SOL    HW216833   0.659   6.271   6.299
 5312SOL     OW16834   0.862   3.007   1.838
 5312SOL    HW116835   0.813   2.981   1.922
 5312SOL    HW216836   0.961   3.004   1.855
 5313SOL     OW16837   0.937   6.580   0.499
 5313SOL    HW116838   0.887   6.665   0.514
 5313SOL    HW216839   1.033   6.602   0.478
 5314SOL     OW16840   3.774   5.630   1.242
 5314SOL    HW116841   3.783   5.571   1.322
 5314SOL    HW216842   3.761   5.573   1.160
 5315SOL     OW16843   5.481   2.456   2.022
 5315SOL    HW116844   5.511   2.544   1.985
 5315SOL    HW216845   5.381   2.453   2.025
 5316SOL     OW16846   5.530   5.365   4.408
 5316SOL    HW116847   5.457   5.359   4.476
 5316SOL    HW216848   5.503   5.316   4.325
 5317SOL     OW16849   6.635   5.287   2.464
 5317SOL    HW116850   6.565   5.358   2.474
 5317SOL    HW216851   6.724   5.330   2.447
 5318SOL     OW16852   0.170   2.545   4.192
 5318SOL    HW116853   0.089   2.487   4.200
 5318SOL    HW216854   0.181   2.599   4.275
 5319SOL     OW16855   3.719   6.878   2.332
 5319SOL    HW116856   3.653   6.927   2.275
 5319SOL    HW216857   3.671   6.808   2.385
 5320SOL     OW16858   6.491   3.603   5.987
 5320SOL    HW116859   6.521   3.541   5.915
 5320SOL    HW216860   6.518   3.697   5.964
 5321SOL     OW16861   2.278   4.583   5.965
 5321SOL    HW116862   2.263   4.588   5.866
 5321SOL    HW216863   2.355   4.522   5.984
 5322SOL     OW16864   2.680   6.004   0.910
 5322SOL    HW116865   2.681   5.950   0.825
 5322SOL    HW216866   2.689   5.943   0.988
 5323SOL     OW16867   5.052   3.022   0.174
 5323SOL    HW116868   5.045   3.104   0.231
 5323SOL    HW216869   5.091   2.948   0.229
 5324SOL     OW16870   3.856   3.304   1.451
 5324SOL    HW116871   3.820   3.274   1.362
 5324SOL    HW216872   3.900   3.226   1.496
 5325SOL     OW16873   4.392   6.276   4.315
 5325SOL    HW116874   4.350   6.366   4.321
 5325SOL    HW216875   4.492   6.286   4.322
 5326SOL     OW16876   0.067   0.248   2.611
 5326SOL    HW116877   0.054   0.238   2.512
 5326SOL    HW216878   7.018   0.304   2.648
 5327SOL     OW16879   0.139   0.331   3.798
 5327SOL    HW116880   0.219   0.280   3.766
 5327SOL    HW216881   0.090   0.370   3.720
 5328SOL     OW16882   4.014   5.048   0.269
 5328SOL    HW116883   4.006   5.039   0.170
 5328SOL    HW216884   4.079   4.980   0.303
 5329SOL     OW16885   0.658   5.387   6.509
 5329SOL    HW116886   0.698   5.478   6.501
 5329SOL    HW216887   0.726   5.324   6.546
 5330SOL     OW16888   3.865   4.155   0.338
 5330SOL    HW116889   3.768   4.130   0.349
 5330SOL    HW216890   3.888   4.153   0.241
 5331SOL     OW16891   5.293   1.188   6.946
 5331SOL    HW116892   5.297   1.199   6.846
 5331SOL    HW216893   5.210   1.233   6.980
 5332SOL     OW16894   6.112   3.161   6.570
 5332SOL    HW116895   6.207   3.141   6.594
 5332SOL    HW216896   6.052   3.095   6.615
 5333SOL     OW16897   1.529   0.669   4.044
 5333SOL    HW116898   1.555   0.573   4.058
 5333SOL    HW216899   1.612   0.725   4.037
 5334SOL     OW16900   3.113   6.125   2.058
 5334SOL    HW116901   3.113   6.129   2.158
 5334SOL    HW216902   3.207   6.131   2.025
 5335SOL     OW16903   0.259   4.351   1.967
 5335SOL    HW116904   0.293   4.435   1.925
 5335SOL    HW216905   0.162   4.360   1.986
 5336SOL     OW16906   2.136   3.374   5.630
 5336SOL    HW116907   2.078   3.451   5.603
 5336SOL    HW216908   2.220   3.375   5.577
 5337SOL     OW16909   6.496   3.592   1.455
 5337SOL    HW116910   6.474   3.623   1.548
 5337SOL    HW216911   6.418   3.542   1.418
 5338SOL     OW16912   6.975   3.319   0.840
 5338SOL    HW116913   6.878   3.318   0.861
 5338SOL    HW216914   7.021   3.245   0.889
 5339SOL     OW16915   5.632   2.726   2.888
 5339SOL    HW116916   5.665   2.818   2.910
 5339SOL    HW216917   5.620   2.675   2.973
 5340SOL     OW16918   4.765   3.226   1.734
 5340SOL    HW116919   4.708   3.308   1.730
 5340SOL    HW216920   4.719   3.157   1.790
 5341SOL     OW16921   4.793   5.036   3.295
 5341SOL    HW116922   4.767   4.941   3.310
 5341SOL    HW216923   4.770   5.062   3.202
 5342SOL     OW16924   6.169   5.405   4.616
 5342SOL    HW116925   6.143   5.318   4.574
 5342SOL    HW216926   6.089   5.445   4.662
 5343SOL     OW16927   3.837   3.374   6.617
 5343SOL    HW116928   3.785   3.428   6.551
 5343SOL    HW216929   3.775   3.333   6.683
 5344SOL     OW16930   6.862   1.474   6.652
 5344SOL    HW116931   6.962   1.474   6.658
 5344SOL    HW216932   6.823   1.505   6.738
 5345SOL     OW16933   3.868   1.333   6.984
 5345SOL    HW116934   3.840   1.416   0.008
 5345SOL    HW216935   3.802   1.315   6.910
 5346SOL     OW16936   3.014   6.370   3.220
 5346SOL    HW116937   2.941   6.333   3.278
 5346SOL    HW216938   3.033   6.306   3.146
 5347SOL     OW16939   5.130   1.417   4.991
 5347SOL    HW116940   5.161   1.352   5.059
 5347SOL    HW216941   5.078   1.369   4.920
 5348SOL     OW16942   5.099   3.060   4.873
 5348SOL    HW116943   5.135   2.970   4.895
 5348SOL    HW216944   5.009   3.071   4.915
 5349SOL     OW16945   0.655   4.334   0.989
 5349SOL    HW116946   0.666   4.425   1.028
 5349SOL    HW216947   0.642   4.268   1.062
 5350SOL     OW16948   0.710   6.728   5.690
 5350SOL    HW116949   0.669   6.698   5.604
 5350SOL    HW216950   0.639   6.729   5.761
 5351SOL     OW16951   0.258   6.341   3.364
 5351SOL    HW116952   0.208   6.373   3.284
 5351SOL    HW216953   0.329   6.408   3.387
 5352SOL     OW16954   1.464   2.659   6.187
 5352SOL    HW116955   1.554   2.703   6.185
 5352SOL    HW216956   1.422   2.675   6.276
 5353SOL     OW16957   3.462   5.599   3.345
 5353SOL    HW116958   3.509   5.684   3.321
 5353SOL    HW216959   3.516   5.549   3.412
 5354SOL     OW16960   4.082   6.543   1.246
 5354SOL    HW116961   4.044   6.616   1.189
 5354SOL    HW216962   4.077   6.456   1.198
 5355SOL     OW16963   4.979   6.060   5.431
 5355SOL    HW116964   4.961   6.153   5.461
 5355SOL    HW216965   4.964   5.997   5.507
 5356SOL     OW16966   1.375   6.269   1.383
 5356SOL    HW116967   1.422   6.185   1.410
 5356SOL    HW216968   1.345   6.319   1.464
 5357SOL     OW16969   6.140   3.350   2.807
 5357SOL    HW116970   6.075   3.302   2.748
 5357SOL    HW216971   6.138   3.309   2.898
 5358SOL     OW16972   6.039   0.656   6.059
 5358SOL    HW116973   5.976   0.590   6.018
 5358SOL    HW216974   6.082   0.711   5.987
 5359SOL     OW16975   3.072   2.610   0.091
 5359SOL    HW116976   3.077   2.571   7.024
 5359SOL    HW216977   3.102   2.541   0.157
 5360SOL     OW16978   5.496   5.939   4.023
 5360SOL    HW116979   5.512   6.018   3.964
 5360SOL    HW216980   5.559   5.942   4.101
 5361SOL     OW16981   1.237   4.054   3.096
 5361SOL    HW116982   1.195   4.145   3.086
 5361SOL    HW216983   1.333   4.059   3.071
 5362SOL     OW16984   6.717   1.387   2.811
 5362SOL    HW116985   6.637   1.332   2.786
 5362SOL    HW216986   6.749   1.359   2.902
 5363SOL     OW16987   5.586   5.575   4.139
 5363SOL    HW116988   5.500   5.588   4.188
 5363SOL    HW216989   5.633   5.663   4.131
 5364SOL     OW16990   4.629   2.584   2.339
 5364SOL    HW116991   4.666   2.600   2.248
 5364SOL    HW216992   4.641   2.666   2.395
 5365SOL     OW16993   3.207   3.732   5.332
 5365SOL    HW116994   3.204   3.825   5.295
 5365SOL    HW216995   3.289   3.722   5.389
 5366SOL     OW16996   0.309   5.131   3.454
 5366SOL    HW116997   0.267   5.218   3.428
 5366SOL    HW216998   0.404   5.147   3.480
 5367SOL     OW16999   6.151   6.274   1.387
 5367SOL    HW117000   6.053   6.269   1.408
 5367SOL    HW217001   6.183   6.367   1.405
 5368SOL     OW17002   0.634   5.647   4.576
 5368SOL    HW117003   0.653   5.635   4.674
 5368SOL    HW217004   0.714   5.619   4.523
 5369SOL     OW17005   4.433   0.109   3.068
 5369SOL    HW117006   4.380   0.031   3.034
 5369SOL    HW217007   4.526   0.078   3.089
 5370SOL     OW17008   2.110   2.553   0.650
 5370SOL    HW117009   2.137   2.634   0.598
 5370SOL    HW217010   2.012   2.556   0.669
 5371SOL     OW17011   6.201   5.277   3.663
 5371SOL    HW117012   6.216   5.345   3.735
 5371SOL    HW217013   6.245   5.191   3.689
 5372SOL     OW17014   1.942   6.904   3.925
 5372SOL    HW117015   2.013   6.834   3.925
 5372SOL    HW217016   1.982   6.993   3.944
 5373SOL     OW17017   3.310   0.763   6.679
 5373SOL    HW117018   3.284   0.666   6.682
 5373SOL    HW217019   3.397   0.772   6.631
 5374SOL     OW17020   0.919   3.772   1.262
 5374SOL    HW117021   1.006   3.769   1.312
 5374SOL    HW217022   0.936   3.792   1.166
 5375SOL     OW17023   2.657   4.687   4.753
 5375SOL    HW117024   2.588   4.614   4.752
 5375SOL    HW217025   2.728   4.665   4.820
 5376SOL     OW17026   0.612   0.337   0.849
 5376SOL    HW117027   0.629   0.327   0.751
 5376SOL    HW217028   0.695   0.370   0.894
 5377SOL     OW17029   1.089   2.039   2.262
 5377SOL    HW117030   1.000   2.029   2.307
 5377SOL    HW217031   1.111   2.137   2.255
 5378SOL     OW17032   4.941   0.076   2.077
 5378SOL    HW117033   4.984   7.011   2.073
 5378SOL    HW217034   4.985   0.137   2.010
 5379SOL     OW17035   2.480   1.757   3.422
 5379SOL    HW117036   2.476   1.746   3.323
 5379SOL    HW217037   2.406   1.703   3.464
 5380SOL     OW17038   5.112   6.292   1.138
 5380SOL    HW117039   5.058   6.293   1.222
 5380SOL    HW217040   5.189   6.355   1.148
 5381SOL     OW17041   3.794   1.802   3.186
 5381SOL    HW117042   3.828   1.712   3.213
 5381SOL    HW217043   3.812   1.818   3.089
 5382SOL     OW17044   3.667   0.935   2.456
 5382SOL    HW117045   3.590   0.924   2.519
 5382SOL    HW217046   3.642   1.000   2.384
 5383SOL     OW17047   2.353   3.497   5.344
 5383SOL    HW117048   2.330   3.577   5.288
 5383SOL    HW217049   2.339   3.414   5.290
 5384SOL     OW17050   5.169   6.374   6.296
 5384SOL    HW117051   5.094   6.346   6.356
 5384SOL    HW217052   5.227   6.441   6.343
 5385SOL     OW17053   3.681   3.555   0.183
 5385SOL    HW117054   3.668   3.505   0.098
 5385SOL    HW217055   3.743   3.632   0.168
 5386SOL     OW17056   4.479   5.081   3.599
 5386SOL    HW117057   4.551   5.151   3.598
 5386SOL    HW217058   4.521   4.991   3.592
 5387SOL     OW17059   0.854   2.213   4.300
 5387SOL    HW117060   0.804   2.299   4.290
 5387SOL    HW217061   0.889   2.184   4.210
 5388SOL     OW17062   6.736   6.125   4.094
 5388SOL    HW117063   6.750   6.078   4.007
 5388SOL    HW217064   6.660   6.083   4.144
 5389SOL     OW17065   4.895   1.384   4.806
 5389SOL    HW117066   4.802   1.418   4.820
 5389SOL    HW217067   4.924   1.405   4.712
 5390SOL     OW17068   5.283   3.684   3.122
 5390SOL    HW117069   5.235   3.747   3.182
 5390SOL    HW217070   5.246   3.592   3.134
 5391SOL     OW17071   4.425   2.293   1.413
 5391SOL    HW117072   4.471   2.319   1.498
 5391SOL    HW217073   4.437   2.196   1.397
 5392SOL     OW17074   4.998   0.458   4.324
 5392SOL    HW117075   4.932   0.443   4.250
 5392SOL    HW217076   5.044   0.546   4.310
 5393SOL     OW17077   4.137   1.259   3.949
 5393SOL    HW117078   4.201   1.183   3.963
 5393SOL    HW217079   4.071   1.234   3.878
 5394SOL     OW17080   0.207   3.280   2.575
 5394SOL    HW117081   0.180   3.184   2.574
 5394SOL    HW217082   0.130   3.337   2.605
 5395SOL     OW17083   0.403   1.245   1.026
 5395SOL    HW117084   0.304   1.252   1.042
 5395SOL    HW217085   0.452   1.252   1.113
 5396SOL     OW17086   3.915   2.965   1.085
 5396SOL    HW117087   3.881   2.991   1.176
 5396SOL    HW217088   3.943   2.870   1.086
 5397SOL     OW17089   0.057   0.357   1.888
 5397SOL    HW117090   0.106   0.428   1.837
 5397SOL    HW217091   6.992   0.390   1.915
 5398SOL     OW17092   6.209   2.320   3.521
 5398SOL    HW117093   6.163   2.242   3.480
 5398SOL    HW217094   6.163   2.346   3.606
 5399SOL     OW17095   2.243   2.657   0.987
 5399SOL    HW117096   2.161   2.710   1.010
 5399SOL    HW217097   2.270   2.677   0.893
 5400SOL     OW17098   4.975   3.035   1.200
 5400SOL    HW117099   5.047   2.992   1.254
 5400SOL    HW217100   5.005   3.041   1.104
 5401SOL     OW17101   5.318   3.031   1.426
 5401SOL    HW117102   5.378   3.075   1.494
 5401SOL    HW217103   5.262   3.101   1.382
 5402SOL     OW17104   1.442   6.536   1.661
 5402SOL    HW117105   1.361   6.478   1.662
 5402SOL    HW217106   1.520   6.484   1.694
 5403SOL     OW17107   5.784   2.263   5.783
 5403SOL    HW117108   5.880   2.283   5.802
 5403SOL    HW217109   5.776   2.226   5.690
 5404SOL     OW17110   4.727   6.452   0.513
 5404SOL    HW117111   4.772   6.386   0.573
 5404SOL    HW217112   4.722   6.416   0.420
 5405SOL     OW17113   0.279   5.088   6.583
 5405SOL    HW117114   0.215   5.164   6.594
 5405SOL    HW217115   0.317   5.063   6.673
 5406SOL     OW17116   2.706   1.109   6.024
 5406SOL    HW117117   2.793   1.095   5.977
 5406SOL    HW217118   2.670   1.199   6.001
 5407SOL     OW17119   1.486   6.757   3.721
 5407SOL    HW117120   1.513   6.664   3.696
 5407SOL    HW217121   1.568   6.814   3.732
 5408SOL     OW17122   2.119   2.272   4.298
 5408SOL    HW117123   2.042   2.215   4.268
 5408SOL    HW217124   2.148   2.331   4.223
 5409SOL     OW17125   0.992   2.963   3.229
 5409SOL    HW117126   0.983   3.062   3.226
 5409SOL    HW217127   1.089   2.938   3.227
 5410SOL     OW17128   6.154   2.698   0.570
 5410SOL    HW117129   6.232   2.728   0.623
 5410SOL    HW217130   6.119   2.774   0.515
 5411SOL     OW17131   3.720   5.465   0.979
 5411SOL    HW117132   3.728   5.500   0.885
 5411SOL    HW217133   3.684   5.372   0.976
 5412SOL     OW17134   1.444   2.435   5.638
 5412SOL    HW117135   1.352   2.472   5.623
 5412SOL    HW217136   1.496   2.437   5.553
 5413SOL     OW17137   6.855   5.204   5.904
 5413SOL    HW117138   6.940   5.228   5.952
 5413SOL    HW217139   6.832   5.109   5.925
 5414SOL     OW17140   5.664   5.268   5.795
 5414SOL    HW117141   5.587   5.247   5.856
 5414SOL    HW217142   5.748   5.275   5.848
 5415SOL     OW17143   1.343   1.691   6.240
 5415SOL    HW117144   1.407   1.739   6.179
 5415SOL    HW217145   1.392   1.618   6.288
 5416SOL     OW17146   2.965   6.183   6.352
 5416SOL    HW117147   3.015   6.157   6.270
 5416SOL    HW217148   2.888   6.120   6.365
 5417SOL     OW17149   5.783   0.480   2.898
 5417SOL    HW117150   5.764   0.436   2.811
 5417SOL    HW217151   5.734   0.433   2.971
 5418SOL     OW17152   0.285   3.906   5.420
 5418SOL    HW117153   0.195   3.864   5.424
 5418SOL    HW217154   0.354   3.839   5.448
 5419SOL     OW17155   3.361   2.347   6.336
 5419SOL    HW117156   3.295   2.300   6.278
 5419SOL    HW217157   3.453   2.336   6.298
 5420SOL     OW17158   1.475   2.281   1.272
 5420SOL    HW117159   1.441   2.352   1.334
 5420SOL    HW217160   1.407   2.263   1.201
 5421SOL     OW17161   4.244   5.279   1.900
 5421SOL    HW117162   4.342   5.300   1.891
 5421SOL    HW217163   4.214   5.229   1.818
 5422SOL     OW17164   2.117   6.052   3.567
 5422SOL    HW117165   2.056   6.084   3.639
 5422SOL    HW217166   2.077   5.972   3.522
 5423SOL     OW17167   4.370   6.726   1.410
 5423SOL    HW117168   4.311   6.698   1.486
 5423SOL    HW217169   4.457   6.761   1.446
 5424SOL     OW17170   4.089   3.397   5.574
 5424SOL    HW117171   4.168   3.456   5.589
 5424SOL    HW217172   4.113   3.324   5.510
 5425SOL     OW17173   1.587   5.476   5.854
 5425SOL    HW117174   1.569   5.540   5.929
 5425SOL    HW217175   1.510   5.413   5.845
 5426SOL     OW17176   7.012   4.139   0.577
 5426SOL    HW117177   0.061   4.159   0.641
 5426SOL    HW217178   0.002   4.050   0.535
 5427SOL     OW17179   5.237   2.392   0.646
 5427SOL    HW117180   5.328   2.389   0.686
 5427SOL    HW217181   5.169   2.409   0.718
 5428SOL     OW17182   4.550   5.863   2.612
 5428SOL    HW117183   4.643   5.892   2.635
 5428SOL    HW217184   4.491   5.875   2.692
 5429SOL     OW17185   2.945   6.974   4.013
 5429SOL    HW117186   2.983   6.890   3.973
 5429SOL    HW217187   3.015   7.018   4.068
 5430SOL     OW17188   1.626   4.350   5.848
 5430SOL    HW117189   1.533   4.321   5.870
 5430SOL    HW217190   1.629   4.389   5.756
 5431SOL     OW17191   5.141   4.765   0.597
 5431SOL    HW117192   5.063   4.825   0.615
 5431SOL    HW217193   5.186   4.742   0.683
 5432SOL     OW17194   0.518   5.238   6.338
 5432SOL    HW117195   0.574   5.303   6.390
 5432SOL    HW217196   0.532   5.146   6.374
 5433SOL     OW17197   3.278   6.675   1.405
 5433SOL    HW117198   3.183   6.648   1.416
 5433SOL    HW217199   3.308   6.725   1.487
 5434SOL     OW17200   5.090   6.349   4.115
 5434SOL    HW117201   5.096   6.283   4.189
 5434SOL    HW217202   5.069   6.301   4.029
 5435SOL     OW17203   6.873   3.923   6.707
 5435SOL    HW117204   6.862   3.842   6.764
 5435SOL    HW217205   6.876   3.896   6.611
 5436SOL     OW17206   2.027   4.433   2.325
 5436SOL    HW117207   2.057   4.504   2.390
 5436SOL    HW217208   1.936   4.457   2.291
 5437SOL     OW17209   3.314   6.160   0.435
 5437SOL    HW117210   3.237   6.097   0.438
 5437SOL    HW217211   3.282   6.254   0.450
 5438SOL     OW17212   4.835   6.797   2.330
 5438SOL    HW117213   4.860   6.734   2.403
 5438SOL    HW217214   4.884   6.884   2.342
 5439SOL     OW17215   1.704   3.858   1.537
 5439SOL    HW117216   1.635   3.854   1.609
 5439SOL    HW217217   1.793   3.882   1.576
 5440SOL     OW17218   5.796   6.600   3.942
 5440SOL    HW117219   5.867   6.546   3.898
 5440SOL    HW217220   5.828   6.632   4.031
 5441SOL     OW17221   5.895   2.258   4.685
 5441SOL    HW117222   5.822   2.215   4.738
 5441SOL    HW217223   5.896   2.221   4.593
 5442SOL     OW17224   2.279   0.261   6.744
 5442SOL    HW117225   2.352   0.224   6.687
 5442SOL    HW217226   2.296   0.359   6.761
 5443SOL     OW17227   5.895   0.527   3.244
 5443SOL    HW117228   5.839   0.534   3.161
 5443SOL    HW217229   5.988   0.558   3.224
 5444SOL     OW17230   0.764   1.384   5.955
 5444SOL    HW117231   0.854   1.426   5.965
 5444SOL    HW217232   0.731   1.400   5.862
 5445SOL     OW17233   5.938   6.749   5.329
 5445SOL    HW117234   5.886   6.829   5.358
 5445SOL    HW217235   6.034   6.775   5.314
 5446SOL     OW17236   1.182   4.564   5.965
 5446SOL    HW117237   1.158   4.491   5.901
 5446SOL    HW217238   1.256   4.619   5.927
 5447SOL     OW17239   6.587   2.008   1.666
 5447SOL    HW117240   6.543   1.949   1.598
 5447SOL    HW217241   6.534   2.092   1.677
 5448SOL     OW17242   6.124   5.169   1.937
 5448SOL    HW117243   6.156   5.097   1.875
 5448SOL    HW217244   6.201   5.229   1.961
 5449SOL     OW17245   2.062   0.226   1.951
 5449SOL    HW117246   2.130   0.153   1.955
 5449SOL    HW217247   2.104   0.313   1.977
 5450SOL     OW17248   4.010   5.923   1.306
 5450SOL    HW117249   4.053   6.005   1.268
 5450SOL    HW217250   3.912   5.924   1.287
 5451SOL     OW17251   0.319   6.131   3.792
 5451SOL    HW117252   0.412   6.150   3.760
 5451SOL    HW217253   0.258   6.122   3.714
 5452SOL     OW17254   2.421   4.399   3.004
 5452SOL    HW117255   2.347   4.358   2.950
 5452SOL    HW217256   2.477   4.456   2.945
 5453SOL     OW17257   6.142   4.576   4.091
 5453SOL    HW117258   6.207   4.592   4.165
 5453SOL    HW217259   6.053   4.615   4.116
 5454SOL     OW17260   5.443   4.049   2.856
 5454SOL    HW117261   5.416   3.956   2.879
 5454SOL    HW217262   5.467   4.054   2.759
 5455SOL     OW17263   2.788   2.052   3.338
 5455SOL    HW117264   2.884   2.056   3.311
 5455SOL    HW217265   2.748   2.143   3.330
 5456SOL     OW17266   5.482   2.316   0.383
 5456SOL    HW117267   5.440   2.394   0.429
 5456SOL    HW217268   5.477   2.236   0.443
 5457SOL     OW17269   6.628   1.259   0.365
 5457SOL    HW117270   6.612   1.273   0.463
 5457SOL    HW217271   6.596   1.168   0.339
 5458SOL     OW17272   5.580   4.731   6.241
 5458SOL    HW117273   5.509   4.793   6.206
 5458SOL    HW217274   5.670   4.768   6.219
 5459SOL     OW17275   2.138   3.025   5.202
 5459SOL    HW117276   2.233   3.024   5.170
 5459SOL    HW217277   2.105   2.931   5.210
 5460SOL     OW17278   0.317   0.387   1.183
 5460SOL    HW117279   0.366   0.397   1.096
 5460SOL    HW217280   0.359   0.315   1.238
 5461SOL     OW17281   5.628   1.625   6.688
 5461SOL    HW117282   5.583   1.543   6.721
 5461SOL    HW217283   5.718   1.601   6.651
 5462SOL     OW17284   5.212   5.261   6.401
 5462SOL    HW117285   5.160   5.260   6.486
 5462SOL    HW217286   5.205   5.172   6.356
 5463SOL     OW17287   1.394   4.979   5.860
 5463SOL    HW117288   1.378   5.000   5.957
 5463SOL    HW217289   1.388   4.880   5.846
 5464SOL     OW17290   2.156   5.070   5.093
 5464SOL    HW117291   2.061   5.059   5.066
 5464SOL    HW217292   2.192   4.983   5.126
 5465SOL     OW17293   0.392   0.237   5.319
 5465SOL    HW117294   0.423   0.186   5.400
 5465SOL    HW217295   0.470   0.286   5.279
 5466SOL     OW17296   5.171   2.084   5.073
 5466SOL    HW117297   5.235   2.147   5.117
 5466SOL    HW217298   5.162   2.109   4.976
 5467SOL     OW17299   5.336   3.003   4.347
 5467SOL    HW117300   5.301   3.093   4.324
 5467SOL    HW217301   5.335   2.991   4.446
 5468SOL     OW17302   6.884   2.607   1.608
 5468SOL    HW117303   6.885   2.509   1.590
 5468SOL    HW217304   6.875   2.623   1.706
 5469SOL     OW17305   4.060   1.819   4.293
 5469SOL    HW117306   4.147   1.869   4.293
 5469SOL    HW217307   4.043   1.783   4.201
 5470SOL     OW17308   3.825   4.923   3.511
 5470SOL    HW117309   3.911   4.876   3.494
 5470SOL    HW217310   3.818   4.948   3.608
 5471SOL     OW17311   5.047   0.767   3.050
 5471SOL    HW117312   5.146   0.766   3.061
 5471SOL    HW217313   5.017   0.678   3.016
 5472SOL     OW17314   2.233   3.574   6.772
 5472SOL    HW117315   2.258   3.478   6.757
 5472SOL    HW217316   2.155   3.578   6.835
 5473SOL     OW17317   2.939   4.789   2.136
 5473SOL    HW117318   2.895   4.787   2.225
 5473SOL    HW217319   2.898   4.719   2.077
 5474SOL     OW17320   1.263   4.854   2.045
 5474SOL    HW117321   1.219   4.899   1.968
 5474SOL    HW217322   1.363   4.864   2.037
 5475SOL     OW17323   1.295   1.675   5.093
 5475SOL    HW117324   1.238   1.735   5.149
 5475SOL    HW217325   1.356   1.622   5.152
 5476SOL     OW17326   1.992   0.557   4.835
 5476SOL    HW117327   2.063   0.621   4.806
 5476SOL    HW217328   1.962   0.580   4.928
 5477SOL     OW17329   2.226   3.028   3.432
 5477SOL    HW117330   2.195   3.043   3.338
 5477SOL    HW217331   2.170   3.082   3.495
 5478SOL     OW17332   5.822   4.143   5.239
 5478SOL    HW117333   5.914   4.181   5.252
 5478SOL    HW217334   5.798   4.149   5.142
 5479SOL     OW17335   5.456   3.392   4.473
 5479SOL    HW117336   5.464   3.320   4.542
 5479SOL    HW217337   5.439   3.351   4.384
 5480SOL     OW17338   1.248   3.897   4.826
 5480SOL    HW117339   1.180   3.915   4.897
 5480SOL    HW217340   1.307   3.822   4.856
 5481SOL     OW17341   3.378   1.524   6.473
 5481SOL    HW117342   3.424   1.589   6.411
 5481SOL    HW217343   3.288   1.502   6.436
 5482SOL     OW17344   5.462   3.448   1.973
 5482SOL    HW117345   5.432   3.385   2.044
 5482SOL    HW217346   5.552   3.484   1.997
 5483SOL     OW17347   6.866   3.159   6.969
 5483SOL    HW117348   6.902   3.123   6.883
 5483SOL    HW217349   6.939   3.204   7.020
 5484SOL     OW17350   6.597   0.401   5.063
 5484SOL    HW117351   6.685   0.373   5.025
 5484SOL    HW217352   6.546   0.452   4.994
 5485SOL     OW17353   3.107   0.830   5.056
 5485SOL    HW117354   3.141   0.901   4.994
 5485SOL    HW217355   3.094   0.869   5.147
 5486SOL     OW17356   1.037   0.634   3.593
 5486SOL    HW117357   1.050   0.661   3.497
 5486SOL    HW217358   1.117   0.662   3.646
 5487SOL     OW17359   4.358   5.317   1.040
 5487SOL    HW117360   4.286   5.321   0.970
 5487SOL    HW217361   4.346   5.235   1.096
 5488SOL     OW17362   4.877   1.483   5.679
 5488SOL    HW117363   4.925   1.398   5.657
 5488SOL    HW217364   4.783   1.478   5.644
 5489SOL     OW17365   6.247   4.276   2.505
 5489SOL    HW117366   6.230   4.262   2.408
 5489SOL    HW217367   6.216   4.196   2.557
 5490SOL     OW17368   2.267   1.905   6.270
 5490SOL    HW117369   2.237   2.000   6.259
 5490SOL    HW217370   2.366   1.903   6.282
 5491SOL     OW17371   0.067   5.859   2.240
 5491SOL    HW117372   0.092   5.940   2.187
 5491SOL    HW217373   6.993   5.854   2.248
 5492SOL     OW17374   1.632   1.458   4.423
 5492SOL    HW117375   1.627   1.360   4.402
 5492SOL    HW217376   1.720   1.479   4.464
 5493SOL     OW17377   2.971   1.891   0.670
 5493SOL    HW117378   3.051   1.937   0.633
 5493SOL    HW217379   2.897   1.894   0.602
 5494SOL     OW17380   5.968   2.903   2.441
 5494SOL    HW117381   5.942   2.974   2.376
 5494SOL    HW217382   5.937   2.814   2.407
 5495SOL     OW17383   3.760   3.180   3.882
 5495SOL    HW117384   3.721   3.218   3.798
 5495SOL    HW217385   3.701   3.106   3.915
 5496SOL     OW17386   4.683   4.830   1.870
 5496SOL    HW117387   4.712   4.839   1.775
 5496SOL    HW217388   4.620   4.904   1.893
 5497SOL     OW17389   6.072   0.051   1.346
 5497SOL    HW117390   6.104   0.060   1.251
 5497SOL    HW217391   6.114   0.122   1.402
 5498SOL     OW17392   4.232   0.469   4.900
 5498SOL    HW117393   4.278   0.393   4.946
 5498SOL    HW217394   4.133   0.455   4.904
 5499SOL     OW17395   0.760   1.277   5.557
 5499SOL    HW117396   0.716   1.351   5.606
 5499SOL    HW217397   0.853   1.304   5.533
 5500SOL     OW17398   1.934   6.122   0.730
 5500SOL    HW117399   1.921   6.162   0.821
 5500SOL    HW217400   1.950   6.194   0.663
 5501SOL     OW17401   2.983   0.610   2.617
 5501SOL    HW117402   3.056   0.568   2.671
 5501SOL    HW217403   3.020   0.683   2.560
 5502SOL     OW17404   4.811   3.181   0.586
 5502SOL    HW117405   4.864   3.103   0.619
 5502SOL    HW217406   4.727   3.191   0.641
 5503SOL     OW17407   0.749   6.431   4.747
 5503SOL    HW117408   0.768   6.494   4.671
 5503SOL    HW217409   0.741   6.338   4.712
 5504SOL     OW17410   3.343   2.121   4.458
 5504SOL    HW117411   3.348   2.025   4.428
 5504SOL    HW217412   3.312   2.178   4.382
 5505SOL     OW17413   3.738   4.839   0.069
 5505SOL    HW117414   3.764   4.764   0.129
 5505SOL    HW217415   3.654   4.883   0.104
 5506SOL     OW17416   6.900   6.589   5.754
 5506SOL    HW117417   6.962   6.525   5.800
 5506SOL    HW217418   6.868   6.548   5.669
 5507SOL     OW17419   4.047   5.927   4.469
 5507SOL    HW117420   4.097   5.876   4.398
 5507SOL    HW217421   4.056   5.880   4.556
 5508SOL     OW17422   1.660   0.359   6.195
 5508SOL    HW117423   1.616   0.428   6.252
 5508SOL    HW217424   1.637   0.375   6.099
 5509SOL     OW17425   6.179   7.002   6.873
 5509SOL    HW117426   6.264   6.985   6.822
 5509SOL    HW217427   6.105   6.949   6.832
 5510SOL     OW17428   5.928   0.409   6.450
 5510SOL    HW117429   5.923   0.334   6.384
 5510SOL    HW217430   5.849   0.470   6.437
 5511SOL     OW17431   6.908   2.319   1.556
 5511SOL    HW117432   6.824   2.265   1.557
 5511SOL    HW217433   6.950   2.315   1.465
 5512SOL     OW17434   0.288   0.287   0.508
 5512SOL    HW117435   0.313   0.204   0.557
 5512SOL    HW217436   0.203   0.271   0.457
 5513SOL     OW17437   3.391   5.985   4.836
 5513SOL    HW117438   3.439   6.052   4.892
 5513SOL    HW217439   3.349   6.032   4.758
 5514SOL     OW17440   5.809   5.329   3.807
 5514SOL    HW117441   5.905   5.352   3.827
 5514SOL    HW217442   5.749   5.398   3.848
 5515SOL     OW17443   6.652   3.494   3.178
 5515SOL    HW117444   6.564   3.458   3.146
 5515SOL    HW217445   6.721   3.481   3.108
 5516SOL     OW17446   1.168   3.038   6.766
 5516SOL    HW117447   1.171   2.938   6.775
 5516SOL    HW217448   1.137   3.078   6.852
 5517SOL     OW17449   2.274   0.935   1.488
 5517SOL    HW117450   2.259   1.014   1.429
 5517SOL    HW217451   2.364   0.940   1.530
 5518SOL     OW17452   5.801   4.888   5.433
 5518SOL    HW117453   5.836   4.800   5.466
 5518SOL    HW217454   5.875   4.956   5.435
 5519SOL     OW17455   5.132   3.978   3.242
 5519SOL    HW117456   5.202   3.927   3.292
 5519SOL    HW217457   5.171   4.015   3.158
 5520SOL     OW17458   2.056   2.833   1.005
 5520SOL    HW117459   2.066   2.917   0.953
 5520SOL    HW217460   1.989   2.847   1.078
 5521SOL     OW17461   4.937   5.701   0.792
 5521SOL    HW117462   4.971   5.619   0.839
 5521SOL    HW217463   4.894   5.675   0.706
 5522SOL     OW17464   2.099   3.199   2.550
 5522SOL    HW117465   2.005   3.183   2.520
 5522SOL    HW217466   2.156   3.221   2.471
 5523SOL     OW17467   3.067   0.776   2.003
 5523SOL    HW117468   3.099   0.691   2.045
 5523SOL    HW217469   3.144   0.825   1.964
 5524SOL     OW17470   5.461   5.786   5.758
 5524SOL    HW117471   5.535   5.718   5.759
 5524SOL    HW217472   5.389   5.755   5.696
 5525SOL     OW17473   6.799   5.965   4.376
 5525SOL    HW117474   6.768   5.968   4.471
 5525SOL    HW217475   6.896   5.992   4.372
 5526SOL     OW17476   5.457   3.218   4.692
 5526SOL    HW117477   5.531   3.171   4.739
 5526SOL    HW217478   5.384   3.153   4.672
 5527SOL     OW17479   2.406   3.205   0.348
 5527SOL    HW117480   2.365   3.258   0.274
 5527SOL    HW217481   2.504   3.225   0.351
 5528SOL     OW17482   6.756   3.349   2.699
 5528SOL    HW117483   6.702   3.411   2.757
 5528SOL    HW217484   6.758   3.258   2.740
 5529SOL     OW17485   1.352   1.511   4.393
 5529SOL    HW117486   1.327   1.476   4.303
 5529SOL    HW217487   1.424   1.454   4.432
 5530SOL     OW17488   0.063   3.257   0.054
 5530SOL    HW117489   0.041   3.285   0.148
 5530SOL    HW217490   0.130   3.183   0.056
 5531SOL     OW17491   1.137   2.709   6.711
 5531SOL    HW117492   1.132   2.764   6.628
 5531SOL    HW217493   1.082   2.627   6.701
 5532SOL     OW17494   1.956   2.130   1.303
 5532SOL    HW117495   2.010   2.047   1.294
 5532SOL    HW217496   1.972   2.171   1.393
 5533SOL     OW17497   3.868   0.207   0.630
 5533SOL    HW117498   3.772   0.215   0.656
 5533SOL    HW217499   3.919   0.284   0.669
 5534SOL     OW17500   7.006   4.836   4.860
 5534SOL    HW117501   7.019   4.863   4.956
 5534SOL    HW217502   6.938   4.763   4.855
 5535SOL     OW17503   5.837   3.425   3.972
 5535SOL    HW117504   5.806   3.520   3.977
 5535SOL    HW217505   5.890   3.403   4.054
 5536SOL     OW17506   2.757   0.285   4.227
 5536SOL    HW117507   2.727   0.380   4.240
 5536SOL    HW217508   2.825   0.281   4.154
 5537SOL     OW17509   4.216   1.628   4.727
 5537SOL    HW117510   4.120   1.603   4.713
 5537SOL    HW217511   4.254   1.663   4.642
 5538SOL     OW17512   5.259   2.676   1.866
 5538SOL    HW117513   5.286   2.747   1.931
 5538SOL    HW217514   5.255   2.587   1.913
 5539SOL     OW17515   2.956   6.812   0.535
 5539SOL    HW117516   2.944   6.869   0.454
 5539SOL    HW217517   2.988   6.869   0.611
 5540SOL     OW17518   4.882   0.656   6.079
 5540SOL    HW117519   4.894   0.755   6.069
 5540SOL    HW217520   4.786   0.636   6.101
 5541SOL     OW17521   4.751   3.187   0.117
 5541SOL    HW117522   4.799   3.249   0.054
 5541SOL    HW217523   4.754   3.224   0.209
 5542SOL     OW17524   4.554   4.075   0.017
 5542SOL    HW117525   4.473   4.031   7.004
 5542SOL    HW217526   4.636   4.040   6.997
 5543SOL     OW17527   1.782   0.662   0.079
 5543SOL    HW117528   1.762   0.564   0.080
 5543SOL    HW217529   1.862   0.681   0.136
 5544SOL     OW17530   4.046   5.441   6.690
 5544SOL    HW117531   3.988   5.369   6.652
 5544SOL    HW217532   4.045   5.435   6.790
 5545SOL     OW17533   4.709   0.954   4.139
 5545SOL    HW117534   4.727   1.044   4.180
 5545SOL    HW217535   4.792   0.919   4.096
 5546SOL     OW17536   0.610   4.950   4.251
 5546SOL    HW117537   0.521   4.996   4.258
 5546SOL    HW217538   0.670   5.003   4.192
 5547SOL     OW17539   5.123   1.846   4.900
 5547SOL    HW117540   5.128   1.925   4.960
 5547SOL    HW217541   5.115   1.762   4.954
 5548SOL     OW17542   0.604   4.506   4.417
 5548SOL    HW117543   0.545   4.553   4.353
 5548SOL    HW217544   0.641   4.423   4.375
 5549SOL     OW17545   4.531   2.967   0.457
 5549SOL    HW117546   4.579   3.047   0.422
 5549SOL    HW217547   4.452   2.996   0.511
 5550SOL     OW17548   2.184   4.402   1.733
 5550SOL    HW117549   2.265   4.421   1.788
 5550SOL    HW217550   2.167   4.304   1.731
 5551SOL     OW17551   1.911   5.488   3.113
 5551SOL    HW117552   1.996   5.485   3.165
 5551SOL    HW217553   1.876   5.582   3.112
 5552SOL     OW17554   0.818   6.597   6.807
 5552SOL    HW117555   0.783   6.674   6.754
 5552SOL    HW217556   0.790   6.512   6.764
 5553SOL     OW17557   5.030   0.616   0.262
 5553SOL    HW117558   5.040   0.604   0.361
 5553SOL    HW217559   5.115   0.590   0.217
 5554SOL     OW17560   6.565   1.747   1.275
 5554SOL    HW117561   6.629   1.707   1.209
 5554SOL    HW217562   6.471   1.730   1.245
 5555SOL     OW17563   1.773   4.863   2.915
 5555SOL    HW117564   1.691   4.813   2.886
 5555SOL    HW217565   1.746   4.947   2.962
 5556SOL     OW17566   0.449   0.838   4.496
 5556SOL    HW117567   0.366   0.884   4.465
 5556SOL    HW217568   0.522   0.854   4.430
 5557SOL     OW17569   3.629   5.820   3.270
 5557SOL    HW117570   3.608   5.917   3.281
 5557SOL    HW217571   3.710   5.810   3.212
 5558SOL     OW17572   4.762   3.959   6.567
 5558SOL    HW117573   4.834   3.920   6.511
 5558SOL    HW217574   4.688   3.993   6.507
 5559SOL     OW17575   3.202   1.310   2.956
 5559SOL    HW117576   3.287   1.348   2.920
 5559SOL    HW217577   3.165   1.373   3.025
 5560SOL     OW17578   0.816   5.111   3.546
 5560SOL    HW117579   0.814   5.078   3.640
 5560SOL    HW217580   0.892   5.175   3.535
 5561SOL     OW17581   3.595   6.482   3.142
 5561SOL    HW117582   3.653   6.400   3.138
 5561SOL    HW217583   3.561   6.493   3.235
 5562SOL     OW17584   3.562   3.883   0.992
 5562SOL    HW117585   3.545   3.785   1.000
 5562SOL    HW217586   3.541   3.913   0.899
 5563SOL     OW17587   2.218   4.551   2.543
 5563SOL    HW117588   2.278   4.476   2.514
 5563SOL    HW217589   2.202   4.545   2.641
 5564SOL     OW17590   5.363   0.740   6.238
 5564SOL    HW117591   5.422   0.807   6.282
 5564SOL    HW217592   5.350   0.765   6.142
 5565SOL     OW17593   3.197   2.107   6.155
 5565SOL    HW117594   3.160   2.018   6.128
 5565SOL    HW217595   3.155   2.179   6.100
 5566SOL     OW17596   1.669   3.942   0.206
 5566SOL    HW117597   1.594   3.996   0.166
 5566SOL    HW217598   1.707   3.991   0.284
 5567SOL     OW17599   0.270   3.941   0.527
 5567SOL    HW117600   0.253   3.946   0.429
 5567SOL    HW217601   0.200   3.882   0.570
 5568SOL     OW17602   4.673   4.953   1.536
 5568SOL    HW117603   4.749   4.912   1.484
 5568SOL    HW217604   4.691   5.050   1.548
 5569SOL     OW17605   2.266   2.943   2.992
 5569SOL    HW117606   2.216   2.863   3.025
 5569SOL    HW217607   2.239   2.963   2.898
 5570SOL     OW17608   6.803   3.667   2.440
 5570SOL    HW117609   6.896   3.643   2.470
 5570SOL    HW217610   6.776   3.609   2.364
 5571SOL     OW17611   6.123   4.806   1.423
 5571SOL    HW117612   6.110   4.869   1.347
 5571SOL    HW217613   6.220   4.805   1.449
 5572SOL     OW17614   1.729   4.370   5.051
 5572SOL    HW117615   1.675   4.293   5.015
 5572SOL    HW217616   1.683   4.456   5.028
 5573SOL     OW17617   3.492   5.246   3.858
 5573SOL    HW117618   3.544   5.320   3.902
 5573SOL    HW217619   3.481   5.267   3.761
 5574SOL     OW17620   0.649   2.655   5.913
 5574SOL    HW117621   0.684   2.586   5.977
 5574SOL    HW217622   0.665   2.746   5.950
 5575SOL     OW17623   0.302   6.938   1.872
 5575SOL    HW117624   0.290   6.840   1.885
 5575SOL    HW217625   0.384   6.955   1.817
 5576SOL     OW17626   1.126   5.069   3.272
 5576SOL    HW117627   1.134   4.988   3.213
 5576SOL    HW217628   1.118   5.151   3.214
 5577SOL     OW17629   1.928   2.788   5.860
 5577SOL    HW117630   1.930   2.813   5.763
 5577SOL    HW217631   1.858   2.841   5.907
 5578SOL     OW17632   3.791   3.983   3.962
 5578SOL    HW117633   3.779   3.995   4.061
 5578SOL    HW217634   3.727   4.043   3.914
 5579SOL     OW17635   0.333   3.086   2.062
 5579SOL    HW117636   0.369   3.124   1.977
 5579SOL    HW217637   0.237   3.113   2.072
 5580SOL     OW17638   5.353   2.178   5.469
 5580SOL    HW117639   5.262   2.135   5.469
 5580SOL    HW217640   5.400   2.157   5.555
 5581SOL     OW17641   1.128   2.438   0.380
 5581SOL    HW117642   1.111   2.478   0.290
 5581SOL    HW217643   1.044   2.438   0.433
 5582SOL     OW17644   2.539   3.070   6.606
 5582SOL    HW117645   2.448   3.033   6.622
 5582SOL    HW217646   2.563   3.133   6.680
 5583SOL     OW17647   5.216   0.681   2.305
 5583SOL    HW117648   5.199   0.583   2.292
 5583SOL    HW217649   5.307   0.693   2.345
 5584SOL     OW17650   1.546   3.406   4.739
 5584SOL    HW117651   1.552   3.316   4.698
 5584SOL    HW217652   1.587   3.404   4.831
 5585SOL     OW17653   5.338   4.965   1.985
 5585SOL    HW117654   5.327   5.037   2.055
 5585SOL    HW217655   5.370   4.881   2.029
 5586SOL     OW17656   6.421   3.869   0.281
 5586SOL    HW117657   6.374   3.795   0.233
 5586SOL    HW217658   6.384   3.878   0.374
 5587SOL     OW17659   5.950   1.244   6.062
 5587SOL    HW117660   5.980   1.162   6.109
 5587SOL    HW217661   6.029   1.294   6.026
 5588SOL     OW17662   3.732   6.555   1.019
 5588SOL    HW117663   3.670   6.632   1.035
 5588SOL    HW217664   3.827   6.586   1.024
 5589SOL     OW17665   5.861   5.005   5.911
 5589SOL    HW117666   5.843   5.103   5.908
 5589SOL    HW217667   5.956   4.988   5.883
 5590SOL     OW17668   6.066   5.653   3.715
 5590SOL    HW117669   6.059   5.753   3.712
 5590SOL    HW217670   6.059   5.616   3.623
 5591SOL     OW17671   5.541   0.846   1.788
 5591SOL    HW117672   5.600   0.799   1.723
 5591SOL    HW217673   5.489   0.917   1.740
 5592SOL     OW17674   1.018   3.575   3.305
 5592SOL    HW117675   1.114   3.601   3.292
 5592SOL    HW217676   1.011   3.511   3.381
 5593SOL     OW17677   6.811   3.627   0.358
 5593SOL    HW117678   6.774   3.718   0.374
 5593SOL    HW217679   6.811   3.607   0.260
 5594SOL     OW17680   5.984   2.341   6.119
 5594SOL    HW117681   6.008   2.346   6.216
 5594SOL    HW217682   5.979   2.245   6.091
 5595SOL     OW17683   0.832   3.106   5.606
 5595SOL    HW117684   0.882   3.191   5.587
 5595SOL    HW217685   0.832   3.048   5.524
 5596SOL     OW17686   3.241   6.460   3.005
 5596SOL    HW117687   3.311   6.389   3.009
 5596SOL    HW217688   3.225   6.497   3.096
 5597SOL     OW17689   5.319   2.923   2.886
 5597SOL    HW117690   5.363   3.012   2.896
 5597SOL    HW217691   5.388   2.853   2.871
 5598SOL     OW17692   5.347   1.839   4.717
 5598SOL    HW117693   5.284   1.901   4.762
 5598SOL    HW217694   5.333   1.746   4.752
 5599SOL     OW17695   1.038   0.813   3.942
 5599SOL    HW117696   1.097   0.773   3.872
 5599SOL    HW217697   1.093   0.836   4.023
 5600SOL     OW17698   1.574   1.975   3.974
 5600SOL    HW117699   1.500   2.018   4.025
 5600SOL    HW217700   1.558   1.876   3.969
 5601SOL     OW17701   2.363   0.554   5.811
 5601SOL    HW117702   2.360   0.471   5.756
 5601SOL    HW217703   2.276   0.566   5.858
 5602SOL     OW17704   1.697   1.487   6.864
 5602SOL    HW117705   1.635   1.551   6.909
 5602SOL    HW217706   1.681   1.395   6.899
 5603SOL     OW17707   5.659   3.900   6.612
 5603SOL    HW117708   5.681   3.987   6.655
 5603SOL    HW217709   5.625   3.916   6.519
 5604SOL     OW17710   6.208   1.570   6.160
 5604SOL    HW117711   6.217   1.643   6.228
 5604SOL    HW217712   6.226   1.607   6.069
 5605SOL     OW17713   0.717   2.522   5.663
 5605SOL    HW117714   0.678   2.595   5.720
 5605SOL    HW217715   0.754   2.450   5.721
 5606SOL     OW17716   5.344   0.188   2.744
 5606SOL    HW117717   5.439   0.163   2.763
 5606SOL    HW217718   5.310   0.247   2.816
 5607SOL     OW17719   6.187   0.832   1.687
 5607SOL    HW117720   6.169   0.740   1.721
 5607SOL    HW217721   6.134   0.848   1.603
 5608SOL     OW17722   4.822   6.778   4.763
 5608SOL    HW117723   4.735   6.730   4.758
 5608SOL    HW217724   4.893   6.723   4.720
 5609SOL     OW17725   2.161   5.746   5.671
 5609SOL    HW117726   2.080   5.802   5.653
 5609SOL    HW217727   2.134   5.654   5.698
 5610SOL     OW17728   4.486   0.317   6.428
 5610SOL    HW117729   4.495   0.417   6.425
 5610SOL    HW217730   4.530   0.282   6.511
 5611SOL     OW17731   1.777   4.656   3.390
 5611SOL    HW117732   1.849   4.724   3.373
 5611SOL    HW217733   1.698   4.701   3.432
 5612SOL     OW17734   1.969   0.515   5.480
 5612SOL    HW117735   2.020   0.430   5.494
 5612SOL    HW217736   1.886   0.495   5.428
 5613SOL     OW17737   3.871   4.940   1.829
 5613SOL    HW117738   3.928   4.908   1.905
 5613SOL    HW217739   3.819   5.020   1.859
 5614SOL     OW17740   4.687   2.221   3.570
 5614SOL    HW117741   4.700   2.276   3.488
 5614SOL    HW217742   4.601   2.247   3.614
 5615SOL     OW17743   1.144   1.548   1.378
 5615SOL    HW117744   1.206   1.625   1.396
 5615SOL    HW217745   1.123   1.544   1.280
 5616SOL     OW17746   2.746   0.107   4.775
 5616SOL    HW117747   2.794   0.094   4.688
 5616SOL    HW217748   2.647   0.104   4.760
 5617SOL     OW17749   1.097   1.041   5.230
 5617SOL    HW117750   1.107   0.977   5.153
 5617SOL    HW217751   1.118   0.993   5.316
 5618SOL     OW17752   6.433   4.589   2.482
 5618SOL    HW117753   6.515   4.573   2.427
 5618SOL    HW217754   6.401   4.682   2.466
 5619SOL     OW17755   2.167   3.550   4.760
 5619SOL    HW117756   2.174   3.479   4.830
 5619SOL    HW217757   2.223   3.628   4.786
 5620SOL     OW17758   3.955   2.262   5.970
 5620SOL    HW117759   3.867   2.248   6.016
 5620SOL    HW217760   4.021   2.299   6.035
 5621SOL     OW17761   1.686   2.271   6.493
 5621SOL    HW117762   1.710   2.347   6.554
 5621SOL    HW217763   1.770   2.228   6.460
 5622SOL     OW17764   5.733   0.577   5.804
 5622SOL    HW117765   5.678   0.656   5.832
 5622SOL    HW217766   5.792   0.549   5.880
 5623SOL     OW17767   0.418   5.372   6.718
 5623SOL    HW117768   0.476   5.370   6.800
 5623SOL    HW217769   0.475   5.377   6.637
 5624SOL     OW17770   0.999   3.914   3.175
 5624SOL    HW117771   1.083   3.951   3.133
 5624SOL    HW217772   1.023   3.836   3.233
 5625SOL     OW17773   6.660   2.128   5.469
 5625SOL    HW117774   6.726   2.202   5.458
 5625SOL    HW217775   6.705   2.041   5.448
 5626SOL     OW17776   4.221   0.045   4.293
 5626SOL    HW117777   4.271   0.130   4.278
 5626SOL    HW217778   4.147   0.037   4.227
 5627SOL     OW17779   0.916   6.046   0.668
 5627SOL    HW117780   0.855   5.968   0.659
 5627SOL    HW217781   1.003   6.025   0.624
 5628SOL     OW17782   1.180   1.026   4.415
 5628SOL    HW117783   1.135   0.970   4.346
 5628SOL    HW217784   1.112   1.082   4.463
 5629SOL     OW17785   3.630   3.555   3.046
 5629SOL    HW117786   3.661   3.477   3.099
 5629SOL    HW217787   3.710   3.604   3.010
 5630SOL     OW17788   6.925   4.454   1.850
 5630SOL    HW117789   6.924   4.359   1.820
 5630SOL    HW217790   6.973   4.461   1.937
 5631SOL     OW17791   4.569   0.589   6.757
 5631SOL    HW117792   4.597   0.571   6.663
 5631SOL    HW217793   4.650   0.601   6.814
 5632SOL     OW17794   3.223   3.205   0.307
 5632SOL    HW117795   3.132   3.186   0.271
 5632SOL    HW217796   3.254   3.127   0.362
 5633SOL     OW17797   6.158   2.794   4.882
 5633SOL    HW117798   6.151   2.846   4.797
 5633SOL    HW217799   6.075   2.806   4.936
 5634SOL     OW17800   4.622   5.723   4.262
 5634SOL    HW117801   4.558   5.751   4.334
 5634SOL    HW217802   4.702   5.784   4.262
 5635SOL     OW17803   2.993   2.219   5.346
 5635SOL    HW117804   3.034   2.264   5.267
 5635SOL    HW217805   3.064   2.194   5.412
 5636SOL     OW17806   3.781   6.258   4.073
 5636SOL    HW117807   3.818   6.293   3.986
 5636SOL    HW217808   3.761   6.161   4.063
 5637SOL     OW17809   5.889   0.148   3.643
 5637SOL    HW117810   5.895   0.173   3.546
 5637SOL    HW217811   5.804   0.099   3.659
 5638SOL     OW17812   4.995   3.673   6.146
 5638SOL    HW117813   4.959   3.580   6.154
 5638SOL    HW217814   5.083   3.678   6.193
 5639SOL     OW17815   2.759   0.710   6.386
 5639SOL    HW117816   2.793   0.798   6.351
 5639SOL    HW217817   2.790   0.636   6.327
 5640SOL     OW17818   2.528   0.033   3.598
 5640SOL    HW117819   2.575   0.034   3.510
 5640SOL    HW217820   2.545   0.119   3.646
 5641SOL     OW17821   5.717   5.892   4.921
 5641SOL    HW117822   5.652   5.817   4.914
 5641SOL    HW217823   5.704   5.955   4.844
 5642SOL     OW17824   1.592   2.078   6.675
 5642SOL    HW117825   1.631   1.990   6.645
 5642SOL    HW217826   1.634   2.152   6.622
 5643SOL     OW17827   5.715   2.142   4.851
 5643SOL    HW117828   5.770   2.192   4.919
 5643SOL    HW217829   5.642   2.093   4.898
 5644SOL     OW17830   2.943   0.259   6.219
 5644SOL    HW117831   3.041   0.245   6.234
 5644SOL    HW217832   2.900   0.173   6.192
 5645SOL     OW17833   4.979   3.496   4.704
 5645SOL    HW117834   5.016   3.404   4.686
 5645SOL    HW217835   4.920   3.523   4.628
 5646SOL     OW17836   1.437   4.424   2.745
 5646SOL    HW117837   1.410   4.332   2.771
 5646SOL    HW217838   1.536   4.426   2.726
 5647SOL     OW17839   6.846   6.581   2.532
 5647SOL    HW117840   6.755   6.601   2.568
 5647SOL    HW217841   6.904   6.663   2.539
 5648SOL     OW17842   4.725   6.341   3.404
 5648SOL    HW117843   4.802   6.380   3.455
 5648SOL    HW217844   4.727   6.241   3.411
 5649SOL     OW17845   1.112   6.465   4.373
 5649SOL    HW117846   1.112   6.465   4.273
 5649SOL    HW217847   1.114   6.371   4.407
 5650SOL     OW17848   6.899   4.391   6.781
 5650SOL    HW117849   6.850   4.466   6.738
 5650SOL    HW217850   6.853   4.304   6.762
 5651SOL     OW17851   2.459   1.186   1.233
 5651SOL    HW117852   2.518   1.259   1.199
 5651SOL    HW217853   2.418   1.214   1.319
 5652SOL     OW17854   0.711   5.870   1.629
 5652SOL    HW117855   0.659   5.854   1.545
 5652SOL    HW217856   0.666   5.825   1.706
 5653SOL     OW17857   0.237   0.171   1.798
 5653SOL    HW117858   0.155   0.208   1.841
 5653SOL    HW217859   0.245   0.074   1.820
 5654SOL     OW17860   3.261   5.403   4.408
 5654SOL    HW117861   3.314   5.325   4.441
 5654SOL    HW217862   3.285   5.484   4.461
 5655SOL     OW17863   6.179   2.445   5.307
 5655SOL    HW117864   6.268   2.423   5.267
 5655SOL    HW217865   6.138   2.362   5.346
 5656SOL     OW17866   6.441   3.549   0.461
 5656SOL    HW117867   6.352   3.548   0.507
 5656SOL    HW217868   6.514   3.548   0.530
 5657SOL     OW17869   5.234   5.715   4.912
 5657SOL    HW117870   5.231   5.630   4.966
 5657SOL    HW217871   5.311   5.711   4.848
 5658SOL     OW17872   2.133   2.996   6.145
 5658SOL    HW117873   2.090   3.067   6.089
 5658SOL    HW217874   2.104   3.006   6.240
 5659SOL     OW17875   2.866   3.891   6.976
 5659SOL    HW117876   2.907   3.966   0.003
 5659SOL    HW217877   2.889   3.804   7.020
 5660SOL     OW17878   4.159   0.835   5.995
 5660SOL    HW117879   4.234   0.895   6.021
 5660SOL    HW217880   4.147   0.764   6.065
 5661SOL     OW17881   1.318   5.501   6.045
 5661SOL    HW117882   1.304   5.435   5.972
 5661SOL    HW217883   1.388   5.468   6.108
 5662SOL     OW17884   3.419   6.458   1.088
 5662SOL    HW117885   3.324   6.441   1.062
 5662SOL    HW217886   3.480   6.414   1.022
 5663SOL     OW17887   1.263   3.453   6.567
 5663SOL    HW117888   1.296   3.380   6.627
 5663SOL    HW217889   1.164   3.447   6.558
 5664SOL     OW17890   4.549   4.944   4.667
 5664SOL    HW117891   4.478   4.920   4.600
 5664SOL    HW217892   4.637   4.949   4.621
 5665SOL     OW17893   1.613   1.709   1.243
 5665SOL    HW117894   1.566   1.794   1.219
 5665SOL    HW217895   1.605   1.644   1.167
 5666SOL     OW17896   5.830   1.740   5.070
 5666SOL    HW117897   5.868   1.814   5.126
 5666SOL    HW217898   5.895   1.664   5.067
 5667SOL     OW17899   2.750   5.022   4.488
 5667SOL    HW117900   2.735   4.925   4.468
 5667SOL    HW217901   2.831   5.032   4.545
 5668SOL     OW17902   4.771   4.109   3.565
 5668SOL    HW117903   4.752   4.191   3.510
 5668SOL    HW217904   4.726   4.118   3.654
 5669SOL     OW17905   5.755   4.200   5.783
 5669SOL    HW117906   5.748   4.212   5.882
 5669SOL    HW217907   5.675   4.239   5.739
 5670SOL     OW17908   1.604   2.120   3.714
 5670SOL    HW117909   1.693   2.159   3.736
 5670SOL    HW217910   1.573   2.063   3.790
 5671SOL     OW17911   0.131   6.113   3.986
 5671SOL    HW117912   0.185   6.119   3.902
 5671SOL    HW217913   0.101   6.019   3.999
 5672SOL     OW17914   5.318   2.996   4.628
 5672SOL    HW117915   5.303   2.906   4.671
 5672SOL    HW217916   5.230   3.038   4.607
 5673SOL     OW17917   1.114   1.402   0.501
 5673SOL    HW117918   1.088   1.333   0.434
 5673SOL    HW217919   1.145   1.357   0.585
 5674SOL     OW17920   2.442   4.670   5.330
 5674SOL    HW117921   2.371   4.600   5.330
 5674SOL    HW217922   2.531   4.627   5.343
 5675SOL     OW17923   2.999   1.743   0.878
 5675SOL    HW117924   2.979   1.802   0.800
 5675SOL    HW217925   3.089   1.702   0.867
 5676SOL     OW17926   2.628   1.426   1.795
 5676SOL    HW117927   2.589   1.505   1.841
 5676SOL    HW217928   2.679   1.456   1.715
 5677SOL     OW17929   6.571   1.456   0.166
 5677SOL    HW117930   6.663   1.492   0.177
 5677SOL    HW217931   6.540   1.417   0.253
 5678SOL     OW17932   3.430   1.987   2.010
 5678SOL    HW117933   3.346   2.030   1.978
 5678SOL    HW217934   3.494   2.057   2.042
 5679SOL     OW17935   6.616   3.066   4.634
 5679SOL    HW117936   6.584   3.160   4.637
 5679SOL    HW217937   6.546   3.006   4.673
 5680SOL     OW17938   0.815   5.449   4.459
 5680SOL    HW117939   0.764   5.390   4.521
 5680SOL    HW217940   0.906   5.466   4.496
 5681SOL     OW17941   0.961   3.413   4.428
 5681SOL    HW117942   0.994   3.384   4.518
 5681SOL    HW217943   0.890   3.350   4.397
 5682SOL     OW17944   2.223   4.772   1.606
 5682SOL    HW117945   2.276   4.700   1.561
 5682SOL    HW217946   2.199   4.744   1.699
 5683SOL     OW17947   6.175   0.785   5.836
 5683SOL    HW117948   6.232   0.826   5.764
 5683SOL    HW217949   6.142   0.696   5.805
 5684SOL     OW17950   2.294   2.772   5.028
 5684SOL    HW117951   2.220   2.768   5.094
 5684SOL    HW217952   2.329   2.866   5.022
 5685SOL     OW17953   2.520   1.843   2.329
 5685SOL    HW117954   2.524   1.925   2.387
 5685SOL    HW217955   2.610   1.826   2.290
 5686SOL     OW17956   4.544   5.672   6.236
 5686SOL    HW117957   4.530   5.754   6.291
 5686SOL    HW217958   4.490   5.597   6.273
 5687SOL     OW17959   1.712   6.324   6.356
 5687SOL    HW117960   1.640   6.360   6.297
 5687SOL    HW217961   1.797   6.318   6.305
 5688SOL     OW17962   2.000   1.958   2.756
 5688SOL    HW117963   2.055   2.012   2.820
 5688SOL    HW217964   2.032   1.973   2.663
 5689SOL     OW17965   0.109   2.323   1.698
 5689SOL    HW117966   0.170   2.388   1.653
 5689SOL    HW217967   0.022   2.319   1.649
 5690SOL     OW17968   2.311   5.263   0.003
 5690SOL    HW117969   2.285   5.343   6.973
 5690SOL    HW217970   2.235   5.238   0.063
 5691SOL     OW17971   3.826   1.538   3.121
 5691SOL    HW117972   3.777   1.534   3.034
 5691SOL    HW217973   3.915   1.580   3.107
 5692SOL     OW17974   5.641   5.138   1.995
 5692SOL    HW117975   5.669   5.125   1.900
 5692SOL    HW217976   5.610   5.232   2.008
 5693SOL     OW17977   3.962   0.878   1.242
 5693SOL    HW117978   3.942   0.889   1.144
 5693SOL    HW217979   3.902   0.939   1.295
 5694SOL     OW17980   1.113   6.946   1.200
 5694SOL    HW117981   1.176   6.896   1.140
 5694SOL    HW217982   1.145   6.938   1.295
 5695SOL     OW17983   2.361   0.383   1.768
 5695SOL    HW117984   2.263   0.403   1.776
 5695SOL    HW217985   2.406   0.399   1.856
 5696SOL     OW17986   1.363   0.363   4.331
 5696SOL    HW117987   1.456   0.397   4.324
 5696SOL    HW217988   1.348   0.290   4.264
 5697SOL     OW17989   6.546   2.923   1.114
 5697SOL    HW117990   6.565   3.014   1.151
 5697SOL    HW217991   6.456   2.923   1.071
 5698SOL     OW17992   3.029   1.996   4.401
 5698SOL    HW117993   3.111   2.036   4.359
 5698SOL    HW217994   3.025   1.898   4.380
 5699SOL     OW17995   1.914   2.875   2.591
 5699SOL    HW117996   1.938   2.885   2.494
 5699SOL    HW217997   1.997   2.857   2.643
 5700SOL     OW17998   6.368   0.191   3.014
 5700SOL    HW117999   6.341   0.104   2.974
 5700SOL    HW218000   6.400   0.253   2.942
 5701SOL     OW18001   0.384   0.044   0.670
 5701SOL    HW118002   0.416   6.990   0.618
 5701SOL    HW218003   0.431   0.048   0.758
 5702SOL     OW18004   2.459   6.979   4.963
 5702SOL    HW118005   2.422   7.012   4.876
 5702SOL    HW218006   2.407   6.899   4.992
 5703SOL     OW18007   0.542   3.218   6.163
 5703SOL    HW118008   0.534   3.130   6.209
 5703SOL    HW218009   0.457   3.270   6.173
 5704SOL     OW18010   3.930   5.687   4.228
 5704SOL    HW118011   3.923   5.610   4.164
 5704SOL    HW218012   3.841   5.703   4.270
 5705SOL     OW18013   6.122   0.459   5.838
 5705SOL    HW118014   6.158   0.376   5.794
 5705SOL    HW218015   6.085   0.436   5.928
 5706SOL     OW18016   4.681   2.030   0.420
 5706SOL    HW118017   4.605   2.094   0.405
 5706SOL    HW218018   4.659   1.942   0.377
 5707SOL     OW18019   5.493   5.659   1.647
 5707SOL    HW118020   5.471   5.633   1.552
 5707SOL    HW218021   5.416   5.634   1.706
 5708SOL     OW18022   5.195   6.694   2.242
 5708SOL    HW118023   5.255   6.619   2.216
 5708SOL    HW218024   5.162   6.679   2.336
 5709SOL     OW18025   0.237   2.205   2.598
 5709SOL    HW118026   0.264   2.301   2.605
 5709SOL    HW218027   0.176   2.182   2.674
 5710SOL     OW18028   3.533   2.322   0.648
 5710SOL    HW118029   3.437   2.334   0.674
 5710SOL    HW218030   3.581   2.271   0.719
 5711SOL     OW18031   5.534   2.194   2.838
 5711SOL    HW118032   5.605   2.213   2.905
 5711SOL    HW218033   5.528   2.095   2.823
 5712SOL     OW18034   6.517   0.326   0.538
 5712SOL    HW118035   6.503   0.424   0.549
 5712SOL    HW218036   6.551   0.287   0.624
 5713SOL     OW18037   2.253   1.299   0.398
 5713SOL    HW118038   2.215   1.210   0.423
 5713SOL    HW218039   2.336   1.316   0.452
 5714SOL     OW18040   6.295   0.370   0.778
 5714SOL    HW118041   6.388   0.337   0.791
 5714SOL    HW218042   6.246   0.310   0.716
 5715SOL     OW18043   0.555   0.325   2.338
 5715SOL    HW118044   0.604   0.400   2.384
 5715SOL    HW218045   0.614   0.287   2.266
 5716SOL     OW18046   6.029   4.505   5.065
 5716SOL    HW118047   6.059   4.598   5.083
 5716SOL    HW218048   5.980   4.470   5.146
 5717SOL     OW18049   1.463   5.259   3.140
 5717SOL    HW118050   1.549   5.308   3.155
 5717SOL    HW218051   1.483   5.165   3.112
 5718SOL     OW18052   1.095   3.098   0.002
 5718SOL    HW118053   1.125   3.170   0.065
 5718SOL    HW218054   1.025   3.042   0.046
 5719SOL     OW18055   2.443   3.207   0.624
 5719SOL    HW118056   2.413   3.252   0.540
 5719SOL    HW218057   2.540   3.227   0.640
 5720SOL     OW18058   3.083   4.897   5.864
 5720SOL    HW118059   3.000   4.937   5.904
 5720SOL    HW218060   3.086   4.800   5.885
 5721SOL     OW18061   1.551   3.106   6.928
 5721SOL    HW118062   1.566   3.033   6.994
 5721SOL    HW218063   1.637   3.154   6.911
 5722SOL     OW18064   1.154   0.516   6.930
 5722SOL    HW118065   1.217   0.571   6.985
 5722SOL    HW218066   1.172   0.419   6.946
 5723SOL     OW18067   3.976   3.096   0.845
 5723SOL    HW118068   3.945   3.048   0.926
 5723SOL    HW218069   4.075   3.111   0.849
 5724SOL     OW18070   5.483   2.537   5.805
 5724SOL    HW118071   5.384   2.525   5.812
 5724SOL    HW218072   5.529   2.470   5.863
 5725SOL     OW18073   0.312   4.311   4.997
 5725SOL    HW118074   0.275   4.402   4.980
 5725SOL    HW218075   0.300   4.254   4.915
 5726SOL     OW18076   5.525   4.475   2.441
 5726SOL    HW118077   5.566   4.442   2.356
 5726SOL    HW218078   5.430   4.445   2.447
 5727SOL     OW18079   0.661   2.331   5.123
 5727SOL    HW118080   0.677   2.236   5.151
 5727SOL    HW218081   0.587   2.335   5.057
 5728SOL     OW18082   4.702   0.141   5.134
 5728SOL    HW118083   4.657   0.098   5.056
 5728SOL    HW218084   4.759   0.074   5.181
 5729SOL     OW18085   2.780   1.972   4.536
 5729SOL    HW118086   2.868   2.019   4.540
 5729SOL    HW218087   2.712   2.023   4.588
 5730SOL     OW18088   6.930   4.525   4.898
 5730SOL    HW118089   6.835   4.555   4.908
 5730SOL    HW218090   6.934   4.446   4.836
 5731SOL     OW18091   0.959   6.631   3.060
 5731SOL    HW118092   0.938   6.627   2.963
 5731SOL    HW218093   0.995   6.722   3.083
 5732SOL     OW18094   6.895   0.372   3.301
 5732SOL    HW118095   6.938   0.330   3.380
 5732SOL    HW218096   6.965   0.397   3.234
 5733SOL     OW18097   3.201   0.035   5.713
 5733SOL    HW118098   3.214   0.114   5.652
 5733SOL    HW218099   3.290   7.020   5.735
 5734SOL     OW18100   1.765   6.904   3.714
 5734SOL    HW118101   1.834   6.931   3.780
 5734SOL    HW218102   1.739   6.983   3.658
 5735SOL     OW18103   2.959   0.856   2.244
 5735SOL    HW118104   2.863   0.843   2.221
 5735SOL    HW218105   3.015   0.851   2.161
 5736SOL     OW18106   1.315   5.541   6.938
 5736SOL    HW118107   1.336   5.453   6.980
 5736SOL    HW218108   1.399   5.591   6.920
 5737SOL     OW18109   5.437   4.382   0.558
 5737SOL    HW118110   5.347   4.359   0.594
 5737SOL    HW218111   5.484   4.299   0.529
 5738SOL     OW18112   1.359   4.263   5.897
 5738SOL    HW118113   1.272   4.312   5.889
 5738SOL    HW218114   1.349   4.171   5.857
 5739SOL     OW18115   1.213   2.341   1.681
 5739SOL    HW118116   1.141   2.271   1.677
 5739SOL    HW218117   1.298   2.302   1.647
 5740SOL     OW18118   3.620   5.857   6.407
 5740SOL    HW118119   3.635   5.876   6.504
 5740SOL    HW218120   3.651   5.765   6.385
 5741SOL     OW18121   0.010   4.404   2.114
 5741SOL    HW118122   6.969   4.339   2.151
 5741SOL    HW218123   0.007   4.489   2.167
 5742SOL     OW18124   0.015   6.062   4.332
 5742SOL    HW118125   0.095   6.007   4.311
 5742SOL    HW218126   0.043   6.154   4.357
 5743SOL     OW18127   1.647   6.634   4.246
 5743SOL    HW118128   1.609   6.554   4.293
 5743SOL    HW218129   1.640   6.714   4.305
 5744SOL     OW18130   5.787   7.011   2.050
 5744SOL    HW118131   5.816   6.919   2.023
 5744SOL    HW218132   5.846   0.054   2.005
 5745SOL     OW18133   1.566   2.489   3.513
 5745SOL    HW118134   1.630   2.452   3.579
 5745SOL    HW218135   1.504   2.417   3.482
 5746SOL     OW18136   6.338   4.827   6.919
 5746SOL    HW118137   6.358   4.833   7.017
 5746SOL    HW218138   6.279   4.748   6.903
 5747SOL     OW18139   0.694   6.342   2.729
 5747SOL    HW118140   0.735   6.389   2.650
 5747SOL    HW218141   0.606   6.302   2.702
 5748SOL     OW18142   2.198   6.770   3.459
 5748SOL    HW118143   2.190   6.870   3.462
 5748SOL    HW218144   2.123   6.732   3.405
 5749SOL     OW18145   2.395   1.192   2.787
 5749SOL    HW118146   2.481   1.153   2.821
 5749SOL    HW218147   2.320   1.129   2.804
 5750SOL     OW18148   6.083   5.762   2.385
 5750SOL    HW118149   6.151   5.735   2.454
 5750SOL    HW218150   6.111   5.848   2.343
 5751SOL     OW18151   1.173   3.186   6.236
 5751SOL    HW118152   1.109   3.185   6.159
 5751SOL    HW218153   1.188   3.280   6.266
 5752SOL     OW18154   0.435   1.161   6.695
 5752SOL    HW118155   0.445   1.150   6.793
 5752SOL    HW218156   0.358   1.222   6.675
 5753SOL     OW18157   4.553   1.831   0.865
 5753SOL    HW118158   4.573   1.761   0.796
 5753SOL    HW218159   4.487   1.795   0.931
 5754SOL     OW18160   6.295   5.164   0.500
 5754SOL    HW118161   6.235   5.093   0.464
 5754SOL    HW218162   6.241   5.244   0.527
 5755SOL     OW18163   3.064   3.572   1.364
 5755SOL    HW118164   3.062   3.609   1.271
 5755SOL    HW218165   2.975   3.529   1.384
 5756SOL     OW18166   7.025   6.648   4.390
 5756SOL    HW118167   6.928   6.656   4.365
 5756SOL    HW218168   0.056   6.698   4.324
 5757SOL     OW18169   0.292   6.555   2.111
 5757SOL    HW118170   0.270   6.480   2.173
 5757SOL    HW218171   0.318   6.636   2.164
 5758SOL     OW18172   2.161   1.334   5.756
 5758SOL    HW118173   2.064   1.345   5.779
 5758SOL    HW218174   2.193   1.247   5.793
 5759SOL     OW18175   0.410   1.725   5.461
 5759SOL    HW118176   0.434   1.723   5.558
 5759SOL    HW218177   0.469   1.662   5.411
 5760SOL     OW18178   1.242   5.069   1.811
 5760SOL    HW118179   1.154   5.097   1.773
 5760SOL    HW218180   1.301   5.149   1.822
 5761SOL     OW18181   5.684   0.422   4.457
 5761SOL    HW118182   5.712   0.395   4.549
 5761SOL    HW218183   5.607   0.486   4.463
 5762SOL     OW18184   5.687   6.393   1.607
 5762SOL    HW118185   5.777   6.355   1.587
 5762SOL    HW218186   5.619   6.320   1.608
 5763SOL     OW18187   1.000   1.171   1.163
 5763SOL    HW118188   1.014   1.248   1.101
 5763SOL    HW218189   1.086   1.122   1.175
 5764SOL     OW18190   4.408   2.755   6.092
 5764SOL    HW118191   4.502   2.750   6.058
 5764SOL    HW218192   4.396   2.688   6.164
 5765SOL     OW18193   6.593   5.699   0.171
 5765SOL    HW118194   6.671   5.643   0.143
 5765SOL    HW218195   6.542   5.729   0.090
 5766SOL     OW18196   3.109   1.130   3.362
 5766SOL    HW118197   3.136   1.223   3.387
 5766SOL    HW218198   3.149   1.066   3.428
 5767SOL     OW18199   6.241   0.606   0.877
 5767SOL    HW118200   6.212   0.665   0.802
 5767SOL    HW218201   6.273   0.519   0.840
 5768SOL     OW18202   6.167   0.868   2.560
 5768SOL    HW118203   6.081   0.908   2.528
 5768SOL    HW218204   6.183   0.781   2.512
 5769SOL     OW18205   2.011   5.732   3.638
 5769SOL    HW118206   1.917   5.702   3.654
 5769SOL    HW218207   2.065   5.716   3.720
 5770SOL     OW18208   5.695   1.618   1.763
 5770SOL    HW118209   5.774   1.673   1.791
 5770SOL    HW218210   5.671   1.640   1.669
 5771SOL     OW18211   0.155   1.054   0.821
 5771SOL    HW118212   0.208   1.037   0.738
 5771SOL    HW218213   0.067   1.095   0.797
 5772SOL     OW18214   6.764   4.388   6.464
 5772SOL    HW118215   6.774   4.291   6.438
 5772SOL    HW218216   6.693   4.396   6.533
 5773SOL     OW18217   5.208   6.240   5.043
 5773SOL    HW118218   5.228   6.143   5.056
 5773SOL    HW218219   5.132   6.250   4.980
 5774SOL     OW18220   2.736   4.781   2.724
 5774SOL    HW118221   2.675   4.718   2.674
 5774SOL    HW218222   2.770   4.851   2.661
 5775SOL     OW18223   0.714   0.385   0.587
 5775SOL    HW118224   0.790   0.423   0.641
 5775SOL    HW218225   0.718   0.421   0.494
 5776SOL     OW18226   4.333   1.218   5.887
 5776SOL    HW118227   4.360   1.186   5.796
 5776SOL    HW218228   4.347   1.317   5.893
 5777SOL     OW18229   5.539   0.564   5.591
 5777SOL    HW118230   5.563   0.648   5.639
 5777SOL    HW218231   5.488   0.504   5.652
 5778SOL     OW18232   2.783   6.469   4.112
 5778SOL    HW118233   2.771   6.568   4.100
 5778SOL    HW218234   2.871   6.453   4.158
 5779SOL     OW18235   4.762   0.206   0.838
 5779SOL    HW118236   4.688   0.148   0.874
 5779SOL    HW218237   4.850   0.167   0.864
 5780SOL     OW18238   5.673   3.806   0.554
 5780SOL    HW118239   5.671   3.821   0.455
 5780SOL    HW218240   5.726   3.724   0.574
 5781SOL     OW18241   3.034   4.521   5.348
 5781SOL    HW118242   2.976   4.542   5.269
 5781SOL    HW218243   2.987   4.548   5.432
 5782SOL     OW18244   4.187   1.912   3.165
 5782SOL    HW118245   4.165   1.953   3.253
 5782SOL    HW218246   4.286   1.897   3.159
 5783SOL     OW18247   2.601   6.893   1.963
 5783SOL    HW118248   2.615   6.793   1.966
 5783SOL    HW218249   2.542   6.920   2.038
 5784SOL     OW18250   1.122   5.761   6.971
 5784SOL    HW118251   1.208   5.813   6.980
 5784SOL    HW218252   1.135   5.670   7.010
 5785SOL     OW18253   1.888   1.970   6.884
 5785SOL    HW118254   1.870   1.994   6.980
 5785SOL    HW218255   1.894   1.871   6.875
 5786SOL     OW18256   0.470   2.334   6.173
 5786SOL    HW118257   0.566   2.333   6.144
 5786SOL    HW218258   0.426   2.417   6.138
 5787SOL     OW18259   0.157   2.846   5.365
 5787SOL    HW118260   0.148   2.795   5.280
 5787SOL    HW218261   0.199   2.788   5.435
 5788SOL     OW18262   0.765   2.372   1.691
 5788SOL    HW118263   0.756   2.356   1.790
 5788SOL    HW218264   0.858   2.350   1.662
 5789SOL     OW18265   2.957   5.329   6.639
 5789SOL    HW118266   2.969   5.291   6.548
 5789SOL    HW218267   2.922   5.258   6.700
 5790SOL     OW18268   6.542   6.207   2.573
 5790SOL    HW118269   6.497   6.227   2.486
 5790SOL    HW218270   6.522   6.281   2.638
 5791SOL     OW18271   3.735   1.070   1.133
 5791SOL    HW118272   3.779   1.100   1.218
 5791SOL    HW218273   3.712   0.973   1.141
 5792SOL     OW18274   4.609   2.461   2.600
 5792SOL    HW118275   4.571   2.546   2.635
 5792SOL    HW218276   4.595   2.456   2.501
 5793SOL     OW18277   3.461   1.890   0.038
 5793SOL    HW118278   3.517   1.945   0.099
 5793SOL    HW218279   3.508   1.803   0.019
 5794SOL     OW18280   3.516   5.881   6.698
 5794SOL    HW118281   3.559   5.847   6.782
 5794SOL    HW218282   3.420   5.855   6.697
 5795SOL     OW18283   1.193   0.034   0.864
 5795SOL    HW118284   1.196   6.997   0.786
 5795SOL    HW218285   1.105   0.025   0.911
 5796SOL     OW18286   4.458   1.078   6.335
 5796SOL    HW118287   4.398   1.155   6.357
 5796SOL    HW218288   4.551   1.097   6.365
 5797SOL     OW18289   6.995   2.550   0.028
 5797SOL    HW118290   0.055   2.537   0.079
 5797SOL    HW218291   6.945   2.464   0.024
 5798SOL     OW18292   1.887   2.571   4.337
 5798SOL    HW118293   1.903   2.577   4.239
 5798SOL    HW218294   1.789   2.563   4.355
 5799SOL     OW18295   2.633   0.268   3.639
 5799SOL    HW118296   2.613   0.354   3.592
 5799SOL    HW218297   2.727   0.240   3.619
 5800SOL     OW18298   1.259   6.371   2.359
 5800SOL    HW118299   1.203   6.324   2.290
 5800SOL    HW218300   1.323   6.432   2.313
 5801SOL     OW18301   1.748   1.573   2.614
 5801SOL    HW118302   1.698   1.639   2.671
 5801SOL    HW218303   1.843   1.603   2.605
 5802SOL     OW18304   0.815   7.006   3.227
 5802SOL    HW118305   0.869   6.945   3.169
 5802SOL    HW218306   0.857   7.011   3.318
 5803SOL     OW18307   0.392   6.437   4.825
 5803SOL    HW118308   0.396   6.502   4.749
 5803SOL    HW218309   0.428   6.349   4.794
 5804SOL     OW18310   6.786   2.052   3.367
 5804SOL    HW118311   6.699   2.007   3.388
 5804SOL    HW218312   6.861   1.995   3.399
 5805SOL     OW18313   1.153   2.542   1.870
 5805SOL    HW118314   1.186   2.453   1.840
 5805SOL    HW218315   1.058   2.533   1.900
 5806SOL     OW18316   6.757   3.866   1.849
 5806SOL    HW118317   6.847   3.827   1.831
 5806SOL    HW218318   6.712   3.815   1.922
 5807SOL     OW18319   1.129   1.497   2.163
 5807SOL    HW118320   1.032   1.509   2.144
 5807SOL    HW218321   1.148   1.400   2.182
 5808SOL     OW18322   6.863   0.555   5.372
 5808SOL    HW118323   6.784   0.510   5.412
 5808SOL    HW218324   6.938   0.557   5.439
 5809SOL     OW18325   0.128   3.828   4.387
 5809SOL    HW118326   0.162   3.853   4.296
 5809SOL    HW218327   0.194   3.766   4.430
 5810SOL     OW18328   1.935   6.350   5.538
 5810SOL    HW118329   1.991   6.338   5.456
 5810SOL    HW218330   1.917   6.447   5.554
 5811SOL     OW18331   3.781   5.021   6.748
 5811SOL    HW118332   3.838   4.939   6.754
 5811SOL    HW218333   3.709   5.006   6.680
 5812SOL     OW18334   6.369   3.436   6.373
 5812SOL    HW118335   6.424   3.356   6.399
 5812SOL    HW218336   6.294   3.448   6.438
 5813SOL     OW18337   5.276   4.371   0.810
 5813SOL    HW118338   5.336   4.360   0.889
 5813SOL    HW218339   5.286   4.464   0.773
 5814SOL     OW18340   5.929   1.143   2.583
 5814SOL    HW118341   6.028   1.136   2.582
 5814SOL    HW218342   5.900   1.190   2.666
 5815SOL     OW18343   6.684   3.531   4.530
 5815SOL    HW118344   6.696   3.621   4.490
 5815SOL    HW218345   6.760   3.511   4.592
 5816SOL     OW18346   6.905   4.070   1.351
 5816SOL    HW118347   6.944   4.128   1.423
 5816SOL    HW218348   6.806   4.068   1.360
 5817SOL     OW18349   6.843   2.813   3.750
 5817SOL    HW118350   6.859   2.719   3.779
 5817SOL    HW218351   6.874   2.876   3.820
 5818SOL     OW18352   2.901   0.629   4.768
 5818SOL    HW118353   2.967   0.594   4.835
 5818SOL    HW218354   2.934   0.609   4.676
 5819SOL     OW18355   4.533   4.168   1.206
 5819SOL    HW118356   4.622   4.213   1.191
 5819SOL    HW218357   4.547   4.070   1.218
 5820SOL     OW18358   0.040   6.929   3.071
 5820SOL    HW118359   0.006   6.921   3.165
 5820SOL    HW218360   0.138   6.948   3.073
 5821SOL     OW18361   6.462   6.707   1.845
 5821SOL    HW118362   6.467   6.761   1.761
 5821SOL    HW218363   6.440   6.612   1.821
 5822SOL     OW18364   0.329   3.764   2.349
 5822SOL    HW118365   0.397   3.832   2.322
 5822SOL    HW218366   0.356   3.674   2.315
 5823SOL     OW18367   2.295   6.782   5.067
 5823SOL    HW118368   2.200   6.775   5.036
 5823SOL    HW218369   2.332   6.690   5.081
 5824SOL     OW18370   1.917   6.629   2.167
 5824SOL    HW118371   1.965   6.559   2.115
 5824SOL    HW218372   1.967   6.716   2.159
 5825SOL     OW18373   4.473   1.997   4.792
 5825SOL    HW118374   4.390   2.042   4.826
 5825SOL    HW218375   4.492   2.027   4.699
 5826SOL     OW18376   1.465   6.122   4.852
 5826SOL    HW118377   1.520   6.154   4.775
 5826SOL    HW218378   1.444   6.200   4.912
 5827SOL     OW18379   2.126   3.662   3.180
 5827SOL    HW118380   2.078   3.585   3.222
 5827SOL    HW218381   2.160   3.723   3.252
 5828SOL     OW18382   4.452   0.326   5.756
 5828SOL    HW118383   4.380   0.395   5.766
 5828SOL    HW218384   4.504   0.345   5.672
 5829SOL     OW18385   2.057   0.204   2.908
 5829SOL    HW118386   2.138   0.147   2.891
 5829SOL    HW218387   1.992   0.192   2.833
 5830SOL     OW18388   4.241   5.316   4.636
 5830SOL    HW118389   4.207   5.400   4.677
 5830SOL    HW218390   4.165   5.266   4.593
 5831SOL     OW18391   2.497   2.579   4.585
 5831SOL    HW118392   2.449   2.496   4.559
 5831SOL    HW218393   2.482   2.649   4.515
 5832SOL     OW18394   2.685   5.522   3.929
 5832SOL    HW118395   2.642   5.432   3.916
 5832SOL    HW218396   2.614   5.592   3.935
 5833SOL     OW18397   3.358   5.129   0.888
 5833SOL    HW118398   3.401   5.039   0.897
 5833SOL    HW218399   3.265   5.119   0.855
 5834SOL     OW18400   6.757   2.723   6.127
 5834SOL    HW118401   6.720   2.762   6.211
 5834SOL    HW218402   6.693   2.736   6.052
 5835SOL     OW18403   4.078   1.552   3.675
 5835SOL    HW118404   4.178   1.559   3.684
 5835SOL    HW218405   4.056   1.488   3.601
 5836SOL     OW18406   4.819   6.046   1.303
 5836SOL    HW118407   4.828   6.057   1.204
 5836SOL    HW218408   4.723   6.047   1.328
 5837SOL     OW18409   2.916   4.087   0.108
 5837SOL    HW118410   2.961   4.145   0.040
 5837SOL    HW218411   2.880   4.144   0.182
 5838SOL     OW18412   3.350   3.514   6.843
 5838SOL    HW118413   3.362   3.572   6.923
 5838SOL    HW218414   3.293   3.435   6.866
 5839SOL     OW18415   1.754   1.571   0.577
 5839SOL    HW118416   1.691   1.534   0.510
 5839SOL    HW218417   1.848   1.546   0.552
 5840SOL     OW18418   1.018   3.542   2.990
 5840SOL    HW118419   1.026   3.542   3.090
 5840SOL    HW218420   1.076   3.613   2.952
 5841SOL     OW18421   5.048   1.557   0.830
 5841SOL    HW118422   5.084   1.644   0.863
 5841SOL    HW218423   4.952   1.568   0.805
 5842SOL     OW18424   3.289   2.065   2.342
 5842SOL    HW118425   3.234   2.064   2.426
 5842SOL    HW218426   3.231   2.089   2.265
 5843SOL     OW18427   3.418   3.182   0.638
 5843SOL    HW118428   3.384   3.110   0.577
 5843SOL    HW218429   3.501   3.222   0.598
 5844SOL     OW18430   0.792   5.529   5.111
 5844SOL    HW118431   0.859   5.599   5.136
 5844SOL    HW218432   0.832   5.438   5.127
 5845SOL     OW18433   1.768   6.747   2.563
 5845SOL    HW118434   1.848   6.806   2.557
 5845SOL    HW218435   1.689   6.793   2.522
 5846SOL     OW18436   0.912   4.845   5.440
 5846SOL    HW118437   0.915   4.913   5.367
 5846SOL    HW218438   0.863   4.764   5.409
 5847SOL     OW18439   1.666   4.470   6.480
 5847SOL    HW118440   1.670   4.563   6.516
 5847SOL    HW218441   1.705   4.468   6.388
 5848SOL     OW18442   2.369   6.879   2.124
 5848SOL    HW118443   2.348   6.892   2.221
 5848SOL    HW218444   2.353   6.784   2.098
 5849SOL     OW18445   2.748   5.513   6.482
 5849SOL    HW118446   2.730   5.563   6.566
 5849SOL    HW218447   2.746   5.576   6.404
 5850SOL     OW18448   6.688   1.094   1.782
 5850SOL    HW118449   6.687   1.093   1.682
 5850SOL    HW218450   6.765   1.040   1.815
 5851SOL     OW18451   6.972   3.786   4.853
 5851SOL    HW118452   6.938   3.805   4.761
 5851SOL    HW218453   0.036   3.740   4.846
 5852SOL     OW18454   4.837   4.244   2.566
 5852SOL    HW118455   4.831   4.325   2.625
 5852SOL    HW218456   4.767   4.249   2.495
 5853SOL     OW18457   4.806   5.106   0.292
 5853SOL    HW118458   4.746   5.095   0.213
 5853SOL    HW218459   4.891   5.151   0.264
 5854SOL     OW18460   2.963   4.611   5.619
 5854SOL    HW118461   2.989   4.699   5.580
 5854SOL    HW218462   3.005   4.601   5.710
 5855SOL     OW18463   2.196   2.432   4.065
 5855SOL    HW118464   2.241   2.510   4.108
 5855SOL    HW218465   2.265   2.367   4.033
 5856SOL     OW18466   0.668   0.434   3.037
 5856SOL    HW118467   0.629   0.513   3.085
 5856SOL    HW218468   0.754   0.408   3.081
 5857SOL     OW18469   5.623   5.166   0.118
 5857SOL    HW118470   5.618   5.069   0.096
 5857SOL    HW218471   5.642   5.218   0.035
 5858SOL     OW18472   1.941   1.305   2.380
 5858SOL    HW118473   1.994   1.390   2.374
 5858SOL    HW218474   1.949   1.255   2.294
 5859SOL     OW18475   5.423   5.055   1.741
 5859SOL    HW118476   5.504   5.114   1.752
 5859SOL    HW218477   5.390   5.027   1.832
 5860SOL     OW18478   1.368   3.426   2.966
 5860SOL    HW118479   1.341   3.458   2.875
 5860SOL    HW218480   1.468   3.419   2.971
 5861SOL     OW18481   5.688   0.603   5.351
 5861SOL    HW118482   5.634   0.576   5.431
 5861SOL    HW218483   5.769   0.653   5.382
 5862SOL     OW18484   6.615   4.577   2.910
 5862SOL    HW118485   6.539   4.615   2.962
 5862SOL    HW218486   6.676   4.652   2.881
 5863SOL     OW18487   4.116   0.241   6.045
 5863SOL    HW118488   4.170   0.309   6.094
 5863SOL    HW218489   4.029   0.226   6.093
 5864SOL     OW18490   4.020   3.265   2.539
 5864SOL    HW118491   4.021   3.205   2.459
 5864SOL    HW218492   3.931   3.258   2.584
 5865SOL     OW18493   6.673   6.819   0.967
 5865SOL    HW118494   6.583   6.811   1.009
 5865SOL    HW218495   6.663   6.815   0.867
 5866SOL     OW18496   3.781   3.315   3.150
 5866SOL    HW118497   3.818   3.310   3.242
 5866SOL    HW218498   3.850   3.282   3.085
 5867SOL     OW18499   3.428   1.678   1.519
 5867SOL    HW118500   3.334   1.690   1.552
 5867SOL    HW218501   3.428   1.613   1.443
 5868SOL     OW18502   1.667   0.521   0.632
 5868SOL    HW118503   1.653   0.620   0.627
 5868SOL    HW218504   1.764   0.501   0.620
 5869SOL     OW18505   1.472   5.603   2.619
 5869SOL    HW118506   1.547   5.649   2.572
 5869SOL    HW218507   1.509   5.554   2.699
 5870SOL     OW18508   4.512   0.637   3.659
 5870SOL    HW118509   4.558   0.722   3.634
 5870SOL    HW218510   4.571   0.583   3.718
 5871SOL     OW18511   4.128   3.340   3.933
 5871SOL    HW118512   4.095   3.344   4.027
 5871SOL    HW218513   4.109   3.250   3.895
 5872SOL     OW18514   4.529   6.131   1.022
 5872SOL    HW118515   4.487   6.147   1.112
 5872SOL    HW218516   4.488   6.192   0.955
 5873SOL     OW18517   3.951   6.109   2.247
 5873SOL    HW118518   4.003   6.032   2.282
 5873SOL    HW218519   4.001   6.153   2.173
 5874SOL     OW18520   0.588   4.712   5.244
 5874SOL    HW118521   0.670   4.725   5.188
 5874SOL    HW218522   0.521   4.784   5.223
 5875SOL     OW18523   3.721   1.982   1.146
 5875SOL    HW118524   3.700   2.080   1.142
 5875SOL    HW218525   3.807   1.969   1.196
 5876SOL     OW18526   3.245   3.456   2.033
 5876SOL    HW118527   3.277   3.503   2.116
 5876SOL    HW218528   3.323   3.437   1.974
 5877SOL     OW18529   5.245   4.247   1.585
 5877SOL    HW118530   5.253   4.281   1.491
 5877SOL    HW218531   5.157   4.201   1.596
 5878SOL     OW18532   1.848   3.704   2.597
 5878SOL    HW118533   1.870   3.792   2.556
 5878SOL    HW218534   1.924   3.675   2.656
 5879SOL     OW18535   1.777   3.545   4.139
 5879SOL    HW118536   1.740   3.485   4.210
 5879SOL    HW218537   1.870   3.515   4.115
 5880SOL     OW18538   3.262   5.909   0.021
 5880SOL    HW118539   3.295   5.923   0.115
 5880SOL    HW218540   3.325   5.952   6.982
 5881SOL     OW18541   1.561   6.440   4.387
 5881SOL    HW118542   1.502   6.360   4.372
 5881SOL    HW218543   1.656   6.410   4.390
 5882SOL     OW18544   5.430   0.465   3.057
 5882SOL    HW118545   5.345   0.418   3.034
 5882SOL    HW218546   5.507   0.402   3.050
 5883SOL     OW18547   0.739   3.489   5.359
 5883SOL    HW118548   0.701   3.559   5.299
 5883SOL    HW218549   0.731   3.519   5.455
 5884SOL     OW18550   0.565   0.645   3.156
 5884SOL    HW118551   0.498   0.634   3.229
 5884SOL    HW218552   0.651   0.681   3.195
 5885SOL     OW18553   5.644   6.479   0.982
 5885SOL    HW118554   5.572   6.437   0.928
 5885SOL    HW218555   5.669   6.419   1.058
 5886SOL     OW18556   6.247   1.769   6.324
 5886SOL    HW118557   6.185   1.796   6.398
 5886SOL    HW218558   6.341   1.792   6.349
 5887SOL     OW18559   4.048   5.861   2.417
 5887SOL    HW118560   4.107   5.824   2.489
 5887SOL    HW218561   3.953   5.859   2.447
 5888SOL     OW18562   6.814   0.315   2.631
 5888SOL    HW118563   6.738   0.250   2.624
 5888SOL    HW218564   6.821   0.367   2.546
 5889SOL     OW18565   2.401   7.005   6.497
 5889SOL    HW118566   2.451   0.066   6.510
 5889SOL    HW218567   2.461   6.938   6.453
 5890SOL     OW18568   3.844   5.113   6.017
 5890SOL    HW118569   3.892   5.050   6.078
 5890SOL    HW218570   3.757   5.073   5.990
 5891SOL     OW18571   2.202   3.481   6.342
 5891SOL    HW118572   2.255   3.445   6.266
 5891SOL    HW218573   2.248   3.562   6.379
 5892SOL     OW18574   2.026   6.374   2.665
 5892SOL    HW118575   2.085   6.297   2.642
 5892SOL    HW218576   2.069   6.429   2.738
 5893SOL     OW18577   2.244   1.911   3.149
 5893SOL    HW118578   2.185   1.881   3.223
 5893SOL    HW218579   2.315   1.842   3.132
 5894SOL     OW18580   1.173   3.234   3.579
 5894SOL    HW118581   1.247   3.204   3.640
 5894SOL    HW218582   1.123   3.154   3.546
 5895SOL     OW18583   5.860   3.754   3.354
 5895SOL    HW118584   5.956   3.767   3.378
 5895SOL    HW218585   5.853   3.686   3.281
 5896SOL     OW18586   5.725   2.933   6.012
 5896SOL    HW118587   5.794   3.006   6.013
 5896SOL    HW218588   5.754   2.861   5.949
 5897SOL     OW18589   4.599   5.097   0.901
 5897SOL    HW118590   4.668   5.118   0.971
 5897SOL    HW218591   4.520   5.054   0.944
 5898SOL     OW18592   2.752   6.608   3.100
 5898SOL    HW118593   2.753   6.593   3.199
 5898SOL    HW218594   2.843   6.640   3.071
 5899SOL     OW18595   5.516   0.467   3.783
 5899SOL    HW118596   5.546   0.556   3.750
 5899SOL    HW218597   5.516   0.467   3.883
 5900SOL     OW18598   3.676   5.194   1.890
 5900SOL    HW118599   3.581   5.164   1.880
 5900SOL    HW218600   3.707   5.173   1.983
 5901SOL     OW18601   3.045   6.203   4.801
 5901SOL    HW118602   3.124   6.226   4.858
 5901SOL    HW218603   3.053   6.251   4.713
 5902SOL     OW18604   5.950   2.246   0.152
 5902SOL    HW118605   5.903   2.219   0.068
 5902SOL    HW218606   5.888   2.234   0.230
 5903SOL     OW18607   0.319   3.106   6.379
 5903SOL    HW118608   0.299   3.187   6.323
 5903SOL    HW218609   0.351   3.032   6.319
 5904SOL     OW18610   1.190   3.507   2.488
 5904SOL    HW118611   1.247   3.449   2.429
 5904SOL    HW218612   1.094   3.495   2.463
 5905SOL     OW18613   0.182   4.726   2.619
 5905SOL    HW118614   0.214   4.631   2.624
 5905SOL    HW218615   0.099   4.729   2.563
 5906SOL     OW18616   1.262   0.941   2.622
 5906SOL    HW118617   1.188   1.007   2.625
 5906SOL    HW218618   1.226   0.849   2.639
 5907SOL     OW18619   2.006   0.748   2.196
 5907SOL    HW118620   1.929   0.684   2.199
 5907SOL    HW218621   2.091   0.697   2.190
 5908SOL     OW18622   0.625   3.085   5.781
 5908SOL    HW118623   0.697   3.101   5.713
 5908SOL    HW218624   0.564   3.013   5.749
 5909SOL     OW18625   6.301   4.859   0.533
 5909SOL    HW118626   6.272   4.912   0.453
 5909SOL    HW218627   6.244   4.884   0.611
 5910SOL     OW18628   1.585   1.739   3.083
 5910SOL    HW118629   1.607   1.674   3.010
 5910SOL    HW218630   1.563   1.689   3.166
 5911SOL     OW18631   6.443   5.824   6.593
 5911SOL    HW118632   6.533   5.782   6.586
 5911SOL    HW218633   6.406   5.839   6.502
 5912SOL     OW18634   6.983   6.977   3.875
 5912SOL    HW118635   0.026   6.990   3.948
 5912SOL    HW218636   0.003   6.948   3.791
 5913SOL     OW18637   5.998   1.701   0.864
 5913SOL    HW118638   6.000   1.738   0.771
 5913SOL    HW218639   5.956   1.768   0.926
 5914SOL     OW18640   0.964   6.374   0.170
 5914SOL    HW118641   1.056   6.413   0.168
 5914SOL    HW218642   0.930   6.375   0.264
 5915SOL     OW18643   3.895   1.046   6.164
 5915SOL    HW118644   3.877   1.134   6.121
 5915SOL    HW218645   3.862   0.973   6.104
 5916SOL     OW18646   0.902   6.994   2.133
 5916SOL    HW118647   0.886   0.023   2.215
 5916SOL    HW218648   0.905   0.029   2.053
 5917SOL     OW18649   3.323   2.975   0.452
 5917SOL    HW118650   3.398   2.988   0.387
 5917SOL    HW218651   3.300   2.878   0.459
 5918SOL     OW18652   3.142   0.141   4.669
 5918SOL    HW118653   3.115   0.048   4.695
 5918SOL    HW218654   3.150   0.197   4.751
 5919SOL     OW18655   3.222   3.292   4.425
 5919SOL    HW118656   3.177   3.203   4.430
 5919SOL    HW218657   3.287   3.292   4.348
 5920SOL     OW18658   0.414   0.067   5.536
 5920SOL    HW118659   0.322   0.026   5.535
 5920SOL    HW218660   0.453   0.059   5.627
 5921SOL     OW18661   3.003   4.243   6.937
 5921SOL    HW118662   2.962   4.223   6.848
 5921SOL    HW218663   3.087   4.297   6.924
 5922SOL     OW18664   5.304   2.783   2.305
 5922SOL    HW118665   5.400   2.760   2.288
 5922SOL    HW218666   5.266   2.720   2.373
 5923SOL     OW18667   6.196   1.106   3.383
 5923SOL    HW118668   6.216   1.119   3.286
 5923SOL    HW218669   6.116   1.047   3.393
 5924SOL     OW18670   5.310   6.458   3.978
 5924SOL    HW118671   5.222   6.412   3.966
 5924SOL    HW218672   5.361   6.456   3.892
 5925SOL     OW18673   4.366   1.475   0.842
 5925SOL    HW118674   4.324   1.388   0.817
 5925SOL    HW218675   4.409   1.467   0.932
 5926SOL     OW18676   5.352   3.879   3.369
 5926SOL    HW118677   5.429   3.837   3.321
 5926SOL    HW218678   5.318   3.816   3.439
 5927SOL     OW18679   1.058   5.358   1.746
 5927SOL    HW118680   0.959   5.346   1.740
 5927SOL    HW218681   1.100   5.331   1.660
 5928SOL     OW18682   2.641   6.832   6.936
 5928SOL    HW118683   2.654   6.915   6.882
 5928SOL    HW218684   2.547   6.827   6.968
 5929SOL     OW18685   0.968   0.510   0.572
 5929SOL    HW118686   0.965   0.548   0.480
 5929SOL    HW218687   1.019   0.572   0.632
 5930SOL     OW18688   1.854   3.682   1.953
 5930SOL    HW118689   1.880   3.586   1.964
 5930SOL    HW218690   1.936   3.738   1.944
 5931SOL     OW18691   5.164   6.547   3.107
 5931SOL    HW118692   5.089   6.481   3.108
 5931SOL    HW218693   5.191   6.566   3.013
 5932SOL     OW18694   2.928   6.669   0.135
 5932SOL    HW118695   2.831   6.691   0.147
 5932SOL    HW218696   2.936   6.584   0.083
 5933SOL     OW18697   6.132   6.082   4.390
 5933SOL    HW118698   6.136   6.052   4.295
 5933SOL    HW218699   6.225   6.099   4.424
 5934SOL     OW18700   2.903   3.274   0.496
 5934SOL    HW118701   2.981   3.333   0.479
 5934SOL    HW218702   2.934   3.179   0.501
 5935SOL     OW18703   1.026   0.314   5.385
 5935SOL    HW118704   1.006   0.360   5.299
 5935SOL    HW218705   1.121   0.330   5.411
 5936SOL     OW18706   3.592   3.007   1.804
 5936SOL    HW118707   3.551   3.085   1.851
 5936SOL    HW218708   3.692   3.018   1.801
 5937SOL     OW18709   0.241   2.570   1.230
 5937SOL    HW118710   0.163   2.619   1.189
 5937SOL    HW218711   0.312   2.558   1.161
 5938SOL     OW18712   0.021   4.339   3.797
 5938SOL    HW118713   0.047   4.302   3.708
 5938SOL    HW218714   0.031   4.268   3.867
 5939SOL     OW18715   4.232   1.924   5.528
 5939SOL    HW118716   4.280   1.995   5.580
 5939SOL    HW218717   4.133   1.939   5.534
 5940SOL     OW18718   5.014   5.528   1.407
 5940SOL    HW118719   4.933   5.569   1.365
 5940SOL    HW218720   5.025   5.565   1.499
 5941SOL     OW18721   0.319   2.306   2.945
 5941SOL    HW118722   0.331   2.313   3.044
 5941SOL    HW218723   0.243   2.243   2.925
 5942SOL     OW18724   5.217   2.377   6.510
 5942SOL    HW118725   5.150   2.349   6.441
 5942SOL    HW218726   5.271   2.454   6.475
 5943SOL     OW18727   2.011   4.788   1.335
 5943SOL    HW118728   2.090   4.761   1.389
 5943SOL    HW218729   1.950   4.710   1.323
 5944SOL     OW18730   6.568   3.359   5.470
 5944SOL    HW118731   6.647   3.402   5.427
 5944SOL    HW218732   6.519   3.427   5.525
 5945SOL     OW18733   6.666   6.227   4.704
 5945SOL    HW118734   6.583   6.201   4.753
 5945SOL    HW218735   6.652   6.316   4.660
 5946SOL     OW18736   1.876   3.371   6.675
 5946SOL    HW118737   1.949   3.363   6.743
 5946SOL    HW218738   1.905   3.331   6.589
 5947SOL     OW18739   3.605   3.540   4.823
 5947SOL    HW118740   3.611   3.531   4.922
 5947SOL    HW218741   3.606   3.450   4.780
 5948SOL     OW18742   4.720   3.553   1.264
 5948SOL    HW118743   4.758   3.472   1.221
 5948SOL    HW218744   4.779   3.581   1.340
 5949SOL     OW18745   0.360   4.140   3.060
 5949SOL    HW118746   0.437   4.076   3.067
 5949SOL    HW218747   0.282   4.104   3.111
 5950SOL     OW18748   3.471   0.222   4.854
 5950SOL    HW118749   3.415   0.304   4.869
 5950SOL    HW218750   3.414   0.141   4.860
 5951SOL     OW18751   0.078   4.116   6.800
 5951SOL    HW118752   0.015   4.047   6.764
 5951SOL    HW218753   0.115   4.170   6.725
 5952SOL     OW18754   3.906   4.393   1.591
 5952SOL    HW118755   3.865   4.481   1.613
 5952SOL    HW218756   4.006   4.400   1.598
 5953SOL     OW18757   0.118   3.585   5.575
 5953SOL    HW118758   0.047   3.610   5.510
 5953SOL    HW218759   0.115   3.648   5.653
 5954SOL     OW18760   1.766   5.478   3.998
 5954SOL    HW118761   1.789   5.575   4.011
 5954SOL    HW218762   1.668   5.465   4.016
 5955SOL     OW18763   5.207   2.996   0.605
 5955SOL    HW118764   5.271   2.981   0.680
 5955SOL    HW218765   5.125   2.940   0.619
 5956SOL     OW18766   5.093   3.198   5.235
 5956SOL    HW118767   5.123   3.284   5.193
 5956SOL    HW218768   5.041   3.145   5.168
 5957SOL     OW18769   6.644   1.613   3.721
 5957SOL    HW118770   6.616   1.528   3.765
 5957SOL    HW218771   6.682   1.593   3.631
 5958SOL     OW18772   2.875   6.581   3.736
 5958SOL    HW118773   2.792   6.526   3.728
 5958SOL    HW218774   2.938   6.557   3.662
 5959SOL     OW18775   5.464   2.485   2.706
 5959SOL    HW118776   5.446   2.412   2.773
 5959SOL    HW218777   5.489   2.569   2.754
 5960SOL     OW18778   4.260   1.285   6.450
 5960SOL    HW118779   4.169   1.318   6.474
 5960SOL    HW218780   4.329   1.339   6.497
 5961SOL     OW18781   2.727   2.299   3.740
 5961SOL    HW118782   2.654   2.285   3.673
 5961SOL    HW218783   2.805   2.241   3.717
 5962SOL     OW18784   4.839   4.958   0.517
 5962SOL    HW118785   4.745   4.936   0.546
 5962SOL    HW218786   4.836   5.005   0.429
 5963SOL     OW18787   2.165   3.799   0.786
 5963SOL    HW118788   2.170   3.865   0.862
 5963SOL    HW218789   2.156   3.849   0.700
 5964SOL     OW18790   2.175   0.015   3.473
 5964SOL    HW118791   2.083   0.053   3.468
 5964SOL    HW218792   2.241   0.086   3.447
 5965SOL     OW18793   2.949   0.386   0.895
 5965SOL    HW118794   2.991   0.301   0.926
 5965SOL    HW218795   2.865   0.366   0.845
 5966SOL     OW18796   2.452   1.497   4.901
 5966SOL    HW118797   2.453   1.401   4.872
 5966SOL    HW218798   2.539   1.519   4.946
 5967SOL     OW18799   4.624   2.402   5.311
 5967SOL    HW118800   4.600   2.315   5.354
 5967SOL    HW218801   4.557   2.423   5.239
 5968SOL     OW18802   5.978   2.132   2.143
 5968SOL    HW118803   5.981   2.065   2.068
 5968SOL    HW218804   5.885   2.167   2.153
 5969SOL     OW18805   5.092   0.249   0.671
 5969SOL    HW118806   5.186   0.231   0.641
 5969SOL    HW218807   5.056   0.328   0.621
 5970SOL     OW18808   6.836   3.023   0.648
 5970SOL    HW118809   6.779   3.105   0.643
 5970SOL    HW218810   6.815   2.972   0.731
 5971SOL     OW18811   6.891   5.675   3.910
 5971SOL    HW118812   6.875   5.698   3.814
 5971SOL    HW218813   6.948   5.745   3.953
 5972SOL     OW18814   5.800   5.502   0.181
 5972SOL    HW118815   5.718   5.536   0.135
 5972SOL    HW218816   5.862   5.463   0.113
 5973SOL     OW18817   2.962   1.263   2.557
 5973SOL    HW118818   3.022   1.213   2.494
 5973SOL    HW218819   2.918   1.339   2.509
 5974SOL     OW18820   5.926   1.651   4.632
 5974SOL    HW118821   5.916   1.633   4.534
 5974SOL    HW218822   5.865   1.726   4.659
 5975SOL     OW18823   4.251   5.334   1.456
 5975SOL    HW118824   4.313   5.409   1.435
 5975SOL    HW218825   4.252   5.267   1.381
 5976SOL     OW18826   1.888   3.878   5.538
 5976SOL    HW118827   1.945   3.959   5.549
 5976SOL    HW218828   1.826   3.869   5.616
 5977SOL     OW18829   6.646   5.183   0.630
 5977SOL    HW118830   6.621   5.156   0.537
 5977SOL    HW218831   6.564   5.181   0.688
 5978SOL     OW18832   2.869   3.810   6.696
 5978SOL    HW118833   2.849   3.864   6.778
 5978SOL    HW218834   2.955   3.761   6.709
 5979SOL     OW18835   6.456   0.380   1.290
 5979SOL    HW118836   6.467   0.431   1.375
 5979SOL    HW218837   6.362   0.347   1.283
 5980SOL     OW18838   3.043   2.412   0.968
 5980SOL    HW118839   3.107   2.441   1.038
 5980SOL    HW218840   3.016   2.317   0.984
 5981SOL     OW18841   2.839   1.840   1.241
 5981SOL    HW118842   2.933   1.859   1.213
 5981SOL    HW218843   2.834   1.831   1.340
 5982SOL     OW18844   5.357   2.774   1.358
 5982SOL    HW118845   5.349   2.873   1.363
 5982SOL    HW218846   5.434   2.750   1.298
 5983SOL     OW18847   0.162   0.819   3.689
 5983SOL    HW118848   0.260   0.836   3.677
 5983SOL    HW218849   0.118   0.901   3.726
 5984SOL     OW18850   6.008   5.924   3.690
 5984SOL    HW118851   5.939   5.929   3.763
 5984SOL    HW218852   5.986   5.989   3.618
 5985SOL     OW18853   6.700   3.301   2.429
 5985SOL    HW118854   6.706   3.316   2.527
 5985SOL    HW218855   6.620   3.350   2.393
 5986SOL     OW18856   4.084   3.610   3.815
 5986SOL    HW118857   4.145   3.537   3.846
 5986SOL    HW218858   4.018   3.631   3.886
 5987SOL     OW18859   0.500   5.785   5.490
 5987SOL    HW118860   0.424   5.746   5.541
 5987SOL    HW218861   0.548   5.712   5.440
 5988SOL     OW18862   0.910   2.728   6.976
 5988SOL    HW118863   0.878   2.767   6.890
 5988SOL    HW218864   0.990   2.671   6.959
 5989SOL     OW18865   1.052   6.588   5.581
 5989SOL    HW118866   1.016   6.521   5.647
 5989SOL    HW218867   1.111   6.653   5.629
 5990SOL     OW18868   2.578   4.750   1.870
 5990SOL    HW118869   2.657   4.706   1.914
 5990SOL    HW218870   2.542   4.691   1.799
 5991SOL     OW18871   5.524   0.481   0.660
 5991SOL    HW118872   5.617   0.494   0.626
 5991SOL    HW218873   5.507   0.544   0.736
 5992SOL     OW18874   3.634   5.810   2.693
 5992SOL    HW118875   3.675   5.839   2.607
 5992SOL    HW218876   3.594   5.720   2.682
 5993SOL     OW18877   6.011   1.821   0.603
 5993SOL    HW118878   6.073   1.856   0.533
 5993SOL    HW218879   5.968   1.738   0.570
 5994SOL     OW18880   6.553   3.445   0.225
 5994SOL    HW118881   6.532   3.497   0.308
 5994SOL    HW218882   6.496   3.363   0.223
 5995SOL     OW18883   5.028   3.496   1.152
 5995SOL    HW118884   5.031   3.502   1.252
 5995SOL    HW218885   4.963   3.425   1.125
 5996SOL     OW18886   2.761   6.787   1.450
 5996SOL    HW118887   2.787   6.701   1.407
 5996SOL    HW218888   2.791   6.787   1.546
 5997SOL     OW18889   6.353   0.592   4.044
 5997SOL    HW118890   6.389   0.626   4.131
 5997SOL    HW218891   6.326   0.670   3.987
 5998SOL     OW18892   0.133   6.208   6.760
 5998SOL    HW118893   0.038   6.223   6.731
 5998SOL    HW218894   0.192   6.276   6.718
 5999SOL     OW18895   5.182   3.252   1.355
 5999SOL    HW118896   5.100   3.245   1.411
 5999SOL    HW218897   5.213   3.347   1.354
 6000SOL     OW18898   0.629   4.200   1.209
 6000SOL    HW118899   0.543   4.151   1.192
 6000SOL    HW218900   0.617   4.259   1.289
 6001SOL     OW18901   5.844   5.322   5.987
 6001SOL    HW118902   5.758   5.337   6.035
 6001SOL    HW218903   5.916   5.301   6.053
 6002SOL     OW18904   5.489   4.900   5.504
 6002SOL    HW118905   5.553   4.825   5.524
 6002SOL    HW218906   5.541   4.985   5.495
 6003SOL     OW18907   2.609   2.131   4.673
 6003SOL    HW118908   2.627   2.229   4.678
 6003SOL    HW218909   2.551   2.103   4.749
 6004SOL     OW18910   5.301   3.175   5.024
 6004SOL    HW118911   5.267   3.263   5.058
 6004SOL    HW218912   5.238   3.140   4.955
 6005SOL     OW18913   4.227   4.142   6.793
 6005SOL    HW118914   4.300   4.177   6.734
 6005SOL    HW218915   4.260   4.063   6.844
 6006SOL     OW18916   3.135   6.002   6.795
 6006SOL    HW118917   3.151   6.095   6.762
 6006SOL    HW218918   3.093   6.006   6.886
 6007SOL     OW18919   1.936   5.993   4.452
 6007SOL    HW118920   1.841   5.962   4.448
 6007SOL    HW218921   1.969   5.988   4.546
 6008SOL     OW18922   2.392   3.969   6.531
 6008SOL    HW118923   2.340   4.018   6.461
 6008SOL    HW218924   2.386   4.017   6.618
 6009SOL     OW18925   4.299   5.206   2.773
 6009SOL    HW118926   4.371   5.136   2.773
 6009SOL    HW218927   4.243   5.196   2.691
 6010SOL     OW18928   0.422   4.446   4.711
 6010SOL    HW118929   0.385   4.355   4.727
 6010SOL    HW218930   0.457   4.483   4.797
 6011SOL     OW18931   6.039   1.440   3.253
 6011SOL    HW118932   6.065   1.368   3.316
 6011SOL    HW218933   5.941   1.436   3.236
 6012SOL     OW18934   6.468   0.344   6.036
 6012SOL    HW118935   6.447   0.260   6.086
 6012SOL    HW218936   6.413   0.419   6.072
 6013SOL     OW18937   5.927   1.531   1.985
 6013SOL    HW118938   5.968   1.463   1.924
 6013SOL    HW218939   5.837   1.557   1.950
 6014SOL     OW18940   3.066   3.216   3.891
 6014SOL    HW118941   3.020   3.222   3.979
 6014SOL    HW218942   3.001   3.235   3.817
 6015SOL     OW18943   5.887   0.434   3.694
 6015SOL    HW118944   5.934   0.467   3.776
 6015SOL    HW218945   5.918   0.342   3.673
 6016SOL     OW18946   4.138   2.267   4.423
 6016SOL    HW118947   4.050   2.221   4.431
 6016SOL    HW218948   4.162   2.278   4.327
 6017SOL     OW18949   1.179   1.488   5.682
 6017SOL    HW118950   1.200   1.470   5.778
 6017SOL    HW218951   1.264   1.502   5.632
 6018SOL     OW18952   2.604   0.880   3.926
 6018SOL    HW118953   2.569   0.940   3.854
 6018SOL    HW218954   2.591   0.923   4.015
 6019SOL     OW18955   6.199   4.470   6.333
 6019SOL    HW118956   6.260   4.546   6.358
 6019SOL    HW218957   6.197   4.461   6.233
 6020SOL     OW18958   0.879   5.124   6.005
 6020SOL    HW118959   0.798   5.114   5.948
 6020SOL    HW218960   0.859   5.095   6.099
 6021SOL     OW18961   5.671   6.935   3.400
 6021SOL    HW118962   5.703   6.893   3.485
 6021SOL    HW218963   5.744   6.931   3.332
 6022SOL     OW18964   6.288   2.489   1.956
 6022SOL    HW118965   6.261   2.398   1.988
 6022SOL    HW218966   6.300   2.550   2.034
 6023SOL     OW18967   4.115   0.009   2.044
 6023SOL    HW118968   4.031   0.057   2.069
 6023SOL    HW218969   4.119   6.946   2.092
 6024SOL     OW18970   0.939   6.342   6.707
 6024SOL    HW118971   0.956   6.370   6.801
 6024SOL    HW218972   1.024   6.350   6.655
 6025SOL     OW18973   2.782   0.487   5.037
 6025SOL    HW118974   2.755   0.537   5.119
 6025SOL    HW218975   2.881   0.495   5.024
 6026SOL     OW18976   6.019   6.319   4.381
 6026SOL    HW118977   5.959   6.321   4.301
 6026SOL    HW218978   6.046   6.224   4.398
 6027SOL     OW18979   5.474   5.178   6.002
 6027SOL    HW118980   5.512   5.118   6.073
 6027SOL    HW218981   5.405   5.238   6.043
 6028SOL     OW18982   5.647   5.489   6.149
 6028SOL    HW118983   5.558   5.489   6.104
 6028SOL    HW218984   5.683   5.583   6.150
 6029SOL     OW18985   3.119   1.536   3.070
 6029SOL    HW118986   3.113   1.544   2.970
 6029SOL    HW218987   3.035   1.573   3.111
 6030SOL     OW18988   5.930   3.404   4.217
 6030SOL    HW118989   5.965   3.492   4.183
 6030SOL    HW218990   6.002   3.357   4.268
 6031SOL     OW18991   0.137   6.032   5.175
 6031SOL    HW118992   0.165   6.045   5.079
 6031SOL    HW218993   0.094   5.943   5.185
 6032SOL     OW18994   3.480   6.465   3.395
 6032SOL    HW118995   3.398   6.519   3.415
 6032SOL    HW218996   3.556   6.497   3.451
 6033SOL     OW18997   0.942   1.251   2.833
 6033SOL    HW118998   0.940   1.253   2.733
 6033SOL    HW218999   1.031   1.215   2.863
 6034SOL     OW19000   0.278   6.897   1.314
 6034SOL    HW119001   0.350   6.965   1.323
 6034SOL    HW219002   0.190   6.943   1.299
 6035SOL     OW19003   2.743   0.491   2.454
 6035SOL    HW119004   2.826   0.521   2.502
 6035SOL    HW219005   2.743   0.529   2.361
 6036SOL     OW19006   6.460   3.389   1.018
 6036SOL    HW119007   6.402   3.448   0.962
 6036SOL    HW219008   6.531   3.443   1.062
 6037SOL     OW19009   4.625   1.688   5.997
 6037SOL    HW119010   4.629   1.589   6.011
 6037SOL    HW219011   4.553   1.727   6.055
 6038SOL     OW19012   1.536   1.096   6.322
 6038SOL    HW119013   1.512   1.003   6.351
 6038SOL    HW219014   1.503   1.161   6.390
 6039SOL     OW19015   3.855   3.642   3.975
 6039SOL    HW119016   3.792   3.565   3.983
 6039SOL    HW219017   3.802   3.727   3.970
 6040SOL     OW19018   6.844   1.931   0.797
 6040SOL    HW119019   6.778   2.006   0.786
 6040SOL    HW219020   6.935   1.962   0.771
 6041SOL     OW19021   1.987   3.634   6.295
 6041SOL    HW119022   2.059   3.569   6.319
 6041SOL    HW219023   1.926   3.593   6.227
 6042SOL     OW19024   3.036   5.862   3.660
 6042SOL    HW119025   3.100   5.891   3.731
 6042SOL    HW219026   2.969   5.799   3.699
 6043SOL     OW19027   2.549   6.996   2.822
 6043SOL    HW119028   2.608   6.959   2.750
 6043SOL    HW219029   2.573   6.953   2.909
 6044SOL     OW19030   0.355   3.224   1.137
 6044SOL    HW119031   0.316   3.152   1.194
 6044SOL    HW219032   0.297   3.305   1.141
 6045SOL     OW19033   6.083   1.417   3.696
 6045SOL    HW119034   6.127   1.428   3.607
 6045SOL    HW219035   6.050   1.323   3.706
 6046SOL     OW19036   3.515   3.298   2.739
 6046SOL    HW119037   3.430   3.263   2.779
 6046SOL    HW219038   3.528   3.256   2.649
 6047SOL     OW19039   6.871   1.715   0.422
 6047SOL    HW119040   6.873   1.812   0.398
 6047SOL    HW219041   6.869   1.705   0.521
 6048SOL     OW19042   5.477   5.959   3.203
 6048SOL    HW119043   5.461   5.894   3.128
 6048SOL    HW219044   5.505   6.047   3.165
 6049SOL     OW19045   4.484   5.245   6.744
 6049SOL    HW119046   4.409   5.212   6.800
 6049SOL    HW219047   4.565   5.187   6.759
 6050SOL     OW19048   2.993   5.747   2.456
 6050SOL    HW119049   2.897   5.727   2.475
 6050SOL    HW219050   3.002   5.785   2.365
 6051SOL     OW19051   0.517   1.485   3.130
 6051SOL    HW119052   0.423   1.487   3.165
 6051SOL    HW219053   0.524   1.416   3.058
 6052SOL     OW19054   5.287   5.477   0.537
 6052SOL    HW119055   5.371   5.427   0.556
 6052SOL    HW219056   5.208   5.418   0.553
 6053SOL     OW19057   4.423   2.506   6.229
 6053SOL    HW119058   4.495   2.508   6.298
 6053SOL    HW219059   4.409   2.412   6.198
 6054SOL     OW19060   4.155   4.062   1.020
 6054SOL    HW119061   4.173   3.978   1.072
 6054SOL    HW219062   4.110   4.129   1.079
 6055SOL     OW19063   2.994   4.329   0.767
 6055SOL    HW119064   2.942   4.244   0.769
 6055SOL    HW219065   2.971   4.384   0.847
 6056SOL     OW19066   4.951   6.432   3.535
 6056SOL    HW119067   4.954   6.462   3.630
 6056SOL    HW219068   5.014   6.356   3.521
 6057SOL     OW19069   5.224   0.642   4.307
 6057SOL    HW119070   5.195   0.586   4.230
 6057SOL    HW219071   5.239   0.736   4.276
 6058SOL     OW19072   6.970   2.644   5.849
 6058SOL    HW119073   6.884   2.598   5.867
 6058SOL    HW219074   6.953   2.738   5.822
 6059SOL     OW19075   4.300   2.641   6.718
 6059SOL    HW119076   4.373   2.709   6.733
 6059SOL    HW219077   4.294   2.581   6.798
 6060SOL     OW19078   2.379   2.748   0.513
 6060SOL    HW119079   2.283   2.754   0.488
 6060SOL    HW219080   2.425   2.834   0.494
 6061SOL     OW19081   3.618   4.386   0.003
 6061SOL    HW119082   3.598   4.289   0.019
 6061SOL    HW219083   3.537   4.440   0.024
 6062SOL     OW19084   1.964   2.165   6.423
 6062SOL    HW119085   2.041   2.225   6.406
 6062SOL    HW219086   1.998   2.076   6.456
 6063SOL     OW19087   4.380   3.717   6.537
 6063SOL    HW119088   4.400   3.620   6.520
 6063SOL    HW219089   4.443   3.752   6.606
 6064SOL     OW19090   6.420   5.759   0.943
 6064SOL    HW119091   6.348   5.811   0.896
 6064SOL    HW219092   6.378   5.700   1.012
 6065SOL     OW19093   2.274   6.559   1.765
 6065SOL    HW119094   2.348   6.493   1.750
 6065SOL    HW219095   2.253   6.606   1.679
 6066SOL     OW19096   5.477   6.229   3.090
 6066SOL    HW119097   5.501   6.312   3.140
 6066SOL    HW219098   5.377   6.224   3.080
 6067SOL     OW19099   6.778   6.103   5.636
 6067SOL    HW119100   6.845   6.150   5.580
 6067SOL    HW219101   6.743   6.165   5.706
 6068SOL     OW19102   4.948   2.479   4.281
 6068SOL    HW119103   4.972   2.442   4.371
 6068SOL    HW219104   4.943   2.404   4.215
 6069SOL     OW19105   6.722   4.231   6.123
 6069SOL    HW119106   6.755   4.139   6.146
 6069SOL    HW219107   6.800   4.292   6.113
 6070SOL     OW19108   2.385   1.589   1.118
 6070SOL    HW119109   2.405   1.676   1.072
 6070SOL    HW219110   2.316   1.605   1.189
 6071SOL     OW19111   6.374   1.293   5.740
 6071SOL    HW119112   6.401   1.197   5.735
 6071SOL    HW219113   6.290   1.302   5.793
 6072SOL     OW19114   6.830   3.672   6.822
 6072SOL    HW119115   6.778   3.713   6.897
 6072SOL    HW219116   6.900   3.611   6.859
 6073SOL     OW19117   5.134   3.692   0.008
 6073SOL    HW119118   5.196   3.699   0.086
 6073SOL    HW219119   5.180   3.729   6.951
 6074SOL     OW19120   1.365   6.689   2.370
 6074SOL    HW119121   1.375   6.652   2.278
 6074SOL    HW219122   1.437   6.653   2.429
 6075SOL     OW19123   5.733   0.844   6.547
 6075SOL    HW119124   5.707   0.867   6.453
 6075SOL    HW219125   5.731   0.927   6.603
 6076SOL     OW19126   0.650   5.986   2.639
 6076SOL    HW119127   0.664   6.016   2.733
 6076SOL    HW219128   0.587   6.049   2.593
 6077SOL     OW19129   5.357   6.104   2.582
 6077SOL    HW119130   5.329   6.131   2.675
 6077SOL    HW219131   5.349   6.183   2.521
 6078SOL     OW19132   4.673   3.782   0.025
 6078SOL    HW119133   4.707   3.848   6.984
 6078SOL    HW219134   4.590   3.817   0.068
 6079SOL     OW19135   3.065   2.430   0.322
 6079SOL    HW119136   3.149   2.454   0.371
 6079SOL    HW219137   2.993   2.410   0.387
 6080SOL     OW19138   6.484   4.014   6.066
 6080SOL    HW119139   6.502   3.922   6.103
 6080SOL    HW219140   6.399   4.049   6.105
 6081SOL     OW19141   1.828   3.365   3.892
 6081SOL    HW119142   1.761   3.350   3.964
 6081SOL    HW219143   1.909   3.411   3.930
 6082SOL     OW19144   4.884   1.605   1.481
 6082SOL    HW119145   4.847   1.575   1.569
 6082SOL    HW219146   4.983   1.588   1.479
 6083SOL     OW19147   4.688   0.518   6.515
 6083SOL    HW119148   4.775   0.552   6.481
 6083SOL    HW219149   4.698   0.424   6.545
 6084SOL     OW19150   6.901   5.606   2.621
 6084SOL    HW119151   6.875   5.545   2.695
 6084SOL    HW219152   6.832   5.679   2.613
 6085SOL     OW19153   0.604   6.911   0.158
 6085SOL    HW119154   0.614   6.823   0.204
 6085SOL    HW219155   0.582   6.982   0.225
 6086SOL     OW19156   3.548   4.118   0.027
 6086SOL    HW119157   3.468   4.061   0.008
 6086SOL    HW219158   3.631   4.066   0.006
 6087SOL     OW19159   4.723   0.192   0.577
 6087SOL    HW119160   4.749   0.194   0.673
 6087SOL    HW219161   4.747   0.280   0.535
 6088SOL     OW19162   4.836   5.633   2.679
 6088SOL    HW119163   4.744   5.669   2.667
 6088SOL    HW219164   4.900   5.708   2.693
 6089SOL     OW19165   5.927   3.947   3.691
 6089SOL    HW119166   5.844   3.917   3.645
 6089SOL    HW219167   6.006   3.928   3.633
 6090SOL     OW19168   3.848   5.437   4.126
 6090SOL    HW119169   3.933   5.403   4.085
 6090SOL    HW219170   3.834   5.393   4.215
 6091SOL     OW19171   1.148   1.251   1.424
 6091SOL    HW119172   1.209   1.280   1.350
 6091SOL    HW219173   1.106   1.331   1.466
 6092SOL     OW19174   2.852   0.042   1.390
 6092SOL    HW119175   2.829   6.982   1.437
 6092SOL    HW219176   2.925   0.089   1.440
 6093SOL     OW19177   2.523   2.486   2.322
 6093SOL    HW119178   2.492   2.423   2.250
 6093SOL    HW219179   2.540   2.575   2.282
 6094SOL     OW19180   0.716   6.365   5.012
 6094SOL    HW119181   0.697   6.402   4.921
 6094SOL    HW219182   0.659   6.284   5.027
 6095SOL     OW19183   4.674   4.510   1.601
 6095SOL    HW119184   4.772   4.495   1.616
 6095SOL    HW219185   4.629   4.523   1.689
 6096SOL     OW19186   5.128   5.980   3.261
 6096SOL    HW119187   5.036   5.998   3.295
 6096SOL    HW219188   5.131   5.888   3.221
 6097SOL     OW19189   1.930   4.669   2.601
 6097SOL    HW119190   2.011   4.674   2.541
 6097SOL    HW219191   1.951   4.713   2.688
 6098SOL     OW19192   6.455   0.505   4.862
 6098SOL    HW119193   6.465   0.603   4.882
 6098SOL    HW219194   6.501   0.484   4.776
 6099SOL     OW19195   3.448   0.804   5.842
 6099SOL    HW119196   3.404   0.797   5.753
 6099SOL    HW219197   3.429   0.722   5.896
 6100SOL     OW19198   0.713   5.657   4.860
 6100SOL    HW119199   0.731   5.634   4.955
 6100SOL    HW219200   0.799   5.663   4.810
 6101SOL     OW19201   6.846   3.364   1.610
 6101SOL    HW119202   6.871   3.460   1.601
 6101SOL    HW219203   6.888   3.311   1.536
 6102SOL     OW19204   3.692   0.251   2.551
 6102SOL    HW119205   3.769   0.271   2.611
 6102SOL    HW219206   3.630   0.187   2.596
 6103SOL     OW19207   6.781   1.722   2.187
 6103SOL    HW119208   6.836   1.785   2.132
 6103SOL    HW219209   6.699   1.697   2.136
 6104SOL     OW19210   6.755   0.645   4.342
 6104SOL    HW119211   6.803   0.558   4.351
 6104SOL    HW219212   6.755   0.674   4.246
 6105SOL     OW19213   3.235   4.451   5.827
 6105SOL    HW119214   3.258   4.380   5.895
 6105SOL    HW219215   3.262   4.420   5.736
 6106SOL     OW19216   6.165   4.865   5.413
 6106SOL    HW119217   6.253   4.911   5.401
 6106SOL    HW219218   6.175   4.768   5.391
 6107SOL     OW19219   6.012   4.990   5.238
 6107SOL    HW119220   5.974   4.952   5.154
 6107SOL    HW219221   6.088   4.932   5.270
 6108SOL     OW19222   2.019   0.945   6.902
 6108SOL    HW119223   2.034   0.953   6.804
 6108SOL    HW219224   1.922   0.929   6.921
 6109SOL     OW19225   6.739   6.651   3.890
 6109SOL    HW119226   6.778   6.723   3.948
 6109SOL    HW219227   6.811   6.586   3.866
 6110SOL     OW19228   1.862   1.274   4.140
 6110SOL    HW119229   1.945   1.327   4.126
 6110SOL    HW219230   1.859   1.240   4.233
 6111SOL     OW19231   2.237   3.810   1.278
 6111SOL    HW119232   2.179   3.791   1.357
 6111SOL    HW219233   2.213   3.747   1.203
 6112SOL     OW19234   5.013   6.687   3.970
 6112SOL    HW119235   4.927   6.703   4.018
 6112SOL    HW219236   5.078   6.642   4.032
 6113SOL     OW19237   1.942   5.593   1.209
 6113SOL    HW119238   1.865   5.550   1.257
 6113SOL    HW219239   1.954   5.549   1.121
 6114SOL     OW19240   5.178   1.827   0.913
 6114SOL    HW119241   5.168   1.885   0.833
 6114SOL    HW219242   5.274   1.816   0.935
 6115SOL     OW19243   0.915   0.693   6.320
 6115SOL    HW119244   0.824   0.660   6.346
 6115SOL    HW219245   0.974   0.615   6.298
 6116SOL     OW19246   5.728   3.154   6.704
 6116SOL    HW119247   5.701   3.090   6.776
 6116SOL    HW219248   5.788   3.107   6.639
 6117SOL     OW19249   1.676   2.131   1.339
 6117SOL    HW119250   1.758   2.174   1.301
 6117SOL    HW219251   1.594   2.175   1.301
 6118SOL     OW19252   5.908   0.899   1.813
 6118SOL    HW119253   5.869   0.984   1.776
 6118SOL    HW219254   5.905   0.902   1.913
 6119SOL     OW19255   6.482   1.680   6.711
 6119SOL    HW119256   6.540   1.636   6.643
 6119SOL    HW219257   6.539   1.732   6.774
 6120SOL     OW19258   3.000   0.593   4.316
 6120SOL    HW119259   3.066   0.651   4.363
 6120SOL    HW219260   3.020   0.592   4.218
 6121SOL     OW19261   1.649   2.411   4.700
 6121SOL    HW119262   1.596   2.496   4.699
 6121SOL    HW219263   1.712   2.413   4.778
 6122SOL     OW19264   5.368   4.722   5.235
 6122SOL    HW119265   5.415   4.772   5.306
 6122SOL    HW219266   5.428   4.711   5.155
 6123SOL     OW19267   5.751   1.558   5.347
 6123SOL    HW119268   5.738   1.649   5.306
 6123SOL    HW219269   5.757   1.489   5.275
 6124SOL     OW19270   2.559   6.049   4.256
 6124SOL    HW119271   2.551   6.017   4.162
 6124SOL    HW219272   2.551   5.971   4.318
 6125SOL     OW19273   2.916   1.948   6.283
 6125SOL    HW119274   2.939   1.851   6.290
 6125SOL    HW219275   2.867   1.964   6.197
 6126SOL     OW19276   6.147   2.929   6.047
 6126SOL    HW119277   6.114   2.953   6.138
 6126SOL    HW219278   6.246   2.940   6.043
 6127SOL     OW19279   4.898   2.102   2.692
 6127SOL    HW119280   4.995   2.092   2.715
 6127SOL    HW219281   4.890   2.139   2.599
 6128SOL     OW19282   5.683   5.767   6.910
 6128SOL    HW119283   5.629   5.802   6.833
 6128SOL    HW219284   5.773   5.739   6.877
 6129SOL     OW19285   2.073   5.839   2.228
 6129SOL    HW119286   2.121   5.752   2.242
 6129SOL    HW219287   1.979   5.830   2.260
 6130SOL     OW19288   5.852   2.912   0.280
 6130SOL    HW119289   5.789   2.911   0.358
 6130SOL    HW219290   5.837   2.830   0.225
 6131SOL     OW19291   6.473   1.885   2.963
 6131SOL    HW119292   6.560   1.900   3.009
 6131SOL    HW219293   6.485   1.820   2.888
 6132SOL     OW19294   3.863   1.317   6.061
 6132SOL    HW119295   3.857   1.381   5.984
 6132SOL    HW219296   3.773   1.275   6.076
 6133SOL     OW19297   0.727   2.181   2.834
 6133SOL    HW119298   0.707   2.272   2.800
 6133SOL    HW219299   0.787   2.187   2.914
 6134SOL     OW19300   0.498   6.416   5.744
 6134SOL    HW119301   0.537   6.476   5.813
 6134SOL    HW219302   0.522   6.451   5.653
 6135SOL     OW19303   0.224   6.878   0.337
 6135SOL    HW119304   0.151   6.853   0.401
 6135SOL    HW219305   0.184   6.909   0.251
 6136SOL     OW19306   0.830   2.982   2.685
 6136SOL    HW119307   0.793   3.034   2.762
 6136SOL    HW219308   0.807   3.028   2.600
 6137SOL     OW19309   0.019   4.203   1.558
 6137SOL    HW119310   7.022   4.300   1.546
 6137SOL    HW219311   0.118   4.194   1.572
 6138SOL     OW19312   4.439   0.275   2.220
 6138SOL    HW119313   4.422   0.178   2.239
 6138SOL    HW219314   4.485   0.316   2.299
 6139SOL     OW19315   1.371   0.835   5.038
 6139SOL    HW119316   1.273   0.820   5.040
 6139SOL    HW219317   1.394   0.903   4.968
 6140SOL     OW19318   1.715   0.389   2.793
 6140SOL    HW119319   1.701   0.347   2.883
 6140SOL    HW219320   1.736   0.486   2.804
 6141SOL     OW19321   0.608   0.567   5.919
 6141SOL    HW119322   0.611   0.664   5.943
 6141SOL    HW219323   0.642   0.512   5.996
 6142SOL     OW19324   6.720   0.113   1.646
 6142SOL    HW119325   6.675   0.050   1.582
 6142SOL    HW219326   6.758   0.190   1.594
 6143SOL     OW19327   6.973   3.581   5.321
 6143SOL    HW119328   6.908   3.579   5.396
 6143SOL    HW219329   6.998   3.676   5.301
 6144SOL     OW19330   4.518   5.518   2.657
 6144SOL    HW119331   4.441   5.519   2.721
 6144SOL    HW219332   4.570   5.433   2.668
 6145SOL     OW19333   4.880   3.567   4.003
 6145SOL    HW119334   4.787   3.587   4.033
 6145SOL    HW219335   4.917   3.646   3.953
 6146SOL     OW19336   5.817   0.242   5.241
 6146SOL    HW119337   5.780   0.324   5.197
 6146SOL    HW219338   5.871   0.191   5.174
 6147SOL     OW19339   1.332   2.551   5.062
 6147SOL    HW119340   1.343   2.647   5.037
 6147SOL    HW219341   1.238   2.521   5.041
 6148SOL     OW19342   3.940   4.999   7.009
 6148SOL    HW119343   3.911   5.074   6.950
 6148SOL    HW219344   3.861   4.943   0.008
 6149SOL     OW19345   3.187   1.211   1.545
 6149SOL    HW119346   3.200   1.310   1.552
 6149SOL    HW219347   3.121   1.191   1.472
 6150SOL     OW19348   1.090   4.134   5.466
 6150SOL    HW119349   1.073   4.092   5.555
 6150SOL    HW219350   1.188   4.135   5.447
 6151SOL     OW19351   4.535   5.246   3.246
 6151SOL    HW119352   4.581   5.305   3.312
 6151SOL    HW219353   4.542   5.286   3.155
 6152SOL     OW19354   1.620   4.380   4.049
 6152SOL    HW119355   1.596   4.283   4.046
 6152SOL    HW219356   1.538   4.435   4.064
 6153SOL     OW19357   5.241   5.694   0.935
 6153SOL    HW119358   5.166   5.628   0.939
 6153SOL    HW219359   5.305   5.676   1.009
 6154SOL     OW19360   5.046   3.604   2.403
 6154SOL    HW119361   4.983   3.554   2.462
 6154SOL    HW219362   5.140   3.576   2.422
 6155SOL     OW19363   1.807   1.525   2.935
 6155SOL    HW119364   1.862   1.604   2.961
 6155SOL    HW219365   1.757   1.545   2.851
 6156SOL     OW19366   5.114   4.843   1.336
 6156SOL    HW119367   5.213   4.832   1.324
 6156SOL    HW219368   5.094   4.859   1.432
 6157SOL     OW19369   0.905   2.532   1.966
 6157SOL    HW119370   0.815   2.563   1.937
 6157SOL    HW219371   0.896   2.462   2.037
 6158SOL     OW19372   2.971   2.192   4.684
 6158SOL    HW119373   2.886   2.240   4.665
 6158SOL    HW219374   3.038   2.256   4.722
 6159SOL     OW19375   6.447   2.579   0.752
 6159SOL    HW119376   6.515   2.580   0.826
 6159SOL    HW219377   6.436   2.672   0.717
 6160SOL     OW19378   1.347   0.570   1.113
 6160SOL    HW119379   1.294   0.486   1.112
 6160SOL    HW219380   1.385   0.586   1.022
 6161SOL     OW19381   4.393   3.440   6.439
 6161SOL    HW119382   4.337   3.473   6.363
 6161SOL    HW219383   4.338   3.381   6.497
 6162SOL     OW19384   6.055   5.290   2.511
 6162SOL    HW119385   6.081   5.326   2.421
 6162SOL    HW219386   6.029   5.194   2.503
 6163SOL     OW19387   5.964   6.116   3.515
 6163SOL    HW119388   5.892   6.088   3.451
 6163SOL    HW219389   6.026   6.179   3.469
 6164SOL     OW19390   2.982   3.713   4.222
 6164SOL    HW119391   3.047   3.781   4.256
 6164SOL    HW219392   2.961   3.647   4.294
 6165SOL     OW19393   3.850   1.626   0.004
 6165SOL    HW119394   3.758   1.643   6.993
 6165SOL    HW219395   3.880   1.706   0.057
 6166SOL     OW19396   2.273   2.895   6.515
 6166SOL    HW119397   2.355   2.885   6.459
 6166SOL    HW219398   2.195   2.918   6.456
 6167SOL     OW19399   1.687   3.421   2.991
 6167SOL    HW119400   1.765   3.358   2.995
 6167SOL    HW219401   1.684   3.475   3.075
 6168SOL     OW19402   0.449   4.198   3.730
 6168SOL    HW119403   0.396   4.270   3.685
 6168SOL    HW219404   0.494   4.142   3.661
 6169SOL     OW19405   2.011   0.622   6.716
 6169SOL    HW119406   2.060   0.614   6.803
 6169SOL    HW219407   2.011   0.717   6.686
 6170SOL     OW19408   3.054   4.007   0.623
 6170SOL    HW119409   2.972   4.036   0.672
 6170SOL    HW219410   3.135   4.024   0.681
 6171SOL     OW19411   2.102   3.830   1.922
 6171SOL    HW119412   2.179   3.874   1.875
 6171SOL    HW219413   2.133   3.794   2.010
 6172SOL     OW19414   2.479   5.513   2.488
 6172SOL    HW119415   2.423   5.456   2.429
 6172SOL    HW219416   2.420   5.565   2.550
 6173SOL     OW19417   1.355   5.829   2.151
 6173SOL    HW119418   1.364   5.737   2.190
 6173SOL    HW219419   1.387   5.828   2.056
 6174SOL     OW19420   5.518   4.975   2.344
 6174SOL    HW119421   5.443   5.029   2.305
 6174SOL    HW219422   5.489   4.880   2.356
 6175SOL     OW19423   5.231   0.306   2.973
 6175SOL    HW119424   5.214   0.240   3.046
 6175SOL    HW219425   5.148   0.360   2.957
 6176SOL     OW19426   6.391   3.154   6.128
 6176SOL    HW119427   6.373   3.247   6.098
 6176SOL    HW219428   6.410   3.096   6.048
 6177SOL     OW19429   6.705   2.683   1.417
 6177SOL    HW119430   6.732   2.615   1.349
 6177SOL    HW219431   6.773   2.686   1.490
 6178SOL     OW19432   6.040   3.179   1.445
 6178SOL    HW119433   6.121   3.124   1.464
 6178SOL    HW219434   6.010   3.226   1.528
 6179SOL     OW19435   0.705   2.154   5.546
 6179SOL    HW119436   0.755   2.067   5.547
 6179SOL    HW219437   0.610   2.138   5.573
 6180SOL     OW19438   3.653   6.800   6.538
 6180SOL    HW119439   3.597   6.718   6.526
 6180SOL    HW219440   3.603   6.864   6.597
 6181SOL     OW19441   5.156   5.675   0.047
 6181SOL    HW119442   5.193   5.742   0.112
 6181SOL    HW219443   5.210   5.591   0.051
 6182SOL     OW19444   4.475   6.551   6.602
 6182SOL    HW119445   4.526   6.579   6.521
 6182SOL    HW219446   4.403   6.486   6.576
 6183SOL     OW19447   2.833   0.399   3.205
 6183SOL    HW119448   2.895   0.333   3.247
 6183SOL    HW219449   2.746   0.355   3.186
 6184SOL     OW19450   6.752   0.569   6.479
 6184SOL    HW119451   6.685   0.579   6.406
 6184SOL    HW219452   6.711   0.596   6.566
 6185SOL     OW19453   0.624   3.807   6.210
 6185SOL    HW119454   0.558   3.832   6.281
 6185SOL    HW219455   0.636   3.707   6.209
 6186SOL     OW19456   5.900   0.017   5.029
 6186SOL    HW119457   5.905   6.980   4.951
 6186SOL    HW219458   5.814   0.001   5.078
 6187SOL     OW19459   4.235   5.006   4.208
 6187SOL    HW119460   4.140   5.013   4.178
 6187SOL    HW219461   4.268   5.095   4.237
 6188SOL     OW19462   2.836   0.246   1.720
 6188SOL    HW119463   2.797   0.158   1.747
 6188SOL    HW219464   2.771   0.320   1.741
 6189SOL     OW19465   5.946   5.045   3.399
 6189SOL    HW119466   5.951   5.097   3.484
 6189SOL    HW219467   6.034   5.048   3.353
 6190SOL     OW19468   4.931   2.629   6.809
 6190SOL    HW119469   5.020   2.657   6.845
 6190SOL    HW219470   4.876   2.711   6.790
 6191SOL     OW19471   6.442   1.967   6.604
 6191SOL    HW119472   6.519   1.979   6.542
 6191SOL    HW219473   6.434   1.870   6.629
 6192SOL     OW19474   3.376   2.689   0.269
 6192SOL    HW119475   3.318   2.727   0.197
 6192SOL    HW219476   3.470   2.682   0.236
 6193SOL     OW19477   6.094   6.813   1.464
 6193SOL    HW119478   6.084   6.910   1.442
 6193SOL    HW219479   6.059   6.795   1.556
 6194SOL     OW19480   2.064   0.271   0.092
 6194SOL    HW119481   2.088   0.200   0.025
 6194SOL    HW219482   2.081   0.236   0.184
 6195SOL     OW19483   2.988   6.906   6.355
 6195SOL    HW119484   3.052   6.830   6.366
 6195SOL    HW219485   2.967   6.944   6.445
 6196SOL     OW19486   0.032   1.196   6.875
 6196SOL    HW119487   0.064   1.242   6.957
 6196SOL    HW219488   0.086   1.114   6.859
 6197SOL     OW19489   2.137   3.113   0.395
 6197SOL    HW119490   2.126   3.016   0.375
 6197SOL    HW219491   2.234   3.138   0.389
 6198SOL     OW19492   4.252   5.017   2.435
 6198SOL    HW119493   4.166   5.064   2.417
 6198SOL    HW219494   4.254   4.931   2.383
 6199SOL     OW19495   1.281   0.552   6.480
 6199SOL    HW119496   1.321   0.625   6.534
 6199SOL    HW219497   1.195   0.523   6.521
 6200SOL     OW19498   3.646   6.931   6.085
 6200SOL    HW119499   3.680   6.916   6.178
 6200SOL    HW219500   3.613   0.000   6.077
 6201SOL     OW19501   2.251   4.418   4.282
 6201SOL    HW119502   2.255   4.441   4.185
 6201SOL    HW219503   2.248   4.318   4.292
 6202SOL     OW19504   3.228   2.572   1.415
 6202SOL    HW119505   3.229   2.622   1.502
 6202SOL    HW219506   3.140   2.525   1.405
 6203SOL     OW19507   4.664   1.882   5.380
 6203SOL    HW119508   4.713   1.808   5.332
 6203SOL    HW219509   4.572   1.851   5.402
 6204SOL     OW19510   1.340   6.445   5.786
 6204SOL    HW119511   1.365   6.469   5.692
 6204SOL    HW219512   1.401   6.492   5.850
 6205SOL     OW19513   5.558   5.573   0.040
 6205SOL    HW119514   5.580   5.496   7.005
 6205SOL    HW219515   5.598   5.657   0.004
 6206SOL     OW19516   4.878   0.173   3.042
 6206SOL    HW119517   4.850   0.209   2.953
 6206SOL    HW219518   4.920   0.246   3.095
 6207SOL     OW19519   1.690   3.781   4.784
 6207SOL    HW119520   1.759   3.722   4.826
 6207SOL    HW219521   1.598   3.748   4.809
 6208SOL     OW19522   5.707   6.258   6.214
 6208SOL    HW119523   5.678   6.293   6.125
 6208SOL    HW219524   5.672   6.165   6.226
 6209SOL     OW19525   3.528   5.249   1.063
 6209SOL    HW119526   3.589   5.212   0.994
 6209SOL    HW219527   3.433   5.232   1.037
 6210SOL     OW19528   5.976   4.657   3.452
 6210SOL    HW119529   5.970   4.654   3.352
 6210SOL    HW219530   5.974   4.564   3.488
 6211SOL     OW19531   2.381   0.312   5.022
 6211SOL    HW119532   2.330   0.261   4.952
 6211SOL    HW219533   2.479   0.299   5.008
 6212SOL     OW19534   6.915   6.711   3.638
 6212SOL    HW119535   6.948   6.652   3.712
 6212SOL    HW219536   6.979   6.787   3.625
 6213SOL     OW19537   0.341   6.222   6.005
 6213SOL    HW119538   0.329   6.244   6.102
 6213SOL    HW219539   0.430   6.253   5.974
 6214SOL     OW19540   6.433   5.061   2.928
 6214SOL    HW119541   6.490   5.084   2.849
 6214SOL    HW219542   6.400   4.967   2.919
 6215SOL     OW19543   2.957   4.599   0.771
 6215SOL    HW119544   2.989   4.518   0.722
 6215SOL    HW219545   2.860   4.587   0.795
 6216SOL     OW19546   6.506   1.717   2.764
 6216SOL    HW119547   6.454   1.639   2.730
 6216SOL    HW219548   6.594   1.722   2.716
 6217SOL     OW19549   5.511   3.179   1.619
 6217SOL    HW119550   5.576   3.194   1.693
 6217SOL    HW219551   5.439   3.249   1.624
 6218SOL     OW19552   3.736   5.047   4.610
 6218SOL    HW119553   3.653   5.026   4.663
 6218SOL    HW219554   3.730   5.004   4.520
 6219SOL     OW19555   1.037   1.863   4.415
 6219SOL    HW119556   1.035   1.763   4.419
 6219SOL    HW219557   0.944   1.898   4.411
 6220SOL     OW19558   1.358   4.085   5.415
 6220SOL    HW119559   1.386   4.140   5.336
 6220SOL    HW219560   1.437   4.033   5.448
 6221SOL     OW19561   3.981   4.847   4.503
 6221SOL    HW119562   3.888   4.871   4.475
 6221SOL    HW219563   3.988   4.849   4.602
 6222SOL     OW19564   0.113   1.254   1.069
 6222SOL    HW119565   0.117   1.157   1.090
 6222SOL    HW219566   0.040   1.271   1.003
 6223SOL     OW19567   5.210   3.895   4.992
 6223SOL    HW119568   5.161   3.903   4.905
 6223SOL    HW219569   5.267   3.813   4.992
 6224SOL     OW19570   2.675   0.988   5.250
 6224SOL    HW119571   2.623   1.052   5.194
 6224SOL    HW219572   2.692   1.028   5.340
 6225SOL     OW19573   4.549   2.193   0.088
 6225SOL    HW119574   4.540   2.279   0.038
 6225SOL    HW219575   4.487   2.125   0.048
 6226SOL     OW19576   6.187   0.048   4.548
 6226SOL    HW119577   6.156   0.112   4.619
 6226SOL    HW219578   6.216   0.100   4.467
 6227SOL     OW19579   3.085   4.648   6.287
 6227SOL    HW119580   3.020   4.633   6.362
 6227SOL    HW219581   3.121   4.741   6.293
 6228SOL     OW19582   7.009   0.501   3.618
 6228SOL    HW119583   6.951   0.583   3.624
 6228SOL    HW219584   0.033   0.501   3.531
 6229SOL     OW19585   1.957   2.923   2.340
 6229SOL    HW119586   1.887   2.878   2.285
 6229SOL    HW219587   2.044   2.921   2.291
 6230SOL     OW19588   2.210   2.393   3.115
 6230SOL    HW119589   2.216   2.461   3.043
 6230SOL    HW219590   2.118   2.354   3.118
 6231SOL     OW19591   7.010   4.935   1.656
 6231SOL    HW119592   0.065   4.958   1.600
 6231SOL    HW219593   7.015   4.840   1.685
 6232SOL     OW19594   0.788   1.187   6.530
 6232SOL    HW119595   0.830   1.268   6.488
 6232SOL    HW219596   0.843   1.106   6.508
 6233SOL     OW19597   4.811   2.290   0.166
 6233SOL    HW119598   4.869   2.310   0.086
 6233SOL    HW219599   4.719   2.267   0.135
 6234SOL     OW19600   2.403   2.418   3.638
 6234SOL    HW119601   2.322   2.458   3.596
 6234SOL    HW219602   2.437   2.479   3.709
 6235SOL     OW19603   2.752   6.263   3.923
 6235SOL    HW119604   2.699   6.186   3.958
 6235SOL    HW219605   2.761   6.332   3.994
 6236SOL     OW19606   6.695   3.903   0.352
 6236SOL    HW119607   6.732   3.983   0.305
 6236SOL    HW219608   6.602   3.885   0.319
 6237SOL     OW19609   4.568   6.861   0.491
 6237SOL    HW119610   4.660   6.824   0.501
 6237SOL    HW219611   4.557   6.939   0.551
 6238SOL     OW19612   4.772   4.297   1.138
 6238SOL    HW119613   4.837   4.278   1.211
 6238SOL    HW219614   4.783   4.391   1.107
 6239SOL     OW19615   2.338   0.629   3.636
 6239SOL    HW119616   2.352   0.579   3.721
 6239SOL    HW219617   2.275   0.578   3.577
 6240SOL     OW19618   2.548   3.760   0.919
 6240SOL    HW119619   2.529   3.772   0.822
 6240SOL    HW219620   2.543   3.663   0.942
 6241SOL     OW19621   4.546   0.296   1.616
 6241SOL    HW119622   4.603   0.272   1.694
 6241SOL    HW219623   4.457   0.328   1.648
 6242SOL     OW19624   4.074   2.163   3.696
 6242SOL    HW119625   3.989   2.206   3.728
 6242SOL    HW219626   4.088   2.077   3.745
 6243SOL     OW19627   6.062   5.522   3.482
 6243SOL    HW119628   6.002   5.444   3.503
 6243SOL    HW219629   6.148   5.487   3.443
 6244SOL     OW19630   2.044   1.842   2.281
 6244SOL    HW119631   2.096   1.860   2.365
 6244SOL    HW219632   1.965   1.902   2.277
 6245SOL     OW19633   2.154   4.400   0.587
 6245SOL    HW119634   2.065   4.401   0.541
 6245SOL    HW219635   2.195   4.491   0.582
 6246SOL     OW19636   2.977   1.068   5.926
 6246SOL    HW119637   3.027   0.996   5.877
 6246SOL    HW219638   2.997   1.156   5.884
 6247SOL     OW19639   6.831   6.282   2.751
 6247SOL    HW119640   6.807   6.207   2.688
 6247SOL    HW219641   6.930   6.293   2.753
 6248SOL     OW19642   0.636   5.099   1.271
 6248SOL    HW119643   0.626   5.159   1.192
 6248SOL    HW219644   0.729   5.062   1.273
 6249SOL     OW19645   5.243   3.709   6.347
 6249SOL    HW119646   5.333   3.719   6.304
 6249SOL    HW219647   5.251   3.649   6.427
 6250SOL     OW19648   5.253   5.287   6.111
 6250SOL    HW119649   5.215   5.256   6.198
 6250SOL    HW219650   5.179   5.309   6.047
 6251SOL     OW19651   4.446   2.235   1.038
 6251SOL    HW119652   4.526   2.202   0.988
 6251SOL    HW219653   4.363   2.210   0.988
 6252SOL     OW19654   2.356   6.293   5.142
 6252SOL    HW119655   2.378   6.315   5.237
 6252SOL    HW219656   2.422   6.227   5.107
 6253SOL     OW19657   1.635   3.839   1.279
 6253SOL    HW119658   1.645   3.838   1.378
 6253SOL    HW219659   1.658   3.749   1.242
 6254SOL     OW19660   5.128   0.528   0.547
 6254SOL    HW119661   5.154   0.602   0.609
 6254SOL    HW219662   5.211   0.483   0.513
 6255SOL     OW19663   0.319   1.335   2.452
 6255SOL    HW119664   0.235   1.384   2.475
 6255SOL    HW219665   0.379   1.332   2.532
 6256SOL     OW19666   3.036   4.812   3.051
 6256SOL    HW119667   3.110   4.768   3.103
 6256SOL    HW219668   2.967   4.847   3.115
 6257SOL     OW19669   4.363   2.995   6.541
 6257SOL    HW119670   4.413   2.976   6.626
 6257SOL    HW219671   4.272   3.029   6.562
 6258SOL     OW19672   5.166   1.890   2.875
 6258SOL    HW119673   5.175   1.977   2.826
 6258SOL    HW219674   5.220   1.893   2.959
 6259SOL     OW19675   3.053   2.471   1.699
 6259SOL    HW119676   2.988   2.473   1.775
 6259SOL    HW219677   3.061   2.378   1.665
 6260SOL     OW19678   3.540   3.484   0.431
 6260SOL    HW119679   3.573   3.391   0.448
 6260SOL    HW219680   3.529   3.498   0.333
 6261SOL     OW19681   4.224   0.705   0.190
 6261SOL    HW119682   4.249   0.609   0.173
 6261SOL    HW219683   4.245   0.728   0.285
 6262SOL     OW19684   0.149   5.316   5.708
 6262SOL    HW119685   0.058   5.277   5.692
 6262SOL    HW219686   0.145   5.376   5.788
 6263SOL     OW19687   6.079   0.577   1.093
 6263SOL    HW119688   5.987   0.614   1.075
 6263SOL    HW219689   6.137   0.593   1.014
 6264SOL     OW19690   1.997   1.296   6.851
 6264SOL    HW119691   1.953   1.355   6.918
 6264SOL    HW219692   2.095   1.314   6.850
 6265SOL     OW19693   4.176   2.961   1.333
 6265SOL    HW119694   4.157   2.896   1.407
 6265SOL    HW219695   4.210   2.912   1.253
 6266SOL     OW19696   2.271   0.027   2.581
 6266SOL    HW119697   2.335   7.019   2.651
 6266SOL    HW219698   2.297   0.120   2.554
 6267SOL     OW19699   2.244   6.855   6.675
 6267SOL    HW119700   2.271   6.919   6.603
 6267SOL    HW219701   2.287   6.766   6.659
 6268SOL     OW19702   2.999   4.822   2.785
 6268SOL    HW119703   2.904   4.832   2.755
 6268SOL    HW219704   3.003   4.810   2.884
 6269SOL     OW19705   6.188   4.949   0.780
 6269SOL    HW119706   6.128   5.026   0.797
 6269SOL    HW219707   6.164   4.873   0.841
 6270SOL     OW19708   0.714   1.431   4.631
 6270SOL    HW119709   0.708   1.489   4.549
 6270SOL    HW219710   0.631   1.376   4.638
 6271SOL     OW19711   5.881   1.186   1.219
 6271SOL    HW119712   5.809   1.135   1.265
 6271SOL    HW219713   5.939   1.123   1.167
 6272SOL     OW19714   1.604   1.879   3.592
 6272SOL    HW119715   1.588   1.902   3.496
 6272SOL    HW219716   1.609   1.964   3.646
 6273SOL     OW19717   3.586   0.741   1.530
 6273SOL    HW119718   3.631   0.651   1.525
 6273SOL    HW219719   3.649   0.807   1.570
 6274SOL     OW19720   3.436   6.250   5.952
 6274SOL    HW119721   3.436   6.173   6.016
 6274SOL    HW219722   3.388   6.223   5.868
 6275SOL     OW19723   2.629   0.690   4.455
 6275SOL    HW119724   2.541   0.717   4.418
 6275SOL    HW219725   2.615   0.643   4.542
 6276SOL     OW19726   1.527   5.204   4.218
 6276SOL    HW119727   1.548   5.127   4.277
 6276SOL    HW219728   1.598   5.215   4.149
 6277SOL     OW19729   5.378   3.200   3.153
 6277SOL    HW119730   5.445   3.207   3.227
 6277SOL    HW219731   5.421   3.225   3.067
 6278SOL     OW19732   5.545   0.466   4.053
 6278SOL    HW119733   5.578   0.533   4.119
 6278SOL    HW219734   5.621   0.406   4.026
 6279SOL     OW19735   4.825   1.543   0.050
 6279SOL    HW119736   4.734   1.501   0.042
 6279SOL    HW219737   4.837   1.611   7.003
 6280SOL     OW19738   0.632   4.961   5.725
 6280SOL    HW119739   0.732   4.957   5.727
 6280SOL    HW219740   0.595   4.870   5.708
 6281SOL     OW19741   2.817   6.756   5.318
 6281SOL    HW119742   2.770   6.807   5.246
 6281SOL    HW219743   2.914   6.749   5.295
 6282SOL     OW19744   1.655   0.154   3.506
 6282SOL    HW119745   1.565   0.172   3.466
 6282SOL    HW219746   1.656   0.188   3.600
 6283SOL     OW19747   0.093   2.329   5.228
 6283SOL    HW119748   0.059   2.411   5.182
 6283SOL    HW219749   0.172   2.353   5.284
 6284SOL     OW19750   2.580   4.798   6.158
 6284SOL    HW119751   2.672   4.836   6.166
 6284SOL    HW219752   2.563   4.735   6.234
 6285SOL     OW19753   1.741   4.482   2.689
 6285SOL    HW119754   1.813   4.544   2.656
 6285SOL    HW219755   1.703   4.431   2.613
 6286SOL     OW19756   5.740   0.184   4.342
 6286SOL    HW119757   5.704   0.266   4.387
 6286SOL    HW219758   5.697   0.103   4.383
 6287SOL     OW19759   4.767   4.264   1.967
 6287SOL    HW119760   4.685   4.307   2.004
 6287SOL    HW219761   4.741   4.191   1.904
 6288SOL     OW19762   5.302   3.572   1.133
 6288SOL    HW119763   5.214   3.529   1.113
 6288SOL    HW219764   5.350   3.593   1.048
 6289SOL     OW19765   1.438   0.877   2.988
 6289SOL    HW119766   1.349   0.833   2.996
 6289SOL    HW219767   1.454   0.903   2.892
 6290SOL     OW19768   5.886   3.587   3.148
 6290SOL    HW119769   5.942   3.511   3.182
 6290SOL    HW219770   5.794   3.554   3.130
 6291SOL     OW19771   3.920   3.990   2.753
 6291SOL    HW119772   3.956   3.899   2.774
 6291SOL    HW219773   3.944   4.052   2.827
 6292SOL     OW19774   0.726   1.979   1.755
 6292SOL    HW119775   0.669   1.936   1.825
 6292SOL    HW219776   0.685   2.066   1.729
 6293SOL     OW19777   4.713   6.123   0.651
 6293SOL    HW119778   4.632   6.147   0.598
 6293SOL    HW219779   4.746   6.203   0.700
 6294SOL     OW19780   4.019   5.237   2.595
 6294SOL    HW119781   3.966   5.261   2.676
 6294SOL    HW219782   4.025   5.316   2.534
 6295SOL     OW19783   6.093   6.552   5.976
 6295SOL    HW119784   6.045   6.609   5.910
 6295SOL    HW219785   6.032   6.481   6.010
 6296SOL     OW19786   6.502   1.320   2.305
 6296SOL    HW119787   6.588   1.366   2.326
 6296SOL    HW219788   6.439   1.385   2.263
 6297SOL     OW19789   5.452   0.205   5.805
 6297SOL    HW119790   5.383   0.275   5.822
 6297SOL    HW219791   5.466   0.194   5.707
 6298SOL     OW19792   1.322   1.725   4.169
 6298SOL    HW119793   1.285   1.642   4.211
 6298SOL    HW219794   1.349   1.789   4.241
 6299SOL     OW19795   6.641   3.085   0.059
 6299SOL    HW119796   6.624   2.992   0.026
 6299SOL    HW219797   6.721   3.123   0.012
 6300SOL     OW19798   4.989   0.978   4.046
 6300SOL    HW119799   5.018   0.930   3.962
 6300SOL    HW219800   4.962   1.071   4.023
 6301SOL     OW19801   2.997   7.014   0.741
 6301SOL    HW119802   2.931   0.032   0.679
 6301SOL    HW219803   2.996   0.037   0.829
 6302SOL     OW19804   0.526   0.963   3.264
 6302SOL    HW119805   0.496   0.997   3.353
 6302SOL    HW219806   0.447   0.950   3.204
 6303SOL     OW19807   2.539   5.979   5.662
 6303SOL    HW119808   2.611   5.967   5.593
 6303SOL    HW219809   2.450   5.955   5.623
 6304SOL     OW19810   3.091   0.894   6.571
 6304SOL    HW119811   3.162   0.846   6.622
 6304SOL    HW219812   3.120   0.987   6.551
 6305SOL     OW19813   5.494   1.270   1.890
 6305SOL    HW119814   5.522   1.187   1.939
 6305SOL    HW219815   5.574   1.311   1.847
 6306SOL     OW19816   5.768   3.063   4.014
 6306SOL    HW119817   5.735   3.081   4.106
 6306SOL    HW219818   5.723   3.124   3.949
 6307SOL     OW19819   2.718   5.045   0.503
 6307SOL    HW119820   2.772   4.965   0.476
 6307SOL    HW219821   2.679   5.030   0.594
 6308SOL     OW19822   2.777   2.210   5.525
 6308SOL    HW119823   2.688   2.202   5.480
 6308SOL    HW219824   2.848   2.226   5.457
 6309SOL     OW19825   6.127   2.201   4.840
 6309SOL    HW119826   6.098   2.232   4.931
 6309SOL    HW219827   6.047   2.191   4.781
 6310SOL     OW19828   1.246   4.552   5.005
 6310SOL    HW119829   1.291   4.641   4.997
 6310SOL    HW219830   1.147   4.566   5.011
 6311SOL     OW19831   6.328   6.678   4.870
 6311SOL    HW119832   6.263   6.742   4.830
 6311SOL    HW219833   6.419   6.720   4.876
 6312SOL     OW19834   5.010   4.600   5.911
 6312SOL    HW119835   5.027   4.665   5.837
 6312SOL    HW219836   4.950   4.641   5.979
 6313SOL     OW19837   2.512   5.320   3.310
 6313SOL    HW119838   2.510   5.229   3.269
 6313SOL    HW219839   2.585   5.325   3.378
 6314SOL     OW19840   3.263   6.441   3.695
 6314SOL    HW119841   3.317   6.357   3.694
 6314SOL    HW219842   3.177   6.427   3.646
 6315SOL     OW19843   2.571   3.716   0.628
 6315SOL    HW119844   2.516   3.715   0.545
 6315SOL    HW219845   2.667   3.705   0.605
 6316SOL     OW19846   5.174   1.837   5.707
 6316SOL    HW119847   5.178   1.808   5.803
 6316SOL    HW219848   5.147   1.934   5.703
 6317SOL     OW19849   6.372   5.756   4.143
 6317SOL    HW119850   6.355   5.697   4.221
 6317SOL    HW219851   6.380   5.700   4.060
 6318SOL     OW19852   2.416   2.120   4.480
 6318SOL    HW119853   2.498   2.140   4.535
 6318SOL    HW219854   2.443   2.075   4.395
 6319SOL     OW19855   0.572   1.258   2.968
 6319SOL    HW119856   0.624   1.320   2.908
 6319SOL    HW219857   0.606   1.165   2.956
 6320SOL     OW19858   0.085   2.474   3.507
 6320SOL    HW119859   7.019   2.433   3.503
 6320SOL    HW219860   0.150   2.407   3.542
 6321SOL     OW19861   1.966   3.633   6.955
 6321SOL    HW119862   1.891   3.589   6.904
 6321SOL    HW219863   1.929   3.678   0.011
 6322SOL     OW19864   0.860   1.075   0.169
 6322SOL    HW119865   0.878   1.013   0.245
 6322SOL    HW219866   0.763   1.071   0.145
 6323SOL     OW19867   3.915   1.495   1.505
 6323SOL    HW119868   3.944   1.553   1.580
 6323SOL    HW219869   3.819   1.470   1.517
 6324SOL     OW19870   4.176   1.699   6.723
 6324SOL    HW119871   4.131   1.623   6.771
 6324SOL    HW219872   4.202   1.670   6.631
 6325SOL     OW19873   1.428   2.799   2.130
 6325SOL    HW119874   1.370   2.718   2.121
 6325SOL    HW219875   1.422   2.833   2.224
 6326SOL     OW19876   5.264   5.860   1.217
 6326SOL    HW119877   5.266   5.769   1.176
 6326SOL    HW219878   5.226   5.855   1.309
 6327SOL     OW19879   4.857   5.199   5.904
 6327SOL    HW119880   4.945   5.156   5.881
 6327SOL    HW219881   4.826   5.254   5.826
 6328SOL     OW19882   3.123   4.169   6.432
 6328SOL    HW119883   3.126   4.262   6.395
 6328SOL    HW219884   3.208   4.121   6.411
 6329SOL     OW19885   1.159   1.791   2.886
 6329SOL    HW119886   1.160   1.807   2.985
 6329SOL    HW219887   1.099   1.858   2.842
 6330SOL     OW19888   3.462   1.261   0.386
 6330SOL    HW119889   3.424   1.271   0.478
 6330SOL    HW219890   3.537   1.326   0.374
 6331SOL     OW19891   5.838   3.109   2.265
 6331SOL    HW119892   5.817   3.166   2.345
 6331SOL    HW219893   5.871   3.168   2.191
 6332SOL     OW19894   5.696   6.034   2.256
 6332SOL    HW119895   5.633   6.023   2.333
 6332SOL    HW219896   5.654   6.095   2.188
 6333SOL     OW19897   2.200   5.307   2.809
 6333SOL    HW119898   2.139   5.384   2.826
 6333SOL    HW219899   2.266   5.299   2.884
 6334SOL     OW19900   2.568   1.467   2.459
 6334SOL    HW119901   2.518   1.382   2.477
 6334SOL    HW219902   2.513   1.527   2.401
 6335SOL     OW19903   6.790   1.602   0.136
 6335SOL    HW119904   6.794   1.652   0.223
 6335SOL    HW219905   6.883   1.594   0.099
 6336SOL     OW19906   0.349   3.060   5.307
 6336SOL    HW119907   0.368   3.028   5.214
 6336SOL    HW219908   0.288   2.995   5.352
 6337SOL     OW19909   6.688   4.661   5.129
 6337SOL    HW119910   6.738   4.585   5.171
 6337SOL    HW219911   6.709   4.665   5.032
 6338SOL     OW19912   3.607   1.050   4.154
 6338SOL    HW119913   3.656   0.984   4.211
 6338SOL    HW219914   3.673   1.100   4.097
 6339SOL     OW19915   6.743   2.631   4.680
 6339SOL    HW119916   6.712   2.689   4.756
 6339SOL    HW219917   6.842   2.640   4.671
 6340SOL     OW19918   2.102   5.080   4.416
 6340SOL    HW119919   2.127   5.052   4.508
 6340SOL    HW219920   2.125   5.007   4.352
 6341SOL     OW19921   6.745   4.286   2.596
 6341SOL    HW119922   6.648   4.309   2.602
 6341SOL    HW219923   6.796   4.363   2.558
 6342SOL     OW19924   1.767   2.779   0.853
 6342SOL    HW119925   1.802   2.859   0.901
 6342SOL    HW219926   1.668   2.785   0.844
 6343SOL     OW19927   3.951   0.897   0.517
 6343SOL    HW119928   3.964   0.903   0.418
 6343SOL    HW219929   3.867   0.945   0.543
 6344SOL     OW19930   0.202   4.467   4.153
 6344SOL    HW119931   0.177   4.370   4.150
 6344SOL    HW219932   0.124   4.520   4.186
 6345SOL     OW19933   2.932   2.237   2.407
 6345SOL    HW119934   2.924   2.290   2.323
 6345SOL    HW219935   2.944   2.140   2.384
 6346SOL     OW19936   1.221   5.282   3.886
 6346SOL    HW119937   1.163   5.359   3.861
 6346SOL    HW219938   1.298   5.276   3.823
 6347SOL     OW19939   3.334   0.404   1.710
 6347SOL    HW119940   3.248   0.383   1.757
 6347SOL    HW219941   3.410   0.380   1.770
 6348SOL     OW19942   1.442   2.303   4.478
 6348SOL    HW119943   1.465   2.337   4.569
 6348SOL    HW219944   1.455   2.204   4.475
 6349SOL     OW19945   2.139   0.195   0.345
 6349SOL    HW119946   2.228   0.149   0.349
 6349SOL    HW219947   2.081   0.162   0.419
 6350SOL     OW19948   1.036   6.267   2.534
 6350SOL    HW119949   1.030   6.308   2.625
 6350SOL    HW219950   1.131   6.267   2.504
 6351SOL     OW19951   0.223   1.317   3.195
 6351SOL    HW119952   0.199   1.228   3.234
 6351SOL    HW219953   0.149   1.349   3.136
 6352SOL     OW19954   6.737   6.450   2.279
 6352SOL    HW119955   6.677   6.529   2.262
 6352SOL    HW219956   6.809   6.477   2.343
 6353SOL     OW19957   0.115   6.601   2.356
 6353SOL    HW119958   0.178   6.669   2.318
 6353SOL    HW219959   0.167   6.520   2.384
 6354SOL     OW19960   0.176   6.598   4.040
 6354SOL    HW119961   0.269   6.620   4.011
 6354SOL    HW219962   0.174   6.506   4.079
 6355SOL     OW19963   1.682   2.183   2.360
 6355SOL    HW119964   1.750   2.245   2.399
 6355SOL    HW219965   1.597   2.233   2.343
 6356SOL     OW19966   3.153   3.088   1.219
 6356SOL    HW119967   3.135   2.996   1.182
 6356SOL    HW219968   3.073   3.119   1.271
 6357SOL     OW19969   4.748   2.196   0.626
 6357SOL    HW119970   4.741   2.118   0.564
 6357SOL    HW219971   4.676   2.262   0.605
 6358SOL     OW19972   0.549   2.510   3.936
 6358SOL    HW119973   0.480   2.569   3.978
 6358SOL    HW219974   0.637   2.522   3.983
 6359SOL     OW19975   6.865   0.940   6.752
 6359SOL    HW119976   6.892   0.890   6.670
 6359SOL    HW219977   6.944   0.954   6.812
 6360SOL     OW19978   3.456   6.003   4.245
 6360SOL    HW119979   3.407   6.090   4.240
 6360SOL    HW219980   3.550   6.017   4.213
 6361SOL     OW19981   3.934   6.053   5.879
 6361SOL    HW119982   3.923   6.123   5.950
 6361SOL    HW219983   3.848   6.041   5.830
 6362SOL     OW19984   6.222   5.429   6.393
 6362SOL    HW119985   6.263   5.338   6.390
 6362SOL    HW219986   6.202   5.460   6.300
 6363SOL     OW19987   0.910   5.966   4.083
 6363SOL    HW119988   0.888   5.919   3.997
 6363SOL    HW219989   0.883   5.909   4.160
 6364SOL     OW19990   1.692   2.781   6.211
 6364SOL    HW119991   1.751   2.702   6.231
 6364SOL    HW219992   1.675   2.831   6.296
 6365SOL     OW19993   5.182   5.777   2.398
 6365SOL    HW119994   5.255   5.769   2.466
 6365SOL    HW219995   5.176   5.692   2.345
 6366SOL     OW19996   0.050   4.701   6.039
 6366SOL    HW119997   0.091   4.792   6.041
 6366SOL    HW219998   0.095   4.644   5.970
 6367SOL     OW19999   5.947   5.824   2.756
 6367SOL    HW120000   5.860   5.844   2.802
 6367SOL    HW220001   5.962   5.892   2.684
 6368SOL     OW20002   2.926   0.280   3.982
 6368SOL    HW120003   2.928   0.194   3.930
 6368SOL    HW220004   2.986   0.272   4.061
 6369SOL     OW20005   2.188   5.331   4.966
 6369SOL    HW120006   2.199   5.245   5.014
 6369SOL    HW220007   2.112   5.383   5.005
 6370SOL     OW20008   6.335   2.657   2.166
 6370SOL    HW120009   6.311   2.722   2.238
 6370SOL    HW220010   6.359   2.569   2.206
 6371SOL     OW20011   5.060   1.967   3.529
 6371SOL    HW120012   5.132   2.031   3.556
 6371SOL    HW220013   4.979   1.981   3.587
 6372SOL     OW20014   2.679   5.873   2.296
 6372SOL    HW120015   2.622   5.842   2.220
 6372SOL    HW220016   2.691   5.798   2.361
 6373SOL     OW20017   4.071   4.388   6.896
 6373SOL    HW120018   4.099   4.476   6.858
 6373SOL    HW220019   4.115   4.314   6.845
 6374SOL     OW20020   2.862   3.537   2.922
 6374SOL    HW120021   2.861   3.478   2.841
 6374SOL    HW220022   2.841   3.631   2.895
 6375SOL     OW20023   1.589   6.214   2.832
 6375SOL    HW120024   1.500   6.256   2.851
 6375SOL    HW220025   1.608   6.218   2.734
 6376SOL     OW20026   0.407   2.415   5.558
 6376SOL    HW120027   0.485   2.475   5.576
 6376SOL    HW220028   0.322   2.466   5.571
 6377SOL     OW20029   0.603   1.246   4.349
 6377SOL    HW120030   0.567   1.255   4.441
 6377SOL    HW220031   0.698   1.279   4.346
 6378SOL     OW20032   4.527   4.775   3.523
 6378SOL    HW120033   4.443   4.810   3.482
 6378SOL    HW220034   4.538   4.679   3.498
 6379SOL     OW20035   2.500   4.908   2.873
 6379SOL    HW120036   2.481   5.003   2.897
 6379SOL    HW220037   2.558   4.905   2.791
 6380SOL     OW20038   0.739   0.566   5.670
 6380SOL    HW120039   0.716   0.526   5.758
 6380SOL    HW220040   0.757   0.493   5.604
 6381SOL     OW20041   3.163   3.298   1.716
 6381SOL    HW120042   3.105   3.279   1.796
 6381SOL    HW220043   3.178   3.397   1.710
 6382SOL     OW20044   1.260   4.303   5.129
 6382SOL    HW120045   1.209   4.242   5.068
 6382SOL    HW220046   1.276   4.390   5.083
 6383SOL     OW20047   4.223   1.515   3.975
 6383SOL    HW120048   4.189   1.421   3.966
 6383SOL    HW220049   4.274   1.539   3.892
 6384SOL     OW20050   6.216   4.502   2.705
 6384SOL    HW120051   6.278   4.576   2.679
 6384SOL    HW220052   6.217   4.431   2.635
 6385SOL     OW20053   0.746   6.028   4.441
 6385SOL    HW120054   0.829   5.976   4.420
 6385SOL    HW220055   0.772   6.118   4.476
 6386SOL     OW20056   2.811   5.575   1.860
 6386SOL    HW120057   2.767   5.580   1.949
 6386SOL    HW220058   2.837   5.480   1.840
 6387SOL     OW20059   6.698   1.810   5.017
 6387SOL    HW120060   6.739   1.885   5.070
 6387SOL    HW220061   6.748   1.725   5.035
 6388SOL     OW20062   2.171   4.551   3.240
 6388SOL    HW120063   2.218   4.617   3.299
 6388SOL    HW220064   2.108   4.600   3.179
 6389SOL     OW20065   0.897   5.001   1.978
 6389SOL    HW120066   0.941   4.913   1.962
 6389SOL    HW220067   0.832   5.020   1.905
 6390SOL     OW20068   0.558   3.846   4.119
 6390SOL    HW120069   0.606   3.805   4.042
 6390SOL    HW220070   0.526   3.938   4.094
 6391SOL     OW20071   3.511   1.148   7.018
 6391SOL    HW120072   3.480   1.145   6.923
 6391SOL    HW220073   3.432   1.134   0.053
 6392SOL     OW20074   1.567   6.612   3.991
 6392SOL    HW120075   1.467   6.606   3.986
 6392SOL    HW220076   1.595   6.621   4.087
 6393SOL     OW20077   5.162   0.720   0.728
 6393SOL    HW120078   5.086   0.782   0.713
 6393SOL    HW220079   5.222   0.758   0.799
 6394SOL     OW20080   3.353   4.885   1.489
 6394SOL    HW120081   3.332   4.857   1.583
 6394SOL    HW220082   3.420   4.823   1.449
 6395SOL     OW20083   5.659   0.821   1.029
 6395SOL    HW120084   5.566   0.858   1.027
 6395SOL    HW220085   5.693   0.820   1.123
 6396SOL     OW20086   5.659   3.453   5.453
 6396SOL    HW120087   5.695   3.520   5.388
 6396SOL    HW220088   5.667   3.362   5.415
 6397SOL     OW20089   0.119   0.879   0.300
 6397SOL    HW120090   0.039   0.890   0.241
 6397SOL    HW220091   0.129   0.783   0.326
 6398SOL     OW20092   3.799   1.053   1.418
 6398SOL    HW120093   3.788   1.150   1.399
 6398SOL    HW220094   3.749   1.029   1.501
 6399SOL     OW20095   2.530   5.727   0.015
 6399SOL    HW120096   2.538   5.811   6.986
 6399SOL    HW220097   2.439   5.686   0.000
 6400SOL     OW20098   2.753   5.531   4.390
 6400SOL    HW120099   2.745   5.563   4.484
 6400SOL    HW220100   2.773   5.607   4.329
 6401SOL     OW20101   1.515   4.326   4.377
 6401SOL    HW120102   1.615   4.325   4.370
 6401SOL    HW220103   1.485   4.252   4.438
 6402SOL     OW20104   1.671   2.171   3.236
 6402SOL    HW120105   1.686   2.107   3.161
 6402SOL    HW220106   1.749   2.166   3.299
 6403SOL     OW20107   0.613   5.729   1.417
 6403SOL    HW120108   0.571   5.789   1.349
 6403SOL    HW220109   0.704   5.701   1.385
 6404SOL     OW20110   5.106   1.316   3.150
 6404SOL    HW120111   5.029   1.378   3.141
 6404SOL    HW220112   5.149   1.303   3.061
 6405SOL     OW20113   2.727   1.314   2.061
 6405SOL    HW120114   2.693   1.375   2.134
 6405SOL    HW220115   2.694   1.347   1.973
 6406SOL     OW20116   2.553   2.238   3.546
 6406SOL    HW120117   2.483   2.303   3.575
 6406SOL    HW220118   2.528   2.146   3.578
 6407SOL     OW20119   4.623   5.029   6.243
 6407SOL    HW120120   4.615   5.122   6.206
 6407SOL    HW220121   4.538   5.004   6.288
 6408SOL     OW20122   6.291   1.338   0.315
 6408SOL    HW120123   6.258   1.426   0.349
 6408SOL    HW220124   6.324   1.282   0.391
 6409SOL     OW20125   0.983   4.280   1.909
 6409SOL    HW120126   1.012   4.322   1.994
 6409SOL    HW220127   0.943   4.190   1.928
 6410SOL     OW20128   1.292   1.388   1.627
 6410SOL    HW120129   1.258   1.326   1.556
 6410SOL    HW220130   1.330   1.470   1.584
 6411SOL     OW20131   2.012   0.603   3.194
 6411SOL    HW120132   2.018   0.689   3.144
 6411SOL    HW220133   1.999   0.621   3.291
 6412SOL     OW20134   6.979   2.148   4.943
 6412SOL    HW120135   6.933   2.231   4.913
 6412SOL    HW220136   0.009   2.112   4.867
 6413SOL     OW20137   0.354   4.451   0.558
 6413SOL    HW120138   0.329   4.479   0.651
 6413SOL    HW220139   0.348   4.351   0.551
 6414SOL     OW20140   6.475   6.441   2.691
 6414SOL    HW120141   6.501   6.532   2.659
 6414SOL    HW220142   6.386   6.447   2.737
 6415SOL     OW20143   1.417   1.589   2.031
 6415SOL    HW120144   1.334   1.622   1.987
 6415SOL    HW220145   1.396   1.510   2.088
 6416SOL     OW20146   2.132   6.691   6.449
 6416SOL    HW120147   2.228   6.664   6.453
 6416SOL    HW220148   2.075   6.616   6.482
 6417SOL     OW20149   0.559   6.686   3.234
 6417SOL    HW120150   0.531   6.619   3.165
 6417SOL    HW220151   0.659   6.690   3.237
 6418SOL     OW20152   6.797   6.078   2.525
 6418SOL    HW120153   6.706   6.119   2.518
 6418SOL    HW220154   6.864   6.136   2.478
 6419SOL     OW20155   2.846   4.444   1.021
 6419SOL    HW120156   2.788   4.486   0.953
 6419SOL    HW220157   2.792   4.422   1.103
 6420SOL     OW20158   0.968   3.451   0.053
 6420SOL    HW120159   0.956   3.537   0.104
 6420SOL    HW220160   0.917   3.456   6.993
 6421SOL     OW20161   5.860   1.819   1.072
 6421SOL    HW120162   5.808   1.754   1.128
 6421SOL    HW220163   5.867   1.907   1.119
 6422SOL     OW20164   6.221   2.035   3.829
 6422SOL    HW120165   6.210   2.010   3.732
 6422SOL    HW220166   6.140   2.085   3.859
 6423SOL     OW20167   4.999   4.368   0.876
 6423SOL    HW120168   5.093   4.384   0.847
 6423SOL    HW220169   4.971   4.275   0.851
 6424SOL     OW20170   6.680   5.025   4.888
 6424SOL    HW120171   6.731   5.079   4.954
 6424SOL    HW220172   6.654   5.083   4.810
 6425SOL     OW20173   0.333   4.965   1.034
 6425SOL    HW120174   0.430   4.946   1.020
 6425SOL    HW220175   0.319   5.064   1.043
 6426SOL     OW20176   6.785   2.752   3.490
 6426SOL    HW120177   6.785   2.784   3.585
 6426SOL    HW220178   6.822   2.660   3.486
 6427SOL     OW20179   0.966   3.149   6.039
 6427SOL    HW120180   0.929   3.060   6.069
 6427SOL    HW220181   0.910   3.222   6.078
 6428SOL     OW20182   6.635   2.903   2.932
 6428SOL    HW120183   6.584   2.860   2.857
 6428SOL    HW220184   6.693   2.835   2.977
 6429SOL     OW20185   1.084   0.801   4.258
 6429SOL    HW120186   1.159   0.772   4.197
 6429SOL    HW220187   1.038   0.720   4.294
 6430SOL     OW20188   5.943   3.649   0.176
 6430SOL    HW120189   5.855   3.661   0.129
 6430SOL    HW220190   5.927   3.611   0.267
 6431SOL     OW20191   5.223   0.991   3.327
 6431SOL    HW120192   5.290   1.055   3.366
 6431SOL    HW220193   5.135   1.036   3.316
 6432SOL     OW20194   6.082   3.416   0.003
 6432SOL    HW120195   6.110   3.482   0.073
 6432SOL    HW220196   6.093   3.458   6.937
 6433SOL     OW20197   2.614   3.787   1.673
 6433SOL    HW120198   2.676   3.866   1.666
 6433SOL    HW220199   2.661   3.713   1.721
 6434SOL     OW20200   2.043   5.722   0.348
 6434SOL    HW120201   2.125   5.768   0.314
 6434SOL    HW220202   2.012   5.765   0.432
 6435SOL     OW20203   5.013   3.876   0.198
 6435SOL    HW120204   5.032   3.797   0.140
 6435SOL    HW220205   5.006   3.847   0.293
 6436SOL     OW20206   1.593   3.045   2.461
 6436SOL    HW120207   1.633   2.955   2.480
 6436SOL    HW220208   1.631   3.081   2.375
 6437SOL     OW20209   0.350   0.728   6.709
 6437SOL    HW120210   0.281   0.674   6.757
 6437SOL    HW220211   0.344   0.711   6.610
 6438SOL     OW20212   0.851   3.603   3.736
 6438SOL    HW120213   0.910   3.666   3.787
 6438SOL    HW220214   0.813   3.536   3.798
 6439SOL     OW20215   0.024   6.667   2.010
 6439SOL    HW120216   6.993   6.592   1.975
 6439SOL    HW220217   0.120   6.641   2.007
 6440SOL     OW20218   0.471   0.869   2.597
 6440SOL    HW120219   0.499   0.784   2.641
 6440SOL    HW220220   0.374   0.867   2.577
 6441SOL     OW20221   3.573   1.113   3.469
 6441SOL    HW120222   3.644   1.044   3.469
 6441SOL    HW220223   3.544   1.131   3.375
 6442SOL     OW20224   3.428   0.594   3.847
 6442SOL    HW120225   3.460   0.530   3.777
 6442SOL    HW220226   3.452   0.687   3.819
 6443SOL     OW20227   2.319   1.423   0.166
 6443SOL    HW120228   2.305   1.348   0.230
 6443SOL    HW220229   2.395   1.481   0.197
 6444SOL     OW20230   0.703   0.850   3.728
 6444SOL    HW120231   0.794   0.869   3.763
 6444SOL    HW220232   0.706   0.843   3.628
 6445SOL     OW20233   3.700   3.646   5.725
 6445SOL    HW120234   3.720   3.549   5.741
 6445SOL    HW220235   3.613   3.670   5.768
 6446SOL     OW20236   6.567   1.652   0.926
 6446SOL    HW120237   6.636   1.700   0.872
 6446SOL    HW220238   6.604   1.633   1.017
 6447SOL     OW20239   1.853   0.167   2.741
 6447SOL    HW120240   1.856   0.132   2.648
 6447SOL    HW220241   1.804   0.254   2.743
 6448SOL     OW20242   6.382   2.088   2.766
 6448SOL    HW120243   6.283   2.075   2.775
 6448SOL    HW220244   6.429   2.007   2.800
 6449SOL     OW20245   3.407   3.081   1.316
 6449SOL    HW120246   3.329   3.096   1.256
 6449SOL    HW220247   3.412   2.984   1.340
 6450SOL     OW20248   6.792   3.538   0.095
 6450SOL    HW120249   6.821   3.492   0.011
 6450SOL    HW220250   6.711   3.493   0.132
 6451SOL     OW20251   2.076   6.953   4.320
 6451SOL    HW120252   2.153   6.896   4.293
 6451SOL    HW220253   2.050   6.932   4.414
 6452SOL     OW20254   4.105   6.587   3.434
 6452SOL    HW120255   4.191   6.633   3.454
 6452SOL    HW220256   4.052   6.642   3.368
 6453SOL     OW20257   2.232   4.070   6.310
 6453SOL    HW120258   2.179   4.153   6.290
 6453SOL    HW220259   2.169   3.994   6.326
 6454SOL     OW20260   2.671   1.241   4.566
 6454SOL    HW120261   2.770   1.257   4.567
 6454SOL    HW220262   2.626   1.311   4.512
 6455SOL     OW20263   6.621   3.101   5.255
 6455SOL    HW120264   6.711   3.106   5.299
 6455SOL    HW220265   6.592   3.005   5.252
 6456SOL     OW20266   6.693   0.801   4.546
 6456SOL    HW120267   6.594   0.794   4.553
 6456SOL    HW220268   6.726   0.738   4.475
 6457SOL     OW20269   6.517   3.049   2.123
 6457SOL    HW120270   6.561   3.137   2.101
 6457SOL    HW220271   6.588   2.981   2.143
 6458SOL     OW20272   1.196   6.022   2.571
 6458SOL    HW120273   1.215   6.041   2.668
 6458SOL    HW220274   1.101   6.046   2.551
 6459SOL     OW20275   5.532   4.605   0.661
 6459SOL    HW120276   5.503   4.518   0.622
 6459SOL    HW220277   5.627   4.597   0.692
 6460SOL     OW20278   3.288   4.804   0.092
 6460SOL    HW120279   3.277   4.892   0.046
 6460SOL    HW220280   3.217   4.794   0.162
 6461SOL     OW20281   4.073   5.565   4.655
 6461SOL    HW120282   4.079   5.514   4.741
 6461SOL    HW220283   4.040   5.657   4.674
 6462SOL     OW20284   1.920   3.020   3.871
 6462SOL    HW120285   1.964   3.099   3.829
 6462SOL    HW220286   1.933   2.940   3.811
 6463SOL     OW20287   1.233   4.623   5.438
 6463SOL    HW120288   1.142   4.607   5.399
 6463SOL    HW220289   1.281   4.535   5.446
 6464SOL     OW20290   0.793   5.565   2.362
 6464SOL    HW120291   0.731   5.582   2.439
 6464SOL    HW220292   0.879   5.612   2.378
 6465SOL     OW20293   6.516   0.823   3.014
 6465SOL    HW120294   6.494   0.783   3.103
 6465SOL    HW220295   6.573   0.760   2.962
 6466SOL     OW20296   0.365   2.609   5.345
 6466SOL    HW120297   0.433   2.538   5.330
 6466SOL    HW220298   0.374   2.646   5.437
 6467SOL     OW20299   2.849   1.131   6.551
 6467SOL    HW120300   2.860   1.117   6.649
 6467SOL    HW220301   2.847   1.042   6.505
 6468SOL     OW20302   4.849   4.509   0.668
 6468SOL    HW120303   4.758   4.474   0.644
 6468SOL    HW220304   4.887   4.453   0.743
 6469SOL     OW20305   6.671   0.977   6.041
 6469SOL    HW120306   6.656   1.075   6.053
 6469SOL    HW220307   6.631   0.927   6.119
 6470SOL     OW20308   6.630   6.151   5.247
 6470SOL    HW120309   6.626   6.248   5.271
 6470SOL    HW220310   6.696   6.105   5.307
 6471SOL     OW20311   5.406   5.540   6.020
 6471SOL    HW120312   5.330   5.485   6.057
 6471SOL    HW220313   5.387   5.637   6.034
 6472SOL     OW20314   1.207   5.678   1.145
 6472SOL    HW120315   1.296   5.714   1.172
 6472SOL    HW220316   1.145   5.754   1.126
 6473SOL     OW20317   2.133   1.374   5.481
 6473SOL    HW120318   2.039   1.341   5.468
 6473SOL    HW220319   2.156   1.370   5.579
 6474SOL     OW20320   2.432   3.343   5.553
 6474SOL    HW120321   2.416   3.389   5.640
 6474SOL    HW220322   2.427   3.410   5.479
 6475SOL     OW20323   4.641   6.307   3.931
 6475SOL    HW120324   4.612   6.347   4.018
 6475SOL    HW220325   4.560   6.277   3.881
 6476SOL     OW20326   5.171   4.930   2.437
 6476SOL    HW120327   5.229   4.942   2.518
 6476SOL    HW220328   5.122   5.015   2.419
 6477SOL     OW20329   0.232   6.338   6.505
 6477SOL    HW120330   0.311   6.355   6.563
 6477SOL    HW220331   0.261   6.298   6.418
 6478SOL     OW20332   4.864   6.344   0.723
 6478SOL    HW120333   4.939   6.279   0.730
 6478SOL    HW220334   4.878   6.419   0.789
 6479SOL     OW20335   4.280   6.217   2.387
 6479SOL    HW120336   4.256   6.302   2.341
 6479SOL    HW220337   4.286   6.233   2.485
 6480SOL     OW20338   2.672   1.746   0.675
 6480SOL    HW120339   2.580   1.771   0.645
 6480SOL    HW220340   2.740   1.781   0.611
 6481SOL     OW20341   4.318   0.903   1.399
 6481SOL    HW120342   4.242   0.960   1.433
 6481SOL    HW220343   4.357   0.852   1.475
 6482SOL     OW20344   0.153   0.943   6.891
 6482SOL    HW120345   0.169   0.970   6.986
 6482SOL    HW220346   0.210   0.864   6.869
 6483SOL     OW20347   2.071   6.424   2.376
 6483SOL    HW120348   2.147   6.359   2.368
 6483SOL    HW220349   2.032   6.419   2.468
 6484SOL     OW20350   5.434   5.921   3.461
 6484SOL    HW120351   5.444   6.020   3.470
 6484SOL    HW220352   5.444   5.896   3.364
 6485SOL     OW20353   0.984   2.805   3.466
 6485SOL    HW120354   1.027   2.730   3.516
 6485SOL    HW220355   0.997   2.791   3.367
 6486SOL     OW20356   1.863   3.132   3.158
 6486SOL    HW120357   1.887   3.167   3.067
 6486SOL    HW220358   1.798   3.057   3.148
 6487SOL     OW20359   5.893   5.684   3.335
 6487SOL    HW120360   5.810   5.713   3.384
 6487SOL    HW220361   5.943   5.617   3.391
 6488SOL     OW20362   3.521   4.925   6.242
 6488SOL    HW120363   3.509   5.013   6.286
 6488SOL    HW220364   3.546   4.939   6.146
 6489SOL     OW20365   2.102   2.346   5.593
 6489SOL    HW120366   2.060   2.436   5.600
 6489SOL    HW220367   2.201   2.355   5.606
 6490SOL     OW20368   3.751   1.279   0.480
 6490SOL    HW120369   3.834   1.259   0.429
 6490SOL    HW220370   3.718   1.195   0.524
 6491SOL     OW20371   3.670   1.485   6.226
 6491SOL    HW120372   3.714   1.396   6.240
 6491SOL    HW220373   3.591   1.474   6.165
 6492SOL     OW20374   5.837   5.620   6.504
 6492SOL    HW120375   5.782   5.702   6.493
 6492SOL    HW220376   5.930   5.637   6.471
 6493SOL     OW20377   1.161   6.307   5.605
 6493SOL    HW120378   1.074   6.339   5.643
 6493SOL    HW220379   1.232   6.312   5.675
 6494SOL     OW20380   1.436   0.297   3.429
 6494SOL    HW120381   1.417   0.393   3.412
 6494SOL    HW220382   1.398   0.242   3.355
 6495SOL     OW20383   5.169   5.548   2.273
 6495SOL    HW120384   5.235   5.474   2.288
 6495SOL    HW220385   5.076   5.513   2.286
 6496SOL     OW20386   1.756   6.928   3.269
 6496SOL    HW120387   1.684   6.953   3.205
 6496SOL    HW220388   1.778   7.007   3.327
 6497SOL     OW20389   0.261   5.504   0.172
 6497SOL    HW120390   0.199   5.516   0.095
 6497SOL    HW220391   0.220   5.542   0.255
 6498SOL     OW20392   1.328   4.136   3.773
 6498SOL    HW120393   1.425   4.120   3.791
 6498SOL    HW220394   1.318   4.217   3.715
 6499SOL     OW20395   5.904   0.978   3.903
 6499SOL    HW120396   5.930   1.051   3.967
 6499SOL    HW220397   5.829   0.925   3.941
 6500SOL     OW20398   5.399   4.813   3.621
 6500SOL    HW120399   5.411   4.717   3.596
 6500SOL    HW220400   5.469   4.868   3.578
 6501SOL     OW20401   6.987   3.598   0.776
 6501SOL    HW120402   6.993   3.500   0.797
 6501SOL    HW220403   6.974   3.650   0.860
 6502SOL     OW20404   1.150   4.652   2.324
 6502SOL    HW120405   1.084   4.613   2.386
 6502SOL    HW220406   1.220   4.701   2.376
 6503SOL     OW20407   4.245   0.301   4.585
 6503SOL    HW120408   4.326   0.248   4.610
 6503SOL    HW220409   4.171   0.281   4.648
 6504SOL     OW20410   1.983   1.517   0.452
 6504SOL    HW120411   1.955   1.480   0.363
 6504SOL    HW220412   2.074   1.557   0.445
 6505SOL     OW20413   5.704   5.295   1.077
 6505SOL    HW120414   5.663   5.374   1.030
 6505SOL    HW220415   5.684   5.300   1.174
 6506SOL     OW20416   1.994   2.041   0.844
 6506SOL    HW120417   1.913   2.000   0.802
 6506SOL    HW220418   2.019   2.124   0.794
 6507SOL     OW20419   2.664   0.865   2.185
 6507SOL    HW120420   2.564   0.868   2.181
 6507SOL    HW220421   2.700   0.958   2.186
 6508SOL     OW20422   2.417   1.613   2.239
 6508SOL    HW120423   2.456   1.697   2.276
 6508SOL    HW220424   2.335   1.634   2.186
 6509SOL     OW20425   0.934   2.513   4.549
 6509SOL    HW120426   0.922   2.550   4.457
 6509SOL    HW220427   0.874   2.563   4.612
 6510SOL     OW20428   5.377   5.081   6.625
 6510SOL    HW120429   5.293   5.134   6.631
 6510SOL    HW220430   5.357   4.984   6.639
 6511SOL     OW20431   6.122   6.162   5.437
 6511SOL    HW120432   6.197   6.197   5.493
 6511SOL    HW220433   6.108   6.065   5.458
 6512SOL     OW20434   5.106   6.604   4.234
 6512SOL    HW120435   5.187   6.622   4.291
 6512SOL    HW220436   5.104   6.508   4.208
 6513SOL     OW20437   2.852   6.844   2.848
 6513SOL    HW120438   2.825   6.928   2.895
 6513SOL    HW220439   2.857   6.861   2.750
 6514SOL     OW20440   3.520   6.897   3.694
 6514SOL    HW120441   3.619   6.891   3.680
 6514SOL    HW220442   3.501   6.949   3.777
 6515SOL     OW20443   0.868   1.333   4.316
 6515SOL    HW120444   0.919   1.418   4.317
 6515SOL    HW220445   0.909   1.269   4.381
 6516SOL     OW20446   1.549   1.422   5.655
 6516SOL    HW120447   1.487   1.361   5.606
 6516SOL    HW220448   1.516   1.516   5.647
 6517SOL     OW20449   1.484   1.979   0.086
 6517SOL    HW120450   1.403   1.952   0.033
 6517SOL    HW220451   1.548   2.027   0.026
 6518SOL     OW20452   5.914   6.312   0.421
 6518SOL    HW120453   5.920   6.411   0.439
 6518SOL    HW220454   5.984   6.265   0.473
 6519SOL     OW20455   2.180   1.493   3.628
 6519SOL    HW120456   2.222   1.446   3.550
 6519SOL    HW220457   2.111   1.433   3.669
 6520SOL     OW20458   5.695   5.157   1.727
 6520SOL    HW120459   5.716   5.089   1.657
 6520SOL    HW220460   5.756   5.235   1.717
 6521SOL     OW20461   1.197   1.992   5.543
 6521SOL    HW120462   1.198   2.068   5.479
 6521SOL    HW220463   1.291   1.961   5.560
 6522SOL     OW20464   2.669   5.218   5.094
 6522SOL    HW120465   2.621   5.301   5.123
 6522SOL    HW220466   2.656   5.146   5.162
 6523SOL     OW20467   1.583   2.357   6.874
 6523SOL    HW120468   1.549   2.405   6.955
 6523SOL    HW220469   1.595   2.260   6.896
 6524SOL     OW20470   3.263   4.134   4.349
 6524SOL    HW120471   3.259   4.035   4.364
 6524SOL    HW220472   3.187   4.178   4.397
 6525SOL     OW20473   0.569   2.681   4.286
 6525SOL    HW120474   0.622   2.763   4.306
 6525SOL    HW220475   0.534   2.686   4.193
 6526SOL     OW20476   1.687   5.920   4.431
 6526SOL    HW120477   1.713   5.827   4.405
 6526SOL    HW220478   1.648   5.967   4.352
 6527SOL     OW20479   2.422   0.843   4.376
 6527SOL    HW120480   2.409   0.823   4.279
 6527SOL    HW220481   2.407   0.940   4.392
 6528SOL     OW20482   6.710   6.734   3.464
 6528SOL    HW120483   6.801   6.724   3.505
 6528SOL    HW220484   6.640   6.729   3.536
 6529SOL     OW20485   6.644   2.437   1.700
 6529SOL    HW120486   6.597   2.520   1.728
 6529SOL    HW220487   6.679   2.389   1.781
 6530SOL     OW20488   6.617   2.327   0.479
 6530SOL    HW120489   6.519   2.321   0.493
 6530SOL    HW220490   6.656   2.397   0.538
 6531SOL     OW20491   5.511   2.841   4.229
 6531SOL    HW120492   5.489   2.743   4.234
 6531SOL    HW220493   5.445   2.892   4.283
 6532SOL     OW20494   1.000   2.464   6.678
 6532SOL    HW120495   1.020   2.446   6.582
 6532SOL    HW220496   0.934   2.396   6.711
 6533SOL     OW20497   4.686   1.260   1.030
 6533SOL    HW120498   4.629   1.256   1.112
 6533SOL    HW220499   4.778   1.228   1.051
 6534SOL     OW20500   1.927   3.281   0.461
 6534SOL    HW120501   2.002   3.216   0.456
 6534SOL    HW220502   1.954   3.367   0.418
 6535SOL     OW20503   1.939   3.696   5.815
 6535SOL    HW120504   1.960   3.794   5.825
 6535SOL    HW220505   1.992   3.658   5.740
 6536SOL     OW20506   6.822   2.339   0.011
 6536SOL    HW120507   6.769   2.410   6.991
 6536SOL    HW220508   6.761   2.282   0.067
 6537SOL     OW20509   0.489   6.847   6.921
 6537SOL    HW120510   0.540   6.838   6.835
 6537SOL    HW220511   0.542   6.901   6.986
 6538SOL     OW20512   1.817   3.227   6.234
 6538SOL    HW120513   1.801   3.198   6.140
 6538SOL    HW220514   1.760   3.172   6.296
 6539SOL     OW20515   2.550   1.692   6.382
 6539SOL    HW120516   2.625   1.635   6.416
 6539SOL    HW220517   2.486   1.635   6.331
 6540SOL     OW20518   3.262   1.293   4.137
 6540SOL    HW120519   3.274   1.391   4.124
 6540SOL    HW220520   3.246   1.249   4.049
 6541SOL     OW20521   2.721   2.685   5.479
 6541SOL    HW120522   2.766   2.645   5.399
 6541SOL    HW220523   2.661   2.759   5.449
 6542SOL     OW20524   5.663   4.556   3.446
 6542SOL    HW120525   5.668   4.543   3.347
 6542SOL    HW220526   5.748   4.524   3.488
 6543SOL     OW20527   0.020   5.761   6.678
 6543SOL    HW120528   0.000   5.859   6.669
 6543SOL    HW220529   0.011   5.735   6.774
 6544SOL     OW20530   6.287   5.916   3.782
 6544SOL    HW120531   6.322   5.988   3.722
 6544SOL    HW220532   6.195   5.890   3.753
 6545SOL     OW20533   5.467   2.938   6.151
 6545SOL    HW120534   5.426   2.861   6.201
 6545SOL    HW220535   5.530   2.903   6.082
 6546SOL     OW20536   3.436   4.617   6.002
 6546SOL    HW120537   3.413   4.522   5.982
 6546SOL    HW220538   3.453   4.627   6.100
 6547SOL     OW20539   5.224   1.566   6.491
 6547SOL    HW120540   5.164   1.495   6.454
 6547SOL    HW220541   5.169   1.633   6.541
 6548SOL     OW20542   6.140   4.739   5.091
 6548SOL    HW120543   6.106   4.822   5.046
 6548SOL    HW220544   6.239   4.746   5.102
 6549SOL     OW20545   3.183   1.469   1.650
 6549SOL    HW120546   3.189   1.569   1.646
 6549SOL    HW220547   3.133   1.442   1.731
 6550SOL     OW20548   0.942   5.601   3.348
 6550SOL    HW120549   0.864   5.539   3.345
 6550SOL    HW220550   1.009   5.567   3.413
 6551SOL     OW20551   2.596   4.896   2.124
 6551SOL    HW120552   2.563   4.986   2.096
 6551SOL    HW220553   2.564   4.827   2.059
 6552SOL     OW20554   4.469   5.100   6.467
 6552SOL    HW120555   4.506   5.155   6.393
 6552SOL    HW220556   4.468   5.154   6.551
 6553SOL     OW20557   0.115   2.747   2.735
 6553SOL    HW120558   0.150   2.677   2.797
 6553SOL    HW220559   0.135   2.837   2.773
 6554SOL     OW20560   0.219   3.339   5.045
 6554SOL    HW120561   0.216   3.421   4.989
 6554SOL    HW220562   0.264   3.265   4.995
 6555SOL     OW20563   0.628   1.439   1.973
 6555SOL    HW120564   0.545   1.429   2.027
 6555SOL    HW220565   0.680   1.354   1.975
 6556SOL     OW20566   3.339   0.504   4.355
 6556SOL    HW120567   3.319   0.409   4.380
 6556SOL    HW220568   3.351   0.510   4.255
 6557SOL     OW20569   5.919   6.260   1.543
 6557SOL    HW120570   5.962   6.240   1.631
 6557SOL    HW220571   5.890   6.175   1.500
 6558SOL     OW20572   6.674   5.912   6.390
 6558SOL    HW120573   6.760   5.963   6.383
 6558SOL    HW220574   6.685   5.835   6.452
 6559SOL     OW20575   3.416   3.347   1.190
 6559SOL    HW120576   3.454   3.411   1.256
 6559SOL    HW220577   3.391   3.262   1.236
 6560SOL     OW20578   3.635   1.932   0.550
 6560SOL    HW120579   3.698   1.925   0.472
 6560SOL    HW220580   3.663   1.867   0.620
 6561SOL     OW20581   3.609   4.050   4.234
 6561SOL    HW120582   3.583   4.089   4.322
 6561SOL    HW220583   3.582   4.111   4.160
 6562SOL     OW20584   5.929   3.214   5.458
 6562SOL    HW120585   5.874   3.204   5.375
 6562SOL    HW220586   5.975   3.303   5.458
 6563SOL     OW20587   1.526   5.288   2.687
 6563SOL    HW120588   1.520   5.294   2.587
 6563SOL    HW220589   1.520   5.193   2.715
 6564SOL     OW20590   1.050   6.046   2.794
 6564SOL    HW120591   1.018   5.953   2.811
 6564SOL    HW220592   1.029   6.103   2.874
 6565SOL     OW20593   6.528   3.370   5.012
 6565SOL    HW120594   6.508   3.318   4.929
 6565SOL    HW220595   6.625   3.395   5.013
 6566SOL     OW20596   3.777   6.749   0.811
 6566SOL    HW120597   3.702   6.703   0.763
 6566SOL    HW220598   3.743   6.832   0.855
 6567SOL     OW20599   6.217   2.997   1.530
 6567SOL    HW120600   6.188   2.955   1.616
 6567SOL    HW220601   6.296   2.948   1.494
 6568SOL     OW20602   3.922   4.156   1.451
 6568SOL    HW120603   3.915   4.232   1.516
 6568SOL    HW220604   4.019   4.131   1.440
 6569SOL     OW20605   0.910   4.948   6.486
 6569SOL    HW120606   0.874   4.903   6.568
 6569SOL    HW220607   1.000   4.912   6.465
 6570SOL     OW20608   6.030   2.998   1.239
 6570SOL    HW120609   6.040   3.078   1.298
 6570SOL    HW220610   5.968   3.019   1.164
 6571SOL     OW20611   3.030   6.178   4.064
 6571SOL    HW120612   2.962   6.193   3.992
 6571SOL    HW220613   2.989   6.121   4.136
 6572SOL     OW20614   1.074   3.739   6.746
 6572SOL    HW120615   1.116   3.803   6.682
 6572SOL    HW220616   1.015   3.675   6.697
 6573SOL     OW20617   1.935   2.285   2.121
 6573SOL    HW120618   1.896   2.310   2.209
 6573SOL    HW220619   2.032   2.313   2.118
 6574SOL     OW20620   1.974   4.822   3.294
 6574SOL    HW120621   1.935   4.908   3.326
 6574SOL    HW220622   1.989   4.826   3.195
 6575SOL     OW20623   1.599   1.105   2.446
 6575SOL    HW120624   1.551   1.090   2.532
 6575SOL    HW220625   1.634   1.199   2.443
 6576SOL     OW20626   1.170   6.179   4.742
 6576SOL    HW120627   1.248   6.196   4.802
 6576SOL    HW220628   1.098   6.245   4.763
 6577SOL     OW20629   6.559   2.428   4.578
 6577SOL    HW120630   6.518   2.508   4.536
 6577SOL    HW220631   6.636   2.455   4.635
 6578SOL     OW20632   6.726   5.377   3.077
 6578SOL    HW120633   6.685   5.288   3.098
 6578SOL    HW220634   6.683   5.447   3.134
 6579SOL     OW20635   0.726   3.707   2.588
 6579SOL    HW120636   0.661   3.761   2.642
 6579SOL    HW220637   0.768   3.638   2.647
 6580SOL     OW20638   6.231   2.232   1.560
 6580SOL    HW120639   6.201   2.327   1.550
 6580SOL    HW220640   6.228   2.187   1.470
 6581SOL     OW20641   2.206   2.222   5.293
 6581SOL    HW120642   2.228   2.125   5.294
 6581SOL    HW220643   2.154   2.246   5.375
 6582SOL     OW20644   0.143   6.975   2.391
 6582SOL    HW120645   0.174   0.024   2.331
 6582SOL    HW220646   0.053   6.944   2.361
 6583SOL     OW20647   5.185   1.867   5.230
 6583SOL    HW120648   5.179   1.954   5.181
 6583SOL    HW220649   5.137   1.796   5.178
 6584SOL     OW20650   5.126   1.721   6.832
 6584SOL    HW120651   5.028   1.704   6.825
 6584SOL    HW220652   5.144   1.786   6.905
 6585SOL     OW20653   2.168   1.073   0.519
 6585SOL    HW120654   2.088   1.047   0.573
 6585SOL    HW220655   2.251   1.040   0.565
 6586SOL     OW20656   0.080   1.878   0.182
 6586SOL    HW120657   7.010   1.877   0.214
 6586SOL    HW220658   0.091   1.952   0.115
 6587SOL     OW20659   2.021   6.912   2.517
 6587SOL    HW120660   2.091   6.983   2.525
 6587SOL    HW220661   2.030   6.867   2.428
 6588SOL     OW20662   2.369   2.780   0.206
 6588SOL    HW120663   2.396   2.875   0.194
 6588SOL    HW220664   2.363   2.759   0.303
 6589SOL     OW20665   5.352   1.476   5.544
 6589SOL    HW120666   5.360   1.530   5.627
 6589SOL    HW220667   5.311   1.532   5.472
 6590SOL     OW20668   6.546   1.082   5.247
 6590SOL    HW120669   6.528   1.038   5.335
 6590SOL    HW220670   6.459   1.105   5.204
 6591SOL     OW20671   5.630   1.039   2.726
 6591SOL    HW120672   5.668   0.947   2.719
 6591SOL    HW220673   5.703   1.103   2.748
 6592SOL     OW20674   5.446   5.591   4.721
 6592SOL    HW120675   5.505   5.635   4.654
 6592SOL    HW220676   5.352   5.592   4.688
 6593SOL     OW20677   4.347   0.468   2.740
 6593SOL    HW120678   4.434   0.419   2.733
 6593SOL    HW220679   4.307   0.478   2.649
 6594SOL     OW20680   5.466   0.929   6.431
 6594SOL    HW120681   5.468   0.994   6.507
 6594SOL    HW220682   5.553   0.933   6.380
 6595SOL     OW20683   1.348   3.362   0.766
 6595SOL    HW120684   1.433   3.406   0.794
 6595SOL    HW220685   1.311   3.408   0.686
 6596SOL     OW20686   3.625   6.800   5.006
 6596SOL    HW120687   3.696   6.754   4.952
 6596SOL    HW220688   3.535   6.769   4.975
 6597SOL     OW20689   6.632   4.595   6.326
 6597SOL    HW120690   6.691   4.526   6.368
 6597SOL    HW220691   6.686   4.653   6.265
 6598SOL     OW20692   2.033   5.689   5.274
 6598SOL    HW120693   2.130   5.665   5.283
 6598SOL    HW220694   2.025   5.779   5.230
 6599SOL     OW20695   4.585   3.807   5.879
 6599SOL    HW120696   4.684   3.820   5.877
 6599SOL    HW220697   4.559   3.734   5.815
 6600SOL     OW20698   4.188   5.805   4.258
 6600SOL    HW120699   4.236   5.825   4.172
 6600SOL    HW220700   4.102   5.759   4.238
 6601SOL     OW20701   1.089   0.411   1.144
 6601SOL    HW120702   1.039   0.461   1.073
 6601SOL    HW220703   1.077   0.456   1.232
 6602SOL     OW20704   6.430   1.377   1.693
 6602SOL    HW120705   6.480   1.362   1.608
 6602SOL    HW220706   6.428   1.475   1.714
 6603SOL     OW20707   2.046   2.306   2.624
 6603SOL    HW120708   2.018   2.389   2.672
 6603SOL    HW220709   2.111   2.330   2.552
 6604SOL     OW20710   3.865   5.745   3.080
 6604SOL    HW120711   3.947   5.798   3.058
 6604SOL    HW220712   3.791   5.771   3.018
 6605SOL     OW20713   6.024   6.567   6.865
 6605SOL    HW120714   5.946   6.599   6.917
 6605SOL    HW220715   5.997   6.490   6.808
 6606SOL     OW20716   6.188   1.153   2.603
 6606SOL    HW120717   6.223   1.236   2.560
 6606SOL    HW220718   6.240   1.074   2.569
 6607SOL     OW20719   1.423   2.273   3.514
 6607SOL    HW120720   1.499   2.225   3.558
 6607SOL    HW220721   1.336   2.230   3.541
 6608SOL     OW20722   5.490   3.695   4.837
 6608SOL    HW120723   5.439   3.719   4.919
 6608SOL    HW220724   5.476   3.598   4.816
 6609SOL     OW20725   5.558   1.401   6.828
 6609SOL    HW120726   5.545   1.350   6.913
 6609SOL    HW220727   5.468   1.422   6.788
 6610SOL     OW20728   2.993   1.313   0.515
 6610SOL    HW120729   3.027   1.267   0.434
 6610SOL    HW220730   3.067   1.321   0.582
 6611SOL     OW20731   5.454   3.313   2.920
 6611SOL    HW120732   5.514   3.253   2.867
 6611SOL    HW220733   5.396   3.365   2.858
 6612SOL     OW20734   1.222   5.795   6.020
 6612SOL    HW120735   1.162   5.742   6.081
 6612SOL    HW220736   1.279   5.856   6.075
 6613SOL     OW20737   5.166   5.111   1.244
 6613SOL    HW120738   5.109   5.191   1.263
 6613SOL    HW220739   5.123   5.029   1.280
 6614SOL     OW20740   4.977   5.740   6.103
 6614SOL    HW120741   4.939   5.657   6.063
 6614SOL    HW220742   4.952   5.744   6.200
 6615SOL     OW20743   1.014   4.411   5.538
 6615SOL    HW120744   1.026   4.462   5.453
 6615SOL    HW220745   1.036   4.314   5.522
 6616SOL     OW20746   4.559   0.382   4.901
 6616SOL    HW120747   4.559   0.482   4.897
 6616SOL    HW220748   4.629   0.351   4.965
 6617SOL     OW20749   4.877   7.008   5.265
 6617SOL    HW120750   4.886   6.974   5.359
 6617SOL    HW220751   4.872   6.931   5.202
 6618SOL     OW20752   0.903   5.018   1.342
 6618SOL    HW120753   0.913   4.923   1.371
 6618SOL    HW220754   0.903   5.078   1.422
 6619SOL     OW20755   6.363   6.449   1.908
 6619SOL    HW120756   6.395   6.358   1.932
 6619SOL    HW220757   6.313   6.446   1.821
 6620SOL     OW20758   3.840   3.139   5.839
 6620SOL    HW120759   3.901   3.178   5.907
 6620SOL    HW220760   3.763   3.093   5.884
 6621SOL     OW20761   2.914   3.641   0.111
 6621SOL    HW120762   2.898   3.584   0.030
 6621SOL    HW220763   3.012   3.645   0.130
 6622SOL     OW20764   5.962   6.645   0.434
 6622SOL    HW120765   5.928   6.686   0.350
 6622SOL    HW220766   5.922   6.692   0.513
 6623SOL     OW20767   3.384   3.850   2.353
 6623SOL    HW120768   3.474   3.823   2.317
 6623SOL    HW220769   3.361   3.941   2.319
 6624SOL     OW20770   4.444   5.362   4.080
 6624SOL    HW120771   4.481   5.273   4.055
 6624SOL    HW220772   4.517   5.422   4.112
 6625SOL     OW20773   5.548   0.298   0.120
 6625SOL    HW120774   5.514   0.313   0.027
 6625SOL    HW220775   5.603   0.214   0.122
 6626SOL     OW20776   3.158   5.310   3.363
 6626SOL    HW120777   3.149   5.399   3.318
 6626SOL    HW220778   3.076   5.255   3.346
 6627SOL     OW20779   1.958   6.199   1.960
 6627SOL    HW120780   1.891   6.139   2.003
 6627SOL    HW220781   2.050   6.168   1.983
 6628SOL     OW20782   4.082   6.341   3.308
 6628SOL    HW120783   4.082   6.425   3.363
 6628SOL    HW220784   4.091   6.262   3.368
 6629SOL     OW20785   3.318   4.064   0.411
 6629SOL    HW120786   3.266   4.110   0.483
 6629SOL    HW220787   3.256   4.038   0.337
 6630SOL     OW20788   2.700   1.963   5.692
 6630SOL    HW120789   2.631   1.921   5.634
 6630SOL    HW220790   2.691   2.063   5.687
 6631SOL     OW20791   3.753   0.401   2.031
 6631SOL    HW120792   3.725   0.383   2.125
 6631SOL    HW220793   3.834   0.346   2.010
 6632SOL     OW20794   6.987   2.519   2.670
 6632SOL    HW120795   0.042   2.464   2.693
 6632SOL    HW220796   7.005   2.615   2.689
 6633SOL     OW20797   0.434   6.911   0.940
 6633SOL    HW120798   0.338   6.884   0.947
 6633SOL    HW220799   0.483   6.885   1.023
 6634SOL     OW20800   0.201   2.918   5.944
 6634SOL    HW120801   0.274   2.849   5.945
 6634SOL    HW220802   0.224   2.990   5.880
 6635SOL     OW20803   4.258   4.617   2.978
 6635SOL    HW120804   4.162   4.591   2.977
 6635SOL    HW220805   4.282   4.662   2.892
 6636SOL     OW20806   1.568   2.592   4.047
 6636SOL    HW120807   1.563   2.495   4.072
 6636SOL    HW220808   1.608   2.601   3.956
 6637SOL     OW20809   6.590   1.302   1.474
 6637SOL    HW120810   6.604   1.206   1.500
 6637SOL    HW220811   6.549   1.306   1.384
 6638SOL     OW20812   2.387   6.459   6.175
 6638SOL    HW120813   2.354   6.458   6.269
 6638SOL    HW220814   2.363   6.374   6.129
 6639SOL     OW20815   5.159   5.537   6.765
 6639SOL    HW120816   5.241   5.554   6.711
 6639SOL    HW220817   5.185   5.493   6.851
 6640SOL     OW20818   5.784   2.884   3.628
 6640SOL    HW120819   5.813   2.790   3.610
 6640SOL    HW220820   5.755   2.926   3.542
 6641SOL     OW20821   2.117   4.430   6.775
 6641SOL    HW120822   2.020   4.434   6.798
 6641SOL    HW220823   2.152   4.338   6.791
 6642SOL     OW20824   0.014   6.784   0.521
 6642SOL    HW120825   0.040   6.839   0.601
 6642SOL    HW220826   6.940   6.786   0.510
 6643SOL     OW20827   4.336   5.773   6.807
 6643SOL    HW120828   4.246   5.813   6.825
 6643SOL    HW220829   4.404   5.845   6.798
 6644SOL     OW20830   2.458   4.479   2.191
 6644SOL    HW120831   2.373   4.531   2.205
 6644SOL    HW220832   2.533   4.542   2.171
 6645SOL     OW20833   6.737   4.746   4.862
 6645SOL    HW120834   6.716   4.718   4.769
 6645SOL    HW220835   6.706   4.840   4.876
 6646SOL     OW20836   1.812   6.502   3.560
 6646SOL    HW120837   1.832   6.406   3.581
 6646SOL    HW220838   1.800   6.554   3.644
 6647SOL     OW20839   3.736   1.823   2.314
 6647SOL    HW120840   3.706   1.849   2.222
 6647SOL    HW220841   3.829   1.787   2.310
 6648SOL     OW20842   4.801   5.957   2.048
 6648SOL    HW120843   4.732   5.987   2.114
 6648SOL    HW220844   4.828   5.863   2.069
 6649SOL     OW20845   3.638   2.357   6.248
 6649SOL    HW120846   3.674   2.280   6.194
 6649SOL    HW220847   3.690   2.440   6.227
 6650SOL     OW20848   3.040   2.186   3.286
 6650SOL    HW120849   3.135   2.202   3.313
 6650SOL    HW220850   2.989   2.272   3.290
 6651SOL     OW20851   1.162   2.596   6.969
 6651SOL    HW120852   1.158   2.639   6.879
 6651SOL    HW220853   1.210   2.509   6.962
 6652SOL     OW20854   0.541   5.469   3.287
 6652SOL    HW120855   0.640   5.454   3.289
 6652SOL    HW220856   0.521   5.562   3.318
 6653SOL     OW20857   3.170   3.315   3.257
 6653SOL    HW120858   3.082   3.292   3.216
 6653SOL    HW220859   3.237   3.244   3.236
 6654SOL     OW20860   2.181   3.341   1.684
 6654SOL    HW120861   2.101   3.400   1.678
 6654SOL    HW220862   2.237   3.368   1.763
 6655SOL     OW20863   2.388   0.471   0.844
 6655SOL    HW120864   2.443   0.543   0.885
 6655SOL    HW220865   2.305   0.457   0.898
 6656SOL     OW20866   6.594   2.337   1.314
 6656SOL    HW120867   6.639   2.284   1.385
 6656SOL    HW220868   6.554   2.276   1.246
 6657SOL     OW20869   2.809   5.243   6.082
 6657SOL    HW120870   2.895   5.231   6.132
 6657SOL    HW220871   2.733   5.208   6.137
 6658SOL     OW20872   5.030   0.415   6.065
 6658SOL    HW120873   5.004   0.320   6.047
 6658SOL    HW220874   4.947   0.470   6.080
 6659SOL     OW20875   1.432   3.306   6.763
 6659SOL    HW120876   1.402   3.344   6.851
 6659SOL    HW220877   1.438   3.206   6.770
 6660SOL     OW20878   0.298   6.959   3.045
 6660SOL    HW120879   0.373   6.953   3.110
 6660SOL    HW220880   0.300   0.023   2.999
 6661SOL     OW20881   0.275   5.816   3.535
 6661SOL    HW120882   0.363   5.778   3.507
 6661SOL    HW220883   0.267   5.911   3.504
 6662SOL     OW20884   0.960   3.792   6.224
 6662SOL    HW120885   0.879   3.850   6.216
 6662SOL    HW220886   1.031   3.825   6.162
 6663SOL     OW20887   0.350   5.445   2.261
 6663SOL    HW120888   0.385   5.366   2.313
 6663SOL    HW220889   0.406   5.525   2.280
 6664SOL     OW20890   0.850   1.747   3.156
 6664SOL    HW120891   0.795   1.824   3.190
 6664SOL    HW220892   0.832   1.734   3.059
 6665SOL     OW20893   2.785   6.435   2.319
 6665SOL    HW120894   2.875   6.462   2.285
 6665SOL    HW220895   2.769   6.338   2.298
 6666SOL     OW20896   5.823   6.916   0.544
 6666SOL    HW120897   5.777   6.963   0.619
 6666SOL    HW220898   5.880   6.981   0.493
 6667SOL     OW20899   6.871   5.062   4.169
 6667SOL    HW120900   6.960   5.021   4.189
 6667SOL    HW220901   6.819   5.072   4.254
 6668SOL     OW20902   0.433   6.423   1.719
 6668SOL    HW120903   0.389   6.338   1.691
 6668SOL    HW220904   0.488   6.406   1.801
 6669SOL     OW20905   1.585   5.460   2.876
 6669SOL    HW120906   1.566   5.392   2.805
 6669SOL    HW220907   1.530   5.439   2.957
 6670SOL     OW20908   3.742   4.661   0.534
 6670SOL    HW120909   3.828   4.712   0.529
 6670SOL    HW220910   3.752   4.573   0.487
 6671SOL     OW20911   0.356   2.316   5.283
 6671SOL    HW120912   0.407   2.326   5.369
 6671SOL    HW220913   0.420   2.296   5.209
 6672SOL     OW20914   1.586   0.661   5.449
 6672SOL    HW120915   1.553   0.753   5.425
 6672SOL    HW220916   1.554   0.638   5.541
 6673SOL     OW20917   5.056   4.851   1.620
 6673SOL    HW120918   5.028   4.845   1.716
 6673SOL    HW220919   5.079   4.760   1.586
 6674SOL     OW20920   0.592   0.139   4.263
 6674SOL    HW120921   0.680   0.182   4.282
 6674SOL    HW220922   0.536   0.200   4.207
 6675SOL     OW20923   6.860   6.226   0.342
 6675SOL    HW120924   6.955   6.246   0.367
 6675SOL    HW220925   6.816   6.175   0.416
 6676SOL     OW20926   1.059   2.179   6.812
 6676SOL    HW120927   1.058   2.108   6.742
 6676SOL    HW220928   1.137   2.240   6.798
 6677SOL     OW20929   6.461   4.068   0.113
 6677SOL    HW120930   6.475   4.149   0.170
 6677SOL    HW220931   6.426   3.993   0.171
 6678SOL     OW20932   1.116   2.817   4.902
 6678SOL    HW120933   1.074   2.727   4.905
 6678SOL    HW220934   1.199   2.818   4.957
 6679SOL     OW20935   1.853   1.898   4.343
 6679SOL    HW120936   1.860   1.963   4.419
 6679SOL    HW220937   1.888   1.940   4.259
 6680SOL     OW20938   2.099   6.486   6.121
 6680SOL    HW120939   2.192   6.509   6.148
 6680SOL    HW220940   2.102   6.423   6.043
 6681SOL     OW20941   5.889   5.473   6.927
 6681SOL    HW120942   5.975   5.436   6.963
 6681SOL    HW220943   5.905   5.563   6.887
 6682SOL     OW20944   7.004   5.806   2.878
 6682SOL    HW120945   7.017   5.879   2.811
 6682SOL    HW220946   0.048   5.735   2.863
 6683SOL     OW20947   5.229   1.728   4.184
 6683SOL    HW120948   5.207   1.808   4.128
 6683SOL    HW220949   5.268   1.758   4.271
 6684SOL     OW20950   2.144   0.468   1.989
 6684SOL    HW120951   2.213   0.514   2.045
 6684SOL    HW220952   2.102   0.534   1.927
 6685SOL     OW20953   5.422   3.704   6.120
 6685SOL    HW120954   5.516   3.669   6.127
 6685SOL    HW220955   5.367   3.640   6.068
 6686SOL     OW20956   5.423   4.266   4.058
 6686SOL    HW120957   5.426   4.193   3.989
 6686SOL    HW220958   5.355   4.334   4.032
 6687SOL     OW20959   1.157   1.457   0.033
 6687SOL    HW120960   1.250   1.424   0.020
 6687SOL    HW220961   1.116   1.410   0.112
 6688SOL     OW20962   0.748   4.983   3.304
 6688SOL    HW120963   0.655   5.020   3.298
 6688SOL    HW220964   0.787   5.006   3.393
 6689SOL     OW20965   4.589   5.003   0.087
 6689SOL    HW120966   4.668   4.949   0.060
 6689SOL    HW220967   4.529   4.949   0.146
 6690SOL     OW20968   1.390   1.994   0.783
 6690SOL    HW120969   1.403   2.048   0.700
 6690SOL    HW220970   1.359   2.053   0.857
 6691SOL     OW20971   1.704   5.452   1.226
 6691SOL    HW120972   1.630   5.494   1.175
 6691SOL    HW220973   1.751   5.385   1.168
 6692SOL     OW20974   3.484   3.983   5.925
 6692SOL    HW120975   3.511   3.906   5.867
 6692SOL    HW220976   3.447   4.056   5.868
 6693SOL     OW20977   3.462   4.175   4.856
 6693SOL    HW120978   3.400   4.236   4.904
 6693SOL    HW220979   3.410   4.100   4.816
 6694SOL     OW20980   2.984   6.175   0.399
 6694SOL    HW120981   3.035   6.103   0.352
 6694SOL    HW220982   3.027   6.193   0.488
 6695SOL     OW20983   1.466   1.751   6.780
 6695SOL    HW120984   1.538   1.800   6.730
 6695SOL    HW220985   1.446   1.665   6.734
 6696SOL     OW20986   2.086   3.275   2.218
 6696SOL    HW120987   2.123   3.341   2.152
 6696SOL    HW220988   2.113   3.183   2.191
 6697SOL     OW20989   5.624   1.907   3.299
 6697SOL    HW120990   5.532   1.940   3.320
 6697SOL    HW220991   5.630   1.886   3.201
 6698SOL     OW20992   3.994   4.081   0.638
 6698SOL    HW120993   3.942   3.995   0.637
 6698SOL    HW220994   3.967   4.138   0.561
 6699SOL     OW20995   1.540   3.551   0.097
 6699SOL    HW120996   1.486   3.477   0.057
 6699SOL    HW220997   1.498   3.639   0.073
 6700SOL     OW20998   6.206   6.408   6.356
 6700SOL    HW120999   6.196   6.456   6.443
 6700SOL    HW221000   6.302   6.405   6.330
 6701SOL     OW21001   0.746   2.056   0.882
 6701SOL    HW121002   0.753   1.957   0.865
 6701SOL    HW221003   0.660   2.090   0.843
 6702SOL     OW21004   1.912   2.876   1.230
 6702SOL    HW121005   1.894   2.974   1.227
 6702SOL    HW221006   1.847   2.832   1.292
 6703SOL     OW21007   0.304   2.287   6.973
 6703SOL    HW121008   0.355   2.210   6.934
 6703SOL    HW221009   0.303   2.280   0.047
 6704SOL     OW21010   5.360   1.957   3.380
 6704SOL    HW121011   5.346   2.033   3.443
 6704SOL    HW221012   5.275   1.936   3.333
 6705SOL     OW21013   6.351   1.129   0.526
 6705SOL    HW121014   6.302   1.076   0.595
 6705SOL    HW221015   6.435   1.167   0.566
 6706SOL     OW21016   0.721   4.880   6.688
 6706SOL    HW121017   0.662   4.933   6.749
 6706SOL    HW221018   0.713   4.783   6.710
 6707SOL     OW21019   1.157   5.976   2.288
 6707SOL    HW121020   1.224   5.922   2.238
 6707SOL    HW221021   1.185   5.982   2.384
 6708SOL     OW21022   2.772   5.942   1.369
 6708SOL    HW121023   2.847   5.985   1.420
 6708SOL    HW221024   2.789   5.844   1.361
 6709SOL     OW21025   5.809   1.251   2.793
 6709SOL    HW121026   5.896   1.278   2.836
 6709SOL    HW221027   5.740   1.320   2.813
 6710SOL     OW21028   2.315   2.119   1.386
 6710SOL    HW121029   2.256   2.047   1.351
 6710SOL    HW221030   2.326   2.109   1.485
 6711SOL     OW21031   3.980   3.761   0.421
 6711SOL    HW121032   3.933   3.676   0.402
 6711SOL    HW221033   3.936   3.808   0.497
 6712SOL     OW21034   3.547   6.284   1.255
 6712SOL    HW121035   3.522   6.368   1.209
 6712SOL    HW221036   3.515   6.205   1.202
 6713SOL     OW21037   1.825   1.308   2.032
 6713SOL    HW121038   1.746   1.306   1.970
 6713SOL    HW221039   1.808   1.249   2.111
 6714SOL     OW21040   6.586   0.475   3.653
 6714SOL    HW121041   6.550   0.464   3.745
 6714SOL    HW221042   6.674   0.428   3.645
 6715SOL     OW21043   0.084   1.983   0.750
 6715SOL    HW121044   0.105   2.070   0.794
 6715SOL    HW221045   0.167   1.945   0.709
 6716SOL     OW21046   2.671   5.606   0.472
 6716SOL    HW121047   2.619   5.527   0.504
 6716SOL    HW221048   2.613   5.687   0.474
 6717SOL     OW21049   3.742   1.695   6.465
 6717SOL    HW121050   3.752   1.607   6.418
 6717SOL    HW221051   3.786   1.766   6.410
 6718SOL     OW21052   3.427   6.845   6.999
 6718SOL    HW121053   3.413   6.824   0.070
 6718SOL    HW221054   3.432   6.759   6.947
 6719SOL     OW21055   0.143   0.379   5.277
 6719SOL    HW121056   0.076   0.354   5.347
 6719SOL    HW221057   0.235   0.373   5.316
 6720SOL     OW21058   1.657   4.853   1.778
 6720SOL    HW121059   1.561   4.839   1.801
 6720SOL    HW221060   1.665   4.920   1.704
 6721SOL     OW21061   6.336   6.277   3.436
 6721SOL    HW121062   6.332   6.186   3.477
 6721SOL    HW221063   6.423   6.289   3.390
 6722SOL     OW21064   4.890   4.258   6.626
 6722SOL    HW121065   4.898   4.212   6.537
 6722SOL    HW221066   4.966   4.230   6.685
 6723SOL     OW21067   4.520   0.098   2.618
 6723SOL    HW121068   4.523   0.172   2.552
 6723SOL    HW221069   4.427   0.063   2.625
 6724SOL     OW21070   3.358   4.774   5.807
 6724SOL    HW121071   3.397   4.723   5.885
 6724SOL    HW221072   3.277   4.825   5.838
 6725SOL     OW21073   0.334   5.021   2.316
 6725SOL    HW121074   0.254   4.992   2.263
 6725SOL    HW221075   0.358   4.951   2.382
 6726SOL     OW21076   2.491   2.381   2.071
 6726SOL    HW121077   2.548   2.310   2.030
 6726SOL    HW221078   2.460   2.445   2.000
 6727SOL     OW21079   4.042   3.728   6.981
 6727SOL    HW121080   4.131   3.683   6.991
 6727SOL    HW221081   4.048   3.799   6.912
 6728SOL     OW21082   4.605   1.613   4.206
 6728SOL    HW121083   4.649   1.578   4.288
 6728SOL    HW221084   4.675   1.644   4.141
 6729SOL     OW21085   5.516   6.114   2.824
 6729SOL    HW121086   5.472   6.154   2.905
 6729SOL    HW221087   5.571   6.035   2.852
 6730SOL     OW21088   1.243   6.771   1.477
 6730SOL    HW121089   1.303   6.838   1.435
 6730SOL    HW221090   1.295   6.687   1.495
 6731SOL     OW21091   2.387   4.388   1.911
 6731SOL    HW121092   2.358   4.297   1.938
 6731SOL    HW221093   2.394   4.447   1.992
 6732SOL     OW21094   1.712   4.724   0.920
 6732SOL    HW121095   1.737   4.686   1.008
 6732SOL    HW221096   1.772   4.802   0.899
 6733SOL     OW21097   5.555   5.658   4.953
 6733SOL    HW121098   5.509   5.610   4.878
 6733SOL    HW221099   5.511   5.634   5.039
 6734SOL     OW21100   2.612   3.743   5.716
 6734SOL    HW121101   2.545   3.814   5.693
 6734SOL    HW221102   2.566   3.665   5.756
 6735SOL     OW21103   6.953   5.383   6.378
 6735SOL    HW121104   6.967   5.428   6.466
 6735SOL    HW221105   0.006   5.401   6.319
 6736SOL     OW21106   2.076   3.639   2.740
 6736SOL    HW121107   2.123   3.682   2.817
 6736SOL    HW221108   2.072   3.540   2.755
 6737SOL     OW21109   1.800   0.278   1.218
 6737SOL    HW121110   1.804   0.223   1.135
 6737SOL    HW221111   1.878   0.256   1.276
 6738SOL     OW21112   3.951   1.422   2.089
 6738SOL    HW121113   4.026   1.488   2.081
 6738SOL    HW221114   3.913   1.403   1.999
 6739SOL     OW21115   4.705   0.446   5.188
 6739SOL    HW121116   4.796   0.473   5.155
 6739SOL    HW221117   4.712   0.356   5.232
 6740SOL     OW21118   6.062   3.157   4.636
 6740SOL    HW121119   6.000   3.103   4.693
 6740SOL    HW221120   6.022   3.247   4.619
 6741SOL     OW21121   6.723   6.920   5.492
 6741SOL    HW121122   6.783   6.885   5.564
 6741SOL    HW221123   6.635   6.946   5.532
 6742SOL     OW21124   6.261   5.854   5.172
 6742SOL    HW121125   6.226   5.761   5.184
 6742SOL    HW221126   6.195   5.919   5.209
 6743SOL     OW21127   5.301   2.693   0.730
 6743SOL    HW121128   5.307   2.608   0.782
 6743SOL    HW221129   5.220   2.744   0.760
 6744SOL     OW21130   5.296   5.335   5.194
 6744SOL    HW121131   5.308   5.352   5.096
 6744SOL    HW221132   5.386   5.322   5.236
 6745SOL     OW21133   0.377   3.735   3.610
 6745SOL    HW121134   0.350   3.800   3.681
 6745SOL    HW221135   0.376   3.782   3.521
 6746SOL     OW21136   7.004   1.021   1.129
 6746SOL    HW121137   0.012   0.928   1.142
 6746SOL    HW221138   6.957   1.052   1.212
 6747SOL     OW21139   5.297   6.579   6.460
 6747SOL    HW121140   5.326   6.576   6.556
 6747SOL    HW221141   5.365   6.533   6.403
 6748SOL     OW21142   0.266   6.657   1.814
 6748SOL    HW121143   0.326   6.585   1.781
 6748SOL    HW221144   0.172   6.624   1.815
 6749SOL     OW21145   3.654   5.992   1.013
 6749SOL    HW121146   3.571   6.040   1.042
 6749SOL    HW221147   3.632   5.932   0.936
 6750SOL     OW21148   2.505   3.086   5.485
 6750SOL    HW121149   2.498   3.185   5.483
 6750SOL    HW221150   2.475   3.049   5.397
 6751SOL     OW21151   2.907   1.852   5.827
 6751SOL    HW121152   2.820   1.873   5.782
 6751SOL    HW221153   2.975   1.920   5.802
 6752SOL     OW21154   6.192   1.573   0.413
 6752SOL    HW121155   6.237   1.614   0.493
 6752SOL    HW221156   6.093   1.577   0.426
 6753SOL     OW21157   5.730   1.409   6.087
 6753SOL    HW121158   5.815   1.359   6.075
 6753SOL    HW221159   5.659   1.370   6.028
 6754SOL     OW21160   4.922   1.431   0.289
 6754SOL    HW121161   4.891   1.479   0.207
 6754SOL    HW221162   4.893   1.336   0.285
 6755SOL     OW21163   5.062   1.303   3.649
 6755SOL    HW121164   4.965   1.307   3.671
 6755SOL    HW221165   5.084   1.373   3.580
 6756SOL     OW21166   4.853   4.610   3.379
 6756SOL    HW121167   4.850   4.675   3.454
 6756SOL    HW221168   4.872   4.658   3.293
 6757SOL     OW21169   5.958   4.673   1.846
 6757SOL    HW121170   5.882   4.608   1.851
 6757SOL    HW221171   5.951   4.726   1.762
 6758SOL     OW21172   6.022   1.694   2.840
 6758SOL    HW121173   5.979   1.660   2.756
 6758SOL    HW221174   5.950   1.720   2.905
 6759SOL     OW21175   1.277   4.410   3.364
 6759SOL    HW121176   1.282   4.312   3.386
 6759SOL    HW221177   1.248   4.421   3.269
 6760SOL     OW21178   0.407   4.491   5.290
 6760SOL    HW121179   0.452   4.407   5.257
 6760SOL    HW221180   0.452   4.571   5.249
 6761SOL     OW21181   6.141   3.441   6.575
 6761SOL    HW121182   6.144   3.343   6.595
 6761SOL    HW221183   6.130   3.493   6.660
 6762SOL     OW21184   5.923   4.342   3.119
 6762SOL    HW121185   6.010   4.379   3.084
 6762SOL    HW221186   5.856   4.340   3.045
 6763SOL     OW21187   6.378   6.480   5.110
 6763SOL    HW121188   6.366   6.549   5.039
 6763SOL    HW221189   6.315   6.404   5.095
 6764SOL     OW21190   1.958   3.269   0.100
 6764SOL    HW121191   1.963   3.349   0.160
 6764SOL    HW221192   1.876   3.216   0.122
 6765SOL     OW21193   5.071   5.164   2.363
 6765SOL    HW121194   5.035   5.225   2.292
 6765SOL    HW221195   5.109   5.219   2.438
 6766SOL     OW21196   1.392   1.644   5.515
 6766SOL    HW121197   1.407   1.742   5.505
 6766SOL    HW221198   1.422   1.597   5.432
 6767SOL     OW21199   0.655   2.780   5.449
 6767SOL    HW121200   0.736   2.824   5.409
 6767SOL    HW221201   0.661   2.681   5.436
 6768SOL     OW21202   0.039   0.538   5.608
 6768SOL    HW121203   0.086   0.450   5.614
 6768SOL    HW221204   0.037   0.582   5.698
 6769SOL     OW21205   0.786   2.260   6.901
 6769SOL    HW121206   0.885   2.266   6.887
 6769SOL    HW221207   0.767   2.193   6.972
 6770SOL     OW21208   6.862   1.197   4.568
 6770SOL    HW121209   6.893   1.270   4.508
 6770SOL    HW221210   6.820   1.124   4.514
 6771SOL     OW21211   4.927   1.960   2.289
 6771SOL    HW121212   4.941   1.890   2.359
 6771SOL    HW221213   4.899   2.046   2.333
 6772SOL     OW21214   1.311   0.871   1.432
 6772SOL    HW121215   1.217   0.903   1.447
 6772SOL    HW221216   1.375   0.930   1.483
 6773SOL     OW21217   1.227   0.161   2.000
 6773SOL    HW121218   1.139   0.115   2.017
 6773SOL    HW221219   1.210   0.251   1.960
 6774SOL     OW21220   3.190   1.110   6.099
 6774SOL    HW121221   3.212   1.207   6.089
 6774SOL    HW221222   3.111   1.088   6.042
 6775SOL     OW21223   1.628   3.352   5.004
 6775SOL    HW121224   1.725   3.337   4.985
 6775SOL    HW221225   1.588   3.268   5.041
 6776SOL     OW21226   3.012   3.851   3.395
 6776SOL    HW121227   2.976   3.763   3.364
 6776SOL    HW221228   3.047   3.902   3.316
 6777SOL     OW21229   0.689   0.121   6.315
 6777SOL    HW121230   0.689   0.124   6.414
 6777SOL    HW221231   0.615   0.062   6.283
 6778SOL     OW21232   6.391   6.264   2.329
 6778SOL    HW121233   6.379   6.350   2.280
 6778SOL    HW221234   6.468   6.214   2.289
 6779SOL     OW21235   4.513   4.580   6.484
 6779SOL    HW121236   4.479   4.490   6.512
 6779SOL    HW221237   4.444   4.649   6.503
 6780SOL     OW21238   4.059   0.651   2.844
 6780SOL    HW121239   4.111   0.568   2.864
 6780SOL    HW221240   4.067   0.673   2.746
 6781SOL     OW21241   6.553   3.118   3.349
 6781SOL    HW121242   6.603   3.198   3.381
 6781SOL    HW221243   6.498   3.080   3.423
 6782SOL     OW21244   0.438   1.284   3.397
 6782SOL    HW121245   0.448   1.383   3.406
 6782SOL    HW221246   0.384   1.264   3.315
 6783SOL     OW21247   0.598   6.047   6.133
 6783SOL    HW121248   0.514   6.048   6.187
 6783SOL    HW221249   0.641   6.136   6.138
 6784SOL     OW21250   1.760   4.445   0.869
 6784SOL    HW121251   1.855   4.432   0.842
 6784SOL    HW221252   1.737   4.542   0.861
 6785SOL     OW21253   5.548   4.723   2.779
 6785SOL    HW121254   5.637   4.703   2.738
 6785SOL    HW221255   5.522   4.648   2.840
 6786SOL     OW21256   6.518   1.895   5.583
 6786SOL    HW121257   6.594   1.875   5.645
 6786SOL    HW221258   6.549   1.884   5.489
 6787SOL     OW21259   3.159   1.356   0.754
 6787SOL    HW121260   3.078   1.338   0.809
 6787SOL    HW221261   3.179   1.454   0.755
 6788SOL     OW21262   0.960   4.480   1.285
 6788SOL    HW121263   0.950   4.401   1.225
 6788SOL    HW221264   0.988   4.449   1.376
 6789SOL     OW21265   5.896   4.502   2.435
 6789SOL    HW121266   5.817   4.473   2.489
 6789SOL    HW221267   5.887   4.468   2.341
 6790SOL     OW21268   0.773   6.174   0.856
 6790SOL    HW121269   0.709   6.227   0.801
 6790SOL    HW221270   0.841   6.132   0.796
 6791SOL     OW21271   2.836   6.041   4.223
 6791SOL    HW121272   2.826   5.961   4.164
 6791SOL    HW221273   2.746   6.073   4.251
 6792SOL     OW21274   3.105   6.203   6.604
 6792SOL    HW121275   3.047   6.203   6.523
 6792SOL    HW221276   3.200   6.191   6.577
 6793SOL     OW21277   2.585   3.816   6.187
 6793SOL    HW121278   2.602   3.839   6.283
 6793SOL    HW221279   2.649   3.866   6.129
 6794SOL     OW21280   5.036   2.373   4.575
 6794SOL    HW121281   5.074   2.404   4.662
 6794SOL    HW221282   5.038   2.273   4.571
 6795SOL     OW21283   0.577   0.175   1.492
 6795SOL    HW121284   0.670   0.151   1.462
 6795SOL    HW221285   0.582   0.221   1.580
 6796SOL     OW21286   6.827   2.228   2.714
 6796SOL    HW121287   6.820   2.270   2.804
 6796SOL    HW221288   6.866   2.294   2.650
 6797SOL     OW21289   1.812   3.320   1.049
 6797SOL    HW121290   1.889   3.323   0.985
 6797SOL    HW221291   1.844   3.342   1.141
 6798SOL     OW21292   4.884   1.092   1.753
 6798SOL    HW121293   4.824   1.171   1.764
 6798SOL    HW221294   4.929   1.097   1.663
 6799SOL     OW21295   6.376   6.981   2.852
 6799SOL    HW121296   6.355   6.942   2.762
 6799SOL    HW221297   6.464   6.947   2.884
 6800SOL     OW21298   0.042   3.066   2.119
 6800SOL    HW121299   0.051   2.968   2.097
 6800SOL    HW221300   6.977   3.082   2.159
 6801SOL     OW21301   1.355   5.325   5.813
 6801SOL    HW121302   1.362   5.230   5.843
 6801SOL    HW221303   1.274   5.335   5.755
 6802SOL     OW21304   2.897   4.891   1.886
 6802SOL    HW121305   2.869   4.889   1.982
 6802SOL    HW221306   2.937   4.803   1.861
 6803SOL     OW21307   5.348   5.144   0.077
 6803SOL    HW121308   5.285   5.159   0.152
 6803SOL    HW221309   5.437   5.184   0.099
 6804SOL     OW21310   3.132   5.394   1.989
 6804SOL    HW121311   3.210   5.396   2.052
 6804SOL    HW221312   3.066   5.463   2.018
 6805SOL     OW21313   0.797   4.373   3.727
 6805SOL    HW121314   0.800   4.273   3.727
 6805SOL    HW221315   0.743   4.404   3.805
 6806SOL     OW21316   5.598   3.663   2.794
 6806SOL    HW121317   5.662   3.732   2.761
 6806SOL    HW221318   5.592   3.589   2.727
 6807SOL     OW21319   3.009   3.927   2.480
 6807SOL    HW121320   3.013   3.870   2.398
 6807SOL    HW221321   2.936   3.995   2.469
 6808SOL     OW21322   3.400   0.230   3.196
 6808SOL    HW121323   3.327   0.297   3.213
 6808SOL    HW221324   3.381   0.147   3.249
 6809SOL     OW21325   5.673   2.174   0.818
 6809SOL    HW121326   5.730   2.102   0.777
 6809SOL    HW221327   5.732   2.239   0.866
 6810SOL     OW21328   2.963   0.886   4.738
 6810SOL    HW121329   2.925   0.945   4.808
 6810SOL    HW221330   2.938   0.791   4.757
 6811SOL     OW21331   6.759   1.313   1.133
 6811SOL    HW121332   6.789   1.226   1.171
 6811SOL    HW221333   6.800   1.326   1.043
 6812SOL     OW21334   3.237   4.760   5.382
 6812SOL    HW121335   3.282   4.692   5.439
 6812SOL    HW221336   3.161   4.718   5.333
 6813SOL     OW21337   0.184   4.151   1.814
 6813SOL    HW121338   0.249   4.151   1.739
 6813SOL    HW221339   0.211   4.221   1.881
 6814SOL     OW21340   5.049   1.471   1.770
 6814SOL    HW121341   5.133   1.477   1.716
 6814SOL    HW221342   5.072   1.469   1.867
 6815SOL     OW21343   0.688   6.134   6.421
 6815SOL    HW121344   0.610   6.080   6.389
 6815SOL    HW221345   0.687   6.138   6.520
 6816SOL     OW21346   6.467   0.093   3.896
 6816SOL    HW121347   6.536   0.050   3.955
 6816SOL    HW221348   6.501   0.100   3.803
 6817SOL     OW21349   5.310   1.455   1.917
 6817SOL    HW121350   5.257   1.439   2.000
 6817SOL    HW221351   5.392   1.398   1.918
 6818SOL     OW21352   1.050   0.492   5.142
 6818SOL    HW121353   0.977   0.498   5.074
 6818SOL    HW221354   1.024   0.542   5.224
 6819SOL     OW21355   4.951   4.236   1.335
 6819SOL    HW121356   4.937   4.171   1.410
 6819SOL    HW221357   5.027   4.205   1.278
 6820SOL     OW21358   2.742   4.468   1.324
 6820SOL    HW121359   2.803   4.475   1.404
 6820SOL    HW221360   2.706   4.559   1.302
 6821SOL     OW21361   3.142   3.047   6.053
 6821SOL    HW121362   3.087   2.980   6.101
 6821SOL    HW221363   3.111   3.055   5.958
 6822SOL     OW21364   6.239   3.531   5.177
 6822SOL    HW121365   6.290   3.448   5.202
 6822SOL    HW221366   6.291   3.582   5.108
 6823SOL     OW21367   0.386   2.918   6.192
 6823SOL    HW121368   0.386   2.821   6.216
 6823SOL    HW221369   0.348   2.930   6.100
 6824SOL     OW21370   1.411   0.633   4.578
 6824SOL    HW121371   1.405   0.553   4.518
 6824SOL    HW221372   1.386   0.606   4.671
 6825SOL     OW21373   4.348   4.285   1.393
 6825SOL    HW121374   4.402   4.297   1.476
 6825SOL    HW221375   4.407   4.252   1.320
 6826SOL     OW21376   5.188   0.735   3.415
 6826SOL    HW121377   5.250   0.703   3.487
 6826SOL    HW221378   5.225   0.818   3.374
 6827SOL     OW21379   4.826   5.533   5.651
 6827SOL    HW121380   4.808   5.435   5.662
 6827SOL    HW221381   4.742   5.579   5.620
 6828SOL     OW21382   2.927   2.202   2.691
 6828SOL    HW121383   2.832   2.174   2.676
 6828SOL    HW221384   2.962   2.247   2.609
 6829SOL     OW21385   5.085   6.134   4.315
 6829SOL    HW121386   5.146   6.101   4.243
 6829SOL    HW221387   5.015   6.065   4.333
 6830SOL     OW21388   3.457   5.776   2.293
 6830SOL    HW121389   3.452   5.848   2.362
 6830SOL    HW221390   3.536   5.792   2.234
 6831SOL     OW21391   1.180   1.110   6.964
 6831SOL    HW121392   1.133   1.129   6.878
 6831SOL    HW221393   1.162   1.184   0.004
 6832SOL     OW21394   2.721   3.047   0.216
 6832SOL    HW121395   2.816   3.015   0.217
 6832SOL    HW221396   2.676   3.015   0.133
 6833SOL     OW21397   4.496   4.603   0.006
 6833SOL    HW121398   4.453   4.690   7.007
 6833SOL    HW221399   4.465   4.532   6.968
 6834SOL     OW21400   5.780   5.786   5.242
 6834SOL    HW121401   5.830   5.705   5.272
 6834SOL    HW221402   5.720   5.761   5.166
 6835SOL     OW21403   3.510   0.579   3.575
 6835SOL    HW121404   3.491   0.631   3.492
 6835SOL    HW221405   3.497   0.482   3.558
 6836SOL     OW21406   0.602   4.319   6.779
 6836SOL    HW121407   0.599   4.390   6.849
 6836SOL    HW221408   0.679   4.338   6.717
 6837SOL     OW21409   6.499   0.918   2.326
 6837SOL    HW121410   6.456   0.978   2.259
 6837SOL    HW221411   6.512   0.827   2.287
 6838SOL     OW21412   3.075   3.970   5.933
 6838SOL    HW121413   3.167   3.998   5.906
 6838SOL    HW221414   3.017   4.051   5.944
 6839SOL     OW21415   6.395   3.050   5.456
 6839SOL    HW121416   6.484   3.075   5.418
 6839SOL    HW221417   6.339   3.009   5.384
 6840SOL     OW21418   3.150   6.372   4.574
 6840SOL    HW121419   3.077   6.353   4.508
 6840SOL    HW221420   3.238   6.369   4.527
 6841SOL     OW21421   4.963   7.017   0.496
 6841SOL    HW121422   5.047   0.046   0.504
 6841SOL    HW221423   4.884   0.053   0.493
 6842SOL     OW21424   0.263   3.559   3.780
 6842SOL    HW121425   0.180   3.517   3.743
 6842SOL    HW221426   0.322   3.589   3.705
 6843SOL     OW21427   4.642   2.734   1.814
 6843SOL    HW121428   4.610   2.827   1.798
 6843SOL    HW221429   4.741   2.730   1.800
 6844SOL     OW21430   3.454   6.955   4.659
 6844SOL    HW121431   3.416   6.973   4.749
 6844SOL    HW221432   3.545   6.915   4.668
 6845SOL     OW21433   4.641   3.990   0.363
 6845SOL    HW121434   4.624   3.905   0.414
 6845SOL    HW221435   4.587   3.989   0.279
 6846SOL     OW21436   4.113   3.453   3.075
 6846SOL    HW121437   4.108   3.374   3.137
 6846SOL    HW221438   4.095   3.537   3.127
 6847SOL     OW21439   6.552   3.331   2.045
 6847SOL    HW121440   6.578   3.427   2.035
 6847SOL    HW221441   6.563   3.284   1.957
 6848SOL     OW21442   0.271   5.923   4.273
 6848SOL    HW121443   0.299   5.957   4.183
 6848SOL    HW221444   0.340   5.948   4.341
 6849SOL     OW21445   3.317   0.014   4.935
 6849SOL    HW121446   3.246   0.082   4.952
 6849SOL    HW221447   3.295   6.955   4.985
 6850SOL     OW21448   5.710   3.575   1.754
 6850SOL    HW121449   5.666   3.660   1.724
 6850SOL    HW221450   5.648   3.498   1.737
 6851SOL     OW21451   1.280   5.740   5.464
 6851SOL    HW121452   1.193   5.780   5.433
 6851SOL    HW221453   1.265   5.691   5.550
 6852SOL     OW21454   6.397   5.116   2.202
 6852SOL    HW121455   6.482   5.096   2.155
 6852SOL    HW221456   6.324   5.059   2.165
 6853SOL     OW21457   6.583   4.296   4.943
 6853SOL    HW121458   6.680   4.273   4.950
 6853SOL    HW221459   6.536   4.269   5.028
 6854SOL     OW21460   6.523   1.814   6.015
 6854SOL    HW121461   6.447   1.776   5.963
 6854SOL    HW221462   6.499   1.818   6.112
 6855SOL     OW21463   3.303   6.754   2.163
 6855SOL    HW121464   3.287   6.677   2.101
 6855SOL    HW221465   3.341   6.831   2.112
 6856SOL     OW21466   0.134   4.510   5.880
 6856SOL    HW121467   0.233   4.521   5.887
 6856SOL    HW221468   0.110   4.486   5.787
 6857SOL     OW21469   4.004   1.363   6.508
 6857SOL    HW121470   4.001   1.403   6.600
 6857SOL    HW221471   3.935   1.291   6.500
 6858SOL     OW21472   3.636   2.925   6.551
 6858SOL    HW121473   3.700   2.996   6.580
 6858SOL    HW221474   3.642   2.847   6.613
 6859SOL     OW21475   3.218   0.754   0.520
 6859SOL    HW121476   3.195   0.728   0.426
 6859SOL    HW221477   3.139   0.740   0.579
 6860SOL     OW21478   3.984   3.955   6.810
 6860SOL    HW121479   4.024   3.898   6.738
 6860SOL    HW221480   4.027   4.045   6.809
 6861SOL     OW21481   5.138   4.023   0.593
 6861SOL    HW121482   5.039   4.034   0.600
 6861SOL    HW221483   5.177   4.102   0.545
 6862SOL     OW21484   2.489   5.468   4.243
 6862SOL    HW121485   2.585   5.482   4.268
 6862SOL    HW221486   2.483   5.434   4.149
 6863SOL     OW21487   0.976   2.766   3.915
 6863SOL    HW121488   1.024   2.794   3.831
 6863SOL    HW221489   1.019   2.810   3.994
 6864SOL     OW21490   4.831   5.284   6.543
 6864SOL    HW121491   4.805   5.258   6.637
 6864SOL    HW221492   4.883   5.369   6.546
 6865SOL     OW21493   0.318   3.336   4.701
 6865SOL    HW121494   0.232   3.322   4.650
 6865SOL    HW221495   0.394   3.339   4.636
 6866SOL     OW21496   0.312   3.312   2.315
 6866SOL    HW121497   0.273   3.300   2.407
 6866SOL    HW221498   0.350   3.225   2.284
 6867SOL     OW21499   2.167   5.557   3.179
 6867SOL    HW121500   2.250   5.532   3.130
 6867SOL    HW221501   2.191   5.596   3.268
 6868SOL     OW21502   1.992   5.350   4.733
 6868SOL    HW121503   2.079   5.349   4.782
 6868SOL    HW221504   1.956   5.257   4.726
 6869SOL     OW21505   6.741   3.693   5.070
 6869SOL    HW121506   6.710   3.661   5.159
 6869SOL    HW221507   6.788   3.781   5.080
 6870SOL     OW21508   5.548   3.501   2.546
 6870SOL    HW121509   5.637   3.528   2.509
 6870SOL    HW221510   5.478   3.562   2.509
 6871SOL     OW21511   5.099   6.486   1.976
 6871SOL    HW121512   5.094   6.390   1.948
 6871SOL    HW221513   5.031   6.503   2.047
 6872SOL     OW21514   3.137   3.966   0.207
 6872SOL    HW121515   3.049   4.011   0.193
 6872SOL    HW221516   3.196   3.982   0.129
 6873SOL     OW21517   5.940   4.402   5.317
 6873SOL    HW121518   5.865   4.467   5.326
 6873SOL    HW221519   5.985   4.390   5.405
 6874SOL     OW21520   1.171   2.183   5.361
 6874SOL    HW121521   1.213   2.267   5.326
 6874SOL    HW221522   1.071   2.191   5.353
 6875SOL     OW21523   3.608   1.815   3.870
 6875SOL    HW121524   3.624   1.718   3.851
 6875SOL    HW221525   3.662   1.843   3.949
 6876SOL     OW21526   3.684   6.387   4.377
 6876SOL    HW121527   3.725   6.454   4.439
 6876SOL    HW221528   3.665   6.431   4.289
 6877SOL     OW21529   1.741   3.694   6.549
 6877SOL    HW121530   1.665   3.634   6.523
 6877SOL    HW221531   1.815   3.684   6.483
 6878SOL     OW21532   1.740   2.286   4.276
 6878SOL    HW121533   1.693   2.239   4.351
 6878SOL    HW221534   1.802   2.356   4.313
 6879SOL     OW21535   0.730   1.040   5.724
 6879SOL    HW121536   0.680   1.063   5.808
 6879SOL    HW221537   0.730   1.118   5.662
 6880SOL     OW21538   2.036   3.825   4.080
 6880SOL    HW121539   1.993   3.909   4.113
 6880SOL    HW221540   2.044   3.759   4.155
 6881SOL     OW21541   5.855   5.945   1.879
 6881SOL    HW121542   5.840   5.935   1.780
 6881SOL    HW221543   5.767   5.963   1.924
 6882SOL     OW21544   2.583   6.150   5.084
 6882SOL    HW121545   2.572   6.055   5.057
 6882SOL    HW221546   2.654   6.193   5.027
 6883SOL     OW21547   3.282   6.314   1.606
 6883SOL    HW121548   3.337   6.252   1.550
 6883SOL    HW221549   3.342   6.377   1.655
 6884SOL     OW21550   2.235   5.061   3.234
 6884SOL    HW121551   2.187   5.131   3.286
 6884SOL    HW221552   2.169   5.008   3.180
 6885SOL     OW21553   4.163   5.334   5.123
 6885SOL    HW121554   4.226   5.291   5.058
 6885SOL    HW221555   4.183   5.301   5.216
 6886SOL     OW21556   5.431   1.469   2.240
 6886SOL    HW121557   5.337   1.449   2.267
 6886SOL    HW221558   5.483   1.498   2.321
 6887SOL     OW21559   4.725   0.839   5.358
 6887SOL    HW121560   4.772   0.912   5.408
 6887SOL    HW221561   4.763   0.830   5.267
 6888SOL     OW21562   6.195   6.998   5.024
 6888SOL    HW121563   6.104   0.007   5.046
 6888SOL    HW221564   6.264   0.031   5.067
 6889SOL     OW21565   1.693   4.230   6.232
 6889SOL    HW121566   1.593   4.227   6.240
 6889SOL    HW221567   1.723   4.326   6.232
 6890SOL     OW21568   2.041   0.403   0.913
 6890SOL    HW121569   2.082   0.315   0.888
 6890SOL    HW221570   2.057   0.420   1.011
 6891SOL     OW21571   3.698   5.418   5.317
 6891SOL    HW121572   3.791   5.454   5.305
 6891SOL    HW221573   3.703   5.319   5.328
 6892SOL     OW21574   3.239   1.579   4.529
 6892SOL    HW121575   3.286   1.637   4.595
 6892SOL    HW221576   3.303   1.514   4.489
 6893SOL     OW21577   5.832   0.446   1.722
 6893SOL    HW121578   5.900   0.432   1.794
 6893SOL    HW221579   5.877   0.483   1.641
 6894SOL     OW21580   6.143   4.949   6.255
 6894SOL    HW121581   6.235   4.986   6.244
 6894SOL    HW221582   6.119   4.947   6.352
 6895SOL     OW21583   4.474   5.405   6.540
 6895SOL    HW121584   4.477   5.360   6.629
 6895SOL    HW221585   4.406   5.479   6.542
 6896SOL     OW21586   4.342   0.707   2.873
 6896SOL    HW121587   4.373   0.620   2.835
 6896SOL    HW221588   4.243   0.714   2.863
 6897SOL     OW21589   3.656   1.674   0.668
 6897SOL    HW121590   3.566   1.631   0.682
 6897SOL    HW221591   3.678   1.674   0.571
 6898SOL     OW21592   3.710   1.573   2.771
 6898SOL    HW121593   3.809   1.559   2.776
 6898SOL    HW221594   3.667   1.492   2.733
 6899SOL     OW21595   5.794   6.314   6.473
 6899SOL    HW121596   5.763   6.287   6.382
 6899SOL    HW221597   5.732   6.276   6.542
 6900SOL     OW21598   4.118   1.586   5.800
 6900SOL    HW121599   4.203   1.636   5.817
 6900SOL    HW221600   4.136   1.510   5.737
 6901SOL     OW21601   1.317   0.897   0.573
 6901SOL    HW121602   1.392   0.953   0.538
 6901SOL    HW221603   1.286   0.935   0.661
 6902SOL     OW21604   6.691   5.354   1.879
 6902SOL    HW121605   6.651   5.385   1.793
 6902SOL    HW221606   6.655   5.409   1.955
 6903SOL     OW21607   4.050   4.922   0.748
 6903SOL    HW121608   4.122   4.991   0.737
 6903SOL    HW221609   4.067   4.846   0.685
 6904SOL     OW21610   1.148   1.772   3.167
 6904SOL    HW121611   1.190   1.686   3.197
 6904SOL    HW221612   1.051   1.756   3.147
 6905SOL     OW21613   4.114   5.369   1.175
 6905SOL    HW121614   4.205   5.349   1.138
 6905SOL    HW221615   4.096   5.467   1.167
 6906SOL     OW21616   5.345   5.889   3.780
 6906SOL    HW121617   5.400   5.860   3.858
 6906SOL    HW221618   5.329   5.988   3.785
 6907SOL     OW21619   3.656   0.824   1.208
 6907SOL    HW121620   3.574   0.843   1.262
 6907SOL    HW221621   3.700   0.740   1.243
 6908SOL     OW21622   6.212   0.554   6.890
 6908SOL    HW121623   6.161   0.474   6.859
 6908SOL    HW221624   6.218   0.553   6.990
 6909SOL     OW21625   3.413   3.177   6.625
 6909SOL    HW121626   3.431   3.088   6.583
 6909SOL    HW221627   3.420   3.248   6.555
 6910SOL     OW21628   6.103   0.522   1.504
 6910SOL    HW121629   6.156   0.565   1.430
 6910SOL    HW221630   6.013   0.495   1.469
 6911SOL     OW21631   4.406   0.636   4.751
 6911SOL    HW121632   4.469   0.687   4.810
 6911SOL    HW221633   4.358   0.567   4.806
 6912SOL     OW21634   4.536   4.536   1.872
 6912SOL    HW121635   4.521   4.450   1.922
 6912SOL    HW221636   4.590   4.598   1.929
 6913SOL     OW21637   4.577   5.712   5.962
 6913SOL    HW121638   4.534   5.799   5.941
 6913SOL    HW221639   4.557   5.686   6.056
 6914SOL     OW21640   6.411   5.119   0.025
 6914SOL    HW121641   6.391   5.184   0.097
 6914SOL    HW221642   6.405   5.026   0.061
 6915SOL     OW21643   1.229   5.421   0.551
 6915SOL    HW121644   1.132   5.396   0.552
 6915SOL    HW221645   1.262   5.431   0.644
 6916SOL     OW21646   6.177   0.598   5.526
 6916SOL    HW121647   6.274   0.575   5.521
 6916SOL    HW221648   6.127   0.521   5.566
 6917SOL     OW21649   4.359   0.382   6.677
 6917SOL    HW121650   4.307   0.308   6.635
 6917SOL    HW221651   4.302   0.464   6.682
 6918SOL     OW21652   2.283   2.774   3.532
 6918SOL    HW121653   2.374   2.736   3.516
 6918SOL    HW221654   2.281   2.870   3.504
 6919SOL     OW21655   0.838   6.285   3.298
 6919SOL    HW121656   0.841   6.332   3.386
 6919SOL    HW221657   0.894   6.336   3.231
 6920SOL     OW21658   5.015   6.197   4.811
 6920SOL    HW121659   4.969   6.262   4.873
 6920SOL    HW221660   5.030   6.241   4.722
 6921SOL     OW21661   1.099   6.239   2.994
 6921SOL    HW121662   1.098   6.310   3.064
 6921SOL    HW221663   1.126   6.151   3.035
 6922SOL     OW21664   1.880   6.314   0.340
 6922SOL    HW121665   1.946   6.240   0.326
 6922SOL    HW221666   1.902   6.363   0.425
 6923SOL     OW21667   4.625   6.516   4.145
 6923SOL    HW121668   4.690   6.592   4.154
 6923SOL    HW221669   4.536   6.553   4.118
 6924SOL     OW21670   6.694   6.017   1.683
 6924SOL    HW121671   6.683   6.058   1.593
 6924SOL    HW221672   6.604   6.005   1.725
 6925SOL     OW21673   5.813   5.711   3.082
 6925SOL    HW121674   5.784   5.806   3.068
 6925SOL    HW221675   5.830   5.695   3.179
 6926SOL     OW21676   2.941   4.071   5.374
 6926SOL    HW121677   3.005   4.003   5.409
 6926SOL    HW221678   2.871   4.026   5.318
 6927SOL     OW21679   3.966   2.945   0.588
 6927SOL    HW121680   3.960   3.003   0.669
 6927SOL    HW221681   3.915   2.861   0.603
 6928SOL     OW21682   6.647   0.217   6.440
 6928SOL    HW121683   6.596   0.251   6.361
 6928SOL    HW221684   6.600   0.245   6.524
 6929SOL     OW21685   3.065   5.138   0.863
 6929SOL    HW121686   3.034   5.065   0.923
 6929SOL    HW221687   3.005   5.144   0.784
 6930SOL     OW21688   0.973   0.604   3.001
 6930SOL    HW121689   0.920   0.549   3.065
 6930SOL    HW221690   0.972   0.561   2.911
 6931SOL     OW21691   2.094   0.144   0.846
 6931SOL    HW121692   2.163   0.155   0.774
 6931SOL    HW221693   2.088   0.048   0.873
 6932SOL     OW21694   2.775   2.688   0.132
 6932SOL    HW121695   2.701   2.726   0.077
 6932SOL    HW221696   2.841   2.641   0.072
 6933SOL     OW21697   2.794   6.394   6.110
 6933SOL    HW121698   2.891   6.379   6.090
 6933SOL    HW221699   2.747   6.421   6.026
 6934SOL     OW21700   5.413   4.525   6.327
 6934SOL    HW121701   5.475   4.602   6.318
 6934SOL    HW221702   5.412   4.494   6.422
 6935SOL     OW21703   4.356   6.330   2.648
 6935SOL    HW121704   4.273   6.326   2.704
 6935SOL    HW221705   4.436   6.323   2.708
 6936SOL     OW21706   0.198   4.763   0.881
 6936SOL    HW121707   0.116   4.709   0.902
 6936SOL    HW221708   0.234   4.803   0.964
 6937SOL     OW21709   4.283   6.543   5.896
 6937SOL    HW121710   4.306   6.631   5.854
 6937SOL    HW221711   4.318   6.469   5.839
 6938SOL     OW21712   6.034   2.366   5.048
 6938SOL    HW121713   5.941   2.331   5.062
 6938SOL    HW221714   6.065   2.412   5.130
 6939SOL     OW21715   6.913   4.697   2.138
 6939SOL    HW121716   6.995   4.745   2.108
 6939SOL    HW221717   6.832   4.742   2.101
 6940SOL     OW21718   4.301   0.975   5.012
 6940SOL    HW121719   4.292   0.897   5.074
 6940SOL    HW221720   4.241   1.049   5.042
 6941SOL     OW21721   3.938   3.065   4.278
 6941SOL    HW121722   3.904   2.999   4.211
 6941SOL    HW221723   3.929   3.158   4.242
 6942SOL     OW21724   6.749   1.543   6.897
 6942SOL    HW121725   6.675   1.487   6.860
 6942SOL    HW221726   6.744   1.544   6.996
 6943SOL     OW21727   6.576   6.183   0.022
 6943SOL    HW121728   6.531   6.119   0.083
 6943SOL    HW221729   6.675   6.172   0.029
 6944SOL     OW21730   1.172   6.114   6.363
 6944SOL    HW121731   1.100   6.046   6.350
 6944SOL    HW221732   1.252   6.089   6.307
 6945SOL     OW21733   4.391   2.096   5.223
 6945SOL    HW121734   4.420   2.151   5.301
 6945SOL    HW221735   4.467   2.088   5.158
 6946SOL     OW21736   6.175   3.509   3.510
 6946SOL    HW121737   6.269   3.541   3.528
 6946SOL    HW221738   6.118   3.528   3.590
 6947SOL     OW21739   3.538   0.021   2.640
 6947SOL    HW121740   3.565   6.958   2.603
 6947SOL    HW221741   3.476   0.008   2.717
 6948SOL     OW21742   3.749   2.114   4.789
 6948SOL    HW121743   3.702   2.028   4.766
 6948SOL    HW221744   3.828   2.125   4.728
 6949SOL     OW21745   4.620   1.028   2.723
 6949SOL    HW121746   4.704   0.976   2.708
 6949SOL    HW221747   4.642   1.124   2.738
 6950SOL     OW21748   2.522   1.382   3.755
 6950SOL    HW121749   2.607   1.369   3.807
 6950SOL    HW221750   2.537   1.452   3.685
 6951SOL     OW21751   4.937   5.390   5.236
 6951SOL    HW121752   4.916   5.436   5.322
 6951SOL    HW221753   4.963   5.295   5.254
 6952SOL     OW21754   6.835   4.984   5.249
 6952SOL    HW121755   6.894   4.983   5.330
 6952SOL    HW221756   6.751   4.933   5.268
 6953SOL     OW21757   5.767   2.285   5.102
 6953SOL    HW121758   5.735   2.195   5.132
 6953SOL    HW221759   5.696   2.353   5.119
 6954SOL     OW21760   0.798   4.734   2.500
 6954SOL    HW121761   0.744   4.762   2.421
 6954SOL    HW221762   0.840   4.814   2.542
 6955SOL     OW21763   6.654   6.157   2.979
 6955SOL    HW121764   6.619   6.121   2.892
 6955SOL    HW221765   6.695   6.247   2.962
 6956SOL     OW21766   3.040   5.008   0.473
 6956SOL    HW121767   3.023   4.918   0.514
 6956SOL    HW221768   3.123   5.047   0.514
 6957SOL     OW21769   0.913   3.922   0.339
 6957SOL    HW121770   0.970   3.858   0.391
 6957SOL    HW221771   0.963   4.008   0.327
 6958SOL     OW21772   2.016   4.165   6.743
 6958SOL    HW121773   1.945   4.176   6.674
 6958SOL    HW221774   1.990   4.092   6.806
 6959SOL     OW21775   3.928   1.213   3.763
 6959SOL    HW121776   3.884   1.277   3.701
 6959SOL    HW221777   3.908   1.119   3.734
 6960SOL     OW21778   0.427   4.871   0.446
 6960SOL    HW121779   0.376   4.941   0.396
 6960SOL    HW221780   0.404   4.877   0.544
 6961SOL     OW21781   0.041   1.380   3.025
 6961SOL    HW121782   6.968   1.394   3.030
 6961SOL    HW221783   0.074   1.404   2.934
 6962SOL     OW21784   3.099   3.501   0.697
 6962SOL    HW121785   3.088   3.465   0.605
 6962SOL    HW221786   3.162   3.443   0.748
 6963SOL     OW21787   6.474   5.926   2.339
 6963SOL    HW121788   6.560   5.937   2.289
 6963SOL    HW221789   6.398   5.936   2.275
 6964SOL     OW21790   3.861   6.578   4.887
 6964SOL    HW121791   3.800   6.503   4.860
 6964SOL    HW221792   3.956   6.551   4.870
 6965SOL     OW21793   6.734   1.876   5.755
 6965SOL    HW121794   6.830   1.851   5.746
 6965SOL    HW221795   6.719   1.923   5.842
 6966SOL     OW21796   4.746   2.754   4.010
 6966SOL    HW121797   4.830   2.726   4.056
 6966SOL    HW221798   4.765   2.831   3.948
 6967SOL     OW21799   2.141   2.591   6.366
 6967SOL    HW121800   2.186   2.640   6.290
 6967SOL    HW221801   2.173   2.628   6.453
 6968SOL     OW21802   3.898   0.310   2.710
 6968SOL    HW121803   3.892   0.370   2.789
 6968SOL    HW221804   3.971   0.242   2.726
 6969SOL     OW21805   2.815   2.321   1.339
 6969SOL    HW121806   2.730   2.275   1.365
 6969SOL    HW221807   2.854   2.276   1.259
 6970SOL     OW21808   4.399   3.756   0.895
 6970SOL    HW121809   4.468   3.735   0.826
 6970SOL    HW221810   4.427   3.718   0.983
 6971SOL     OW21811   5.904   0.631   2.128
 6971SOL    HW121812   5.834   0.654   2.196
 6971SOL    HW221813   5.948   0.715   2.096
 6972SOL     OW21814   5.328   5.061   4.919
 6972SOL    HW121815   5.253   5.128   4.916
 6972SOL    HW221816   5.291   4.969   4.925
 6973SOL     OW21817   1.433   4.496   3.006
 6973SOL    HW121818   1.412   4.481   2.910
 6973SOL    HW221819   1.452   4.408   3.050
 6974SOL     OW21820   3.038   4.024   4.910
 6974SOL    HW121821   2.995   3.937   4.935
 6974SOL    HW221822   2.970   4.097   4.915
 6975SOL     OW21823   3.033   0.648   5.919
 6975SOL    HW121824   3.072   0.556   5.916
 6975SOL    HW221825   3.071   0.697   5.997
 6976SOL     OW21826   1.671   5.979   0.754
 6976SOL    HW121827   1.624   5.897   0.723
 6976SOL    HW221828   1.731   5.957   0.830
 6977SOL     OW21829   4.615   2.647   2.850
 6977SOL    HW121830   4.564   2.605   2.925
 6977SOL    HW221831   4.704   2.678   2.883
 6978SOL     OW21832   5.415   1.508   2.965
 6978SOL    HW121833   5.337   1.445   2.956
 6978SOL    HW221834   5.433   1.525   3.061
 6979SOL     OW21835   0.455   4.633   3.408
 6979SOL    HW121836   0.528   4.571   3.380
 6979SOL    HW221837   0.478   4.673   3.497
 6980SOL     OW21838   3.750   1.838   4.107
 6980SOL    HW121839   3.746   1.773   4.183
 6980SOL    HW221840   3.737   1.931   4.142
 6981SOL     OW21841   3.762   4.689   6.879
 6981SOL    HW121842   3.732   4.597   6.903
 6981SOL    HW221843   3.738   4.753   6.952
 6982SOL     OW21844   0.419   6.934   4.225
 6982SOL    HW121845   0.404   6.889   4.313
 6982SOL    HW221846   0.492   7.002   4.235
 6983SOL     OW21847   6.249   0.322   3.674
 6983SOL    HW121848   6.213   0.404   3.631
 6983SOL    HW221849   6.348   0.329   3.685
 6984SOL     OW21850   2.362   0.893   5.343
 6984SOL    HW121851   2.378   0.853   5.252
 6984SOL    HW221852   2.439   0.872   5.403
 6985SOL     OW21853   5.313   6.554   2.841
 6985SOL    HW121854   5.373   6.535   2.765
 6985SOL    HW221855   5.295   6.653   2.846
 6986SOL     OW21856   2.020   0.109   4.993
 6986SOL    HW121857   1.979   0.199   4.978
 6986SOL    HW221858   1.948   0.040   4.996
 6987SOL     OW21859   6.875   3.517   6.591
 6987SOL    HW121860   6.815   3.437   6.587
 6987SOL    HW221861   6.851   3.573   6.670
 6988SOL     OW21862   5.164   1.020   5.666
 6988SOL    HW121863   5.246   0.977   5.627
 6988SOL    HW221864   5.167   1.118   5.648
 6989SOL     OW21865   1.571   3.006   3.835
 6989SOL    HW121866   1.522   2.938   3.890
 6989SOL    HW221867   1.659   3.026   3.878
 6990SOL     OW21868   3.836   3.415   0.645
 6990SOL    HW121869   3.783   3.485   0.693
 6990SOL    HW221870   3.926   3.405   0.688
 6991SOL     OW21871   4.382   4.516   5.525
 6991SOL    HW121872   4.478   4.526   5.551
 6991SOL    HW221873   4.329   4.484   5.603
 6992SOL     OW21874   5.982   6.353   5.082
 6992SOL    HW121875   5.905   6.312   5.130
 6992SOL    HW221876   5.971   6.340   4.983
 6993SOL     OW21877   0.525   6.452   3.420
 6993SOL    HW121878   0.558   6.524   3.359
 6993SOL    HW221879   0.524   6.365   3.370
 6994SOL     OW21880   1.395   3.138   0.184
 6994SOL    HW121881   1.491   3.145   0.154
 6994SOL    HW221882   1.335   3.151   0.105
 6995SOL     OW21883   1.033   4.489   3.681
 6995SOL    HW121884   0.949   4.436   3.689
 6995SOL    HW221885   1.032   4.562   3.750
 6996SOL     OW21886   2.261   0.324   6.189
 6996SOL    HW121887   2.323   0.254   6.153
 6996SOL    HW221888   2.191   0.280   6.246
 6997SOL     OW21889   5.005   0.165   4.232
 6997SOL    HW121890   5.065   0.137   4.158
 6997SOL    HW221891   5.060   0.190   4.312
 6998SOL     OW21892   1.741   2.483   3.127
 6998SOL    HW121893   1.697   2.537   3.056
 6998SOL    HW221894   1.730   2.528   3.215
 6999SOL     OW21895   5.034   1.752   0.253
 6999SOL    HW121896   5.014   1.784   0.160
 6999SOL    HW221897   4.968   1.792   0.317
 7000SOL     OW21898   6.425   6.555   0.911
 7000SOL    HW121899   6.450   6.469   0.954
 7000SOL    HW221900   6.406   6.624   0.981
 7001SOL     OW21901   2.468   1.820   5.582
 7001SOL    HW121902   2.487   1.829   5.484
 7001SOL    HW221903   2.399   1.750   5.596
 7002SOL     OW21904   1.525   4.919   2.395
 7002SOL    HW121905   1.522   4.917   2.295
 7002SOL    HW221906   1.594   4.854   2.427
 7003SOL     OW21907   1.397   6.270   6.162
 7003SOL    HW121908   1.481   6.285   6.112
 7003SOL    HW221909   1.320   6.307   6.111
 7004SOL     OW21910   1.392   4.157   0.591
 7004SOL    HW121911   1.324   4.107   0.645
 7004SOL    HW221912   1.377   4.139   0.494
 7005SOL     OW21913   5.760   6.553   6.139
 7005SOL    HW121914   5.728   6.481   6.078
 7005SOL    HW221915   5.844   6.523   6.185
 7006SOL     OW21916   4.537   5.423   4.848
 7006SOL    HW121917   4.623   5.404   4.896
 7006SOL    HW221918   4.517   5.349   4.784
 7007SOL     OW21919   4.913   5.551   2.372
 7007SOL    HW121920   4.885   5.556   2.468
 7007SOL    HW221921   4.869   5.625   2.321
 7008SOL     OW21922   1.404   4.501   4.164
 7008SOL    HW121923   1.309   4.491   4.133
 7008SOL    HW221924   1.420   4.438   4.241
 7009SOL     OW21925   0.344   4.273   2.431
 7009SOL    HW121926   0.372   4.283   2.336
 7009SOL    HW221927   0.425   4.255   2.488
 7010SOL     OW21928   4.247   4.602   6.298
 7010SOL    HW121929   4.203   4.666   6.234
 7010SOL    HW221930   4.332   4.568   6.258
 7011SOL     OW21931   1.463   1.517   5.244
 7011SOL    HW121932   1.555   1.506   5.204
 7011SOL    HW221933   1.425   1.427   5.264
 7012SOL     OW21934   1.574   1.628   1.511
 7012SOL    HW121935   1.533   1.706   1.558
 7012SOL    HW221936   1.583   1.648   1.414
 7013SOL     OW21937   0.021   1.369   1.714
 7013SOL    HW121938   0.050   1.341   1.622
 7013SOL    HW221939   0.063   1.457   1.737
 7014SOL     OW21940   2.181   4.997   0.658
 7014SOL    HW121941   2.152   4.962   0.747
 7014SOL    HW221942   2.103   5.043   0.614
 7015SOL     OW21943   5.491   2.015   2.402
 7015SOL    HW121944   5.505   1.919   2.381
 7015SOL    HW221945   5.561   2.070   2.356
 7016SOL     OW21946   4.129   4.675   1.217
 7016SOL    HW121947   4.209   4.628   1.255
 7016SOL    HW221948   4.114   4.759   1.268
 7017SOL     OW21949   4.527   2.010   4.524
 7017SOL    HW121950   4.454   2.030   4.460
 7017SOL    HW221951   4.596   1.952   4.480
 7018SOL     OW21952   0.179   4.063   3.271
 7018SOL    HW121953   0.092   4.091   3.229
 7018SOL    HW221954   0.191   4.114   3.357
 7019SOL     OW21955   1.611   5.746   1.058
 7019SOL    HW121956   1.556   5.787   1.130
 7019SOL    HW221957   1.594   5.647   1.055
 7020SOL     OW21958   0.025   6.344   5.744
 7020SOL    HW121959   0.015   6.329   5.646
 7020SOL    HW221960   6.994   6.278   5.794
 7021SOL     OW21961   3.793   6.848   5.546
 7021SOL    HW121962   3.768   6.752   5.540
 7021SOL    HW221963   3.713   6.902   5.573
 7022SOL     OW21964   4.969   5.510   6.569
 7022SOL    HW121965   5.039   5.501   6.639
 7022SOL    HW221966   5.012   5.533   6.481
 7023SOL     OW21967   5.677   4.035   3.227
 7023SOL    HW121968   5.650   3.943   3.253
 7023SOL    HW221969   5.750   4.067   3.287
 7024SOL     OW21970   0.352   5.849   1.613
 7024SOL    HW121971   0.386   5.791   1.687
 7024SOL    HW221972   0.261   5.819   1.585
 7025SOL     OW21973   2.645   7.019   6.748
 7025SOL    HW121974   2.602   0.021   6.662
 7025SOL    HW221975   2.702   0.068   6.782
 7026SOL     OW21976   3.238   1.623   0.885
 7026SOL    HW121977   3.264   1.682   0.962
 7026SOL    HW221978   3.317   1.611   0.824
 7027SOL     OW21979   4.678   6.873   4.291
 7027SOL    HW121980   4.586   6.844   4.317
 7027SOL    HW221981   4.713   6.939   4.357
 7028SOL     OW21982   2.982   0.465   4.553
 7028SOL    HW121983   3.072   0.427   4.534
 7028SOL    HW221984   2.956   0.528   4.480
 7029SOL     OW21985   3.984   0.867   5.033
 7029SOL    HW121986   3.946   0.865   5.126
 7029SOL    HW221987   4.062   0.805   5.028
 7030SOL     OW21988   2.063   3.527   3.601
 7030SOL    HW121989   1.976   3.504   3.644
 7030SOL    HW221990   2.058   3.509   3.503
 7031SOL     OW21991   1.375   0.323   4.830
 7031SOL    HW121992   1.351   0.273   4.913
 7031SOL    HW221993   1.315   0.295   4.755
 7032SOL     OW21994   5.998   2.128   3.418
 7032SOL    HW121995   5.935   2.206   3.415
 7032SOL    HW221996   5.970   2.065   3.489
 7033SOL     OW21997   0.127   0.218   4.611
 7033SOL    HW121998   0.076   0.300   4.638
 7033SOL    HW221999   0.080   0.137   4.643
 7034SOL     OW22000   0.286   5.786   2.783
 7034SOL    HW122001   0.244   5.696   2.781
 7034SOL    HW222002   0.294   5.821   2.690
 7035SOL     OW22003   6.626   5.102   2.009
 7035SOL    HW122004   6.647   5.197   1.987
 7035SOL    HW222005   6.560   5.067   1.943
 7036SOL     OW22006   6.751   4.901   0.567
 7036SOL    HW122007   6.725   4.969   0.635
 7036SOL    HW222008   6.769   4.814   0.612
 7037SOL     OW22009   0.555   0.267   6.547
 7037SOL    HW122010   0.482   0.296   6.609
 7037SOL    HW222011   0.529   0.286   6.453
 7038SOL     OW22012   2.185   3.118   4.173
 7038SOL    HW122013   2.193   3.019   4.160
 7038SOL    HW222014   2.230   3.142   4.259
 7039SOL     OW22015   3.566   2.296   5.960
 7039SOL    HW122016   3.606   2.383   5.989
 7039SOL    HW222017   3.488   2.313   5.900
 7040SOL     OW22018   5.939   2.587   6.542
 7040SOL    HW122019   6.026   2.634   6.547
 7040SOL    HW222020   5.893   2.609   6.456
 7041SOL     OW22021   3.073   1.532   2.808
 7041SOL    HW122022   3.095   1.573   2.720
 7041SOL    HW222023   3.022   1.447   2.794
 7042SOL     OW22024   1.447   0.278   6.756
 7042SOL    HW122025   1.519   0.246   6.693
 7042SOL    HW222026   1.463   0.374   6.778
 7043SOL     OW22027   1.081   2.790   2.305
 7043SOL    HW122028   1.129   2.878   2.310
 7043SOL    HW222029   1.095   2.740   2.390
 7044SOL     OW22030   5.142   6.220   2.179
 7044SOL    HW122031   5.080   6.221   2.101
 7044SOL    HW222032   5.096   6.259   2.259
 7045SOL     OW22033   6.310   4.827   1.159
 7045SOL    HW122034   6.320   4.729   1.173
 7045SOL    HW222035   6.398   4.872   1.175
 7046SOL     OW22036   2.551   1.101   3.742
 7046SOL    HW122037   2.497   1.088   3.659
 7046SOL    HW222038   2.530   1.190   3.782
 7047SOL     OW22039   1.628   1.253   2.840
 7047SOL    HW122040   1.663   1.283   2.752
 7047SOL    HW222041   1.587   1.162   2.831
 7048SOL     OW22042   6.795   5.850   0.763
 7048SOL    HW122043   6.810   5.890   0.672
 7048SOL    HW222044   6.772   5.923   0.828
 7049SOL     OW22045   1.575   0.821   0.062
 7049SOL    HW122046   1.594   0.893   7.021
 7049SOL    HW222047   1.654   0.760   0.068
 7050SOL     OW22048   3.783   4.136   4.705
 7050SOL    HW122049   3.708   4.161   4.644
 7050SOL    HW222050   3.846   4.074   4.658
 7051SOL     OW22051   0.069   6.594   2.878
 7051SOL    HW122052   7.007   6.642   2.870
 7051SOL    HW222053   0.143   6.656   2.854
 7052SOL     OW22054   0.016   1.016   3.888
 7052SOL    HW122055   0.066   1.099   3.862
 7052SOL    HW222056   6.946   1.040   3.907
 7053SOL     OW22057   6.570   4.111   5.849
 7053SOL    HW122058   6.662   4.130   5.884
 7053SOL    HW222059   6.515   4.068   5.921
 7054SOL     OW22060   6.587   0.470   1.929
 7054SOL    HW122061   6.567   0.372   1.937
 7054SOL    HW222062   6.658   0.483   1.859
 7055SOL     OW22063   4.052   0.253   4.801
 7055SOL    HW122064   4.071   0.224   4.895
 7055SOL    HW222065   3.960   0.224   4.775
 7056SOL     OW22066   4.502   5.404   3.733
 7056SOL    HW122067   4.578   5.339   3.742
 7056SOL    HW222068   4.511   5.452   3.646
 7057SOL     OW22069   0.569   6.246   3.254
 7057SOL    HW122070   0.557   6.148   3.267
 7057SOL    HW222071   0.665   6.270   3.272
 7058SOL     OW22072   0.499   4.247   5.191
 7058SOL    HW122073   0.510   4.149   5.209
 7058SOL    HW222074   0.456   4.260   5.102
 7059SOL     OW22075   2.318   0.121   2.899
 7059SOL    HW122076   2.351   0.212   2.925
 7059SOL    HW222077   2.395   0.065   2.868
 7060SOL     OW22078   3.474   0.031   1.378
 7060SOL    HW122079   3.499   0.114   1.428
 7060SOL    HW222080   3.555   7.000   1.364
 7061SOL     OW22081   0.178   1.037   3.290
 7061SOL    HW122082   0.208   1.027   3.385
 7061SOL    HW222083   0.197   0.952   3.240
 7062SOL     OW22084   6.672   1.201   5.771
 7062SOL    HW122085   6.584   1.157   5.751
 7062SOL    HW222086   6.672   1.233   5.866
 7063SOL     OW22087   2.647   0.141   1.922
 7063SOL    HW122088   2.624   0.044   1.925
 7063SOL    HW222089   2.676   0.172   2.013
 7064SOL     OW22090   4.254   2.312   0.759
 7064SOL    HW122091   4.326   2.254   0.720
 7064SOL    HW222092   4.219   2.271   0.843
 7065SOL     OW22093   3.536   3.503   1.976
 7065SOL    HW122094   3.563   3.564   1.901
 7065SOL    HW222095   3.566   3.542   2.063
 7066SOL     OW22096   2.973   5.897   1.145
 7066SOL    HW122097   2.948   5.993   1.132
 7066SOL    HW222098   2.891   5.842   1.155
 7067SOL     OW22099   6.956   3.815   4.571
 7067SOL    HW122100   0.003   3.836   4.506
 7067SOL    HW222101   6.874   3.785   4.521
 7068SOL     OW22102   1.196   0.654   2.728
 7068SOL    HW122103   1.231   0.662   2.821
 7068SOL    HW222104   1.117   0.592   2.728
 7069SOL     OW22105   1.614   4.336   5.341
 7069SOL    HW122106   1.702   4.315   5.383
 7069SOL    HW222107   1.629   4.377   5.251
 7070SOL     OW22108   4.976   5.736   4.405
 7070SOL    HW122109   4.994   5.637   4.404
 7070SOL    HW222110   4.920   5.761   4.326
 7071SOL     OW22111   1.508   6.680   5.311
 7071SOL    HW122112   1.454   6.752   5.355
 7071SOL    HW222113   1.600   6.678   5.351
 7072SOL     OW22114   6.972   6.355   6.481
 7072SOL    HW122115   0.045   6.348   6.499
 7072SOL    HW222116   6.921   6.332   6.564
 7073SOL     OW22117   1.325   2.089   6.642
 7073SOL    HW122118   1.319   2.019   6.570
 7073SOL    HW222119   1.421   2.112   6.657
 7074SOL     OW22120   2.734   1.470   0.773
 7074SOL    HW122121   2.689   1.433   0.693
 7074SOL    HW222122   2.731   1.570   0.770
 7075SOL     OW22123   1.269   5.512   2.774
 7075SOL    HW122124   1.328   5.497   2.695
 7075SOL    HW222125   1.278   5.607   2.805
 7076SOL     OW22126   3.359   2.185   6.575
 7076SOL    HW122127   3.364   2.253   6.502
 7076SOL    HW222128   3.281   2.124   6.559
 7077SOL     OW22129   1.615   5.002   6.097
 7077SOL    HW122130   1.541   5.052   6.142
 7077SOL    HW222131   1.649   5.056   6.020
 7078SOL     OW22132   6.818   0.836   2.479
 7078SOL    HW122133   6.735   0.796   2.517
 7078SOL    HW222134   6.898   0.786   2.513
 7079SOL     OW22135   5.064   5.573   5.767
 7079SOL    HW122136   5.148   5.614   5.732
 7079SOL    HW222137   5.012   5.535   5.690
 7080SOL     OW22138   5.482   6.940   4.038
 7080SOL    HW122139   5.545   7.012   4.067
 7080SOL    HW222140   5.428   6.972   3.960
 7081SOL     OW22141   3.573   1.459   5.421
 7081SOL    HW122142   3.659   1.415   5.394
 7081SOL    HW222143   3.575   1.555   5.393
 7082SOL     OW22144   5.001   2.041   6.288
 7082SOL    HW122145   4.911   2.000   6.301
 7082SOL    HW222146   5.070   1.981   6.329
 7083SOL     OW22147   3.113   6.978   5.974
 7083SOL    HW122148   3.163   0.016   6.034
 7083SOL    HW222149   3.163   6.967   5.888
 7084SOL     OW22150   6.880   6.437   0.110
 7084SOL    HW122151   6.944   6.509   0.140
 7084SOL    HW222152   6.870   6.370   0.183
 7085SOL     OW22153   3.290   2.424   0.763
 7085SOL    HW122154   3.195   2.452   0.755
 7085SOL    HW222155   3.333   2.470   0.841
 7086SOL     OW22156   0.031   1.247   6.447
 7086SOL    HW122157   0.103   1.276   6.512
 7086SOL    HW222158   0.053   1.156   6.412
 7087SOL     OW22159   2.074   2.776   5.232
 7087SOL    HW122160   2.098   2.733   5.319
 7087SOL    HW222161   1.991   2.733   5.196
 7088SOL     OW22162   0.587   1.933   5.712
 7088SOL    HW122163   0.636   1.867   5.655
 7088SOL    HW222164   0.623   1.929   5.805
 7089SOL     OW22165   2.491   1.436   0.936
 7089SOL    HW122166   2.467   1.487   1.019
 7089SOL    HW222167   2.585   1.459   0.910
 7090SOL     OW22168   2.280   2.683   4.762
 7090SOL    HW122169   2.369   2.639   4.749
 7090SOL    HW222170   2.271   2.711   4.858
 7091SOL     OW22171   0.235   6.033   0.789
 7091SOL    HW122172   0.207   6.128   0.800
 7091SOL    HW222173   0.212   6.002   0.696
 7092SOL     OW22174   3.083   3.320   6.621
 7092SOL    HW122175   3.008   3.265   6.659
 7092SOL    HW222176   3.146   3.260   6.571
 7093SOL     OW22177   4.154   3.087   5.901
 7093SOL    HW122178   4.167   3.183   5.929
 7093SOL    HW222179   4.161   3.029   5.982
 7094SOL     OW22180   6.942   0.455   6.299
 7094SOL    HW122181   6.920   0.523   6.230
 7094SOL    HW222182   6.878   0.462   6.375
 7095SOL     OW22183   0.359   4.239   6.657
 7095SOL    HW122184   0.278   4.297   6.656
 7095SOL    HW222185   0.437   4.292   6.692
 7096SOL     OW22186   4.898   0.884   2.649
 7096SOL    HW122187   4.942   0.930   2.725
 7096SOL    HW222188   4.936   0.917   2.563
 7097SOL     OW22189   1.180   0.745   1.733
 7097SOL    HW122190   1.114   0.774   1.664
 7097SOL    HW222191   1.271   0.739   1.692
 7098SOL     OW22192   1.802   0.078   5.823
 7098SOL    HW122193   1.850   0.144   5.880
 7098SOL    HW222194   1.855   0.060   5.740
 7099SOL     OW22195   0.595   0.840   6.053
 7099SOL    HW122196   0.621   0.902   6.128
 7099SOL    HW222197   0.506   0.867   6.017
 7100SOL     OW22198   5.445   2.371   0.837
 7100SOL    HW122199   5.426   2.407   0.929
 7100SOL    HW222200   5.523   2.309   0.841
 7101SOL     OW22201   1.649   0.374   4.242
 7101SOL    HW122202   1.722   0.436   4.214
 7101SOL    HW222203   1.687   0.299   4.295
 7102SOL     OW22204   4.750   2.783   0.835
 7102SOL    HW122205   4.837   2.795   0.882
 7102SOL    HW222206   4.757   2.820   0.742
 7103SOL     OW22207   2.609   6.769   6.612
 7103SOL    HW122208   2.690   6.769   6.553
 7103SOL    HW222209   2.606   6.855   6.664
 7104SOL     OW22210   0.454   2.153   1.798
 7104SOL    HW122211   0.467   2.239   1.849
 7104SOL    HW222212   0.404   2.088   1.855
 7105SOL     OW22213   2.511   4.084   5.409
 7105SOL    HW122214   2.473   4.054   5.497
 7105SOL    HW222215   2.483   4.021   5.337
 7106SOL     OW22216   3.097   2.527   5.401
 7106SOL    HW122217   3.141   2.617   5.406
 7106SOL    HW222218   3.147   2.468   5.338
 7107SOL     OW22219   2.411   0.482   6.961
 7107SOL    HW122220   2.502   0.498   6.999
 7107SOL    HW222221   2.346   0.468   0.010
 7108SOL     OW22222   4.490   6.850   2.570
 7108SOL    HW122223   4.483   6.814   2.477
 7108SOL    HW222224   4.505   6.775   2.635
 7109SOL     OW22225   3.909   6.194   6.110
 7109SOL    HW122226   3.861   6.280   6.093
 7109SOL    HW222227   3.889   6.163   6.204
 7110SOL     OW22228   3.362   5.200   3.210
 7110SOL    HW122229   3.314   5.168   3.129
 7110SOL    HW222230   3.296   5.241   3.274
 7111SOL     OW22231   1.399   2.543   3.728
 7111SOL    HW122232   1.428   2.492   3.647
 7111SOL    HW222233   1.477   2.591   3.768
 7112SOL     OW22234   1.573   6.492   2.399
 7112SOL    HW122235   1.662   6.514   2.438
 7112SOL    HW222236   1.581   6.482   2.299
 7113SOL     OW22237   3.196   3.591   4.824
 7113SOL    HW122238   3.192   3.569   4.921
 7113SOL    HW222239   3.115   3.644   4.799
 7114SOL     OW22240   4.116   0.131   1.139
 7114SOL    HW122241   4.082   0.075   1.063
 7114SOL    HW222242   4.214   0.147   1.128
 7115SOL     OW22243   4.137   1.655   1.727
 7115SOL    HW122244   4.191   1.658   1.812
 7115SOL    HW222245   4.065   1.724   1.731
 7116SOL     OW22246   6.238   3.617   3.034
 7116SOL    HW122247   6.145   3.619   2.998
 7116SOL    HW222248   6.287   3.538   2.996
 7117SOL     OW22249   6.624   6.683   2.092
 7117SOL    HW122250   6.714   6.652   2.060
 7117SOL    HW222251   6.560   6.685   2.015
 7118SOL     OW22252   6.894   2.644   2.152
 7118SOL    HW122253   6.973   2.703   2.134
 7118SOL    HW222254   6.911   2.590   2.235
 7119SOL     OW22255   0.160   1.898   2.863
 7119SOL    HW122256   0.259   1.885   2.857
 7119SOL    HW222257   0.115   1.852   2.786
 7120SOL     OW22258   4.779   6.824   3.351
 7120SOL    HW122259   4.812   6.806   3.443
 7120SOL    HW222260   4.807   6.750   3.289
 7121SOL     OW22261   3.641   6.742   2.026
 7121SOL    HW122262   3.735   6.722   1.999
 7121SOL    HW222263   3.630   6.725   2.124
 7122SOL     OW22264   0.027   0.174   0.050
 7122SOL    HW122265   0.012   0.185   0.148
 7122SOL    HW222266   0.120   0.204   0.027
 7123SOL     OW22267   2.536   5.367   0.550
 7123SOL    HW122268   2.441   5.395   0.538
 7123SOL    HW222269   2.574   5.339   0.462
 7124SOL     OW22270   0.585   5.558   1.621
 7124SOL    HW122271   0.568   5.594   1.529
 7124SOL    HW222272   0.661   5.608   1.663
 7125SOL     OW22273   0.029   6.424   2.643
 7125SOL    HW122274   6.978   6.437   2.580
 7125SOL    HW222275   0.024   6.491   2.717
 7126SOL     OW22276   1.258   4.716   0.502
 7126SOL    HW122277   1.280   4.764   0.586
 7126SOL    HW222278   1.219   4.627   0.524
 7127SOL     OW22279   3.244   0.261   4.459
 7127SOL    HW122280   3.321   0.202   4.434
 7127SOL    HW222281   3.194   0.219   4.535
 7128SOL     OW22282   3.146   4.597   1.695
 7128SOL    HW122283   3.065   4.581   1.751
 7128SOL    HW222284   3.123   4.580   1.599
 7129SOL     OW22285   2.877   1.911   1.534
 7129SOL    HW122286   2.788   1.956   1.527
 7129SOL    HW222287   2.913   1.921   1.626
 7130SOL     OW22288   2.139   6.438   2.097
 7130SOL    HW122289   2.172   6.349   2.068
 7130SOL    HW222290   2.126   6.439   2.197
 7131SOL     OW22291   2.805   1.251   3.849
 7131SOL    HW122292   2.827   1.191   3.926
 7131SOL    HW222293   2.749   1.201   3.783
 7132SOL     OW22294   3.379   4.109   3.107
 7132SOL    HW122295   3.433   4.027   3.126
 7132SOL    HW222296   3.367   4.119   3.009
 7133SOL     OW22297   5.339   4.683   2.144
 7133SOL    HW122298   5.276   4.607   2.159
 7133SOL    HW222299   5.359   4.727   2.231
 7134SOL     OW22300   5.212   4.492   3.347
 7134SOL    HW122301   5.156   4.531   3.274
 7134SOL    HW222302   5.153   4.454   3.418
 7135SOL     OW22303   1.246   2.022   5.045
 7135SOL    HW122304   1.268   1.998   4.950
 7135SOL    HW222305   1.189   2.104   5.047
 7136SOL     OW22306   2.392   2.086   6.541
 7136SOL    HW122307   2.447   2.153   6.590
 7136SOL    HW222308   2.336   2.034   6.605
 7137SOL     OW22309   3.555   1.466   4.883
 7137SOL    HW122310   3.614   1.403   4.933
 7137SOL    HW222311   3.599   1.555   4.876
 7138SOL     OW22312   2.185   3.816   0.013
 7138SOL    HW122313   2.127   3.883   0.061
 7138SOL    HW222314   2.137   3.729   0.007
 7139SOL     OW22315   2.981   2.169   0.137
 7139SOL    HW122316   3.072   2.128   0.144
 7139SOL    HW222317   2.977   2.249   0.197
 7140SOL     OW22318   6.385   3.312   5.248
 7140SOL    HW122319   6.447   3.304   5.171
 7140SOL    HW222320   6.430   3.278   5.331
 7141SOL     OW22321   2.105   6.881   0.873
 7141SOL    HW122322   2.164   6.853   0.949
 7141SOL    HW222323   2.015   6.838   0.883
 7142SOL     OW22324   3.925   0.028   4.142
 7142SOL    HW122325   3.885   0.072   4.062
 7142SOL    HW222326   3.916   6.954   4.134
 7143SOL     OW22327   1.797   3.031   4.120
 7143SOL    HW122328   1.758   2.942   4.142
 7143SOL    HW222329   1.844   3.027   4.032
 7144SOL     OW22330   1.196   2.933   3.859
 7144SOL    HW122331   1.267   2.899   3.921
 7144SOL    HW222332   1.205   2.888   3.770
 7145SOL     OW22333   4.059   6.677   5.978
 7145SOL    HW122334   4.149   6.638   5.957
 7145SOL    HW222335   4.001   6.607   6.020
 7146SOL     OW22336   3.158   4.795   0.813
 7146SOL    HW122337   3.083   4.730   0.802
 7146SOL    HW222338   3.159   4.828   0.907
 7147SOL     OW22339   0.367   1.087   4.327
 7147SOL    HW122340   0.466   1.096   4.336
 7147SOL    HW222341   0.346   1.028   4.249
 7148SOL     OW22342   0.878   1.550   0.565
 7148SOL    HW122343   0.940   1.509   0.498
 7148SOL    HW222344   0.786   1.514   0.551
 7149SOL     OW22345   6.499   0.737   3.633
 7149SOL    HW122346   6.485   0.761   3.537
 7149SOL    HW222347   6.531   0.642   3.639
 7150SOL     OW22348   5.706   4.002   6.997
 7150SOL    HW122349   5.673   3.908   7.005
 7150SOL    HW222350   5.805   4.003   7.008
 7151SOL     OW22351   1.855   6.000   1.166
 7151SOL    HW122352   1.756   6.016   1.173
 7151SOL    HW222353   1.890   5.971   1.254
 7152SOL     OW22354   1.557   2.318   4.076
 7152SOL    HW122355   1.501   2.237   4.061
 7152SOL    HW222356   1.597   2.314   4.167
 7153SOL     OW22357   3.396   1.811   3.400
 7153SOL    HW122358   3.356   1.874   3.467
 7153SOL    HW222359   3.470   1.858   3.351
 7154SOL     OW22360   4.708   6.021   4.395
 7154SOL    HW122361   4.751   6.058   4.313
 7154SOL    HW222362   4.610   6.035   4.391
 7155SOL     OW22363   2.346   0.266   2.479
 7155SOL    HW122364   2.273   0.332   2.494
 7155SOL    HW222365   2.370   0.263   2.381
 7156SOL     OW22366   0.934   5.645   4.687
 7156SOL    HW122367   1.000   5.574   4.665
 7156SOL    HW222368   0.974   5.735   4.672
 7157SOL     OW22369   5.300   4.306   1.322
 7157SOL    HW122370   5.249   4.391   1.310
 7157SOL    HW222371   5.257   4.233   1.269
 7158SOL     OW22372   5.248   6.907   4.341
 7158SOL    HW122373   5.257   6.815   4.304
 7158SOL    HW222374   5.212   6.902   4.434
 7159SOL     OW22375   0.943   5.107   0.158
 7159SOL    HW122376   0.972   5.027   0.211
 7159SOL    HW222377   0.845   5.102   0.140
 7160SOL     OW22378   6.215   0.616   2.488
 7160SOL    HW122379   6.291   0.582   2.543
 7160SOL    HW222380   6.194   0.551   2.414
 7161SOL     OW22381   3.358   4.146   4.091
 7161SOL    HW122382   3.335   4.160   4.187
 7161SOL    HW222383   3.331   4.053   4.064
 7162SOL     OW22384   2.669   4.773   3.468
 7162SOL    HW122385   2.638   4.706   3.400
 7162SOL    HW222386   2.670   4.730   3.559
 7163SOL     OW22387   2.657   6.667   3.461
 7163SOL    HW122388   2.576   6.610   3.451
 7163SOL    HW222389   2.635   6.746   3.518
 7164SOL     OW22390   2.754   1.798   3.387
 7164SOL    HW122391   2.756   1.897   3.371
 7164SOL    HW222392   2.659   1.767   3.388
 7165SOL     OW22393   4.736   0.210   1.872
 7165SOL    HW122394   4.786   0.124   1.856
 7165SOL    HW222395   4.652   0.191   1.922
 7166SOL     OW22396   5.178   5.110   1.611
 7166SOL    HW122397   5.125   5.025   1.608
 7166SOL    HW222398   5.267   5.092   1.653
 7167SOL     OW22399   5.465   2.962   5.410
 7167SOL    HW122400   5.525   2.982   5.488
 7167SOL    HW222401   5.378   3.010   5.422
 7168SOL     OW22402   1.018   1.882   4.702
 7168SOL    HW122403   0.995   1.885   4.605
 7168SOL    HW222404   1.084   1.955   4.723
 7169SOL     OW22405   1.446   2.947   6.733
 7169SOL    HW122406   1.485   3.003   6.806
 7169SOL    HW222407   1.349   2.969   6.721
 7170SOL     OW22408   6.380   5.232   3.999
 7170SOL    HW122409   6.411   5.299   3.931
 7170SOL    HW222410   6.303   5.270   4.050
 7171SOL     OW22411   4.277   2.727   5.841
 7171SOL    HW122412   4.319   2.806   5.797
 7171SOL    HW222413   4.317   2.713   5.931
 7172SOL     OW22414   1.216   6.787   1.009
 7172SOL    HW122415   1.245   6.693   0.992
 7172SOL    HW222416   1.218   6.838   0.923
 7173SOL     OW22417   5.893   6.325   5.484
 7173SOL    HW122418   5.967   6.267   5.447
 7173SOL    HW222419   5.897   6.325   5.584
 7174SOL     OW22420   0.632   5.413   6.935
 7174SOL    HW122421   0.607   5.510   6.937
 7174SOL    HW222422   0.700   5.395   7.006
 7175SOL     OW22423   6.521   2.849   5.244
 7175SOL    HW122424   6.542   2.771   5.303
 7175SOL    HW222425   6.423   2.869   5.251
 7176SOL     OW22426   6.306   3.568   1.741
 7176SOL    HW122427   6.269   3.618   1.819
 7176SOL    HW222428   6.405   3.570   1.743
 7177SOL     OW22429   0.882   5.940   2.243
 7177SOL    HW122430   0.973   5.941   2.285
 7177SOL    HW222431   0.822   6.004   2.291
 7178SOL     OW22432   6.907   2.114   6.256
 7178SOL    HW122433   6.992   2.101   6.204
 7178SOL    HW222434   6.875   2.208   6.244
 7179SOL     OW22435   2.320   4.439   6.413
 7179SOL    HW122436   2.352   4.377   6.341
 7179SOL    HW222437   2.387   4.512   6.425
 7180SOL     OW22438   1.146   6.397   3.217
 7180SOL    HW122439   1.203   6.479   3.207
 7180SOL    HW222440   1.194   6.331   3.275
 7181SOL     OW22441   5.592   6.727   2.513
 7181SOL    HW122442   5.551   6.816   2.531
 7181SOL    HW222443   5.650   6.701   2.590
 7182SOL     OW22444   3.482   3.742   5.824
 7182SOL    HW122445   3.473   3.706   5.917
 7182SOL    HW222446   3.396   3.726   5.774
 7183SOL     OW22447   1.488   4.985   3.074
 7183SOL    HW122448   1.531   4.902   3.037
 7183SOL    HW222449   1.402   5.002   3.025
 7184SOL     OW22450   2.341   6.043   2.814
 7184SOL    HW122451   2.399   6.048   2.895
 7184SOL    HW222452   2.398   6.037   2.733
 7185SOL     OW22453   4.281   2.182   6.756
 7185SOL    HW122454   4.374   2.148   6.754
 7185SOL    HW222455   4.252   2.207   6.664
 7186SOL     OW22456   0.194   7.018   4.035
 7186SOL    HW122457   0.288   6.988   4.054
 7186SOL    HW222458   0.182   0.086   4.070
 7187SOL     OW22459   2.311   5.693   1.314
 7187SOL    HW122460   2.306   5.734   1.405
 7187SOL    HW222461   2.294   5.763   1.245
 7188SOL     OW22462   4.992   0.326   1.541
 7188SOL    HW122463   5.076   0.353   1.586
 7188SOL    HW222464   4.993   0.359   1.446
 7189SOL     OW22465   6.646   0.218   4.803
 7189SOL    HW122466   6.671   0.262   4.717
 7189SOL    HW222467   6.558   0.171   4.793
 7190SOL     OW22468   4.755   5.081   3.019
 7190SOL    HW122469   4.717   5.141   2.948
 7190SOL    HW222470   4.754   4.986   2.986
 7191SOL     OW22471   0.860   2.740   1.674
 7191SOL    HW122472   0.897   2.816   1.729
 7191SOL    HW222473   0.927   2.667   1.668
 7192SOL     OW22474   4.247   5.908   6.157
 7192SOL    HW122475   4.287   5.932   6.069
 7192SOL    HW222476   4.270   5.813   6.180
 7193SOL     OW22477   5.361   1.672   3.730
 7193SOL    HW122478   5.291   1.743   3.724
 7193SOL    HW222479   5.434   1.691   3.665
 7194SOL     OW22480   3.152   1.555   1.303
 7194SOL    HW122481   3.249   1.550   1.282
 7194SOL    HW222482   3.100   1.503   1.235
 7195SOL     OW22483   0.279   6.234   1.920
 7195SOL    HW122484   0.209   6.291   1.877
 7195SOL    HW222485   0.370   6.270   1.896
 7196SOL     OW22486   3.491   2.970   2.254
 7196SOL    HW122487   3.481   3.066   2.228
 7196SOL    HW222488   3.483   2.912   2.173
 7197SOL     OW22489   1.494   1.886   4.649
 7197SOL    HW122490   1.541   1.802   4.623
 7197SOL    HW222491   1.529   1.918   4.737
 7198SOL     OW22492   0.361   6.254   6.298
 7198SOL    HW122493   0.360   6.161   6.333
 7198SOL    HW222494   0.453   6.278   6.266
 7199SOL     OW22495   5.759   6.586   2.662
 7199SOL    HW122496   5.773   6.601   2.760
 7199SOL    HW222497   5.764   6.487   2.643
 7200SOL     OW22498   1.967   1.889   1.860
 7200SOL    HW122499   1.898   1.869   1.790
 7200SOL    HW222500   1.926   1.878   1.950
 7201SOL     OW22501   2.509   5.091   3.198
 7201SOL    HW122502   2.562   5.008   3.186
 7201SOL    HW222503   2.416   5.068   3.225
 7202SOL     OW22504   3.727   0.456   5.808
 7202SOL    HW122505   3.681   0.444   5.896
 7202SOL    HW222506   3.751   0.552   5.795
 7203SOL     OW22507   6.139   0.276   6.844
 7203SOL    HW122508   6.202   0.305   6.772
 7203SOL    HW222509   6.140   0.177   6.852
 7204SOL     OW22510   6.079   1.613   2.512
 7204SOL    HW122511   6.145   1.543   2.485
 7204SOL    HW222512   6.126   1.700   2.527
 7205SOL     OW22513   1.990   5.248   1.843
 7205SOL    HW122514   1.983   5.163   1.896
 7205SOL    HW222515   2.016   5.226   1.749
 7206SOL     OW22516   5.648   1.354   1.679
 7206SOL    HW122517   5.557   1.358   1.638
 7206SOL    HW222518   5.682   1.447   1.690
 7207SOL     OW22519   4.204   6.658   2.001
 7207SOL    HW122520   4.249   6.716   1.933
 7207SOL    HW222521   4.193   6.709   2.087
 7208SOL     OW22522   3.087   0.120   5.120
 7208SOL    HW122523   3.049   0.123   5.212
 7208SOL    HW222524   3.020   0.080   5.058
 7209SOL     OW22525   4.103   3.436   4.580
 7209SOL    HW122526   4.073   3.532   4.576
 7209SOL    HW222527   4.130   3.413   4.673
 7210SOL     OW22528   4.837   0.615   3.984
 7210SOL    HW122529   4.754   0.601   3.929
 7210SOL    HW222530   4.905   0.664   3.929
 7211SOL     OW22531   1.486   5.008   2.689
 7211SOL    HW122532   1.520   4.970   2.603
 7211SOL    HW222533   1.386   5.017   2.684
 7212SOL     OW22534   5.123   6.948   3.789
 7212SOL    HW122535   5.077   6.860   3.800
 7212SOL    HW222536   5.060   7.021   3.818
 7213SOL     OW22537   5.866   0.012   5.789
 7213SOL    HW122538   5.783   6.981   5.781
 7213SOL    HW222539   5.947   6.979   5.779
 7214SOL     OW22540   0.436   4.940   5.254
 7214SOL    HW122541   0.481   4.971   5.337
 7214SOL    HW222542   0.387   5.017   5.212
 7215SOL     OW22543   0.792   3.385   2.950
 7215SOL    HW122544   0.790   3.286   2.938
 7215SOL    HW222545   0.885   3.414   2.971
 7216SOL     OW22546   2.488   1.722   1.771
 7216SOL    HW122547   2.413   1.670   1.812
 7216SOL    HW222548   2.464   1.745   1.677
 7217SOL     OW22549   1.322   3.319   1.850
 7217SOL    HW122550   1.323   3.228   1.809
 7217SOL    HW222551   1.278   3.315   1.940
 7218SOL     OW22552   6.450   2.076   5.831
 7218SOL    HW122553   6.515   2.103   5.901
 7218SOL    HW222554   6.388   2.006   5.867
 7219SOL     OW22555   3.731   0.557   1.244
 7219SOL    HW122556   3.810   0.505   1.276
 7219SOL    HW222557   3.648   0.503   1.257
 7220SOL     OW22558   0.290   0.808   3.169
 7220SOL    HW122559   0.343   0.763   3.097
 7220SOL    HW222560   0.225   0.743   3.209
 7221SOL     OW22561   5.644   5.152   5.528
 7221SOL    HW122562   5.711   5.082   5.504
 7221SOL    HW222563   5.670   5.195   5.615
 7222SOL     OW22564   5.742   6.323   3.271
 7222SOL    HW122565   5.756   6.225   3.269
 7222SOL    HW222566   5.818   6.369   3.226
 7223SOL     OW22567   4.010   1.244   5.217
 7223SOL    HW122568   3.973   1.192   5.139
 7223SOL    HW222569   4.108   1.259   5.203
 7224SOL     OW22570   4.972   0.850   4.322
 7224SOL    HW122571   5.000   0.905   4.243
 7224SOL    HW222572   4.886   0.803   4.301
 7225SOL     OW22573   2.100   0.431   0.464
 7225SOL    HW122574   2.125   0.351   0.410
 7225SOL    HW222575   2.181   0.466   0.512
 7226SOL     OW22576   5.711   6.624   6.488
 7226SOL    HW122577   5.666   6.646   6.402
 7226SOL    HW222578   5.792   6.568   6.470
 7227SOL     OW22579   6.846   2.454   6.143
 7227SOL    HW122580   6.835   2.551   6.164
 7227SOL    HW222581   6.944   2.433   6.134
 7228SOL     OW22582   2.164   0.527   2.964
 7228SOL    HW122583   2.133   0.553   2.873
 7228SOL    HW222584   2.089   0.537   3.029
 7229SOL     OW22585   0.499   0.564   3.801
 7229SOL    HW122586   0.460   0.576   3.892
 7229SOL    HW222587   0.533   0.471   3.791
 7230SOL     OW22588   5.897   5.346   1.698
 7230SOL    HW122589   5.853   5.432   1.722
 7230SOL    HW222590   5.947   5.311   1.778
 7231SOL     OW22591   5.481   1.148   6.592
 7231SOL    HW122592   5.481   1.237   6.546
 7231SOL    HW222593   5.573   1.127   6.624
 7232SOL     OW22594   3.893   4.008   0.900
 7232SOL    HW122595   3.979   3.999   0.950
 7232SOL    HW222596   3.912   4.019   0.802
 7233SOL     OW22597   0.621   2.138   5.994
 7233SOL    HW122598   0.662   2.047   5.982
 7233SOL    HW222599   0.657   2.179   6.078
 7234SOL     OW22600   5.606   1.903   2.780
 7234SOL    HW122601   5.527   1.866   2.731
 7234SOL    HW222602   5.687   1.900   2.721
 7235SOL     OW22603   6.165   2.726   4.407
 7235SOL    HW122604   6.083   2.691   4.453
 7235SOL    HW222605   6.138   2.786   4.332
 7236SOL     OW22606   2.520   1.292   3.250
 7236SOL    HW122607   2.593   1.345   3.294
 7236SOL    HW222608   2.555   1.202   3.226
 7237SOL     OW22609   6.062   5.224   5.099
 7237SOL    HW122610   6.072   5.133   5.140
 7237SOL    HW222611   6.041   5.214   5.001
 7238SOL     OW22612   0.708   0.985   1.730
 7238SOL    HW122613   0.619   1.002   1.687
 7238SOL    HW222614   0.748   1.072   1.760
 7239SOL     OW22615   4.492   0.969   2.335
 7239SOL    HW122616   4.465   0.983   2.240
 7239SOL    HW222617   4.565   1.033   2.359
 7240SOL     OW22618   2.730   3.130   1.234
 7240SOL    HW122619   2.657   3.063   1.226
 7240SOL    HW222620   2.799   3.097   1.299
 7241SOL     OW22621   5.140   6.849   4.822
 7241SOL    HW122622   5.108   6.769   4.872
 7241SOL    HW222623   5.193   6.908   4.884
 7242SOL     OW22624   5.579   4.932   0.569
 7242SOL    HW122625   5.533   4.844   0.554
 7242SOL    HW222626   5.569   4.988   0.487
 7243SOL     OW22627   0.561   5.783   0.347
 7243SOL    HW122628   0.465   5.764   0.365
 7243SOL    HW222629   0.618   5.720   0.400
 7244SOL     OW22630   5.606   1.541   0.942
 7244SOL    HW122631   5.534   1.487   0.898
 7244SOL    HW222632   5.566   1.617   0.993
 7245SOL     OW22633   6.714   1.915   4.351
 7245SOL    HW122634   6.753   2.004   4.376
 7245SOL    HW222635   6.616   1.924   4.338
 7246SOL     OW22636   1.611   5.398   5.192
 7246SOL    HW122637   1.674   5.320   5.189
 7246SOL    HW222638   1.594   5.422   5.288
 7247SOL     OW22639   3.681   5.405   2.985
 7247SOL    HW122640   3.600   5.412   3.043
 7247SOL    HW222641   3.653   5.382   2.892
 7248SOL     OW22642   3.223   0.955   4.837
 7248SOL    HW122643   3.142   0.920   4.789
 7248SOL    HW222644   3.241   1.049   4.808
 7249SOL     OW22645   5.588   4.148   6.061
 7249SOL    HW122646   5.580   4.059   6.016
 7249SOL    HW222647   5.594   4.135   6.160
 7250SOL     OW22648   3.118   3.425   0.435
 7250SOL    HW122649   3.078   3.497   0.378
 7250SOL    HW222650   3.168   3.362   0.377
 7251SOL     OW22651   5.166   0.845   4.539
 7251SOL    HW122652   5.108   0.833   4.458
 7251SOL    HW222653   5.117   0.815   4.620
 7252SOL     OW22654   4.452   3.677   5.331
 7252SOL    HW122655   4.502   3.685   5.417
 7252SOL    HW222656   4.517   3.670   5.256
 7253SOL     OW22657   5.251   4.683   1.039
 7253SOL    HW122658   5.286   4.769   1.076
 7253SOL    HW222659   5.232   4.619   1.113
 7254SOL     OW22660   5.393   6.844   5.648
 7254SOL    HW122661   5.411   6.798   5.561
 7254SOL    HW222662   5.313   6.903   5.639
 7255SOL     OW22663   4.172   3.424   1.913
 7255SOL    HW122664   4.181   3.326   1.929
 7255SOL    HW222665   4.150   3.471   1.998
 7256SOL     OW22666   3.813   5.250   3.632
 7256SOL    HW122667   3.736   5.252   3.569
 7256SOL    HW222668   3.822   5.159   3.672
 7257SOL     OW22669   6.190   3.700   3.295
 7257SOL    HW122670   6.204   3.635   3.370
 7257SOL    HW222671   6.207   3.654   3.208
 7258SOL     OW22672   2.183   0.253   5.838
 7258SOL    HW122673   2.215   0.160   5.818
 7258SOL    HW222674   2.107   0.248   5.903
 7259SOL     OW22675   2.283   5.621   6.242
 7259SOL    HW122676   2.321   5.695   6.186
 7259SOL    HW222677   2.319   5.628   6.335
 7260SOL     OW22678   4.773   1.549   2.507
 7260SOL    HW122679   4.728   1.604   2.437
 7260SOL    HW222680   4.721   1.557   2.593
 7261SOL     OW22681   1.688   4.609   1.192
 7261SOL    HW122682   1.699   4.708   1.202
 7261SOL    HW222683   1.612   4.579   1.250
 7262SOL     OW22684   6.101   1.280   5.803
 7262SOL    HW122685   6.034   1.352   5.785
 7262SOL    HW222686   6.100   1.214   5.729
 7263SOL     OW22687   5.400   6.252   1.844
 7263SOL    HW122688   5.448   6.260   1.931
 7263SOL    HW222689   5.309   6.214   1.859
 7264SOL     OW22690   1.640   6.843   4.668
 7264SOL    HW122691   1.559   6.796   4.704
 7264SOL    HW222692   1.619   6.940   4.654
 7265SOL     OW22693   4.293   3.358   6.112
 7265SOL    HW122694   4.243   3.440   6.140
 7265SOL    HW222695   4.304   3.358   6.013
 7266SOL     OW22696   3.737   1.333   1.849
 7266SOL    HW122697   3.701   1.259   1.792
 7266SOL    HW222698   3.812   1.378   1.800
 7267SOL     OW22699   6.936   2.988   4.281
 7267SOL    HW122700   6.970   2.903   4.240
 7267SOL    HW222701   6.855   2.969   4.336
 7268SOL     OW22702   3.742   0.228   0.239
 7268SOL    HW122703   3.692   0.230   0.153
 7268SOL    HW222704   3.823   0.170   0.230
 7269SOL     OW22705   0.968   6.641   1.844
 7269SOL    HW122706   0.921   6.554   1.829
 7269SOL    HW222707   0.941   6.677   1.933
 7270SOL     OW22708   3.130   1.619   2.471
 7270SOL    HW122709   3.164   1.711   2.451
 7270SOL    HW222710   3.032   1.623   2.490
 7271SOL     OW22711   6.304   5.040   3.652
 7271SOL    HW122712   6.231   4.972   3.658
 7271SOL    HW222713   6.375   5.018   3.719
 7272SOL     OW22714   6.539   2.093   1.187
 7272SOL    HW122715   6.607   2.066   1.255
 7272SOL    HW222716   6.495   2.011   1.149
 7273SOL     OW22717   5.469   5.927   5.326
 7273SOL    HW122718   5.478   6.008   5.382
 7273SOL    HW222719   5.372   5.911   5.305
 7274SOL     OW22720   6.359   4.948   3.948
 7274SOL    HW122721   6.390   5.042   3.961
 7274SOL    HW222722   6.334   4.908   4.036
 7275SOL     OW22723   5.364   6.563   1.071
 7275SOL    HW122724   5.423   6.643   1.079
 7275SOL    HW222725   5.374   6.506   1.152
 7276SOL     OW22726   2.987   2.000   3.925
 7276SOL    HW122727   2.938   2.040   3.847
 7276SOL    HW222728   2.981   2.063   4.003
 7277SOL     OW22729   5.994   1.198   4.056
 7277SOL    HW122730   5.927   1.218   4.127
 7277SOL    HW222731   6.071   1.149   4.096
 7278SOL     OW22732   2.662   1.862   3.884
 7278SOL    HW122733   2.707   1.859   3.973
 7278SOL    HW222734   2.597   1.786   3.877
 7279SOL     OW22735   4.154   3.918   1.248
 7279SOL    HW122736   4.074   3.859   1.260
 7279SOL    HW222737   4.182   3.954   1.337
 7280SOL     OW22738   6.685   1.858   5.365
 7280SOL    HW122739   6.765   1.802   5.341
 7280SOL    HW222740   6.674   1.931   5.298
 7281SOL     OW22741   3.742   5.940   2.208
 7281SOL    HW122742   3.739   5.883   2.125
 7281SOL    HW222743   3.826   5.993   2.209
 7282SOL     OW22744   6.854   3.629   1.617
 7282SOL    HW122745   6.935   3.678   1.648
 7282SOL    HW222746   6.803   3.686   1.552
 7283SOL     OW22747   3.654   6.154   2.938
 7283SOL    HW122748   3.703   6.202   3.011
 7283SOL    HW222749   3.639   6.059   2.965
 7284SOL     OW22750   0.781   1.033   2.865
 7284SOL    HW122751   0.829   0.958   2.909
 7284SOL    HW222752   0.840   1.114   2.864
 7285SOL     OW22753   5.167   2.867   2.074
 7285SOL    HW122754   5.170   2.960   2.039
 7285SOL    HW222755   5.203   2.864   2.167
 7286SOL     OW22756   6.332   1.215   3.781
 7286SOL    HW122757   6.333   1.285   3.853
 7286SOL    HW222758   6.239   1.203   3.746
 7287SOL     OW22759   3.579   0.901   3.864
 7287SOL    HW122760   3.668   0.915   3.820
 7287SOL    HW222761   3.591   0.899   3.963
 7288SOL     OW22762   3.650   1.493   2.049
 7288SOL    HW122763   3.700   1.465   2.131
 7288SOL    HW222764   3.682   1.440   1.971
 7289SOL     OW22765   6.035   2.707   2.091
 7289SOL    HW122766   6.132   2.731   2.095
 7289SOL    HW222767   5.981   2.791   2.086
 7290SOL     OW22768   4.244   1.754   4.968
 7290SOL    HW122769   4.231   1.703   4.883
 7290SOL    HW222770   4.234   1.852   4.950
 7291SOL     OW22771   1.579   1.307   0.829
 7291SOL    HW122772   1.506   1.375   0.835
 7291SOL    HW222773   1.665   1.348   0.857
 7292SOL     OW22774   2.954   0.814   2.847
 7292SOL    HW122775   3.048   0.832   2.815
 7292SOL    HW222776   2.957   0.748   2.922
 7293SOL     OW22777   6.362   1.049   3.997
 7293SOL    HW122778   6.343   1.101   3.914
 7293SOL    HW222779   6.276   1.018   4.037
 7294SOL     OW22780   3.942   6.868   2.538
 7294SOL    HW122781   3.869   6.909   2.482
 7294SOL    HW222782   4.017   6.840   2.479
 7295SOL     OW22783   5.226   3.856   1.208
 7295SOL    HW122784   5.247   3.759   1.217
 7295SOL    HW222785   5.142   3.877   1.259
 7296SOL     OW22786   3.385   6.158   1.992
 7296SOL    HW122787   3.453   6.182   2.062
 7296SOL    HW222788   3.430   6.151   1.903
 7297SOL     OW22789   4.254   6.521   0.345
 7297SOL    HW122790   4.255   6.548   0.441
 7297SOL    HW222791   4.259   6.421   0.338
 7298SOL     OW22792   4.159   5.702   1.252
 7298SOL    HW122793   4.234   5.715   1.188
 7298SOL    HW222794   4.106   5.787   1.260
 7299SOL     OW22795   0.425   3.546   5.470
 7299SOL    HW122796   0.449   3.615   5.538
 7299SOL    HW222797   0.337   3.504   5.494
 7300SOL     OW22798   0.622   4.882   2.297
 7300SOL    HW122799   0.658   4.815   2.233
 7300SOL    HW222800   0.561   4.837   2.362
 7301SOL     OW22801   4.397   1.976   6.387
 7301SOL    HW122802   4.371   1.891   6.433
 7301SOL    HW222803   4.370   2.054   6.443
 7302SOL     OW22804   5.195   2.097   6.889
 7302SOL    HW122805   5.237   2.154   6.818
 7302SOL    HW222806   5.261   2.027   6.918
 7303SOL     OW22807   3.198   2.034   1.597
 7303SOL    HW122808   3.285   2.070   1.630
 7303SOL    HW222809   3.213   1.946   1.552
 7304SOL     OW22810   2.293   6.234   0.525
 7304SOL    HW122811   2.389   6.224   0.503
 7304SOL    HW222812   2.269   6.173   0.600
 7305SOL     OW22813   6.164   0.179   6.457
 7305SOL    HW122814   6.173   0.266   6.506
 7305SOL    HW222815   6.139   0.197   6.362
 7306SOL     OW22816   1.124   3.028   1.338
 7306SOL    HW122817   1.101   3.080   1.256
 7306SOL    HW222818   1.078   3.068   1.417
 7307SOL     OW22819   2.267   0.651   2.151
 7307SOL    HW122820   2.309   0.595   2.223
 7307SOL    HW222821   2.338   0.683   2.089
 7308SOL     OW22822   3.221   0.873   3.471
 7308SOL    HW122823   3.275   0.808   3.419
 7308SOL    HW222824   3.258   0.881   3.564
 7309SOL     OW22825   2.124   5.669   3.898
 7309SOL    HW122826   2.181   5.599   3.942
 7309SOL    HW222827   2.085   5.728   3.969
 7310SOL     OW22828   2.582   2.943   7.000
 7310SOL    HW122829   2.577   2.849   6.967
 7310SOL    HW222830   2.512   2.999   6.956
 7311SOL     OW22831   0.228   6.031   5.806
 7311SOL    HW122832   0.273   6.067   5.888
 7311SOL    HW222833   0.228   6.101   5.735
 7312SOL     OW22834   6.195   2.201   4.568
 7312SOL    HW122835   6.193   2.249   4.656
 7312SOL    HW222836   6.243   2.114   4.578
 7313SOL     OW22837   3.209   1.058   2.813
 7313SOL    HW122838   3.191   1.152   2.843
 7313SOL    HW222839   3.191   1.051   2.715
 7314SOL     OW22840   1.931   5.214   5.719
 7314SOL    HW122841   1.980   5.229   5.804
 7314SOL    HW222842   1.975   5.140   5.667
 7315SOL     OW22843   3.399   4.932   2.317
 7315SOL    HW122844   3.338   4.969   2.247
 7315SOL    HW222845   3.346   4.905   2.398
 7316SOL     OW22846   3.648   1.396   1.564
 7316SOL    HW122847   3.636   1.312   1.511
 7316SOL    HW222848   3.568   1.410   1.623
 7317SOL     OW22849   4.621   2.090   0.870
 7317SOL    HW122850   4.652   2.109   0.777
 7317SOL    HW222851   4.596   1.994   0.878
 7318SOL     OW22852   5.320   0.363   0.499
 7318SOL    HW122853   5.414   0.390   0.520
 7318SOL    HW222854   5.320   0.307   0.416
 7319SOL     OW22855   5.189   6.153   6.549
 7319SOL    HW122856   5.127   6.185   6.477
 7319SOL    HW222857   5.261   6.220   6.563
 7320SOL     OW22858   0.439   2.903   0.402
 7320SOL    HW122859   0.377   2.880   0.327
 7320SOL    HW222860   0.448   3.002   0.408
 7321SOL     OW22861   2.188   2.250   6.093
 7321SOL    HW122862   2.107   2.307   6.078
 7321SOL    HW222863   2.196   2.228   6.190
 7322SOL     OW22864   1.216   2.301   3.925
 7322SOL    HW122865   1.168   2.241   3.860
 7322SOL    HW222866   1.281   2.358   3.875
 7323SOL     OW22867   1.355   2.220   0.975
 7323SOL    HW122868   1.267   2.239   1.018
 7323SOL    HW222869   1.403   2.306   0.957
 7324SOL     OW22870   4.899   3.858   4.174
 7324SOL    HW122871   4.994   3.883   4.154
 7324SOL    HW222872   4.843   3.875   4.093
 7325SOL     OW22873   3.423   1.597   6.090
 7325SOL    HW122874   3.351   1.663   6.112
 7325SOL    HW222875   3.499   1.645   6.045
 7326SOL     OW22876   3.998   6.738   0.443
 7326SOL    HW122877   3.979   6.834   0.463
 7326SOL    HW222878   4.016   6.727   0.345
 7327SOL     OW22879   1.672   4.404   3.295
 7327SOL    HW122880   1.759   4.355   3.287
 7327SOL    HW222881   1.683   4.479   3.361
 7328SOL     OW22882   4.721   4.955   6.000
 7328SOL    HW122883   4.674   4.980   6.085
 7328SOL    HW222884   4.761   5.036   5.958
 7329SOL     OW22885   2.811   3.873   0.909
 7329SOL    HW122886   2.859   3.793   0.874
 7329SOL    HW222887   2.716   3.850   0.929
 7330SOL     OW22888   2.733   2.953   0.650
 7330SOL    HW122889   2.708   2.870   0.699
 7330SOL    HW222890   2.747   3.027   0.715
 7331SOL     OW22891   5.171   2.104   2.691
 7331SOL    HW122892   5.168   2.128   2.594
 7331SOL    HW222893   5.167   2.187   2.747
 7332SOL     OW22894   2.656   6.398   5.484
 7332SOL    HW122895   2.749   6.436   5.488
 7332SOL    HW222896   2.644   6.333   5.559
 7333SOL     OW22897   6.803   0.626   1.230
 7333SOL    HW122898   6.814   0.531   1.203
 7333SOL    HW222899   6.892   0.671   1.232
 7334SOL     OW22900   1.840   4.643   4.820
 7334SOL    HW122901   1.769   4.581   4.854
 7334SOL    HW222902   1.876   4.608   4.733
 7335SOL     OW22903   0.712   3.639   2.308
 7335SOL    HW122904   0.622   3.603   2.282
 7335SOL    HW222905   0.708   3.670   2.404
 7336SOL     OW22906   2.800   6.991   1.128
 7336SOL    HW122907   2.809   7.018   1.223
 7336SOL    HW222908   2.798   6.891   1.121
 7337SOL     OW22909   3.512   1.243   3.851
 7337SOL    HW122910   3.436   1.232   3.786
 7337SOL    HW222911   3.559   1.155   3.860
 7338SOL     OW22912   5.092   3.825   0.890
 7338SOL    HW122913   5.135   3.735   0.897
 7338SOL    HW222914   5.162   3.896   0.885
 7339SOL     OW22915   0.483   5.945   4.448
 7339SOL    HW122916   0.467   5.854   4.485
 7339SOL    HW222917   0.581   5.965   4.447
 7340SOL     OW22918   2.816   6.091   0.076
 7340SOL    HW122919   2.825   6.082   7.002
 7340SOL    HW222920   2.747   6.160   0.097
 7341SOL     OW22921   6.356   5.529   4.337
 7341SOL    HW122922   6.418   5.578   4.399
 7341SOL    HW222923   6.387   5.434   4.327
 7342SOL     OW22924   0.891   4.981   1.020
 7342SOL    HW122925   0.985   5.008   1.004
 7342SOL    HW222926   0.886   4.922   1.101
 7343SOL     OW22927   6.169   2.418   3.167
 7343SOL    HW122928   6.224   2.437   3.085
 7343SOL    HW222929   6.218   2.353   3.226
 7344SOL     OW22930   2.093   1.051   6.651
 7344SOL    HW122931   2.189   1.061   6.622
 7344SOL    HW222932   2.035   1.106   6.592
 7345SOL     OW22933   2.443   6.624   0.173
 7345SOL    HW122934   2.497   6.633   0.257
 7345SOL    HW222935   2.356   6.579   0.194
 7346SOL     OW22936   3.994   4.836   2.306
 7346SOL    HW122937   3.915   4.781   2.276
 7346SOL    HW222938   3.962   4.926   2.335
 7347SOL     OW22939   6.519   2.785   2.657
 7347SOL    HW122940   6.579   2.851   2.612
 7347SOL    HW222941   6.522   2.699   2.607
 7348SOL     OW22942   6.736   1.246   5.383
 7348SOL    HW122943   6.657   1.202   5.341
 7348SOL    HW222944   6.810   1.180   5.393
 7349SOL     OW22945   3.854   1.593   0.863
 7349SOL    HW122946   3.791   1.668   0.842
 7349SOL    HW222947   3.826   1.548   0.948
 7350SOL     OW22948   2.199   1.138   3.097
 7350SOL    HW122949   2.275   1.086   3.136
 7350SOL    HW222950   2.123   1.138   3.162
 7351SOL     OW22951   4.292   5.064   0.675
 7351SOL    HW122952   4.324   5.158   0.669
 7351SOL    HW222953   4.325   5.024   0.761
 7352SOL     OW22954   6.490   0.613   3.174
 7352SOL    HW122955   6.426   0.538   3.193
 7352SOL    HW222956   6.583   0.584   3.199
 7353SOL     OW22957   5.316   1.531   4.794
 7353SOL    HW122958   5.393   1.467   4.789
 7353SOL    HW222959   5.250   1.498   4.861
 7354SOL     OW22960   6.279   4.222   4.471
 7354SOL    HW122961   6.342   4.211   4.394
 7354SOL    HW222962   6.330   4.217   4.557
 7355SOL     OW22963   0.891   5.673   0.892
 7355SOL    HW122964   0.967   5.722   0.851
 7355SOL    HW222965   0.804   5.710   0.858
 7356SOL     OW22966   6.920   2.036   5.928
 7356SOL    HW122967   6.956   2.042   5.835
 7356SOL    HW222968   6.994   2.012   5.991
 7357SOL     OW22969   0.766   1.454   6.963
 7357SOL    HW122970   0.714   1.470   6.879
 7357SOL    HW222971   0.856   1.498   6.955
 7358SOL     OW22972   3.645   0.747   4.102
 7358SOL    HW122973   3.701   0.804   4.163
 7358SOL    HW222974   3.670   0.651   4.113
 7359SOL     OW22975   3.673   2.867   3.384
 7359SOL    HW122976   3.642   2.791   3.441
 7359SOL    HW222977   3.601   2.936   3.379
 7360SOL     OW22978   6.978   4.103   5.989
 7360SOL    HW122979   6.949   4.199   5.994
 7360SOL    HW222980   0.045   4.098   5.951
 7361SOL     OW22981   4.855   6.480   1.756
 7361SOL    HW122982   4.946   6.442   1.739
 7361SOL    HW222983   4.788   6.406   1.763
 7362SOL     OW22984   1.640   6.375   6.078
 7362SOL    HW122985   1.602   6.423   5.999
 7362SOL    HW222986   1.720   6.323   6.050
 7363SOL     OW22987   4.551   2.774   6.585
 7363SOL    HW122988   4.585   2.829   6.509
 7363SOL    HW222989   4.622   2.767   6.655
 7364SOL     OW22990   4.569   1.067   1.247
 7364SOL    HW122991   4.484   1.062   1.299
 7364SOL    HW222992   4.565   1.003   1.170
 7365SOL     OW22993   3.673   0.633   1.897
 7365SOL    HW122994   3.586   0.643   1.946
 7365SOL    HW222995   3.721   0.552   1.930
 7366SOL     OW22996   0.863   6.930   0.027
 7366SOL    HW122997   0.911   6.870   0.091
 7366SOL    HW222998   0.773   6.954   0.064
 7367SOL     OW22999   4.506   2.879   0.036
 7367SOL    HW123000   4.599   2.903   0.064
 7367SOL    HW223001   4.444   2.954   0.057
 7368SOL     OW23002   3.347   3.013   3.846
 7368SOL    HW123003   3.355   3.108   3.819
 7368SOL    HW223004   3.277   3.004   3.918
 7369SOL     OW23005   4.961   1.652   6.225
 7369SOL    HW123006   4.968   1.689   6.318
 7369SOL    HW223007   4.920   1.721   6.165
 7370SOL     OW23008   0.981   5.534   1.108
 7370SOL    HW123009   1.068   5.575   1.136
 7370SOL    HW223010   0.948   5.580   1.025
 7371SOL     OW23011   1.709   4.872   4.607
 7371SOL    HW123012   1.633   4.847   4.666
 7371SOL    HW223013   1.795   4.848   4.652
 7372SOL     OW23014   3.082   6.473   5.261
 7372SOL    HW123015   3.119   6.510   5.346
 7372SOL    HW223016   2.996   6.427   5.279
 7373SOL     OW23017   3.583   0.212   0.685
 7373SOL    HW123018   3.609   0.118   0.664
 7373SOL    HW223019   3.532   0.215   0.771
 7374SOL     OW23020   2.608   3.292   6.442
 7374SOL    HW123021   2.558   3.371   6.479
 7374SOL    HW223022   2.600   3.215   6.506
 7375SOL     OW23023   2.574   6.449   3.009
 7375SOL    HW123024   2.647   6.511   3.036
 7375SOL    HW223025   2.614   6.365   2.972
 7376SOL     OW23026   3.451   4.181   6.395
 7376SOL    HW123027   3.480   4.264   6.347
 7376SOL    HW223028   3.441   4.106   6.329
 7377SOL     OW23029   6.038   5.850   2.055
 7377SOL    HW123030   5.984   5.881   1.977
 7377SOL    HW223031   5.977   5.816   2.126
 7378SOL     OW23032   0.355   2.694   5.942
 7378SOL    HW123033   0.297   2.647   5.875
 7378SOL    HW223034   0.450   2.693   5.911
 7379SOL     OW23035   3.867   1.299   1.333
 7379SOL    HW123036   3.941   1.237   1.306
 7379SOL    HW223037   3.901   1.364   1.401
 7380SOL     OW23038   6.579   2.655   5.419
 7380SOL    HW123039   6.651   2.675   5.485
 7380SOL    HW223040   6.501   2.612   5.466
 7381SOL     OW23041   4.617   2.479   0.267
 7381SOL    HW123042   4.612   2.577   0.284
 7381SOL    HW223043   4.703   2.457   0.220
 7382SOL     OW23044   1.134   5.485   3.495
 7382SOL    HW123045   1.233   5.476   3.489
 7382SOL    HW223046   1.106   5.481   3.591
 7383SOL     OW23047   0.681   4.961   2.982
 7383SOL    HW123048   0.634   4.964   3.070
 7383SOL    HW223049   0.734   5.045   2.970
 7384SOL     OW23050   6.483   1.807   1.516
 7384SOL    HW123051   6.510   1.736   1.581
 7384SOL    HW223052   6.522   1.788   1.427
 7385SOL     OW23053   5.128   0.612   1.555
 7385SOL    HW123054   5.152   0.612   1.652
 7385SOL    HW223055   5.038   0.656   1.544
 7386SOL     OW23056   0.195   2.561   5.781
 7386SOL    HW123057   0.189   2.462   5.767
 7386SOL    HW223058   0.111   2.594   5.823
 7387SOL     OW23059   5.370   6.420   4.239
 7387SOL    HW123060   5.357   6.427   4.140
 7387SOL    HW223061   5.381   6.511   4.277
 7388SOL     OW23062   5.514   4.204   5.136
 7388SOL    HW123063   5.419   4.173   5.128
 7388SOL    HW223064   5.572   4.144   5.080
 7389SOL     OW23065   0.299   4.169   4.368
 7389SOL    HW123066   0.398   4.154   4.368
 7389SOL    HW223067   0.259   4.135   4.453
 7390SOL     OW23068   3.203   0.284   6.322
 7390SOL    HW123069   3.182   0.241   6.410
 7390SOL    HW223070   3.217   0.382   6.336
 7391SOL     OW23071   6.635   4.885   0.306
 7391SOL    HW123072   6.660   4.871   0.402
 7391SOL    HW223073   6.677   4.814   0.250
 7392SOL     OW23074   2.175   4.461   2.811
 7392SOL    HW123075   2.195   4.553   2.847
 7392SOL    HW223076   2.082   4.435   2.836
 7393SOL     OW23077   0.628   3.888   0.080
 7393SOL    HW123078   0.641   3.887   0.179
 7393SOL    HW223079   0.686   3.959   0.040
 7394SOL     OW23080   2.651   2.643   6.319
 7394SOL    HW123081   2.625   2.547   6.327
 7394SOL    HW223082   2.683   2.662   6.226
 7395SOL     OW23083   1.970   6.899   0.213
 7395SOL    HW123084   1.961   6.833   0.139
 7395SOL    HW223085   2.055   6.951   0.200
 7396SOL     OW23086   6.873   6.951   1.804
 7396SOL    HW123087   6.952   6.973   1.746
 7396SOL    HW223088   6.792   6.996   1.767
 7397SOL     OW23089   6.505   4.407   4.542
 7397SOL    HW123090   6.499   4.309   4.524
 7397SOL    HW223091   6.508   4.423   4.641
 7398SOL     OW23092   4.725   6.985   2.812
 7398SOL    HW123093   4.655   6.979   2.742
 7398SOL    HW223094   4.683   7.004   2.901
 7399SOL     OW23095   5.490   4.595   4.736
 7399SOL    HW123096   5.464   4.509   4.691
 7399SOL    HW223097   5.443   4.602   4.824
 7400SOL     OW23098   2.721   4.118   0.298
 7400SOL    HW123099   2.680   4.191   0.244
 7400SOL    HW223100   2.700   4.030   0.255
 7401SOL     OW23101   5.878   1.913   4.845
 7401SOL    HW123102   5.817   1.992   4.856
 7401SOL    HW223103   5.834   1.831   4.881
 7402SOL     OW23104   2.933   6.221   4.455
 7402SOL    HW123105   2.863   6.152   4.465
 7402SOL    HW223106   3.011   6.183   4.404
 7403SOL     OW23107   2.685   2.787   1.242
 7403SOL    HW123108   2.655   2.865   1.186
 7403SOL    HW223109   2.652   2.702   1.200
 7404SOL     OW23110   1.337   2.167   2.616
 7404SOL    HW123111   1.415   2.167   2.678
 7404SOL    HW223112   1.295   2.077   2.614
 7405SOL     OW23113   4.158   5.212   6.433
 7405SOL    HW123114   4.075   5.234   6.484
 7405SOL    HW223115   4.219   5.157   6.490
 7406SOL     OW23116   0.563   6.335   1.936
 7406SOL    HW123117   0.599   6.242   1.948
 7406SOL    HW223118   0.581   6.388   2.019
 7407SOL     OW23119   2.541   0.699   5.958
 7407SOL    HW123120   2.480   0.638   5.909
 7407SOL    HW223121   2.531   0.684   6.057
 7408SOL     OW23122   0.734   3.752   5.168
 7408SOL    HW123123   0.825   3.781   5.195
 7408SOL    HW223124   0.740   3.664   5.120
 7409SOL     OW23125   2.489   6.613   5.367
 7409SOL    HW123126   2.551   6.548   5.413
 7409SOL    HW223127   2.399   6.607   5.409
 7410SOL     OW23128   4.985   4.895   6.638
 7410SOL    HW123129   5.070   4.843   6.633
 7410SOL    HW223130   4.958   4.925   6.547
 7411SOL     OW23131   4.999   4.934   6.088
 7411SOL    HW123132   5.032   4.953   5.996
 7411SOL    HW223133   4.921   4.871   6.084
 7412SOL     OW23134   1.361   1.044   6.749
 7412SOL    HW123135   1.314   1.002   6.671
 7412SOL    HW223136   1.294   1.091   6.807
 7413SOL     OW23137   0.073   3.770   4.118
 7413SOL    HW123138   0.014   3.764   4.037
 7413SOL    HW223139   0.164   3.736   4.095
 7414SOL     OW23140   0.351   5.390   2.634
 7414SOL    HW123141   0.387   5.329   2.564
 7414SOL    HW223142   0.251   5.383   2.637
 7415SOL     OW23143   2.797   1.696   3.667
 7415SOL    HW123144   2.758   1.771   3.720
 7415SOL    HW223145   2.848   1.732   3.589
 7416SOL     OW23146   6.135   0.215   3.372
 7416SOL    HW123147   6.035   0.214   3.376
 7416SOL    HW223148   6.172   0.149   3.438
 7417SOL     OW23149   1.089   5.785   0.752
 7417SOL    HW123150   1.065   5.753   0.660
 7417SOL    HW223151   1.181   5.825   0.751
 7418SOL     OW23152   0.732   3.858   0.645
 7418SOL    HW123153   0.691   3.858   0.736
 7418SOL    HW223154   0.739   3.764   0.612
 7419SOL     OW23155   5.653   1.601   5.609
 7419SOL    HW123156   5.555   1.621   5.617
 7419SOL    HW223157   5.671   1.552   5.524
 7420SOL     OW23158   6.722   5.809   2.604
 7420SOL    HW123159   6.746   5.903   2.582
 7420SOL    HW223160   6.622   5.799   2.603
 7421SOL     OW23161   4.030   2.284   1.185
 7421SOL    HW123162   4.086   2.353   1.230
 7421SOL    HW223163   3.980   2.231   1.253
 7422SOL     OW23164   0.774   1.803   0.932
 7422SOL    HW123165   0.716   1.784   1.011
 7422SOL    HW223166   0.816   1.718   0.900
 7423SOL     OW23167   2.543   4.701   6.755
 7423SOL    HW123168   2.494   4.787   6.767
 7423SOL    HW223169   2.550   4.654   6.843
 7424SOL     OW23170   5.473   0.601   4.737
 7424SOL    HW123171   5.437   0.579   4.646
 7424SOL    HW223172   5.459   0.523   4.798
 7425SOL     OW23173   3.963   0.539   5.014
 7425SOL    HW123174   3.931   0.497   5.099
 7425SOL    HW223175   3.887   0.587   4.969
 7426SOL     OW23176   0.359   1.871   0.244
 7426SOL    HW123177   0.265   1.846   0.220
 7426SOL    HW223178   0.414   1.788   0.251
 7427SOL     OW23179   4.842   5.971   4.944
 7427SOL    HW123180   4.920   6.034   4.941
 7427SOL    HW223181   4.875   5.876   4.942
 7428SOL     OW23182   3.137   1.432   5.659
 7428SOL    HW123183   3.234   1.449   5.643
 7428SOL    HW223184   3.084   1.465   5.581
 7429SOL     OW23185   6.485   6.598   4.031
 7429SOL    HW123186   6.552   6.608   3.957
 7429SOL    HW223187   6.444   6.687   4.051
 7430SOL     OW23188   0.346   4.679   4.594
 7430SOL    HW123189   0.344   4.598   4.652
 7430SOL    HW223190   0.440   4.705   4.574
 7431SOL     OW23191   0.484   3.982   2.338
 7431SOL    HW123192   0.579   3.988   2.367
 7431SOL    HW223193   0.428   4.047   2.388
 7432SOL     OW23194   1.414   6.727   4.787
 7432SOL    HW123195   1.336   6.684   4.741
 7432SOL    HW223196   1.419   6.694   4.882
 7433SOL     OW23197   0.108   6.356   1.042
 7433SOL    HW123198   0.185   6.394   1.093
 7433SOL    HW223199   0.134   6.344   0.946
 7434SOL     OW23200   4.169   6.917   6.826
 7434SOL    HW123201   4.081   6.957   6.854
 7434SOL    HW223202   4.176   6.917   6.726
 7435SOL     OW23203   1.368   6.031   7.024
 7435SOL    HW123204   1.444   6.039   6.959
 7435SOL    HW223205   1.282   6.051   6.977
 7436SOL     OW23206   4.412   3.411   0.044
 7436SOL    HW123207   4.434   3.380   0.136
 7436SOL    HW223208   4.477   3.371   7.004
 7437SOL     OW23209   6.987   6.025   5.848
 7437SOL    HW123210   0.053   5.998   5.816
 7437SOL    HW223211   6.932   6.053   5.770
 7438SOL     OW23212   5.588   3.755   1.571
 7438SOL    HW123213   5.574   3.788   1.664
 7438SOL    HW223214   5.619   3.831   1.513
 7439SOL     OW23215   1.110   5.925   3.846
 7439SOL    HW123216   1.192   5.976   3.817
 7439SOL    HW223217   1.056   5.982   3.908
 7440SOL     OW23218   0.716   1.762   3.536
 7440SOL    HW123219   0.711   1.698   3.459
 7440SOL    HW223220   0.709   1.711   3.622
 7441SOL     OW23221   6.057   6.826   3.596
 7441SOL    HW123222   6.134   6.813   3.534
 7441SOL    HW223223   6.085   6.882   3.674
 7442SOL     OW23224   1.392   0.645   6.194
 7442SOL    HW123225   1.434   0.661   6.284
 7442SOL    HW223226   1.463   0.622   6.128
 7443SOL     OW23227   6.846   1.771   1.508
 7443SOL    HW123228   6.783   1.739   1.578
 7443SOL    HW223229   6.799   1.774   1.420
 7444SOL     OW23230   0.438   1.965   5.335
 7444SOL    HW123231   0.416   1.884   5.390
 7444SOL    HW223232   0.431   2.047   5.391
 7445SOL     OW23233   5.955   2.469   1.968
 7445SOL    HW123234   6.008   2.450   1.886
 7445SOL    HW223235   5.992   2.551   2.013
 7446SOL     OW23236   6.186   3.225   2.462
 7446SOL    HW123237   6.252   3.156   2.433
 7446SOL    HW223238   6.233   3.314   2.470
 7447SOL     OW23239   0.018   4.172   6.344
 7447SOL    HW123240   6.950   4.142   6.367
 7447SOL    HW223241   0.061   4.105   6.285
 7448SOL     OW23242   0.086   6.490   6.008
 7448SOL    HW123243   0.133   6.575   5.986
 7448SOL    HW223244   0.096   6.426   5.932
 7449SOL     OW23245   4.329   0.740   1.203
 7449SOL    HW123246   4.320   0.809   1.275
 7449SOL    HW223247   4.424   0.708   1.199
 7450SOL     OW23248   3.548   0.325   1.844
 7450SOL    HW123249   3.577   0.246   1.789
 7450SOL    HW223250   3.614   0.339   1.919
 7451SOL     OW23251   1.411   0.607   2.156
 7451SOL    HW123252   1.503   0.612   2.193
 7451SOL    HW223253   1.379   0.513   2.159
 7452SOL     OW23254   2.029   6.532   3.368
 7452SOL    HW123255   2.000   6.617   3.324
 7452SOL    HW223256   1.966   6.511   3.443
 7453SOL     OW23257   6.014   5.279   5.384
 7453SOL    HW123258   6.015   5.202   5.448
 7453SOL    HW223259   6.028   5.246   5.291
 7454SOL     OW23260   0.728   3.117   6.889
 7454SOL    HW123261   0.644   3.068   6.912
 7454SOL    HW223262   0.762   3.164   6.971
 7455SOL     OW23263   5.140   0.997   0.521
 7455SOL    HW123264   5.123   1.026   0.427
 7455SOL    HW223265   5.121   1.073   0.583
 7456SOL     OW23266   1.176   3.163   5.373
 7456SOL    HW123267   1.155   3.094   5.303
 7456SOL    HW223268   1.114   3.241   5.363
 7457SOL     OW23269   6.349   6.570   6.034
 7457SOL    HW123270   6.390   6.525   5.954
 7457SOL    HW223271   6.250   6.564   6.028
 7458SOL     OW23272   2.489   0.136   1.173
 7458SOL    HW123273   2.534   0.197   1.238
 7458SOL    HW223274   2.517   0.042   1.191
 7459SOL     OW23275   4.832   0.037   4.833
 7459SOL    HW123276   4.824   6.967   4.804
 7459SOL    HW223277   4.774   0.095   4.776
 7460SOL     OW23278   0.951   5.440   6.721
 7460SOL    HW123279   1.033   5.492   6.695
 7460SOL    HW223280   0.947   5.356   6.666
 7461SOL     OW23281   4.345   1.016   4.386
 7461SOL    HW123282   4.284   0.941   4.410
 7461SOL    HW223283   4.299   1.079   4.324
 7462SOL     OW23284   1.880   0.699   2.509
 7462SOL    HW123285   1.809   0.764   2.481
 7462SOL    HW223286   1.889   0.628   2.439
 7463SOL     OW23287   3.694   3.909   2.033
 7463SOL    HW123288   3.754   3.938   1.959
 7463SOL    HW223289   3.719   3.958   2.117
 7464SOL     OW23290   5.024   6.918   0.170
 7464SOL    HW123291   4.951   6.905   0.237
 7464SOL    HW223292   5.005   6.862   0.089
 7465SOL     OW23293   3.393   1.238   2.422
 7465SOL    HW123294   3.328   1.279   2.359
 7465SOL    HW223295   3.483   1.234   2.379
 7466SOL     OW23296   6.323   0.626   6.579
 7466SOL    HW123297   6.321   0.678   6.664
 7466SOL    HW223298   6.259   0.665   6.513
 7467SOL     OW23299   5.016   1.492   1.109
 7467SOL    HW123300   5.039   1.500   1.012
 7467SOL    HW223301   4.916   1.497   1.120
 7468SOL     OW23302   5.851   3.843   4.604
 7468SOL    HW123303   5.908   3.765   4.579
 7468SOL    HW223304   5.882   3.924   4.554
 7469SOL     OW23305   5.784   1.034   2.377
 7469SOL    HW123306   5.846   1.061   2.451
 7469SOL    HW223307   5.730   1.114   2.349
 7470SOL     OW23308   0.399   3.608   2.801
 7470SOL    HW123309   0.410   3.663   2.718
 7470SOL    HW223310   0.488   3.583   2.836
 7471SOL     OW23311   6.061   4.541   5.700
 7471SOL    HW123312   6.020   4.582   5.781
 7471SOL    HW223313   6.073   4.443   5.715
 7472SOL     OW23314   3.789   4.900   3.009
 7472SOL    HW123315   3.696   4.923   2.983
 7472SOL    HW223316   3.826   4.835   2.943
 7473SOL     OW23317   1.005   3.364   5.333
 7473SOL    HW123318   1.036   3.425   5.260
 7473SOL    HW223319   0.920   3.400   5.372
 7474SOL     OW23320   3.304   2.147   3.331
 7474SOL    HW123321   3.366   2.135   3.408
 7474SOL    HW223322   3.351   2.125   3.246
 7475SOL     OW23323   4.304   1.359   6.841
 7475SOL    HW123324   4.398   1.382   6.814
 7475SOL    HW223325   4.287   1.262   6.824
 7476SOL     OW23326   3.287   0.263   5.247
 7476SOL    HW123327   3.196   0.235   5.217
 7476SOL    HW223328   3.297   0.362   5.234
 7477SOL     OW23329   4.925   3.793   3.846
 7477SOL    HW123330   4.850   3.838   3.895
 7477SOL    HW223331   4.955   3.851   3.771
 7478SOL     OW23332   1.488   4.488   1.338
 7478SOL    HW123333   1.440   4.453   1.258
 7478SOL    HW223334   1.483   4.420   1.412
 7479SOL     OW23335   4.222   0.824   5.712
 7479SOL    HW123336   4.271   0.910   5.725
 7479SOL    HW223337   4.185   0.793   5.800
 7480SOL     OW23338   6.473   5.472   0.807
 7480SOL    HW123339   6.416   5.547   0.841
 7480SOL    HW223340   6.561   5.473   0.854
 7481SOL     OW23341   6.394   6.231   0.420
 7481SOL    HW123342   6.320   6.272   0.367
 7481SOL    HW223343   6.392   6.269   0.513
 7482SOL     OW23344   5.376   7.024   3.770
 7482SOL    HW123345   5.299   6.970   3.806
 7482SOL    HW223346   5.343   0.091   3.747
 7483SOL     OW23347   3.272   0.093   6.137
 7483SOL    HW123348   3.313   0.012   6.179
 7483SOL    HW223349   3.252   0.161   6.207
 7484SOL     OW23350   3.379   0.416   2.397
 7484SOL    HW123351   3.412   0.484   2.332
 7484SOL    HW223352   3.411   0.441   2.489
 7485SOL     OW23353   1.061   6.655   5.017
 7485SOL    HW123354   0.997   6.680   4.944
 7485SOL    HW223355   1.025   6.575   5.067
 7486SOL     OW23356   1.351   1.028   4.823
 7486SOL    HW123357   1.326   1.125   4.821
 7486SOL    HW223358   1.328   0.986   4.735
 7487SOL     OW23359   3.944   5.458   3.054
 7487SOL    HW123360   3.973   5.548   3.020
 7487SOL    HW223361   3.845   5.451   3.047
 7488SOL     OW23362   3.373   1.084   5.639
 7488SOL    HW123363   3.348   1.157   5.576
 7488SOL    HW223364   3.290   1.042   5.677
 7489SOL     OW23365   6.458   3.799   2.997
 7489SOL    HW123366   6.380   3.737   2.999
 7489SOL    HW223367   6.521   3.776   3.072
 7490SOL     OW23368   5.792   1.414   3.080
 7490SOL    HW123369   5.729   1.433   3.006
 7490SOL    HW223370   5.822   1.318   3.076
 7491SOL     OW23371   0.239   6.541   6.928
 7491SOL    HW123372   0.155   6.594   6.940
 7491SOL    HW223373   0.307   6.572   6.995
 7492SOL     OW23374   2.160   2.482   3.782
 7492SOL    HW123375   2.118   2.564   3.744
 7492SOL    HW223376   2.196   2.502   3.873
 7493SOL     OW23377   5.264   4.660   6.818
 7493SOL    HW123378   5.206   4.583   6.845
 7493SOL    HW223379   5.331   4.677   6.890
 7494SOL     OW23380   5.151   1.571   1.425
 7494SOL    HW123381   5.178   1.641   1.491
 7494SOL    HW223382   5.138   1.613   1.335
 7495SOL     OW23383   0.824   1.690   2.354
 7495SOL    HW123384   0.860   1.716   2.444
 7495SOL    HW223385   0.728   1.719   2.347
 7496SOL     OW23386   0.405   4.985   6.136
 7496SOL    HW123387   0.476   5.007   6.069
 7496SOL    HW223388   0.435   4.909   6.193
 7497SOL     OW23389   1.889   4.975   2.506
 7497SOL    HW123390   1.956   4.944   2.439
 7497SOL    HW223391   1.880   4.907   2.579
 7498SOL     OW23392   4.971   1.517   4.548
 7498SOL    HW123393   4.964   1.585   4.475
 7498SOL    HW223394   5.040   1.449   4.522
 7499SOL     OW23395   4.275   5.134   3.781
 7499SOL    HW123396   4.348   5.121   3.714
 7499SOL    HW223397   4.238   5.226   3.773
 7500SOL     OW23398   4.752   4.040   1.790
 7500SOL    HW123399   4.816   3.971   1.824
 7500SOL    HW223400   4.710   4.008   1.706
 7501SOL     OW23401   0.312   4.505   3.626
 7501SOL    HW123402   0.292   4.516   3.723
 7501SOL    HW223403   0.378   4.574   3.598
 7502SOL     OW23404   1.874   2.359   4.539
 7502SOL    HW123405   1.800   2.371   4.605
 7502SOL    HW223406   1.931   2.441   4.538
 7503SOL     OW23407   1.671   2.684   6.895
 7503SOL    HW123408   1.603   2.641   6.955
 7503SOL    HW223409   1.643   2.672   6.800
 7504SOL     OW23410   4.018   5.802   3.348
 7504SOL    HW123411   3.976   5.713   3.335
 7504SOL    HW223412   4.067   5.828   3.265
 7505SOL     OW23413   1.876   1.934   3.971
 7505SOL    HW123414   1.781   1.962   3.960
 7505SOL    HW223415   1.927   1.955   3.887
 7506SOL     OW23416   3.613   1.505   3.915
 7506SOL    HW123417   3.702   1.459   3.912
 7506SOL    HW223418   3.540   1.437   3.910
 7507SOL     OW23419   1.809   6.113   5.722
 7507SOL    HW123420   1.724   6.161   5.745
 7507SOL    HW223421   1.884   6.179   5.715
 7508SOL     OW23422   4.954   5.465   4.414
 7508SOL    HW123423   4.906   5.410   4.482
 7508SOL    HW223424   5.034   5.415   4.380
 7509SOL     OW23425   4.198   3.592   6.325
 7509SOL    HW123426   4.129   3.660   6.351
 7509SOL    HW223427   4.232   3.613   6.233
 7510SOL     OW23428   2.957   3.733   4.755
 7510SOL    HW123429   2.924   3.763   4.845
 7510SOL    HW223430   2.931   3.638   4.740
 7511SOL     OW23431   1.141   0.251   2.632
 7511SOL    HW123432   1.127   0.240   2.534
 7511SOL    HW223433   1.152   0.161   2.674
 7512SOL     OW23434   2.519   2.833   1.704
 7512SOL    HW123435   2.548   2.929   1.706
 7512SOL    HW223436   2.598   2.775   1.684
 7513SOL     OW23437   1.022   3.249   6.635
 7513SOL    HW123438   1.073   3.172   6.674
 7513SOL    HW223439   0.998   3.313   6.708
 7514SOL     OW23440   2.826   5.995   3.387
 7514SOL    HW123441   2.921   5.965   3.391
 7514SOL    HW223442   2.766   5.916   3.376
 7515SOL     OW23443   0.008   4.901   2.770
 7515SOL    HW123444   0.070   4.828   2.743
 7515SOL    HW223445   0.011   4.974   2.702
 7516SOL     OW23446   1.189   1.643   2.384
 7516SOL    HW123447   1.124   1.621   2.457
 7516SOL    HW223448   1.182   1.574   2.311
 7517SOL     OW23449   0.178   5.225   1.340
 7517SOL    HW123450   0.150   5.283   1.263
 7517SOL    HW223451   0.278   5.224   1.345
 7518SOL     OW23452   5.336   5.056   3.401
 7518SOL    HW123453   5.418   5.023   3.448
 7518SOL    HW223454   5.255   5.019   3.446
 7519SOL     OW23455   0.985   6.838   4.062
 7519SOL    HW123456   1.001   6.897   3.982
 7519SOL    HW223457   0.928   6.760   4.035
 7520SOL     OW23458   2.536   6.940   4.228
 7520SOL    HW123459   2.575   6.873   4.291
 7520SOL    HW223460   2.513   7.024   4.278
 7521SOL     OW23461   4.908   3.650   5.651
 7521SOL    HW123462   5.002   3.651   5.686
 7521SOL    HW223463   4.885   3.558   5.619
 7522SOL     OW23464   2.054   0.544   2.677
 7522SOL    HW123465   2.088   0.475   2.614
 7522SOL    HW223466   1.981   0.596   2.633
 7523SOL     OW23467   6.221   0.218   0.134
 7523SOL    HW123468   6.276   0.164   0.198
 7523SOL    HW223469   6.141   0.165   0.106
 7524SOL     OW23470   5.969   0.771   4.494
 7524SOL    HW123471   6.044   0.753   4.431
 7524SOL    HW223472   5.965   0.869   4.513
 7525SOL     OW23473   0.943   6.220   0.420
 7525SOL    HW123474   0.927   6.121   0.426
 7525SOL    HW223475   0.907   6.265   0.502
 7526SOL     OW23476   3.637   2.925   5.068
 7526SOL    HW123477   3.618   2.891   4.976
 7526SOL    HW223478   3.721   2.979   5.067
 7527SOL     OW23479   4.977   5.657   1.987
 7527SOL    HW123480   4.914   5.597   1.937
 7527SOL    HW223481   4.944   5.671   2.080
 7528SOL     OW23482   5.917   3.241   6.267
 7528SOL    HW123483   5.831   3.241   6.318
 7528SOL    HW223484   5.898   3.240   6.169
 7529SOL     OW23485   3.155   0.270   4.915
 7529SOL    HW123486   3.137   0.212   4.994
 7529SOL    HW223487   3.089   0.345   4.913
 7530SOL     OW23488   6.736   2.905   3.265
 7530SOL    HW123489   6.748   2.859   3.353
 7530SOL    HW223490   6.664   2.973   3.273
 7531SOL     OW23491   2.548   2.045   4.228
 7531SOL    HW123492   2.487   2.037   4.149
 7531SOL    HW223493   2.643   2.039   4.198
 7532SOL     OW23494   5.003   4.546   2.193
 7532SOL    HW123495   5.043   4.455   2.180
 7532SOL    HW223496   5.035   4.583   2.281
 7533SOL     OW23497   3.391   0.515   4.909
 7533SOL    HW123498   3.338   0.482   4.830
 7533SOL    HW223499   3.448   0.591   4.880
 7534SOL     OW23500   5.606   6.771   4.248
 7534SOL    HW123501   5.666   6.702   4.207
 7534SOL    HW223502   5.584   6.841   4.180
 7535SOL     OW23503   4.148   4.663   0.308
 7535SOL    HW123504   4.154   4.666   0.208
 7535SOL    HW223505   4.170   4.570   0.339
 7536SOL     OW23506   3.986   6.215   4.455
 7536SOL    HW123507   3.903   6.188   4.406
 7536SOL    HW223508   4.041   6.133   4.474
 7537SOL     OW23509   2.321   4.588   5.697
 7537SOL    HW123510   2.394   4.521   5.688
 7537SOL    HW223511   2.251   4.571   5.627
 7538SOL     OW23512   3.345   3.092   3.227
 7538SOL    HW123513   3.342   3.088   3.327
 7538SOL    HW223514   3.432   3.056   3.195
 7539SOL     OW23515   1.497   2.620   4.738
 7539SOL    HW123516   1.433   2.668   4.677
 7539SOL    HW223517   1.502   2.668   4.825
 7540SOL     OW23518   2.147   1.107   0.081
 7540SOL    HW123519   2.186   1.040   0.145
 7540SOL    HW223520   2.097   1.059   0.009
 7541SOL     OW23521   6.751   2.067   5.186
 7541SOL    HW123522   6.830   2.088   5.129
 7541SOL    HW223523   6.671   2.117   5.153
 7542SOL     OW23524   1.852   0.432   6.389
 7542SOL    HW123525   1.783   0.420   6.318
 7542SOL    HW223526   1.823   0.506   6.451
 7543SOL     OW23527   3.602   3.432   6.979
 7543SOL    HW123528   3.508   3.435   7.014
 7543SOL    HW223529   3.602   3.458   6.882
 7544SOL     OW23530   1.436   2.340   2.372
 7544SOL    HW123531   1.411   2.292   2.456
 7544SOL    HW223532   1.357   2.344   2.311
 7545SOL     OW23533   5.014   0.322   3.246
 7545SOL    HW123534   5.080   0.397   3.241
 7545SOL    HW223535   5.061   0.237   3.270
 7546SOL     OW23536   4.998   6.919   6.293
 7546SOL    HW123537   5.083   6.922   6.242
 7546SOL    HW223538   4.925   6.962   6.239
 7547SOL     OW23539   2.999   6.919   0.267
 7547SOL    HW123540   3.005   6.829   0.224
 7547SOL    HW223541   3.077   6.933   0.328
 7548SOL     OW23542   1.377   2.998   1.117
 7548SOL    HW123543   1.323   2.965   1.195
 7548SOL    HW223544   1.381   3.098   1.119
 7549SOL     OW23545   6.094   1.933   1.963
 7549SOL    HW123546   6.110   1.847   2.011
 7549SOL    HW223547   6.140   1.931   1.874
 7550SOL     OW23548   1.247   5.019   1.486
 7550SOL    HW123549   1.159   4.999   1.530
 7550SOL    HW223550   1.271   4.942   1.426
 7551SOL     OW23551   4.609   3.832   6.320
 7551SOL    HW123552   4.616   3.735   6.345
 7551SOL    HW223553   4.525   3.847   6.268
 7552SOL     OW23554   3.265   5.384   4.059
 7552SOL    HW123555   3.334   5.318   4.029
 7552SOL    HW223556   3.183   5.336   4.088
 7553SOL     OW23557   4.841   4.056   5.748
 7553SOL    HW123558   4.747   4.072   5.779
 7553SOL    HW223559   4.898   4.034   5.827
 7554SOL     OW23560   6.431   0.983   1.133
 7554SOL    HW123561   6.519   0.991   1.087
 7554SOL    HW223562   6.361   1.029   1.078
 7555SOL     OW23563   1.525   5.690   5.980
 7555SOL    HW123564   1.426   5.677   5.974
 7555SOL    HW223565   1.549   5.781   5.945
 7556SOL     OW23566   0.033   3.420   3.936
 7556SOL    HW123567   0.038   3.368   4.021
 7556SOL    HW223568   7.008   3.505   3.951
 7557SOL     OW23569   3.853   3.524   0.376
 7557SOL    HW123570   3.845   3.482   0.467
 7557SOL    HW223571   3.762   3.527   0.333
 7558SOL     OW23572   1.675   2.672   3.322
 7558SOL    HW123573   1.596   2.665   3.260
 7558SOL    HW223574   1.661   2.610   3.399
 7559SOL     OW23575   1.384   4.456   0.506
 7559SOL    HW123576   1.318   4.385   0.533
 7559SOL    HW223577   1.357   4.493   0.417
 7560SOL     OW23578   4.641   0.189   5.401
 7560SOL    HW123579   4.665   0.168   5.306
 7560SOL    HW223580   4.572   0.125   5.433
 7561SOL     OW23581   0.293   3.515   6.993
 7561SOL    HW123582   0.227   3.483   0.036
 7561SOL    HW223583   0.359   3.443   6.974
 7562SOL     OW23584   4.809   6.587   5.407
 7562SOL    HW123585   4.811   6.630   5.498
 7562SOL    HW223586   4.822   6.488   5.417
 7563SOL     OW23587   2.916   1.064   3.015
 7563SOL    HW123588   2.927   0.976   2.969
 7563SOL    HW223589   2.926   1.138   2.949
 7564SOL     OW23590   4.768   6.746   4.078
 7564SOL    HW123591   4.707   6.797   4.139
 7564SOL    HW223592   4.714   6.697   4.010
 7565SOL     OW23593   4.766   4.492   6.916
 7565SOL    HW123594   4.710   4.419   6.878
 7565SOL    HW223595   4.784   4.560   6.844
 7566SOL     OW23596   2.301   5.612   5.230
 7566SOL    HW123597   2.343   5.693   5.191
 7566SOL    HW223598   2.324   5.606   5.328
 7567SOL     OW23599   2.537   2.948   0.454
 7567SOL    HW123600   2.477   3.024   0.430
 7567SOL    HW223601   2.611   2.980   0.513
 7568SOL     OW23602   4.485   5.016   2.787
 7568SOL    HW123603   4.483   5.024   2.887
 7568SOL    HW223604   4.546   4.940   2.762
 7569SOL     OW23605   4.024   0.394   0.739
 7569SOL    HW123606   4.005   0.476   0.686
 7569SOL    HW223607   4.001   0.410   0.835
 7570SOL     OW23608   5.756   5.269   4.617
 7570SOL    HW123609   5.756   5.338   4.544
 7570SOL    HW223610   5.673   5.215   4.612
 7571SOL     OW23611   5.478   4.069   1.589
 7571SOL    HW123612   5.435   3.987   1.627
 7571SOL    HW223613   5.412   4.144   1.591
 7572SOL     OW23614   0.981   1.181   3.880
 7572SOL    HW123615   0.926   1.262   3.900
 7572SOL    HW223616   0.988   1.125   3.963
 7573SOL     OW23617   3.277   5.351   5.306
 7573SOL    HW123618   3.244   5.297   5.229
 7573SOL    HW223619   3.335   5.426   5.272
 7574SOL     OW23620   4.894   6.171   2.444
 7574SOL    HW123621   4.840   6.226   2.380
 7574SOL    HW223622   4.923   6.228   2.520
 7575SOL     OW23623   5.221   2.800   4.991
 7575SOL    HW123624   5.130   2.757   4.989
 7575SOL    HW223625   5.239   2.835   5.082
 7576SOL     OW23626   6.598   3.272   1.749
 7576SOL    HW123627   6.512   3.310   1.716
 7576SOL    HW223628   6.673   3.334   1.725
 7577SOL     OW23629   4.505   0.644   5.172
 7577SOL    HW123630   4.562   0.563   5.170
 7577SOL    HW223631   4.481   0.665   5.267
 7578SOL     OW23632   2.623   5.277   4.698
 7578SOL    HW123633   2.563   5.265   4.778
 7578SOL    HW223634   2.599   5.210   4.628
 7579SOL     OW23635   4.456   2.471   3.888
 7579SOL    HW123636   4.520   2.480   3.964
 7579SOL    HW223637   4.504   2.487   3.802
 7580SOL     OW23638   2.088   3.598   2.433
 7580SOL    HW123639   2.093   3.594   2.533
 7580SOL    HW223640   2.048   3.513   2.399
 7581SOL     OW23641   5.420   0.681   1.505
 7581SOL    HW123642   5.325   0.654   1.522
 7581SOL    HW223643   5.481   0.625   1.561
 7582SOL     OW23644   3.344   2.003   0.996
 7582SOL    HW123645   3.269   2.058   0.959
 7582SOL    HW223646   3.420   2.004   0.932
 7583SOL     OW23647   6.644   3.774   2.801
 7583SOL    HW123648   6.570   3.801   2.863
 7583SOL    HW223649   6.685   3.857   2.762
 7584SOL     OW23650   1.807   1.873   1.369
 7584SOL    HW123651   1.765   1.964   1.368
 7584SOL    HW223652   1.744   1.807   1.327
 7585SOL     OW23653   2.054   5.324   6.687
 7585SOL    HW123654   2.150   5.299   6.685
 7585SOL    HW223655   1.998   5.244   6.709
 7586SOL     OW23656   2.133   1.177   1.674
 7586SOL    HW123657   2.044   1.174   1.720
 7586SOL    HW223658   2.194   1.238   1.724
 7587SOL     OW23659   1.569   0.943   5.875
 7587SOL    HW123660   1.477   0.920   5.845
 7587SOL    HW223661   1.590   1.037   5.851
 7588SOL     OW23662   1.135   4.032   1.605
 7588SOL    HW123663   1.108   4.073   1.692
 7588SOL    HW223664   1.144   3.933   1.615
 7589SOL     OW23665   5.635   6.181   6.669
 7589SOL    HW123666   5.608   6.092   6.631
 7589SOL    HW223667   5.634   6.176   6.769
 7590SOL     OW23668   1.506   0.567   6.788
 7590SOL    HW123669   1.606   0.560   6.785
 7590SOL    HW223670   1.475   0.560   6.883
 7591SOL     OW23671   6.768   5.159   6.988
 7591SOL    HW123672   6.810   5.197   0.045
 7591SOL    HW223673   6.835   5.104   6.939
 7592SOL     OW23674   5.060   5.506   6.313
 7592SOL    HW123675   4.973   5.485   6.268
 7592SOL    HW223676   5.118   5.425   6.312
 7593SOL     OW23677   6.066   3.651   0.715
 7593SOL    HW123678   5.974   3.623   0.743
 7593SOL    HW223679   6.097   3.591   0.641
 7594SOL     OW23680   0.829   6.068   3.480
 7594SOL    HW123681   0.896   6.066   3.555
 7594SOL    HW223682   0.861   6.131   3.410
 7595SOL     OW23683   6.412   1.840   6.987
 7595SOL    HW123684   6.335   1.850   6.924
 7595SOL    HW223685   6.419   1.744   7.014
 7596SOL     OW23686   4.911   4.390   1.743
 7596SOL    HW123687   4.966   4.471   1.763
 7596SOL    HW223688   4.859   4.364   1.824
 7597SOL     OW23689   2.699   5.901   1.866
 7597SOL    HW123690   2.678   5.870   1.773
 7597SOL    HW223691   2.791   5.872   1.891
 7598SOL     OW23692   6.803   0.418   2.883
 7598SOL    HW123693   6.810   0.357   2.804
 7598SOL    HW223694   6.762   0.369   2.959
 7599SOL     OW23695   6.703   2.273   2.438
 7599SOL    HW123696   6.614   2.248   2.476
 7599SOL    HW223697   6.736   2.199   2.380
 7600SOL     OW23698   2.185   1.665   2.131
 7600SOL    HW123699   2.129   1.583   2.134
 7600SOL    HW223700   2.135   1.742   2.171
 7601SOL     OW23701   1.484   0.116   5.115
 7601SOL    HW123702   1.525   0.156   5.197
 7601SOL    HW223703   1.385   0.129   5.117
 7602SOL     OW23704   2.279   3.257   5.232
 7602SOL    HW123705   2.359   3.197   5.225
 7602SOL    HW223706   2.198   3.201   5.251
 7603SOL     OW23707   0.742   1.000   2.264
 7603SOL    HW123708   0.645   0.976   2.256
 7603SOL    HW223709   0.754   1.063   2.340
 7604SOL     OW23710   4.948   6.185   6.776
 7604SOL    HW123711   5.015   6.182   6.702
 7604SOL    HW223712   4.954   6.274   6.822
 7605SOL     OW23713   5.786   3.995   5.607
 7605SOL    HW123714   5.788   4.075   5.667
 7605SOL    HW223715   5.733   3.923   5.651
 7606SOL     OW23716   6.648   1.645   3.155
 7606SOL    HW123717   6.710   1.723   3.151
 7606SOL    HW223718   6.553   1.676   3.152
 7607SOL     OW23719   5.359   0.047   6.497
 7607SOL    HW123720   5.338   0.113   6.570
 7607SOL    HW223721   5.395   6.988   6.538
 7608SOL     OW23722   3.942   3.034   3.528
 7608SOL    HW123723   3.935   2.998   3.435
 7608SOL    HW223724   3.974   2.962   3.589
 7609SOL     OW23725   1.503   2.936   4.490
 7609SOL    HW123726   1.464   3.005   4.430
 7609SOL    HW223727   1.601   2.952   4.501
 7610SOL     OW23728   5.453   1.097   1.668
 7610SOL    HW123729   5.524   1.167   1.661
 7610SOL    HW223730   5.398   1.112   1.750
 7611SOL     OW23731   2.156   1.639   1.266
 7611SOL    HW123732   2.078   1.603   1.215
 7611SOL    HW223733   2.171   1.584   1.348
 7612SOL     OW23734   4.323   1.611   2.604
 7612SOL    HW123735   4.329   1.531   2.544
 7612SOL    HW223736   4.346   1.584   2.697
 7613SOL     OW23737   5.252   1.269   2.935
 7613SOL    HW123738   5.193   1.278   2.855
 7613SOL    HW223739   5.304   1.185   2.929
 7614SOL     OW23740   3.974   0.926   0.239
 7614SOL    HW123741   3.923   0.975   0.169
 7614SOL    HW223742   4.040   0.865   0.195
 7615SOL     OW23743   4.098   4.648   6.034
 7615SOL    HW123744   4.058   4.558   6.047
 7615SOL    HW223745   4.141   4.653   5.943
 7616SOL     OW23746   6.800   4.753   3.576
 7616SOL    HW123747   6.812   4.674   3.637
 7616SOL    HW223748   6.705   4.785   3.583
 7617SOL     OW23749   3.179   6.052   2.329
 7617SOL    HW123750   3.117   6.071   2.405
 7617SOL    HW223751   3.273   6.058   2.360
 7618SOL     OW23752   1.541   2.402   0.865
 7618SOL    HW123753   1.633   2.441   0.867
 7618SOL    HW223754   1.475   2.473   0.891
 7619SOL     OW23755   6.023   3.634   5.679
 7619SOL    HW123756   5.926   3.616   5.694
 7619SOL    HW223757   6.042   3.635   5.581
 7620SOL     OW23758   2.818   6.505   1.668
 7620SOL    HW123759   2.868   6.418   1.665
 7620SOL    HW223760   2.762   6.508   1.751
 7621SOL     OW23761   2.539   2.198   1.272
 7621SOL    HW123762   2.574   2.114   1.230
 7621SOL    HW223763   2.450   2.180   1.314
 7622SOL     OW23764   5.006   1.861   1.136
 7622SOL    HW123765   4.914   1.827   1.118
 7622SOL    HW223766   5.063   1.847   1.055
 7623SOL     OW23767   5.466   0.101   5.548
 7623SOL    HW123768   5.424   0.010   5.550
 7623SOL    HW223769   5.498   0.120   5.456
 7624SOL     OW23770   6.736   0.797   4.106
 7624SOL    HW123771   6.828   0.835   4.095
 7624SOL    HW223772   6.719   0.731   4.033
 7625SOL     OW23773   4.024   6.430   0.589
 7625SOL    HW123774   4.059   6.523   0.595
 7625SOL    HW223775   3.939   6.430   0.537
 7626SOL     OW23776   2.463   4.484   4.767
 7626SOL    HW123777   2.405   4.555   4.727
 7626SOL    HW223778   2.412   4.398   4.772
 7627SOL     OW23779   6.880   2.012   0.308
 7627SOL    HW123780   6.957   2.050   0.360
 7627SOL    HW223781   6.816   2.085   0.286
 7628SOL     OW23782   4.026   1.885   0.726
 7628SOL    HW123783   3.947   1.897   0.786
 7628SOL    HW223784   4.066   1.795   0.742
 7629SOL     OW23785   6.257   5.099   3.368
 7629SOL    HW123786   6.286   5.194   3.356
 7629SOL    HW223787   6.300   5.061   3.450
 7630SOL     OW23788   0.101   1.230   2.243
 7630SOL    HW123789   0.019   1.254   2.191
 7630SOL    HW223790   0.162   1.309   2.248
 7631SOL     OW23791   1.505   1.966   3.340
 7631SOL    HW123792   1.555   2.044   3.301
 7631SOL    HW223793   1.416   1.958   3.295
 7632SOL     OW23794   4.473   1.498   6.269
 7632SOL    HW123795   4.377   1.524   6.260
 7632SOL    HW223796   4.489   1.460   6.360
 7633SOL     OW23797   5.777   4.666   6.485
 7633SOL    HW123798   5.719   4.746   6.472
 7633SOL    HW223799   5.845   4.662   6.411
 7634SOL     OW23800   1.455   2.010   1.877
 7634SOL    HW123801   1.508   2.092   1.899
 7634SOL    HW223802   1.365   2.016   1.922
 7635SOL     OW23803   3.211   5.088   6.005
 7635SOL    HW123804   3.173   5.002   5.970
 7635SOL    HW223805   3.226   5.151   5.929
 7636SOL     OW23806   1.736   0.679   3.354
 7636SOL    HW123807   1.749   0.612   3.427
 7636SOL    HW223808   1.727   0.770   3.393
 7637SOL     OW23809   2.369   6.233   3.883
 7637SOL    HW123810   2.393   6.304   3.817
 7637SOL    HW223811   2.328   6.275   3.963
 7638SOL     OW23812   4.220   4.382   1.697
 7638SOL    HW123813   4.275   4.321   1.754
 7638SOL    HW223814   4.258   4.475   1.701
 7639SOL     OW23815   7.004   2.516   4.544
 7639SOL    HW123816   0.048   2.552   4.606
 7639SOL    HW223817   0.012   2.432   4.502
 7640SOL     OW23818   2.054   3.178   5.954
 7640SOL    HW123819   2.035   3.274   5.973
 7640SOL    HW223820   2.104   3.171   5.868
 7641SOL     OW23821   6.541   2.883   3.565
 7641SOL    HW123822   6.463   2.832   3.600
 7641SOL    HW223823   6.604   2.821   3.519
 7642SOL     OW23824   2.481   1.474   3.054
 7642SOL    HW123825   2.405   1.439   3.000
 7642SOL    HW223826   2.492   1.417   3.136
 7643SOL     OW23827   5.587   3.524   3.445
 7643SOL    HW123828   5.677   3.525   3.488
 7643SOL    HW223829   5.520   3.563   3.508
 7644SOL     OW23830   6.714   3.864   3.823
 7644SOL    HW123831   6.643   3.835   3.758
 7644SOL    HW223832   6.708   3.963   3.836
 7645SOL     OW23833   4.341   3.103   0.098
 7645SOL    HW123834   4.244   3.126   0.090
 7645SOL    HW223835   4.382   3.157   0.171
 7646SOL     OW23836   0.966   1.438   1.515
 7646SOL    HW123837   0.966   1.478   1.606
 7646SOL    HW223838   1.030   1.488   1.457
 7647SOL     OW23839   2.205   5.168   1.029
 7647SOL    HW123840   2.148   5.233   1.079
 7647SOL    HW223841   2.271   5.218   0.973
 7648SOL     OW23842   3.827   0.268   3.561
 7648SOL    HW123843   3.864   0.206   3.492
 7648SOL    HW223844   3.892   0.343   3.576
 7649SOL     OW23845   3.214   1.434   1.960
 7649SOL    HW123846   3.265   1.502   2.012
 7649SOL    HW223847   3.117   1.460   1.958
 7650SOL     OW23848   5.769   4.366   1.594
 7650SOL    HW123849   5.688   4.359   1.536
 7650SOL    HW223850   5.839   4.420   1.547
 7651SOL     OW23851   3.760   2.091   6.151
 7651SOL    HW123852   3.689   2.068   6.084
 7651SOL    HW223853   3.828   2.018   6.155
 7652SOL     OW23854   1.328   3.171   3.031
 7652SOL    HW123855   1.331   3.154   3.129
 7652SOL    HW223856   1.342   3.269   3.014
 7653SOL     OW23857   3.910   2.054   1.372
 7653SOL    HW123858   3.977   2.051   1.445
 7653SOL    HW223859   3.818   2.066   1.410
 7654SOL     OW23860   4.897   3.458   4.285
 7654SOL    HW123861   4.907   3.542   4.339
 7654SOL    HW223862   4.932   3.473   4.193
 7655SOL     OW23863   4.451   6.329   5.262
 7655SOL    HW123864   4.540   6.289   5.239
 7655SOL    HW223865   4.380   6.259   5.253
 7656SOL     OW23866   1.112   6.212   4.480
 7656SOL    HW123867   1.102   6.129   4.424
 7656SOL    HW223868   1.164   6.190   4.563
 7657SOL     OW23869   4.549   1.614   4.643
 7657SOL    HW123870   4.468   1.659   4.605
 7657SOL    HW223871   4.552   1.628   4.742
 7658SOL     OW23872   3.629   0.523   6.515
 7658SOL    HW123873   3.709   0.534   6.455
 7658SOL    HW223874   3.592   0.431   6.502
 7659SOL     OW23875   5.598   7.014   0.097
 7659SOL    HW123876   5.625   6.967   0.181
 7659SOL    HW223877   5.676   7.018   0.034
 7660SOL     OW23878   6.334   4.622   4.282
 7660SOL    HW123879   6.423   4.577   4.286
 7660SOL    HW223880   6.290   4.619   4.372
 7661SOL     OW23881   5.180   2.995   3.983
 7661SOL    HW123882   5.264   2.942   3.991
 7661SOL    HW223883   5.179   3.043   3.895
 7662SOL     OW23884   6.856   5.753   2.314
 7662SOL    HW123885   6.811   5.734   2.401
 7662SOL    HW223886   6.925   5.682   2.295
 7663SOL     OW23887   6.724   5.644   6.818
 7663SOL    HW123888   6.703   5.576   6.889
 7663SOL    HW223889   6.718   5.736   6.857
 7664SOL     OW23890   2.686   5.628   4.932
 7664SOL    HW123891   2.769   5.582   4.899
 7664SOL    HW223892   2.610   5.607   4.870
 7665SOL     OW23893   2.168   6.224   4.380
 7665SOL    HW123894   2.254   6.185   4.414
 7665SOL    HW223895   2.092   6.164   4.404
 7666SOL     OW23896   1.791   1.403   0.960
 7666SOL    HW123897   1.832   1.317   0.992
 7666SOL    HW223898   1.863   1.469   0.941
 7667SOL     OW23899   4.817   5.959   6.872
 7667SOL    HW123900   4.747   5.927   6.808
 7667SOL    HW223901   4.859   6.043   6.837
 7668SOL     OW23902   2.664   4.219   1.595
 7668SOL    HW123903   2.711   4.300   1.632
 7668SOL    HW223904   2.725   4.140   1.599
 7669SOL     OW23905   4.489   6.450   4.859
 7669SOL    HW123906   4.410   6.393   4.837
 7669SOL    HW223907   4.548   6.458   4.779
 7670SOL     OW23908   1.833   4.953   0.827
 7670SOL    HW123909   1.799   4.921   0.738
 7670SOL    HW223910   1.819   5.052   0.834
 7671SOL     OW23911   5.631   2.544   4.676
 7671SOL    HW123912   5.634   2.476   4.602
 7671SOL    HW223913   5.687   2.513   4.752
 7672SOL     OW23914   5.855   6.924   2.374
 7672SOL    HW123915   5.784   6.983   2.413
 7672SOL    HW223916   5.812   6.847   2.328
 7673SOL     OW23917   0.192   4.028   7.019
 7673SOL    HW123918   0.168   4.076   6.935
 7673SOL    HW223919   0.207   3.931   6.999
 7674SOL     OW23920   6.611   1.446   5.258
 7674SOL    HW123921   6.590   1.495   5.343
 7674SOL    HW223922   6.660   1.362   5.279
 7675SOL     OW23923   4.665   0.026   3.143
 7675SOL    HW123924   4.695   6.968   3.191
 7675SOL    HW223925   4.744   0.085   3.126
 7676SOL     OW23926   1.357   0.267   0.957
 7676SOL    HW123927   1.332   0.181   0.912
 7676SOL    HW223928   1.359   0.253   1.056
 7677SOL     OW23929   1.806   2.272   2.870
 7677SOL    HW123930   1.839   2.193   2.818
 7677SOL    HW223931   1.809   2.251   2.968
 7678SOL     OW23932   5.512   6.488   6.276
 7678SOL    HW123933   5.575   6.434   6.332
 7678SOL    HW223934   5.562   6.527   6.198
 7679SOL     OW23935   1.383   5.129   5.330
 7679SOL    HW123936   1.355   5.103   5.423
 7679SOL    HW223937   1.482   5.122   5.321
 7680SOL     OW23938   4.639   1.843   6.853
 7680SOL    HW123939   4.618   1.929   6.807
 7680SOL    HW223940   4.651   1.859   6.951
 7681SOL     OW23941   2.254   2.195   6.357
 7681SOL    HW123942   2.309   2.153   6.429
 7681SOL    HW223943   2.301   2.277   6.324
 7682SOL     OW23944   2.657   0.286   1.323
 7682SOL    HW123945   2.707   0.366   1.290
 7682SOL    HW223946   2.718   0.229   1.378
 7683SOL     OW23947   6.394   1.759   3.202
 7683SOL    HW123948   6.402   1.817   3.121
 7683SOL    HW223949   6.312   1.785   3.253
 7684SOL     OW23950   4.201   1.926   6.009
 7684SOL    HW123951   4.138   1.954   5.937
 7684SOL    HW223952   4.149   1.884   6.084
 7685SOL     OW23953   3.897   3.702   0.977
 7685SOL    HW123954   3.825   3.757   0.937
 7685SOL    HW223955   3.876   3.605   0.964
 7686SOL     OW23956   3.088   0.875   3.875
 7686SOL    HW123957   3.035   0.805   3.827
 7686SOL    HW223958   3.049   0.891   3.965
 7687SOL     OW23959   4.415   4.564   5.944
 7687SOL    HW123960   4.415   4.641   5.881
 7687SOL    HW223961   4.372   4.592   6.030
 7688SOL     OW23962   6.898   0.227   3.847
 7688SOL    HW123963   6.989   0.268   3.856
 7688SOL    HW223964   6.906   0.135   3.810
 7689SOL     OW23965   4.379   0.263   5.061
 7689SOL    HW123966   4.456   0.289   5.004
 7689SOL    HW223967   4.408   0.193   5.127
 7690SOL     OW23968   0.151   5.519   3.159
 7690SOL    HW123969   0.178   5.505   3.254
 7690SOL    HW223970   0.095   5.601   3.152
 7691SOL     OW23971   6.064   4.193   5.504
 7691SOL    HW123972   6.090   4.144   5.421
 7691SOL    HW223973   6.000   4.136   5.557
 7692SOL     OW23974   2.161   5.919   1.537
 7692SOL    HW123975   2.070   5.885   1.511
 7692SOL    HW223976   2.182   6.001   1.485
 7693SOL     OW23977   5.353   0.810   0.506
 7693SOL    HW123978   5.271   0.867   0.500
 7693SOL    HW223979   5.385   0.805   0.601
 7694SOL     OW23980   6.591   4.592   3.941
 7694SOL    HW123981   6.623   4.600   4.036
 7694SOL    HW223982   6.597   4.681   3.897
 7695SOL     OW23983   3.918   0.345   6.391
 7695SOL    HW123984   3.938   0.337   6.489
 7695SOL    HW223985   3.920   0.254   6.350
 7696SOL     OW23986   0.911   3.876   5.496
 7696SOL    HW123987   0.978   3.928   5.550
 7696SOL    HW223988   0.819   3.910   5.515
 7697SOL     OW23989   3.977   1.996   1.819
 7697SOL    HW123990   3.989   2.050   1.902
 7697SOL    HW223991   3.882   1.963   1.815
 7698SOL     OW23992   0.434   3.266   5.816
 7698SOL    HW123993   0.428   3.261   5.915
 7698SOL    HW223994   0.521   3.227   5.786
 7699SOL     OW23995   2.500   4.352   0.282
 7699SOL    HW123996   2.565   4.334   0.208
 7699SOL    HW223997   2.530   4.432   0.333
 7700SOL     OW23998   5.750   6.924   5.487
 7700SOL    HW123999   5.812   7.002   5.499
 7700SOL    HW224000   5.720   6.891   5.576
 7701SOL     OW24001   6.176   1.944   4.912
 7701SOL    HW124002   6.086   1.900   4.913
 7701SOL    HW224003   6.171   2.031   4.864
 7702SOL     OW24004   2.495   6.266   5.762
 7702SOL    HW124005   2.564   6.202   5.728
 7702SOL    HW224006   2.538   6.352   5.787
 7703SOL     OW24007   0.735   1.887   6.011
 7703SOL    HW124008   0.777   1.820   5.950
 7703SOL    HW224009   0.760   1.867   6.106
 7704SOL     OW24010   3.907   4.374   0.685
 7704SOL    HW124011   3.910   4.411   0.593
 7704SOL    HW224012   3.999   4.345   0.712
 7705SOL     OW24013   3.727   4.883   5.561
 7705SOL    HW124014   3.760   4.788   5.561
 7705SOL    HW224015   3.633   4.885   5.595
 7706SOL     OW24016   6.169   0.891   4.824
 7706SOL    HW124017   6.095   0.830   4.852
 7706SOL    HW224018   6.256   0.857   4.859
 7707SOL     OW24019   0.049   5.266   6.042
 7707SOL    HW124020   0.054   5.347   6.101
 7707SOL    HW224021   0.140   5.225   6.034
 7708SOL     OW24022   5.256   0.316   4.413
 7708SOL    HW124023   5.298   0.246   4.355
 7708SOL    HW224024   5.208   0.382   4.356
 7709SOL     OW24025   3.653   2.003   1.851
 7709SOL    HW124026   3.577   1.958   1.898
 7709SOL    HW224027   3.688   2.078   1.906
 7710SOL     OW24028   2.483   2.373   6.357
 7710SOL    HW124029   2.552   2.302   6.339
 7710SOL    HW224030   2.464   2.378   6.455
 7711SOL     OW24031   5.033   6.866   5.871
 7711SOL    HW124032   5.086   6.944   5.839
 7711SOL    HW224033   5.059   6.784   5.820
 7712SOL     OW24034   5.388   4.939   1.090
 7712SOL    HW124035   5.474   4.973   1.051
 7712SOL    HW224036   5.337   5.015   1.131
 7713SOL     OW24037   1.293   4.864   6.818
 7713SOL    HW124038   1.221   4.923   6.853
 7713SOL    HW224039   1.313   4.791   6.884
 7714SOL     OW24040   5.468   4.178   4.305
 7714SOL    HW124041   5.425   4.257   4.348
 7714SOL    HW224042   5.451   4.180   4.207
 7715SOL     OW24043   4.800   2.343   1.278
 7715SOL    HW124044   4.832   2.280   1.208
 7715SOL    HW224045   4.701   2.338   1.286
 7716SOL     OW24046   4.720   2.823   3.597
 7716SOL    HW124047   4.652   2.882   3.553
 7716SOL    HW224048   4.772   2.876   3.664
 7717SOL     OW24049   3.282   0.499   6.570
 7717SOL    HW124050   3.342   0.432   6.614
 7717SOL    HW224051   3.306   0.506   6.473
 7718SOL     OW24052   3.217   6.139   3.526
 7718SOL    HW124053   3.124   6.113   3.550
 7718SOL    HW224054   3.273   6.141   3.609
 7719SOL     OW24055   6.174   2.622   5.673
 7719SOL    HW124056   6.263   2.665   5.660
 7719SOL    HW224057   6.121   2.630   5.589
 7720SOL     OW24058   5.489   6.212   1.601
 7720SOL    HW124059   5.418   6.178   1.538
 7720SOL    HW224060   5.446   6.243   1.685
 7721SOL     OW24061   1.117   4.591   2.743
 7721SOL    HW124062   1.046   4.623   2.806
 7721SOL    HW224063   1.135   4.494   2.759
 7722SOL     OW24064   0.923   6.233   4.150
 7722SOL    HW124065   0.923   6.148   4.098
 7722SOL    HW224066   0.878   6.219   4.238
 7723SOL     OW24067   6.573   3.031   0.495
 7723SOL    HW124068   6.532   3.063   0.581
 7723SOL    HW224069   6.626   2.948   0.513
 7724SOL     OW24070   1.611   5.262   0.238
 7724SOL    HW124071   1.539   5.243   0.171
 7724SOL    HW224072   1.569   5.286   0.326
 7725SOL     OW24073   5.172   3.987   4.701
 7725SOL    HW124074   5.112   3.948   4.630
 7725SOL    HW224075   5.162   4.087   4.700
 7726SOL     OW24076   5.831   4.198   3.622
 7726SOL    HW124077   5.738   4.181   3.654
 7726SOL    HW224078   5.894   4.134   3.666
 7727SOL     OW24079   6.743   2.905   2.161
 7727SOL    HW124080   6.775   2.943   2.074
 7727SOL    HW224081   6.782   2.814   2.174
 7728SOL     OW24082   2.463   1.933   2.672
 7728SOL    HW124083   2.401   1.937   2.593
 7728SOL    HW224084   2.457   1.843   2.714
 7729SOL     OW24085   5.615   2.488   1.392
 7729SOL    HW124086   5.661   2.430   1.325
 7729SOL    HW224087   5.641   2.583   1.377
 7730SOL     OW24088   5.003   0.068   1.709
 7730SOL    HW124089   5.080   0.004   1.706
 7730SOL    HW224090   5.004   0.126   1.628
 7731SOL     OW24091   6.691   0.662   4.922
 7731SOL    HW124092   6.625   0.735   4.944
 7731SOL    HW224093   6.697   0.599   4.999
 7732SOL     OW24094   4.627   4.687   0.505
 7732SOL    HW124095   4.720   4.652   0.518
 7732SOL    HW224096   4.624   4.743   0.422
 7733SOL     OW24097   3.242   6.810   0.632
 7733SOL    HW124098   3.317   6.749   0.655
 7733SOL    HW224099   3.171   6.803   0.702
 7734SOL     OW24100   1.721   1.986   3.044
 7734SOL    HW124101   1.734   2.018   2.950
 7734SOL    HW224102   1.675   1.897   3.043
 7735SOL     OW24103   5.095   3.775   0.499
 7735SOL    HW124104   5.133   3.863   0.528
 7735SOL    HW224105   5.052   3.730   0.578
 7736SOL     OW24106   5.837   4.444   6.170
 7736SOL    HW124107   5.867   4.526   6.219
 7736SOL    HW224108   5.738   4.450   6.153
 7737SOL     OW24109   4.835   2.167   1.065
 7737SOL    HW124110   4.927   2.142   1.035
 7737SOL    HW224111   4.769   2.104   1.025
 7738SOL     OW24112   2.737   4.731   0.187
 7738SOL    HW124113   2.781   4.735   0.277
 7738SOL    HW224114   2.805   4.749   0.116
 7739SOL     OW24115   6.265   3.256   2.049
 7739SOL    HW124116   6.232   3.169   2.086
 7739SOL    HW224117   6.363   3.264   2.063
 7740SOL     OW24118   0.690   6.622   3.765
 7740SOL    HW124119   0.714   6.680   3.688
 7740SOL    HW224120   0.603   6.576   3.748
 7741SOL     OW24121   3.297   5.607   4.600
 7741SOL    HW124122   3.210   5.623   4.646
 7741SOL    HW224123   3.324   5.689   4.550
 7742SOL     OW24124   6.446   0.694   4.304
 7742SOL    HW124125   6.486   0.777   4.264
 7742SOL    HW224126   6.474   0.686   4.399
 7743SOL     OW24127   4.793   2.990   2.723
 7743SOL    HW124128   4.858   2.976   2.648
 7743SOL    HW224129   4.817   3.074   2.773
 7744SOL     OW24130   0.342   0.049   4.817
 7744SOL    HW124131   0.414   7.016   4.778
 7744SOL    HW224132   0.293   0.096   4.744
 7745SOL     OW24133   4.935   3.380   5.423
 7745SOL    HW124134   4.837   3.396   5.409
 7745SOL    HW224135   4.960   3.292   5.383
 7746SOL     OW24136   1.546   0.824   0.326
 7746SOL    HW124137   1.546   0.909   0.379
 7746SOL    HW224138   1.545   0.846   0.228
 7747SOL     OW24139   5.648   5.358   1.339
 7747SOL    HW124140   5.558   5.315   1.343
 7747SOL    HW224141   5.711   5.308   1.399
 7748SOL     OW24142   2.714   3.569   6.677
 7748SOL    HW124143   2.775   3.645   6.702
 7748SOL    HW224144   2.686   3.580   6.581
 7749SOL     OW24145   5.553   3.686   6.745
 7749SOL    HW124146   5.594   3.747   6.677
 7749SOL    HW224147   5.467   3.725   6.777
 7750SOL     OW24148   5.784   5.000   2.877
 7750SOL    HW124149   5.803   4.902   2.877
 7750SOL    HW224150   5.744   5.027   2.965
 7751SOL     OW24151   0.279   2.441   1.494
 7751SOL    HW124152   0.274   2.490   1.407
 7751SOL    HW224153   0.344   2.365   1.485
 7752SOL     OW24154   4.012   1.385   3.464
 7752SOL    HW124155   4.011   1.292   3.501
 7752SOL    HW224156   4.044   1.383   3.369
 7753SOL     OW24157   3.331   1.869   5.162
 7753SOL    HW124158   3.323   1.957   5.115
 7753SOL    HW224159   3.258   1.808   5.130
 7754SOL     OW24160   5.673   5.672   2.015
 7754SOL    HW124161   5.616   5.752   1.996
 7754SOL    HW224162   5.697   5.671   2.112
 7755SOL     OW24163   0.616   5.196   4.417
 7755SOL    HW124164   0.708   5.164   4.438
 7755SOL    HW224165   0.549   5.133   4.456
 7756SOL     OW24166   2.541   5.040   2.576
 7756SOL    HW124167   2.495   5.003   2.494
 7756SOL    HW224168   2.640   5.028   2.567
 7757SOL     OW24169   0.019   4.669   1.709
 7757SOL    HW124170   0.094   4.708   1.761
 7757SOL    HW224171   6.992   4.606   1.766
 7758SOL     OW24172   1.197   2.328   4.332
 7758SOL    HW124173   1.269   2.335   4.401
 7758SOL    HW224174   1.194   2.234   4.296
 7759SOL     OW24175   3.427   1.488   1.311
 7759SOL    HW124176   3.459   1.396   1.332
 7759SOL    HW224177   3.488   1.530   1.244
 7760SOL     OW24178   5.057   3.292   0.508
 7760SOL    HW124179   5.068   3.318   0.412
 7760SOL    HW224180   4.977   3.233   0.518
 7761SOL     OW24181   4.749   5.281   2.797
 7761SOL    HW124182   4.829   5.341   2.799
 7761SOL    HW224183   4.755   5.220   2.718
 7762SOL     OW24184   5.470   1.537   1.328
 7762SOL    HW124185   5.466   1.468   1.401
 7762SOL    HW224186   5.439   1.625   1.364
 7763SOL     OW24187   2.513   0.209   4.330
 7763SOL    HW124188   2.604   0.228   4.294
 7763SOL    HW224189   2.507   0.238   4.425
 7764SOL     OW24190   2.900   4.161   5.838
 7764SOL    HW124191   2.864   4.077   5.797
 7764SOL    HW224192   2.875   4.239   5.781
 7765SOL     OW24193   5.409   3.870   4.627
 7765SOL    HW124194   5.450   3.818   4.702
 7765SOL    HW224195   5.321   3.907   4.657
 7766SOL     OW24196   0.126   3.507   6.654
 7766SOL    HW124197   0.030   3.509   6.626
 7766SOL    HW224198   0.167   3.597   6.639
 7767SOL     OW24199   4.232   0.355   3.904
 7767SOL    HW124200   4.255   0.300   3.823
 7767SOL    HW224201   4.316   0.393   3.943
 7768SOL     OW24202   3.846   5.705   3.900
 7768SOL    HW124203   3.932   5.752   3.879
 7768SOL    HW224204   3.778   5.771   3.931
 7769SOL     OW24205   3.656   2.982   6.178
 7769SOL    HW124206   3.596   3.006   6.254
 7769SOL    HW224207   3.738   2.937   6.213
 7770SOL     OW24208   1.189   3.640   4.464
 7770SOL    HW124209   1.130   3.584   4.522
 7770SOL    HW224210   1.285   3.622   4.486
 7771SOL     OW24211   1.672   3.970   6.515
 7771SOL    HW124212   1.704   3.875   6.514
 7771SOL    HW224213   1.584   3.976   6.468
 7772SOL     OW24214   5.712   6.399   1.960
 7772SOL    HW124215   5.717   6.410   2.059
 7772SOL    HW224216   5.655   6.471   1.921
 7773SOL     OW24217   2.025   6.445   6.558
 7773SOL    HW124218   1.927   6.453   6.577
 7773SOL    HW224219   2.054   6.350   6.575
 7774SOL     OW24220   5.197   1.592   2.732
 7774SOL    HW124221   5.275   1.585   2.794
 7774SOL    HW224222   5.196   1.683   2.690
 7775SOL     OW24223   3.136   1.807   1.438
 7775SOL    HW124224   3.043   1.828   1.470
 7775SOL    HW224225   3.133   1.723   1.383
 7776SOL     OW24226   2.692   0.960   4.739
 7776SOL    HW124227   2.758   0.893   4.706
 7776SOL    HW224228   2.735   1.018   4.809
 7777SOL     OW24229   6.138   5.828   3.298
 7777SOL    HW124230   6.149   5.822   3.199
 7777SOL    HW224231   6.044   5.806   3.322
 7778SOL     OW24232   0.529   4.637   2.729
 7778SOL    HW124233   0.591   4.691   2.672
 7778SOL    HW224234   0.440   4.631   2.685
 7779SOL     OW24235   3.906   6.475   2.108
 7779SOL    HW124236   3.845   6.486   2.185
 7779SOL    HW224237   3.895   6.552   2.045
 7780SOL     OW24238   6.204   5.862   4.716
 7780SOL    HW124239   6.258   5.945   4.703
 7780SOL    HW224240   6.140   5.875   4.791
 7781SOL     OW24241   2.035   3.041   0.850
 7781SOL    HW124242   2.031   3.137   0.879
 7781SOL    HW224243   1.960   3.023   0.785
 7782SOL     OW24244   5.746   3.486   4.483
 7782SOL    HW124245   5.784   3.524   4.399
 7782SOL    HW224246   5.651   3.459   4.468
 7783SOL     OW24247   2.386   6.589   4.266
 7783SOL    HW124248   2.461   6.533   4.233
 7783SOL    HW224249   2.367   6.567   4.362
 7784SOL     OW24250   1.629   1.719   2.142
 7784SOL    HW124251   1.546   1.671   2.112
 7784SOL    HW224252   1.605   1.813   2.169
 7785SOL     OW24253   0.124   6.208   3.111
 7785SOL    HW124254   0.212   6.163   3.093
 7785SOL    HW224255   0.050   6.152   3.073
 7786SOL     OW24256   4.210   1.532   6.191
 7786SOL    HW124257   4.111   1.526   6.183
 7786SOL    HW224258   4.253   1.504   6.105
 7787SOL     OW24259   2.183   2.367   1.837
 7787SOL    HW124260   2.180   2.285   1.894
 7787SOL    HW224261   2.130   2.440   1.880
 7788SOL     OW24262   0.449   3.889   1.728
 7788SOL    HW124263   0.465   3.805   1.675
 7788SOL    HW224264   0.389   3.868   1.805
 7789SOL     OW24265   3.533   1.347   6.599
 7789SOL    HW124266   3.570   1.297   6.520
 7789SOL    HW224267   3.489   1.431   6.568
 7790SOL     OW24268   4.177   5.473   3.264
 7790SOL    HW124269   4.113   5.473   3.187
 7790SOL    HW224270   4.138   5.421   3.340
 7791SOL     OW24271   2.716   5.674   2.494
 7791SOL    HW124272   2.640   5.614   2.469
 7791SOL    HW224273   2.707   5.703   2.589
 7792SOL     OW24274   1.375   1.335   2.927
 7792SOL    HW124275   1.354   1.432   2.918
 7792SOL    HW224276   1.460   1.314   2.879
 7793SOL     OW24277   5.066   1.259   0.629
 7793SOL    HW124278   5.137   1.256   0.700
 7793SOL    HW224279   5.036   1.353   0.617
 7794SOL     OW24280   1.062   0.247   3.322
 7794SOL    HW124281   1.065   0.291   3.412
 7794SOL    HW224282   1.155   0.224   3.293
 7795SOL     OW24283   3.831   4.311   0.948
 7795SOL    HW124284   3.770   4.388   0.968
 7795SOL    HW224285   3.860   4.316   0.853
 7796SOL     OW24286   3.053   1.553   0.366
 7796SOL    HW124287   3.110   1.491   0.312
 7796SOL    HW224288   2.995   1.500   0.428
 7797SOL     OW24289   1.028   5.561   3.101
 7797SOL    HW124290   0.985   5.561   3.191
 7797SOL    HW224291   1.119   5.519   3.108
 7798SOL     OW24292   2.042   3.352   0.885
 7798SOL    HW124293   2.139   3.336   0.904
 7798SOL    HW224294   2.032   3.441   0.841
 7799SOL     OW24295   3.579   5.941   3.592
 7799SOL    HW124296   3.665   5.895   3.570
 7799SOL    HW224297   3.536   5.972   3.507
 7800SOL     OW24298   1.709   0.695   2.151
 7800SOL    HW124299   1.711   0.747   2.066
 7800SOL    HW224300   1.684   0.756   2.227
 7801SOL     OW24301   1.198   2.335   1.171
 7801SOL    HW124302   1.113   2.282   1.167
 7801SOL    HW224303   1.196   2.394   1.252
 7802SOL     OW24304   6.645   4.124   3.872
 7802SOL    HW124305   6.715   4.174   3.923
 7802SOL    HW224306   6.561   4.118   3.926
 7803SOL     OW24307   2.951   2.786   5.592
 7803SOL    HW124308   2.868   2.742   5.556
 7803SOL    HW224309   3.023   2.781   5.522
 7804SOL     OW24310   2.742   1.680   5.495
 7804SOL    HW124311   2.694   1.684   5.583
 7804SOL    HW224312   2.757   1.773   5.462
 7805SOL     OW24313   5.821   2.798   6.688
 7805SOL    HW124314   5.877   2.723   6.655
 7805SOL    HW224315   5.803   2.786   6.786
 7806SOL     OW24316   6.356   1.490   5.550
 7806SOL    HW124317   6.437   1.545   5.534
 7806SOL    HW224318   6.376   1.418   5.616
 7807SOL     OW24319   2.331   5.586   5.507
 7807SOL    HW124320   2.282   5.651   5.565
 7807SOL    HW224321   2.424   5.620   5.492
 7808SOL     OW24322   6.147   3.924   3.889
 7808SOL    HW124323   6.140   3.895   3.985
 7808SOL    HW224324   6.061   3.904   3.842
 7809SOL     OW24325   4.791   6.329   2.224
 7809SOL    HW124326   4.852   6.278   2.163
 7809SOL    HW224327   4.825   6.422   2.235
 7810SOL     OW24328   2.359   6.477   5.628
 7810SOL    HW124329   2.279   6.530   5.600
 7810SOL    HW224330   2.375   6.403   5.562
 7811SOL     OW24331   0.898   6.035   2.514
 7811SOL    HW124332   0.937   6.127   2.519
 7811SOL    HW224333   0.820   6.028   2.576
 7812SOL     OW24334   2.612   1.103   5.689
 7812SOL    HW124335   2.645   1.191   5.724
 7812SOL    HW224336   2.680   1.065   5.627
 7813SOL     OW24337   5.580   0.657   1.278
 7813SOL    HW124338   5.505   0.613   1.229
 7813SOL    HW224339   5.557   0.665   1.375
 7814SOL     OW24340   6.083   2.444   2.438
 7814SOL    HW124341   6.021   2.514   2.402
 7814SOL    HW224342   6.044   2.406   2.522
 7815SOL     OW24343   4.722   5.568   3.816
 7815SOL    HW124344   4.762   5.627   3.747
 7815SOL    HW224345   4.639   5.524   3.779
 7816SOL     OW24346   0.724   1.314   5.105
 7816SOL    HW124347   0.816   1.298   5.067
 7816SOL    HW224348   0.718   1.271   5.195
 7817SOL     OW24349   4.362   1.804   6.976
 7817SOL    HW124350   4.326   1.809   6.883
 7817SOL    HW224351   4.438   1.740   6.980
 7818SOL     OW24352   5.885   1.165   3.096
 7818SOL    HW124353   5.844   1.090   3.044
 7818SOL    HW224354   5.982   1.148   3.109
 7819SOL     OW24355   1.577   3.360   5.402
 7819SOL    HW124356   1.513   3.428   5.437
 7819SOL    HW224357   1.671   3.392   5.417
 7820SOL     OW24358   1.296   1.215   5.254
 7820SOL    HW124359   1.211   1.183   5.213
 7820SOL    HW224360   1.360   1.138   5.262
 7821SOL     OW24361   3.835   6.056   6.337
 7821SOL    HW124362   3.753   5.999   6.342
 7821SOL    HW224363   3.915   5.998   6.331
 7822SOL     OW24364   0.221   1.447   4.947
 7822SOL    HW124365   0.312   1.439   4.905
 7822SOL    HW224366   0.201   1.544   4.963
 7823SOL     OW24367   2.728   3.296   5.698
 7823SOL    HW124368   2.710   3.201   5.671
 7823SOL    HW224369   2.656   3.326   5.761
 7824SOL     OW24370   5.562   3.721   3.229
 7824SOL    HW124371   5.504   3.685   3.156
 7824SOL    HW224372   5.574   3.651   3.299
 7825SOL     OW24373   3.410   3.754   2.889
 7825SOL    HW124374   3.328   3.773   2.835
 7825SOL    HW224375   3.486   3.810   2.853
 7826SOL     OW24376   6.759   0.033   0.261
 7826SOL    HW124377   6.765   0.130   0.239
 7826SOL    HW224378   6.789   7.004   0.182
 7827SOL     OW24379   4.226   3.367   0.503
 7827SOL    HW124380   4.167   3.375   0.423
 7827SOL    HW224381   4.246   3.457   0.540
 7828SOL     OW24382   0.936   5.800   1.418
 7828SOL    HW124383   0.866   5.814   1.488
 7828SOL    HW224384   1.018   5.762   1.461
 7829SOL     OW24385   3.483   3.982   3.652
 7829SOL    HW124386   3.427   3.904   3.680
 7829SOL    HW224387   3.455   4.011   3.560
 7830SOL     OW24388   6.256   3.854   6.769
 7830SOL    HW124389   6.231   3.936   6.822
 7830SOL    HW224390   6.225   3.865   6.675
 7831SOL     OW24391   1.627   2.635   0.218
 7831SOL    HW124392   1.688   2.556   0.228
 7831SOL    HW224393   1.673   2.717   0.253
 7832SOL     OW24394   3.363   3.037   5.610
 7832SOL    HW124395   3.349   2.963   5.676
 7832SOL    HW224396   3.276   3.081   5.589
 7833SOL     OW24397   6.913   6.398   1.462
 7833SOL    HW124398   6.878   6.305   1.470
 7833SOL    HW224399   6.927   6.420   1.366
 7834SOL     OW24400   6.441   0.603   1.546
 7834SOL    HW124401   6.351   0.639   1.568
 7834SOL    HW224402   6.473   0.543   1.619
 7835SOL     OW24403   2.359   2.394   4.456
 7835SOL    HW124404   2.348   2.300   4.489
 7835SOL    HW224405   2.384   2.393   4.359
 7836SOL     OW24406   1.834   0.802   0.452
 7836SOL    HW124407   1.751   0.769   0.495
 7836SOL    HW224408   1.838   0.769   0.357
 7837SOL     OW24409   4.936   6.578   2.191
 7837SOL    HW124410   5.028   6.610   2.211
 7837SOL    HW224411   4.869   6.639   2.233
 7838SOL     OW24412   4.145   6.639   4.080
 7838SOL    HW124413   4.131   6.561   4.019
 7838SOL    HW224414   4.243   6.657   4.089
 7839SOL     OW24415   7.011   4.533   3.222
 7839SOL    HW124416   0.070   4.530   3.277
 7839SOL    HW224417   6.933   4.555   3.281
 7840SOL     OW24418   5.047   3.345   5.995
 7840SOL    HW124419   4.968   3.396   5.962
 7840SOL    HW224420   5.031   3.314   6.089
 7841SOL     OW24421   1.171   1.733   6.637
 7841SOL    HW124422   1.219   1.720   6.724
 7841SOL    HW224423   1.082   1.689   6.641
 7842SOL     OW24424   3.338   0.189   2.092
 7842SOL    HW124425   3.270   0.169   2.163
 7842SOL    HW224426   3.359   0.286   2.093
 7843SOL     OW24427   0.461   2.834   2.100
 7843SOL    HW124428   0.425   2.785   2.021
 7843SOL    HW224429   0.420   2.926   2.103
 7844SOL     OW24430   3.763   1.465   4.177
 7844SOL    HW124431   3.681   1.410   4.165
 7844SOL    HW224432   3.799   1.492   4.088
 7845SOL     OW24433   1.350   1.108   3.934
 7845SOL    HW124434   1.408   1.189   3.927
 7845SOL    HW224435   1.305   1.091   3.847
 7846SOL     OW24436   4.171   6.829   2.220
 7846SOL    HW124437   4.242   6.878   2.272
 7846SOL    HW224438   4.142   6.748   2.271
 7847SOL     OW24439   0.348   0.300   6.745
 7847SOL    HW124440   0.287   0.222   6.732
 7847SOL    HW224441   0.398   0.289   6.831
 7848SOL     OW24442   4.054   4.269   1.152
 7848SOL    HW124443   4.057   4.275   1.252
 7848SOL    HW224444   3.961   4.292   1.120
 7849SOL     OW24445   5.053   4.246   4.690
 7849SOL    HW124446   4.998   4.195   4.756
 7849SOL    HW224447   5.098   4.323   4.736
 7850SOL     OW24448   0.796   1.959   4.430
 7850SOL    HW124449   0.791   2.053   4.398
 7850SOL    HW224450   0.713   1.938   4.483
 7851SOL     OW24451   4.635   6.540   0.876
 7851SOL    HW124452   4.725   6.509   0.906
 7851SOL    HW224453   4.592   6.471   0.819
 7852SOL     OW24454   2.541   6.655   0.436
 7852SOL    HW124455   2.607   6.592   0.478
 7852SOL    HW224456   2.569   6.749   0.452
 7853SOL     OW24457   2.011   2.672   0.181
 7853SOL    HW124458   1.955   2.615   0.121
 7853SOL    HW224459   2.091   2.620   0.210
 7854SOL     OW24460   3.379   4.082   3.383
 7854SOL    HW124461   3.347   4.112   3.293
 7854SOL    HW224462   3.311   4.105   3.452
 7855SOL     OW24463   4.017   0.118   5.366
 7855SOL    HW124464   3.921   0.146   5.367
 7855SOL    HW224465   4.075   0.196   5.390
 7856SOL     OW24466   3.101   3.681   6.711
 7856SOL    HW124467   3.122   3.628   6.629
 7856SOL    HW224468   3.162   3.653   6.785
 7857SOL     OW24469   0.762   3.235   5.235
 7857SOL    HW124470   0.850   3.270   5.265
 7857SOL    HW224471   0.701   3.311   5.211
 7858SOL     OW24472   5.998   3.649   2.906
 7858SOL    HW124473   5.956   3.627   2.994
 7858SOL    HW224474   5.980   3.575   2.841
 7859SOL     OW24475   0.654   6.341   0.048
 7859SOL    HW124476   0.718   6.270   0.079
 7859SOL    HW224477   0.700   6.430   0.047
 7860SOL     OW24478   4.464   6.738   1.768
 7860SOL    HW124479   4.531   6.698   1.830
 7860SOL    HW224480   4.443   6.832   1.797
 7861SOL     OW24481   5.471   3.332   0.787
 7861SOL    HW124482   5.533   3.374   0.720
 7861SOL    HW224483   5.377   3.356   0.766
 7862SOL     OW24484   2.804   4.587   1.650
 7862SOL    HW124485   2.841   4.575   1.742
 7862SOL    HW224486   2.705   4.584   1.653
 7863SOL     OW24487   5.354   6.055   2.090
 7863SOL    HW124488   5.351   5.958   2.116
 7863SOL    HW224489   5.267   6.098   2.115
 7864SOL     OW24490   1.180   6.050   4.236
 7864SOL    HW124491   1.205   5.967   4.286
 7864SOL    HW224492   1.086   6.043   4.204
 7865SOL     OW24493   3.647   0.818   3.184
 7865SOL    HW124494   3.718   0.778   3.243
 7865SOL    HW224495   3.640   0.916   3.205
 7866SOL     OW24496   1.839   2.477   4.899
 7866SOL    HW124497   1.831   2.501   4.996
 7866SOL    HW224498   1.935   2.486   4.871
 7867SOL     OW24499   5.509   3.889   2.129
 7867SOL    HW124500   5.591   3.843   2.095
 7867SOL    HW224501   5.429   3.852   2.082
 7868SOL     OW24502   5.395   0.248   0.793
 7868SOL    HW124503   5.305   0.287   0.813
 7868SOL    HW224504   5.443   0.306   0.728
 7869SOL     OW24505   6.578   1.490   4.018
 7869SOL    HW124506   6.609   1.577   4.056
 7869SOL    HW224507   6.479   1.481   4.029
 7870SOL     OW24508   6.570   6.577   3.278
 7870SOL    HW124509   6.513   6.637   3.221
 7870SOL    HW224510   6.637   6.632   3.327
 7871SOL     OW24511   5.638   3.260   3.870
 7871SOL    HW124512   5.542   3.268   3.897
 7871SOL    HW224513   5.687   3.344   3.895
 7872SOL     OW24514   6.743   3.761   4.415
 7872SOL    HW124515   6.777   3.778   4.322
 7872SOL    HW224516   6.672   3.828   4.436
 7873SOL     OW24517   0.102   5.649   4.531
 7873SOL    HW124518   0.195   5.684   4.543
 7873SOL    HW224519   0.088   5.622   4.436
 7874SOL     OW24520   6.226   1.109   0.983
 7874SOL    HW124521   6.205   1.205   1.000
 7874SOL    HW224522   6.156   1.051   1.025
 7875SOL     OW24523   5.075   3.089   0.953
 7875SOL    HW124524   5.037   3.181   0.939
 7875SOL    HW224525   5.169   3.086   0.921
 7876SOL     OW24526   0.129   0.695   5.210
 7876SOL    HW124527   0.151   0.725   5.117
 7876SOL    HW224528   0.114   0.596   5.210
 7877SOL     OW24529   6.270   2.747   2.803
 7877SOL    HW124530   6.344   2.771   2.740
 7877SOL    HW224531   6.222   2.830   2.830
 7878SOL     OW24532   4.623   4.022   1.528
 7878SOL    HW124533   4.547   3.958   1.537
 7878SOL    HW224534   4.589   4.116   1.539
 7879SOL     OW24535   6.057   1.023   4.611
 7879SOL    HW124536   6.101   0.975   4.688
 7879SOL    HW224537   5.983   1.080   4.646
 7880SOL     OW24538   1.532   6.599   5.937
 7880SOL    HW124539   1.573   6.667   5.877
 7880SOL    HW224540   1.510   6.641   6.025
 7881SOL     OW24541   0.710   4.858   3.844
 7881SOL    HW124542   0.785   4.857   3.909
 7881SOL    HW224543   0.743   4.824   3.755
 7882SOL     OW24544   1.940   4.467   1.703
 7882SOL    HW124545   1.929   4.557   1.747
 7882SOL    HW224546   2.037   4.445   1.697
 7883SOL     OW24547   3.591   1.953   3.273
 7883SOL    HW124548   3.632   1.889   3.208
 7883SOL    HW224549   3.648   1.956   3.355
 7884SOL     OW24550   0.557   3.540   4.605
 7884SOL    HW124551   0.513   3.630   4.607
 7884SOL    HW224552   0.601   3.527   4.516
 7885SOL     OW24553   5.733   5.214   2.710
 7885SOL    HW124554   5.774   5.291   2.758
 7885SOL    HW224555   5.770   5.129   2.747
 7886SOL     OW24556   4.823   3.970   2.541
 7886SOL    HW124557   4.823   4.069   2.554
 7886SOL    HW224558   4.825   3.949   2.443
 7887SOL     OW24559   1.135   3.069   1.878
 7887SOL    HW124560   1.211   3.019   1.838
 7887SOL    HW224561   1.168   3.126   1.953
 7888SOL     OW24562   6.392   0.788   4.943
 7888SOL    HW124563   6.385   0.749   5.035
 7888SOL    HW224564   6.460   0.862   4.944
 7889SOL     OW24565   5.717   5.467   0.597
 7889SOL    HW124566   5.649   5.538   0.578
 7889SOL    HW224567   5.807   5.498   0.566
 7890SOL     OW24568   2.269   2.793   3.826
 7890SOL    HW124569   2.260   2.805   3.727
 7890SOL    HW224570   2.361   2.760   3.848
 7891SOL     OW24571   6.388   1.824   4.388
 7891SOL    HW124572   6.381   1.787   4.296
 7891SOL    HW224573   6.421   1.753   4.450
 7892SOL     OW24574   0.974   1.852   5.117
 7892SOL    HW124575   0.985   1.772   5.175
 7892SOL    HW224576   1.030   1.927   5.154
 7893SOL     OW24577   6.299   0.096   0.551
 7893SOL    HW124578   6.368   0.153   0.595
 7893SOL    HW224579   6.212   0.107   0.597
 7894SOL     OW24580   2.777   0.959   0.080
 7894SOL    HW124581   2.844   0.966   0.154
 7894SOL    HW224582   2.810   0.895   0.011
 7895SOL     OW24583   6.498   6.002   3.166
 7895SOL    HW124584   6.502   5.937   3.090
 7895SOL    HW224585   6.544   6.087   3.140
 7896SOL     OW24586   2.432   1.828   0.570
 7896SOL    HW124587   2.390   1.876   0.646
 7896SOL    HW224588   2.466   1.894   0.503
 7897SOL     OW24589   3.629   2.793   0.498
 7897SOL    HW124590   3.530   2.788   0.513
 7897SOL    HW224591   3.674   2.726   0.557
 7898SOL     OW24592   5.034   6.954   3.259
 7898SOL    HW124593   5.100   6.887   3.291
 7898SOL    HW224594   4.947   6.941   3.306
 7899SOL     OW24595   5.987   4.484   3.828
 7899SOL    HW124596   6.028   4.468   3.738
 7899SOL    HW224597   6.050   4.538   3.884
 7900SOL     OW24598   0.354   3.645   0.462
 7900SOL    HW124599   0.297   3.713   0.507
 7900SOL    HW224600   0.321   3.630   0.369
 7901SOL     OW24601   0.104   2.124   0.051
 7901SOL    HW124602   0.172   2.141   0.122
 7901SOL    HW224603   0.125   2.180   6.995
 7902SOL     OW24604   2.072   6.811   2.075
 7902SOL    HW124605   2.046   6.882   2.010
 7902SOL    HW224606   2.169   6.789   2.064
 7903SOL     OW24607   2.614   2.035   5.069
 7903SOL    HW124608   2.678   1.982   5.013
 7903SOL    HW224609   2.647   2.037   5.163
 7904SOL     OW24610   4.483   2.459   3.055
 7904SOL    HW124611   4.419   2.420   2.990
 7904SOL    HW224612   4.445   2.452   3.147
 7905SOL     OW24613   5.499   1.983   1.256
 7905SOL    HW124614   5.466   2.054   1.193
 7905SOL    HW224615   5.598   1.990   1.265
 7906SOL     OW24616   1.310   4.673   0.000
 7906SOL    HW124617   1.224   4.623   0.012
 7906SOL    HW224618   1.354   4.683   0.089
 7907SOL     OW24619   5.991   6.161   2.734
 7907SOL    HW124620   5.958   6.113   2.653
 7907SOL    HW224621   6.090   6.153   2.740
 7908SOL     OW24622   1.694   6.864   6.199
 7908SOL    HW124623   1.709   6.956   6.162
 7908SOL    HW224624   1.763   6.802   6.163
 7909SOL     OW24625   6.345   4.165   1.697
 7909SOL    HW124626   6.354   4.068   1.718
 7909SOL    HW224627   6.407   4.218   1.755
 7910SOL     OW24628   1.054   4.120   6.039
 7910SOL    HW124629   1.125   4.049   6.038
 7910SOL    HW224630   0.971   4.083   6.082
 7911SOL     OW24631   6.633   4.471   6.046
 7911SOL    HW124632   6.641   4.508   6.139
 7911SOL    HW224633   6.630   4.371   6.050
 7912SOL     OW24634   5.862   5.668   0.804
 7912SOL    HW124635   5.939   5.605   0.808
 7912SOL    HW224636   5.879   5.737   0.733
 7913SOL     OW24637   1.322   5.002   0.246
 7913SOL    HW124638   1.223   5.004   0.264
 7913SOL    HW224639   1.354   4.907   0.248
 7914SOL     OW24640   0.962   6.969   5.002
 7914SOL    HW124641   0.888   6.970   5.069
 7914SOL    HW224642   0.964   6.880   4.956
 7915SOL     OW24643   3.126   4.855   2.544
 7915SOL    HW124644   3.091   4.851   2.637
 7915SOL    HW224645   3.186   4.935   2.534
 7916SOL     OW24646   1.150   0.435   4.085
 7916SOL    HW124647   1.180   0.425   4.180
 7916SOL    HW224648   1.083   0.365   4.063
 7917SOL     OW24649   4.884   1.802   1.862
 7917SOL    HW124650   4.983   1.786   1.864
 7917SOL    HW224651   4.863   1.880   1.804
 7918SOL     OW24652   2.497   2.597   3.414
 7918SOL    HW124653   2.466   2.578   3.322
 7918SOL    HW224654   2.590   2.633   3.411
 7919SOL     OW24655   1.505   6.302   5.102
 7919SOL    HW124656   1.593   6.254   5.114
 7919SOL    HW224657   1.452   6.296   5.187
 7920SOL     OW24658   5.173   0.317   1.020
 7920SOL    HW124659   5.125   0.258   1.085
 7920SOL    HW224660   5.117   0.397   0.999
 7921SOL     OW24661   5.401   2.453   1.137
 7921SOL    HW124662   5.469   2.524   1.155
 7921SOL    HW224663   5.387   2.398   1.220
 7922SOL     OW24664   2.749   0.293   2.141
 7922SOL    HW124665   2.721   0.328   2.230
 7922SOL    HW224666   2.762   0.369   2.078
 7923SOL     OW24667   4.260   1.517   0.029
 7923SOL    HW124668   4.274   1.472   6.966
 7923SOL    HW224669   4.278   1.615   0.019
 7924SOL     OW24670   6.113   6.122   6.890
 7924SOL    HW124671   6.208   6.109   6.862
 7924SOL    HW224672   6.069   6.191   6.831
 7925SOL     OW24673   1.941   5.076   6.760
 7925SOL    HW124674   1.866   5.065   6.695
 7925SOL    HW224675   1.904   5.091   6.851
 7926SOL     OW24676   5.044   5.823   6.731
 7926SOL    HW124677   4.959   5.853   6.774
 7926SOL    HW224678   5.059   5.727   6.751
 7927SOL     OW24679   4.309   0.389   3.361
 7927SOL    HW124680   4.347   0.480   3.382
 7927SOL    HW224681   4.220   0.400   3.316
 7928SOL     OW24682   6.205   2.069   3.064
 7928SOL    HW124683   6.240   1.990   3.013
 7928SOL    HW224684   6.281   2.126   3.094
 7929SOL     OW24685   4.235   4.076   5.761
 7929SOL    HW124686   4.330   4.082   5.791
 7929SOL    HW224687   4.229   4.017   5.680
 7930SOL     OW24688   4.140   6.536   6.341
 7930SOL    HW124689   4.047   6.500   6.342
 7930SOL    HW224690   4.142   6.625   6.388
 7931SOL     OW24691   3.847   1.692   1.698
 7931SOL    HW124692   3.815   1.704   1.604
 7931SOL    HW224693   3.769   1.694   1.760
 7932SOL     OW24694   1.201   3.735   1.348
 7932SOL    HW124695   1.258   3.784   1.283
 7932SOL    HW224696   1.211   3.775   1.439
 7933SOL     OW24697   1.029   1.722   0.265
 7933SOL    HW124698   1.041   1.745   0.361
 7933SOL    HW224699   1.118   1.711   0.221
 7934SOL     OW24700   1.004   5.402   0.729
 7934SOL    HW124701   0.957   5.485   0.757
 7934SOL    HW224702   0.943   5.347   0.671
 7935SOL     OW24703   6.208   2.680   3.257
 7935SOL    HW124704   6.267   2.653   3.333
 7935SOL    HW224705   6.179   2.599   3.206
 7936SOL     OW24706   3.148   5.590   3.844
 7936SOL    HW124707   3.184   5.544   3.925
 7936SOL    HW224708   3.178   5.543   3.762
 7937SOL     OW24709   4.035   1.275   0.844
 7937SOL    HW124710   4.032   1.295   0.942
 7937SOL    HW224711   4.002   1.354   0.793
 7938SOL     OW24712   3.164   6.889   3.496
 7938SOL    HW124713   3.097   6.845   3.437
 7938SOL    HW224714   3.196   6.823   3.564
 7939SOL     OW24715   0.986   0.879   2.987
 7939SOL    HW124716   1.009   0.794   2.939
 7939SOL    HW224717   1.069   0.932   3.003
 7940SOL     OW24718   5.798   1.278   4.224
 7940SOL    HW124719   5.710   1.250   4.262
 7940SOL    HW224720   5.789   1.368   4.181
 7941SOL     OW24721   3.633   0.182   1.156
 7941SOL    HW124722   3.548   0.150   1.115
 7941SOL    HW224723   3.658   0.122   1.233
 7942SOL     OW24724   1.656   4.533   0.584
 7942SOL    HW124725   1.587   4.474   0.542
 7942SOL    HW224726   1.678   4.501   0.676
 7943SOL     OW24727   1.597   5.966   5.893
 7943SOL    HW124728   1.527   6.036   5.874
 7943SOL    HW224729   1.665   5.966   5.819
 7944SOL     OW24730   0.922   2.345   1.385
 7944SOL    HW124731   0.834   2.385   1.410
 7944SOL    HW224732   0.912   2.291   1.301
 7945SOL     OW24733   6.211   4.096   2.693
 7945SOL    HW124734   6.242   4.106   2.788
 7945SOL    HW224735   6.148   4.019   2.687
 7946SOL     OW24736   3.818   1.179   6.437
 7946SOL    HW124737   3.811   1.177   6.337
 7946SOL    HW224738   3.852   1.090   6.469
 7947SOL     OW24739   6.911   3.755   6.451
 7947SOL    HW124740   7.004   3.789   6.437
 7947SOL    HW224741   6.913   3.662   6.485
 7948SOL     OW24742   2.197   5.631   2.325
 7948SOL    HW124743   2.240   5.561   2.269
 7948SOL    HW224744   2.129   5.589   2.384
 7949SOL     OW24745   2.718   6.025   5.884
 7949SOL    HW124746   2.679   6.023   5.793
 7949SOL    HW224747   2.806   6.073   5.882
 7950SOL     OW24748   6.349   4.654   5.390
 7950SOL    HW124749   6.334   4.555   5.381
 7950SOL    HW224750   6.382   4.690   5.303
 7951SOL     OW24751   4.498   6.704   2.338
 7951SOL    HW124752   4.596   6.706   2.322
 7951SOL    HW224753   4.455   6.634   2.281
 7952SOL     OW24754   6.446   3.895   5.267
 7952SOL    HW124755   6.381   3.851   5.205
 7952SOL    HW224756   6.524   3.834   5.281
 7953SOL     OW24757   1.661   6.592   0.417
 7953SOL    HW124758   1.759   6.586   0.440
 7953SOL    HW224759   1.632   6.506   0.374
 7954SOL     OW24760   3.507   3.866   6.875
 7954SOL    HW124761   3.534   3.786   6.822
 7954SOL    HW224762   3.502   3.946   6.815
 7955SOL     OW24763   1.178   1.004   6.481
 7955SOL    HW124764   1.158   0.909   6.504
 7955SOL    HW224765   1.144   1.024   6.389
 7956SOL     OW24766   0.096   6.223   0.386
 7956SOL    HW124767   0.165   6.265   0.328
 7956SOL    HW224768   0.126   6.132   0.413
 7957SOL     OW24769   5.141   1.791   5.975
 7957SOL    HW124770   5.085   1.730   6.031
 7957SOL    HW224771   5.204   1.842   6.035
 7958SOL     OW24772   4.739   2.501   7.001
 7958SOL    HW124773   4.819   2.525   6.947
 7958SOL    HW224774   4.691   2.584   0.005
 7959SOL     OW24775   5.405   2.277   0.143
 7959SOL    HW124776   5.443   2.302   0.232
 7959SOL    HW224777   5.450   2.330   0.071
 7960SOL     OW24778   1.008   1.366   5.504
 7960SOL    HW124779   1.056   1.391   5.420
 7960SOL    HW224780   1.037   1.425   5.579
 7961SOL     OW24781   6.214   6.425   6.997
 7961SOL    HW124782   6.177   6.343   6.953
 7961SOL    HW224783   6.164   6.506   6.966
 7962SOL     OW24784   6.166   0.102   5.433
 7962SOL    HW124785   6.080   0.152   5.435
 7962SOL    HW224786   6.242   0.166   5.436
 7963SOL     OW24787   6.709   6.255   3.531
 7963SOL    HW124788   6.777   6.328   3.526
 7963SOL    HW224789   6.658   6.251   3.446
 7964SOL     OW24790   6.309   4.166   1.411
 7964SOL    HW124791   6.312   4.125   1.502
 7964SOL    HW224792   6.291   4.095   1.343
 7965SOL     OW24793   4.579   2.226   6.475
 7965SOL    HW124794   4.548   2.321   6.484
 7965SOL    HW224795   4.625   2.214   6.387
 7966SOL     OW24796   5.255   4.125   5.118
 7966SOL    HW124797   5.239   4.037   5.073
 7966SOL    HW224798   5.174   4.150   5.171
 7967SOL     OW24799   1.395   4.695   0.272
 7967SOL    HW124800   1.494   4.709   0.267
 7967SOL    HW224801   1.367   4.693   0.368
 7968SOL     OW24802   1.108   3.138   4.464
 7968SOL    HW124803   1.097   3.123   4.365
 7968SOL    HW224804   1.108   3.049   4.511
 7969SOL     OW24805   3.456   5.154   6.796
 7969SOL    HW124806   3.374   5.211   6.789
 7969SOL    HW224807   3.533   5.201   6.754
 7970SOL     OW24808   6.121   3.144   4.178
 7970SOL    HW124809   6.109   3.091   4.262
 7970SOL    HW224810   6.090   3.091   4.100
 7971SOL     OW24811   2.647   1.310   6.631
 7971SOL    HW124812   2.727   1.260   6.598
 7971SOL    HW224813   2.591   1.338   6.553
 7972SOL     OW24814   3.224   3.877   4.351
 7972SOL    HW124815   3.306   3.832   4.387
 7972SOL    HW224816   3.157   3.887   4.425
 7973SOL     OW24817   5.980   4.795   2.088
 7973SOL    HW124818   5.895   4.839   2.116
 7973SOL    HW224819   5.964   4.737   2.009
 7974SOL     OW24820   0.273   2.578   4.807
 7974SOL    HW124821   0.297   2.609   4.899
 7974SOL    HW224822   0.349   2.526   4.769
 7975SOL     OW24823   5.421   0.398   1.117
 7975SOL    HW124824   5.390   0.383   1.211
 7975SOL    HW224825   5.347   0.375   1.054
 7976SOL     OW24826   0.171   0.445   0.689
 7976SOL    HW124827   0.152   0.529   0.640
 7976SOL    HW224828   0.224   0.384   0.631
 7977SOL     OW24829   5.698   5.817   3.452
 7977SOL    HW124830   5.733   5.775   3.535
 7977SOL    HW224831   5.613   5.865   3.472
 7978SOL     OW24832   0.509   4.588   1.272
 7978SOL    HW124833   0.434   4.542   1.320
 7978SOL    HW224834   0.494   4.687   1.274
 7979SOL     OW24835   2.214   2.267   4.867
 7979SOL    HW124836   2.239   2.231   4.777
 7979SOL    HW224837   2.288   2.249   4.931
 7980SOL     OW24838   3.995   5.768   0.972
 7980SOL    HW124839   4.030   5.861   0.964
 7980SOL    HW224840   3.896   5.770   0.978
 7981SOL     OW24841   1.634   3.662   3.924
 7981SOL    HW124842   1.686   3.617   3.996
 7981SOL    HW224843   1.694   3.683   3.847
 7982SOL     OW24844   0.024   1.037   5.873
 7982SOL    HW124845   7.019   0.974   5.944
 7982SOL    HW224846   0.071   1.114   5.915
 7983SOL     OW24847   4.159   0.920   1.730
 7983SOL    HW124848   4.234   0.859   1.755
 7983SOL    HW224849   4.142   0.984   1.804
 7984SOL     OW24850   7.020   2.567   3.110
 7984SOL    HW124851   6.957   2.645   3.107
 7984SOL    HW224852   0.068   2.586   3.175
 7985SOL     OW24853   3.191   2.776   5.403
 7985SOL    HW124854   3.164   2.868   5.377
 7985SOL    HW224855   3.274   2.750   5.354
 7986SOL     OW24856   3.956   1.167   4.440
 7986SOL    HW124857   3.877   1.205   4.488
 7986SOL    HW224858   4.008   1.108   4.502
 7987SOL     OW24859   0.836   3.369   6.836
 7987SOL    HW124860   0.814   3.273   6.852
 7987SOL    HW224861   0.754   3.425   6.852
 7988SOL     OW24862   6.895   1.132   1.367
 7988SOL    HW124863   6.895   1.057   1.433
 7988SOL    HW224864   6.967   1.197   1.390
 7989SOL     OW24865   0.137   4.103   0.859
 7989SOL    HW124866   0.219   4.147   0.822
 7989SOL    HW224867   0.074   4.173   0.892
 7990SOL     OW24868   5.101   5.692   5.357
 7990SOL    HW124869   5.122   5.594   5.356
 7990SOL    HW224870   5.008   5.706   5.322
 7991SOL     OW24871   5.745   0.735   4.693
 7991SOL    HW124872   5.787   0.725   4.603
 7991SOL    HW224873   5.671   0.669   4.703
 7992SOL     OW24874   2.272   6.840   0.201
 7992SOL    HW124875   2.352   6.783   0.180
 7992SOL    HW224876   2.221   6.858   0.117
 7993SOL     OW24877   6.360   5.980   0.499
 7993SOL    HW124878   6.390   6.064   0.453
 7993SOL    HW224879   6.390   5.900   0.447
 7994SOL     OW24880   6.258   0.303   4.013
 7994SOL    HW124881   6.314   0.383   4.033
 7994SOL    HW224882   6.317   0.222   4.009
 7995SOL     OW24883   0.767   5.478   1.264
 7995SOL    HW124884   0.857   5.511   1.234
 7995SOL    HW224885   0.747   5.391   1.219
 7996SOL     OW24886   2.415   0.139   3.246
 7996SOL    HW124887   2.381   0.046   3.256
 7996SOL    HW224888   2.498   0.138   3.189
 7997SOL     OW24889   1.975   2.137   5.673
 7997SOL    HW124890   2.003   2.066   5.608
 7997SOL    HW224891   2.020   2.223   5.651
 7998SOL     OW24892   2.475   1.158   0.554
 7998SOL    HW124893   2.519   1.247   0.568
 7998SOL    HW224894   2.534   1.087   0.592
 7999SOL     OW24895   0.865   0.313   3.732
 7999SOL    HW124896   0.963   0.311   3.711
 7999SOL    HW224897   0.824   0.394   3.691
 8000SOL     OW24898   4.125   5.592   0.806
 8000SOL    HW124899   4.069   5.650   0.865
 8000SOL    HW224900   4.198   5.647   0.765
 8001SOL     OW24901   4.687   4.679   1.107
 8001SOL    HW124902   4.606   4.679   1.048
 8001SOL    HW224903   4.659   4.662   1.202
 8002SOL     OW24904   1.118   6.807   4.374
 8002SOL    HW124905   1.157   6.715   4.380
 8002SOL    HW224906   1.137   6.845   4.283
 8003SOL     OW24907   3.104   5.404   2.304
 8003SOL    HW124908   3.064   5.479   2.251
 8003SOL    HW224909   3.039   5.328   2.308
 8004SOL     OW24910   1.134   3.479   3.932
 8004SOL    HW124911   1.071   3.551   3.901
 8004SOL    HW224912   1.157   3.495   4.028
 8005SOL     OW24913   2.010   0.824   3.026
 8005SOL    HW124914   1.917   0.853   3.047
 8005SOL    HW224915   2.070   0.904   3.024
 8006SOL     OW24916   3.984   5.050   5.506
 8006SOL    HW124917   3.926   4.969   5.514
 8006SOL    HW224918   4.077   5.028   5.533
 8007SOL     OW24919   6.967   0.423   0.818
 8007SOL    HW124920   6.916   0.341   0.793
 8007SOL    HW224921   0.026   0.428   0.763
 8008SOL     OW24922   4.905   4.766   7.003
 8008SOL    HW124923   4.921   4.702   0.053
 8008SOL    HW224924   4.875   4.716   6.922
 8009SOL     OW24925   6.011   1.087   0.742
 8009SOL    HW124926   5.920   1.071   0.781
 8009SOL    HW224927   6.074   1.016   0.774
 8010SOL     OW24928   2.824   0.234   5.540
 8010SOL    HW124929   2.753   0.300   5.564
 8010SOL    HW224930   2.845   0.178   5.621
 8011SOL     OW24931   3.952   2.083   3.047
 8011SOL    HW124932   3.874   2.104   2.988
 8011SOL    HW224933   3.946   1.989   3.078
 8012SOL     OW24934   6.243   1.110   4.423
 8012SOL    HW124935   6.164   1.114   4.484
 8012SOL    HW224936   6.322   1.075   4.473
 8013SOL     OW24937   3.601   1.089   3.110
 8013SOL    HW124938   3.554   1.174   3.087
 8013SOL    HW224939   3.543   1.011   3.089
 8014SOL     OW24940   2.330   2.355   2.820
 8014SOL    HW124941   2.316   2.281   2.887
 8014SOL    HW224942   2.300   2.324   2.730
 8015SOL     OW24943   3.710   0.601   4.925
 8015SOL    HW124944   3.653   0.537   4.976
 8015SOL    HW224945   3.727   0.565   4.833
 8016SOL     OW24946   3.677   2.492   5.403
 8016SOL    HW124947   3.703   2.573   5.351
 8016SOL    HW224948   3.595   2.451   5.363
 8017SOL     OW24949   6.292   6.120   1.199
 8017SOL    HW124950   6.322   6.036   1.244
 8017SOL    HW224951   6.221   6.163   1.254
 8018SOL     OW24952   3.770   3.173   7.001
 8018SOL    HW124953   3.740   3.082   0.004
 8018SOL    HW224954   3.726   3.242   0.033
 8019SOL     OW24955   2.687   3.287   0.312
 8019SOL    HW124956   2.685   3.207   0.252
 8019SOL    HW224957   2.743   3.268   0.392
 8020SOL     OW24958   0.387   0.533   5.458
 8020SOL    HW124959   0.382   0.630   5.481
 8020SOL    HW224960   0.451   0.520   5.382
 8021SOL     OW24961   0.843   3.142   0.661
 8021SOL    HW124962   0.880   3.060   0.619
 8021SOL    HW224963   0.792   3.117   0.744
 8022SOL     OW24964   4.292   0.439   1.646
 8022SOL    HW124965   4.294   0.436   1.746
 8022SOL    HW224966   4.224   0.505   1.615
 8023SOL     OW24967   4.558   6.065   1.430
 8023SOL    HW124968   4.621   6.118   1.487
 8023SOL    HW224969   4.511   6.127   1.367
 8024SOL     OW24970   2.417   0.993   0.292
 8024SOL    HW124971   2.387   1.048   0.370
 8024SOL    HW224972   2.447   1.053   0.218
 8025SOL     OW24973   1.125   6.019   1.643
 8025SOL    HW124974   1.092   6.092   1.583
 8025SOL    HW224975   1.208   6.049   1.691
 8026SOL     OW24976   0.830   5.903   6.351
 8026SOL    HW124977   0.776   5.986   6.357
 8026SOL    HW224978   0.824   5.865   6.259
 8027SOL     OW24979   3.577   0.016   6.661
 8027SOL    HW124980   3.493   0.032   6.712
 8027SOL    HW224981   3.648   0.079   6.692
 8028SOL     OW24982   4.035   5.611   5.416
 8028SOL    HW124983   3.966   5.633   5.485
 8028SOL    HW224984   3.996   5.550   5.347
 8029SOL     OW24985   0.702   0.340   1.211
 8029SOL    HW124986   0.709   0.395   1.295
 8029SOL    HW224987   0.791   0.300   1.191
 8030SOL     OW24988   0.757   4.621   1.149
 8030SOL    HW124989   0.668   4.610   1.193
 8030SOL    HW224990   0.830   4.596   1.212
 8031SOL     OW24991   6.988   0.030   2.806
 8031SOL    HW124992   0.013   0.053   2.889
 8031SOL    HW224993   7.002   0.101   2.737
 8032SOL     OW24994   6.909   2.664   0.713
 8032SOL    HW124995   6.931   2.700   0.622
 8032SOL    HW224996   6.993   2.651   0.766
 8033SOL     OW24997   4.190   4.040   1.497
 8033SOL    HW124998   4.228   4.123   1.457
 8033SOL    HW224999   4.227   4.027   1.589
 8034SOL     OW25000   6.948   7.007   5.829
 8034SOL    HW125001   6.994   6.958   5.755
 8034SOL    HW225002   6.946   6.950   5.911
 8035SOL     OW25003   5.784   0.604   3.484
 8035SOL    HW125004   5.818   0.599   3.390
 8035SOL    HW225005   5.815   0.524   3.535
 8036SOL     OW25006   4.801   2.946   4.370
 8036SOL    HW125007   4.754   2.858   4.362
 8036SOL    HW225008   4.846   2.967   4.283
 8037SOL     OW25009   2.290   1.002   6.191
 8037SOL    HW125010   2.281   0.930   6.260
 8037SOL    HW225011   2.368   0.982   6.131
 8038SOL     OW25012   6.855   5.517   2.146
 8038SOL    HW125013   6.871   5.556   2.055
 8038SOL    HW225014   6.758   5.495   2.156
 8039SOL     OW25015   1.468   2.837   5.266
 8039SOL    HW125016   1.559   2.868   5.294
 8039SOL    HW225017   1.405   2.843   5.344
 8040SOL     OW25018   1.031   6.004   5.892
 8040SOL    HW125019   1.072   5.922   5.933
 8040SOL    HW225020   0.957   5.976   5.831
 8041SOL     OW25021   3.258   1.538   3.304
 8041SOL    HW125022   3.203   1.555   3.222
 8041SOL    HW225023   3.354   1.525   3.278
 8042SOL     OW25024   4.013   4.205   5.882
 8042SOL    HW125025   4.072   4.128   5.855
 8042SOL    HW225026   4.043   4.241   5.970
 8043SOL     OW25027   5.327   5.389   6.923
 8043SOL    HW125028   5.307   5.320   6.992
 8043SOL    HW225029   5.424   5.413   6.927
 8044SOL     OW25030   2.188   3.000   1.320
 8044SOL    HW125031   2.094   3.032   1.310
 8044SOL    HW225032   2.196   2.945   1.403
 8045SOL     OW25033   6.637   2.990   4.110
 8045SOL    HW125034   6.625   3.043   4.194
 8045SOL    HW225035   6.569   2.916   4.106
 8046SOL     OW25036   6.704   4.651   1.458
 8046SOL    HW125037   6.639   4.575   1.455
 8046SOL    HW225038   6.667   4.724   1.516
 8047SOL     OW25039   2.591   5.917   6.830
 8047SOL    HW125040   2.670   5.979   6.829
 8047SOL    HW225041   2.516   5.958   6.779
 8048SOL     OW25042   3.646   2.049   5.660
 8048SOL    HW125043   3.637   1.951   5.641
 8048SOL    HW225044   3.565   2.097   5.625
 8049SOL     OW25045   1.699   1.725   0.198
 8049SOL    HW125046   1.659   1.715   0.289
 8049SOL    HW225047   1.638   1.685   0.130
 8050SOL     OW25048   0.650   4.641   6.175
 8050SOL    HW125049   0.706   4.723   6.184
 8050SOL    HW225050   0.643   4.615   6.079
 8051SOL     OW25051   4.365   6.984   3.610
 8051SOL    HW125052   4.341   0.056   3.602
 8051SOL    HW225053   4.451   6.975   3.661
 8052SOL     OW25054   3.276   1.775   2.702
 8052SOL    HW125055   3.362   1.784   2.753
 8052SOL    HW225056   3.236   1.866   2.689
 8053SOL     OW25057   1.807   2.425   6.699
 8053SOL    HW125058   1.736   2.403   6.766
 8053SOL    HW225059   1.796   2.519   6.668
 8054SOL     OW25060   4.929   3.427   4.960
 8054SOL    HW125061   4.892   3.515   4.990
 8054SOL    HW225062   4.937   3.426   4.860
 8055SOL     OW25063   6.163   0.407   6.596
 8055SOL    HW125064   6.213   0.493   6.606
 8055SOL    HW225065   6.100   0.414   6.518
 8056SOL     OW25066   2.277   0.888   3.745
 8056SOL    HW125067   2.222   0.946   3.685
 8056SOL    HW225068   2.310   0.809   3.693
 8057SOL     OW25069   3.077   2.100   2.142
 8057SOL    HW125070   3.000   2.163   2.141
 8057SOL    HW225071   3.107   2.083   2.048
 8058SOL     OW25072   3.654   6.334   1.862
 8058SOL    HW125073   3.730   6.378   1.910
 8058SOL    HW225074   3.663   6.235   1.869
 8059SOL     OW25075   2.709   2.730   6.047
 8059SOL    HW125076   2.620   2.707   6.009
 8059SOL    HW225077   2.732   2.825   6.023
 8060SOL     OW25078   6.464   1.034   5.744
 8060SOL    HW125079   6.394   0.977   5.701
 8060SOL    HW225080   6.539   0.976   5.777
 8061SOL     OW25081   7.019   0.641   2.439
 8061SOL    HW125082   0.065   0.711   2.432
 8061SOL    HW225083   0.018   0.575   2.510
 8062SOL     OW25084   4.790   5.249   5.635
 8062SOL    HW125085   4.724   5.180   5.606
 8062SOL    HW225086   4.873   5.240   5.581
 8063SOL     OW25087   2.629   5.159   2.963
 8063SOL    HW125088   2.577   5.143   3.047
 8063SOL    HW225089   2.569   5.194   2.892
 8064SOL     OW25090   6.671   1.753   0.664
 8064SOL    HW125091   6.647   1.776   0.569
 8064SOL    HW225092   6.723   1.829   0.704
 8065SOL     OW25093   4.317   6.355   6.517
 8065SOL    HW125094   4.235   6.299   6.533
 8065SOL    HW225095   4.335   6.362   6.419
 8066SOL     OW25096   0.417   6.870   6.064
 8066SOL    HW125097   0.410   6.969   6.070
 8066SOL    HW225098   0.513   6.843   6.060
 8067SOL     OW25099   5.651   1.146   3.927
 8067SOL    HW125100   5.747   1.130   3.905
 8067SOL    HW225101   5.637   1.242   3.951
 8068SOL     OW25102   6.142   3.374   1.733
 8068SOL    HW125103   6.198   3.291   1.736
 8068SOL    HW225104   6.202   3.454   1.722
 8069SOL     OW25105   1.794   3.428   2.524
 8069SOL    HW125106   1.720   3.391   2.579
 8069SOL    HW225107   1.810   3.523   2.548
 8070SOL     OW25108   4.910   4.550   1.082
 8070SOL    HW125109   4.832   4.612   1.074
 8070SOL    HW225110   4.927   4.506   0.994
 8071SOL     OW25111   2.547   6.891   6.281
 8071SOL    HW125112   2.572   6.795   6.291
 8071SOL    HW225113   2.562   6.919   6.186
 8072SOL     OW25114   1.972   2.104   4.794
 8072SOL    HW125115   2.056   2.141   4.755
 8072SOL    HW225116   1.975   2.111   4.894
 8073SOL     OW25117   4.583   0.229   6.786
 8073SOL    HW125118   4.604   0.258   6.880
 8073SOL    HW225119   4.501   0.275   6.754
 8074SOL     OW25120   0.187   0.513   6.823
 8074SOL    HW125121   0.119   0.527   6.751
 8074SOL    HW225122   0.253   0.444   6.794
 8075SOL     OW25123   0.203   6.763   0.940
 8075SOL    HW125124   0.262   6.753   1.019
 8075SOL    HW225125   0.123   6.703   0.949
 8076SOL     OW25126   0.190   5.993   0.503
 8076SOL    HW125127   0.125   5.916   0.507
 8076SOL    HW225128   0.239   5.989   0.416
 8077SOL     OW25129   5.299   4.643   0.784
 8077SOL    HW125130   5.296   4.673   0.880
 8077SOL    HW225131   5.394   4.643   0.753
 8078SOL     OW25132   0.023   0.749   1.229
 8078SOL    HW125133   0.079   0.777   1.308
 8078SOL    HW225134   0.069   0.675   1.181
 8079SOL     OW25135   0.767   0.936   6.404
 8079SOL    HW125136   0.679   0.907   6.440
 8079SOL    HW225137   0.832   0.860   6.410
 8080SOL     OW25138   1.292   3.259   3.338
 8080SOL    HW125139   1.270   3.249   3.435
 8080SOL    HW225140   1.325   3.352   3.320
 8081SOL     OW25141   6.225   6.739   5.179
 8081SOL    HW125142   6.232   6.763   5.082
 8081SOL    HW225143   6.256   6.645   5.192
 8082SOL     OW25144   3.836   2.126   3.933
 8082SOL    HW125145   3.741   2.155   3.916
 8082SOL    HW225146   3.861   2.147   4.027
 8083SOL     OW25147   6.565   1.760   4.634
 8083SOL    HW125148   6.523   1.745   4.724
 8083SOL    HW225149   6.591   1.672   4.595
 8084SOL     OW25150   3.879   1.502   5.598
 8084SOL    HW125151   3.829   1.492   5.684
 8084SOL    HW225152   3.964   1.450   5.602
 8085SOL     OW25153   1.931   6.314   4.283
 8085SOL    HW125154   1.929   6.413   4.291
 8085SOL    HW225155   2.020   6.280   4.314
 8086SOL     OW25156   6.807   1.358   2.557
 8086SOL    HW125157   6.773   1.277   2.510
 8086SOL    HW225158   6.771   1.359   2.651
 8087SOL     OW25159   6.914   0.812   6.496
 8087SOL    HW125160   6.867   0.724   6.484
 8087SOL    HW225161   6.900   0.869   6.416
 8088SOL     OW25162   6.854   0.207   5.277
 8088SOL    HW125163   6.887   0.114   5.256
 8088SOL    HW225164   6.863   0.264   5.196
 8089SOL     OW25165   6.086   1.877   6.506
 8089SOL    HW125166   5.988   1.862   6.494
 8089SOL    HW225167   6.101   1.931   6.589
 8090SOL     OW25168   4.219   2.397   5.562
 8090SOL    HW125169   4.176   2.453   5.632
 8090SOL    HW225170   4.313   2.376   5.589
 8091SOL     OW25171   1.237   4.197   4.222
 8091SOL    HW125172   1.175   4.137   4.272
 8091SOL    HW225173   1.208   4.292   4.234
 8092SOL     OW25174   4.742   1.036   6.105
 8092SOL    HW125175   4.756   0.988   6.018
 8092SOL    HW225176   4.682   0.981   6.163
 8093SOL     OW25177   3.254   5.961   2.952
 8093SOL    HW125178   3.239   6.014   2.869
 8093SOL    HW225179   3.276   5.867   2.928
 8094SOL     OW25180   1.873   3.896   3.834
 8094SOL    HW125181   1.870   3.991   3.864
 8094SOL    HW225182   1.910   3.839   3.908
 8095SOL     OW25183   1.291   4.895   5.149
 8095SOL    HW125184   1.281   4.945   5.234
 8095SOL    HW225185   1.282   4.958   5.072
 8096SOL     OW25186   0.892   5.229   0.547
 8096SOL    HW125187   0.821   5.166   0.516
 8096SOL    HW225188   0.977   5.178   0.565
 8097SOL     OW25189   4.699   6.310   0.306
 8097SOL    HW125190   4.688   6.217   0.273
 8097SOL    HW225191   4.698   6.374   0.228
 8098SOL     OW25192   2.463   5.400   5.180
 8098SOL    HW125193   2.412   5.321   5.215
 8098SOL    HW225194   2.402   5.478   5.172
 8099SOL     OW25195   1.869   3.921   2.432
 8099SOL    HW125196   1.961   3.949   2.406
 8099SOL    HW225197   1.806   3.937   2.356
 8100SOL     OW25198   6.540   0.123   6.687
 8100SOL    HW125199   6.471   0.083   6.627
 8100SOL    HW225200   6.506   0.209   6.725
 8101SOL     OW25201   3.086   5.610   1.064
 8101SOL    HW125202   2.995   5.579   1.092
 8101SOL    HW225203   3.082   5.707   1.040
 8102SOL     OW25204   0.735   3.806   4.423
 8102SOL    HW125205   0.794   3.825   4.501
 8102SOL    HW225206   0.789   3.762   4.351
 8103SOL     OW25207   3.310   0.679   1.611
 8103SOL    HW125208   3.405   0.692   1.584
 8103SOL    HW225209   3.297   0.584   1.640
 8104SOL     OW25210   2.411   5.349   0.239
 8104SOL    HW125211   2.366   5.311   0.158
 8104SOL    HW225212   2.509   5.330   0.235
 8105SOL     OW25213   6.946   7.004   3.530
 8105SOL    HW125214   6.906   0.070   3.520
 8105SOL    HW225215   6.994   6.979   3.446
 8106SOL     OW25216   2.298   0.004   6.213
 8106SOL    HW125217   2.356   6.978   6.276
 8106SOL    HW225218   2.202   7.009   6.232
 8107SOL     OW25219   1.576   6.083   6.857
 8107SOL    HW125220   1.549   6.149   6.787
 8107SOL    HW225221   1.668   6.049   6.839
 8108SOL     OW25222   0.971   1.176   6.803
 8108SOL    HW125223   0.903   1.174   6.730
 8108SOL    HW225224   0.924   1.171   6.892
 8109SOL     OW25225   6.434   2.644   1.736
 8109SOL    HW125226   6.376   2.621   1.814
 8109SOL    HW225227   6.459   2.741   1.740
 8110SOL     OW25228   3.927   4.940   1.018
 8110SOL    HW125229   3.925   4.843   1.043
 8110SOL    HW225230   3.962   4.950   0.925
 8111SOL     OW25231   6.511   1.228   2.737
 8111SOL    HW125232   6.491   1.163   2.810
 8111SOL    HW225233   6.477   1.193   2.650
 8112SOL     OW25234   1.935   4.683   6.504
 8112SOL    HW125235   2.022   4.724   6.531
 8112SOL    HW225236   1.948   4.586   6.482
 8113SOL     OW25237   5.532   4.273   5.682
 8113SOL    HW125238   5.550   4.371   5.694
 8113SOL    HW225239   5.490   4.258   5.592
 8114SOL     OW25240   1.613   3.968   2.691
 8114SOL    HW125241   1.707   3.999   2.676
 8114SOL    HW225242   1.599   3.882   2.641
 8115SOL     OW25243   2.767   1.635   6.031
 8115SOL    HW125244   2.747   1.723   6.073
 8115SOL    HW225245   2.860   1.607   6.055
 8116SOL     OW25246   3.861   3.097   1.657
 8116SOL    HW125247   3.940   3.155   1.676
 8116SOL    HW225248   3.885   3.001   1.670
 8117SOL     OW25249   2.895   6.689   4.365
 8117SOL    HW125250   2.943   6.606   4.336
 8117SOL    HW225251   2.813   6.701   4.310
 8118SOL     OW25252   6.770   3.118   0.305
 8118SOL    HW125253   6.724   3.099   0.219
 8118SOL    HW225254   6.711   3.092   0.382
 8119SOL     OW25255   5.855   6.398   0.116
 8119SOL    HW125256   5.843   6.301   0.095
 8119SOL    HW225257   5.904   6.408   0.202
 8120SOL     OW25258   1.700   6.811   2.117
 8120SOL    HW125259   1.730   6.728   2.163
 8120SOL    HW225260   1.624   6.790   2.056
 8121SOL     OW25261   0.974   3.276   2.253
 8121SOL    HW125262   0.942   3.364   2.288
 8121SOL    HW225263   0.986   3.212   2.330
 8122SOL     OW25264   0.235   5.158   1.660
 8122SOL    HW125265   0.225   5.152   1.561
 8122SOL    HW225266   0.319   5.207   1.683
 8123SOL     OW25267   6.796   1.818   6.887
 8123SOL    HW125268   6.745   1.869   6.957
 8123SOL    HW225269   6.770   1.722   6.892
 8124SOL     OW25270   5.763   5.654   4.699
 8124SOL    HW125271   5.707   5.659   4.782
 8124SOL    HW225272   5.821   5.573   4.703
 8125SOL     OW25273   2.285   5.611   2.673
 8125SOL    HW125274   2.235   5.607   2.759
 8125SOL    HW225275   2.225   5.583   2.598
 8126SOL     OW25276   3.811   5.450   4.563
 8126SOL    HW125277   3.897   5.438   4.612
 8126SOL    HW225278   3.741   5.486   4.624
 8127SOL     OW25279   3.753   2.371   6.510
 8127SOL    HW125280   3.713   2.401   6.597
 8127SOL    HW225281   3.685   2.380   6.437
 8128SOL     OW25282   3.374   2.815   1.370
 8128SOL    HW125283   3.445   2.816   1.440
 8128SOL    HW225284   3.307   2.743   1.390
 8129SOL     OW25285   1.086   2.353   2.566
 8129SOL    HW125286   1.019   2.312   2.504
 8129SOL    HW225287   1.167   2.294   2.572
 8130SOL     OW25288   0.640   5.695   6.934
 8130SOL    HW125289   0.554   5.717   6.887
 8130SOL    HW225290   0.651   5.756   7.013
 8131SOL     OW25291   1.791   3.214   6.873
 8131SOL    HW125292   1.807   3.289   6.809
 8131SOL    HW225293   1.862   3.214   6.943
 8132SOL     OW25294   0.468   0.902   5.039
 8132SOL    HW125295   0.378   0.860   5.030
 8132SOL    HW225296   0.532   0.838   5.081
 8133SOL     OW25297   3.419   4.770   0.647
 8133SOL    HW125298   3.401   4.829   0.726
 8133SOL    HW225299   3.358   4.691   0.650
 8134SOL     OW25300   5.471   1.600   6.001
 8134SOL    HW125301   5.432   1.650   6.078
 8134SOL    HW225302   5.554   1.552   6.030
 8135SOL     OW25303   2.701   6.618   2.077
 8135SOL    HW125304   2.684   6.568   2.162
 8135SOL    HW225305   2.678   6.560   1.999
 8136SOL     OW25306   5.253   4.380   2.179
 8136SOL    HW125307   5.246   4.298   2.121
 8136SOL    HW225308   5.312   4.360   2.257
 8137SOL     OW25309   4.338   1.765   5.845
 8137SOL    HW125310   4.301   1.836   5.904
 8137SOL    HW225311   4.407   1.805   5.784
 8138SOL     OW25312   5.028   0.953   2.419
 8138SOL    HW125313   5.035   1.031   2.357
 8138SOL    HW225314   5.060   0.870   2.372
 8139SOL     OW25315   0.350   2.213   3.209
 8139SOL    HW125316   0.297   2.135   3.243
 8139SOL    HW225317   0.317   2.296   3.253
 8140SOL     OW25318   4.303   1.926   3.707
 8140SOL    HW125319   4.296   1.953   3.611
 8140SOL    HW225320   4.217   1.885   3.737
 8141SOL     OW25321   5.192   4.647   4.447
 8141SOL    HW125322   5.176   4.676   4.353
 8141SOL    HW225323   5.108   4.658   4.500
 8142SOL     OW25324   0.401   6.021   6.417
 8142SOL    HW125325   0.350   5.942   6.383
 8142SOL    HW225326   0.400   6.021   6.517
 8143SOL     OW25327   6.842   3.077   5.997
 8143SOL    HW125328   6.783   3.084   5.917
 8143SOL    HW225329   6.792   3.109   6.078
 8144SOL     OW25330   5.055   0.212   6.956
 8144SOL    HW125331   5.076   0.194   0.027
 8144SOL    HW225332   5.054   0.311   6.940
 8145SOL     OW25333   5.235   6.266   2.837
 8145SOL    HW125334   5.250   6.364   2.845
 8145SOL    HW225335   5.215   6.227   2.927
 8146SOL     OW25336   3.698   1.193   4.563
 8146SOL    HW125337   3.673   1.227   4.653
 8146SOL    HW225338   3.678   1.095   4.558
 8147SOL     OW25339   4.652   0.630   3.213
 8147SOL    HW125340   4.728   0.695   3.206
 8147SOL    HW225341   4.686   0.544   3.250
 8148SOL     OW25342   5.359   4.270   3.297
 8148SOL    HW125343   5.368   4.206   3.373
 8148SOL    HW225344   5.300   4.346   3.324
 8149SOL     OW25345   4.055   4.746   3.564
 8149SOL    HW125346   4.096   4.813   3.625
 8149SOL    HW225347   4.051   4.657   3.609
 8150SOL     OW25348   0.557   5.417   1.039
 8150SOL    HW125349   0.606   5.503   1.026
 8150SOL    HW225350   0.616   5.340   1.016
 8151SOL     OW25351   0.728   1.563   4.877
 8151SOL    HW125352   0.818   1.604   4.885
 8151SOL    HW225353   0.714   1.531   4.783
 8152SOL     OW25354   1.563   0.701   2.585
 8152SOL    HW125355   1.620   0.648   2.648
 8152SOL    HW225356   1.486   0.645   2.555
 8153SOL     OW25357   1.860   6.545   0.192
 8153SOL    HW125358   1.940   6.570   0.247
 8153SOL    HW225359   1.841   6.447   0.202
 8154SOL     OW25360   2.534   6.834   3.808
 8154SOL    HW125361   2.460   6.794   3.754
 8154SOL    HW225362   2.511   6.927   3.835
 8155SOL     OW25363   3.653   3.456   3.957
 8155SOL    HW125364   3.589   3.532   3.953
 8155SOL    HW225365   3.660   3.413   3.867
 8156SOL     OW25366   6.660   0.533   5.634
 8156SOL    HW125367   6.720   0.562   5.709
 8156SOL    HW225368   6.696   0.450   5.593
 8157SOL     OW25369   6.377   2.535   6.555
 8157SOL    HW125370   6.372   2.486   6.642
 8157SOL    HW225371   6.438   2.485   6.493
 8158SOL     OW25372   2.165   5.350   2.535
 8158SOL    HW125373   2.065   5.352   2.535
 8158SOL    HW225374   2.197   5.313   2.622
 8159SOL     OW25375   1.015   4.941   1.654
 8159SOL    HW125376   0.923   4.964   1.684
 8159SOL    HW225377   1.046   4.859   1.703
 8160SOL     OW25378   4.582   2.158   2.001
 8160SOL    HW125379   4.665   2.106   2.018
 8160SOL    HW225380   4.591   2.250   2.042
 8161SOL     OW25381   4.297   1.904   1.514
 8161SOL    HW125382   4.386   1.949   1.512
 8161SOL    HW225383   4.288   1.843   1.435
 8162SOL     OW25384   6.201   0.547   1.747
 8162SOL    HW125385   6.157   0.523   1.660
 8162SOL    HW225386   6.284   0.494   1.758
 8163SOL     OW25387   1.889   3.603   4.857
 8163SOL    HW125388   1.979   3.567   4.834
 8163SOL    HW225389   1.841   3.539   4.917
 8164SOL     OW25390   4.771   2.369   2.937
 8164SOL    HW125391   4.743   2.344   2.845
 8164SOL    HW225392   4.697   2.419   2.983
 8165SOL     OW25393   2.358   4.898   1.248
 8165SOL    HW125394   2.296   4.944   1.311
 8165SOL    HW225395   2.305   4.852   1.177
 8166SOL     OW25396   3.496   6.667   1.231
 8166SOL    HW125397   3.416   6.673   1.290
 8166SOL    HW225398   3.476   6.609   1.153
 8167SOL     OW25399   5.441   3.355   4.203
 8167SOL    HW125400   5.345   3.373   4.225
 8167SOL    HW225401   5.449   3.328   4.107
 8168SOL     OW25402   3.449   2.127   2.768
 8168SOL    HW125403   3.356   2.092   2.772
 8168SOL    HW225404   3.481   2.125   2.673
 8169SOL     OW25405   5.579   4.335   5.362
 8169SOL    HW125406   5.654   4.286   5.405
 8169SOL    HW225407   5.552   4.287   5.279
 8170SOL     OW25408   1.458   4.742   4.226
 8170SOL    HW125409   1.442   4.651   4.187
 8170SOL    HW225410   1.435   4.812   4.158
 8171SOL     OW25411   1.724   1.598   5.902
 8171SOL    HW125412   1.758   1.687   5.933
 8171SOL    HW225413   1.796   1.551   5.850
 8172SOL     OW25414   0.073   6.045   1.658
 8172SOL    HW125415   0.127   6.105   1.598
 8172SOL    HW225416   0.080   5.951   1.625
 8173SOL     OW25417   5.803   2.399   6.675
 8173SOL    HW125418   5.852   2.312   6.677
 8173SOL    HW225419   5.853   2.464   6.618
 8174SOL     OW25420   5.540   6.956   2.153
 8174SOL    HW125421   5.632   6.982   2.121
 8174SOL    HW225422   5.492   0.013   2.184
 8175SOL     OW25423   1.719   2.981   5.036
 8175SOL    HW125424   1.701   3.041   5.114
 8175SOL    HW225425   1.795   3.018   4.982
 8176SOL     OW25426   4.191   5.073   3.015
 8176SOL    HW125427   4.095   5.082   3.041
 8176SOL    HW225428   4.204   5.110   2.923
 8177SOL     OW25429   1.048   0.107   5.726
 8177SOL    HW125430   1.062   0.204   5.747
 8177SOL    HW225431   1.049   0.054   5.811
 8178SOL     OW25432   1.880   6.698   6.112
 8178SOL    HW125433   1.926   6.615   6.143
 8178SOL    HW225434   1.937   6.744   6.044
 8179SOL     OW25435   3.553   0.521   0.103
 8179SOL    HW125436   3.470   0.504   0.157
 8179SOL    HW225437   3.621   0.565   0.160
 8180SOL     OW25438   4.688   4.852   5.399
 8180SOL    HW125439   4.679   4.832   5.301
 8180SOL    HW225440   4.783   4.839   5.427
 8181SOL     OW25441   2.642   2.182   2.676
 8181SOL    HW125442   2.614   2.271   2.712
 8181SOL    HW225443   2.593   2.109   2.726
 8182SOL     OW25444   5.430   2.661   6.184
 8182SOL    HW125445   5.411   2.576   6.134
 8182SOL    HW225446   5.528   2.669   6.200
 8183SOL     OW25447   2.088   2.847   4.054
 8183SOL    HW125448   2.024   2.905   4.003
 8183SOL    HW225449   2.161   2.816   3.992
 8184SOL     OW25450   5.555   6.083   5.099
 8184SOL    HW125451   5.549   6.030   5.184
 8184SOL    HW225452   5.580   6.022   5.024
 8185SOL     OW25453   1.637   2.009   2.768
 8185SOL    HW125454   1.679   2.009   2.677
 8185SOL    HW225455   1.590   2.096   2.782
 8186SOL     OW25456   3.988   4.417   6.101
 8186SOL    HW125457   4.031   4.410   6.191
 8186SOL    HW225458   3.901   4.367   6.102
 8187SOL     OW25459   1.870   1.042   5.952
 8187SOL    HW125460   1.933   0.972   5.985
 8187SOL    HW225461   1.847   1.025   5.856
 8188SOL     OW25462   5.653   3.182   2.762
 8188SOL    HW125463   5.687   3.198   2.670
 8188SOL    HW225464   5.696   3.100   2.801
 8189SOL     OW25465   6.985   4.977   3.106
 8189SOL    HW125466   6.995   4.882   3.137
 8189SOL    HW225467   6.903   5.017   3.146
 8190SOL     OW25468   5.310   3.478   2.389
 8190SOL    HW125469   5.371   3.403   2.365
 8190SOL    HW225470   5.340   3.561   2.342
 8191SOL     OW25471   0.431   5.095   1.893
 8191SOL    HW125472   0.397   5.185   1.919
 8191SOL    HW225473   0.469   5.099   1.800
 8192SOL     OW25474   1.560   3.122   0.719
 8192SOL    HW125475   1.484   3.185   0.733
 8192SOL    HW225476   1.535   3.031   0.751
 8193SOL     OW25477   3.640   0.337   5.587
 8193SOL    HW125478   3.541   0.340   5.599
 8193SOL    HW225479   3.684   0.384   5.664
 8194SOL     OW25480   1.939   0.242   1.545
 8194SOL    HW125481   2.016   0.177   1.548
 8194SOL    HW225482   1.853   0.191   1.547
 8195SOL     OW25483   5.353   0.803   1.069
 8195SOL    HW125484   5.288   0.741   1.113
 8195SOL    HW225485   5.352   0.891   1.117
 8196SOL     OW25486   1.767   0.495   6.773
 8196SOL    HW125487   1.782   0.427   6.845
 8196SOL    HW225488   1.850   0.548   6.760
 8197SOL     OW25489   0.780   6.740   0.830
 8197SOL    HW125490   0.824   6.784   0.908
 8197SOL    HW225491   0.797   6.641   0.834
 8198SOL     OW25492   3.469   0.506   2.638
 8198SOL    HW125493   3.443   0.545   2.727
 8198SOL    HW225494   3.568   0.513   2.627
 8199SOL     OW25495   5.788   4.353   0.116
 8199SOL    HW125496   5.778   4.261   0.153
 8199SOL    HW225497   5.841   4.409   0.179
 8200SOL     OW25498   4.318   3.255   1.532
 8200SOL    HW125499   4.364   3.168   1.543
 8200SOL    HW225500   4.383   3.323   1.497
 8201SOL     OW25501   6.379   0.820   4.592
 8201SOL    HW125502   6.342   0.862   4.676
 8201SOL    HW225503   6.429   0.889   4.540
 8202SOL     OW25504   1.862   4.178   3.895
 8202SOL    HW125505   1.874   4.277   3.882
 8202SOL    HW225506   1.859   4.159   3.993
 8203SOL     OW25507   5.789   4.120   0.255
 8203SOL    HW125508   5.880   4.078   0.253
 8203SOL    HW225509   5.783   4.183   0.333
 8204SOL     OW25510   3.311   0.207   0.853
 8204SOL    HW125511   3.300   0.169   0.945
 8204SOL    HW225512   3.266   0.296   0.848
 8205SOL     OW25513   5.683   5.896   2.793
 8205SOL    HW125514   5.607   5.837   2.819
 8205SOL    HW225515   5.700   5.887   2.695
 8206SOL     OW25516   4.362   1.734   4.210
 8206SOL    HW125517   4.457   1.717   4.186
 8206SOL    HW225518   4.324   1.653   4.256
 8207SOL     OW25519   3.271   5.772   6.735
 8207SOL    HW125520   3.207   5.842   6.767
 8207SOL    HW225521   3.263   5.691   6.793
 8208SOL     OW25522   1.532   5.833   0.112
 8208SOL    HW125523   1.554   5.791   0.024
 8208SOL    HW225524   1.476   5.914   0.097
 8209SOL     OW25525   1.370   5.968   5.174
 8209SOL    HW125526   1.405   6.049   5.222
 8209SOL    HW225527   1.278   5.986   5.140
 8210SOL     OW25528   2.208   1.956   0.135
 8210SOL    HW125529   2.169   1.875   0.092
 8210SOL    HW225530   2.134   2.017   0.166
 8211SOL     OW25531   3.664   3.810   4.170
 8211SOL    HW125532   3.651   3.905   4.197
 8211SOL    HW225533   3.718   3.763   4.240
 8212SOL     OW25534   3.691   5.526   0.318
 8212SOL    HW125535   3.790   5.516   0.314
 8212SOL    HW225536   3.651   5.451   0.370
 8213SOL     OW25537   4.522   4.287   1.595
 8213SOL    HW125538   4.482   4.272   1.686
 8213SOL    HW225539   4.593   4.357   1.602
 8214SOL     OW25540   4.112   5.665   2.864
 8214SOL    HW125541   4.115   5.765   2.865
 8214SOL    HW225542   4.020   5.635   2.835
 8215SOL     OW25543   2.241   6.375   6.379
 8215SOL    HW125544   2.297   6.360   6.461
 8215SOL    HW225545   2.148   6.400   6.406
 8216SOL     OW25546   5.606   5.983   1.668
 8216SOL    HW125547   5.647   5.938   1.589
 8216SOL    HW225548   5.585   6.078   1.645
 8217SOL     OW25549   3.523   6.419   4.155
 8217SOL    HW125550   3.553   6.491   4.093
 8217SOL    HW225551   3.548   6.329   4.117
 8218SOL     OW25552   2.322   5.975   4.889
 8218SOL    HW125553   2.239   5.943   4.844
 8218SOL    HW225554   2.380   6.022   4.822
 8219SOL     OW25555   3.978   3.098   2.303
 8219SOL    HW125556   4.019   3.174   2.253
 8219SOL    HW225557   3.936   3.035   2.239
 8220SOL     OW25558   3.498   4.228   5.363
 8220SOL    HW125559   3.469   4.210   5.269
 8220SOL    HW225560   3.464   4.318   5.391
 8221SOL     OW25561   6.156   3.939   4.170
 8221SOL    HW125562   6.134   4.032   4.200
 8221SOL    HW225563   6.224   3.899   4.232
 8222SOL     OW25564   6.174   2.411   0.129
 8222SOL    HW125565   6.095   2.350   0.120
 8222SOL    HW225566   6.192   2.455   0.041
 8223SOL     OW25567   2.250   6.165   5.718
 8223SOL    HW125568   2.217   6.120   5.634
 8223SOL    HW225569   2.346   6.191   5.705
 8224SOL     OW25570   4.913   1.388   6.784
 8224SOL    HW125571   4.997   1.420   6.828
 8224SOL    HW225572   4.919   1.289   6.770
 8225SOL     OW25573   5.709   3.132   0.151
 8225SOL    HW125574   5.613   3.103   0.159
 8225SOL    HW225575   5.768   3.059   0.184
 8226SOL     OW25576   3.941   0.947   6.875
 8226SOL    HW125577   3.873   0.880   6.904
 8226SOL    HW225578   3.895   1.030   6.843
 8227SOL     OW25579   4.682   2.635   3.183
 8227SOL    HW125580   4.710   2.710   3.123
 8227SOL    HW225581   4.602   2.590   3.145
 8228SOL     OW25582   3.068   6.754   5.236
 8228SOL    HW125583   3.082   6.655   5.226
 8228SOL    HW225584   3.157   6.800   5.239
 8229SOL     OW25585   4.450   4.633   0.974
 8229SOL    HW125586   4.456   4.646   0.875
 8229SOL    HW225587   4.394   4.552   0.993
 8230SOL     OW25588   6.283   0.883   5.607
 8230SOL    HW125589   6.358   0.833   5.564
 8230SOL    HW225590   6.206   0.890   5.542
 8231SOL     OW25591   3.077   1.141   2.326
 8231SOL    HW125592   3.125   1.224   2.299
 8231SOL    HW225593   3.143   1.066   2.334
 8232SOL     OW25594   3.802   6.291   3.119
 8232SOL    HW125595   3.876   6.265   3.057
 8232SOL    HW225596   3.830   6.275   3.214
 8233SOL     OW25597   1.825   1.278   6.650
 8233SOL    HW125598   1.870   1.257   6.563
 8233SOL    HW225599   1.894   1.285   6.722
 8234SOL     OW25600   0.960   2.920   0.577
 8234SOL    HW125601   0.886   2.861   0.545
 8234SOL    HW225602   1.037   2.914   0.513
 8235SOL     OW25603   0.823   1.009   1.407
 8235SOL    HW125604   0.922   1.004   1.390
 8235SOL    HW225605   0.807   1.029   1.504
 8236SOL     OW25606   0.475   0.468   2.012
 8236SOL    HW125607   0.555   0.455   1.953
 8236SOL    HW225608   0.393   0.439   1.963
 8237SOL     OW25609   3.803   4.806   5.276
 8237SOL    HW125610   3.770   4.821   5.369
 8237SOL    HW225611   3.774   4.716   5.245
 8238SOL     OW25612   0.503   5.330   0.719
 8238SOL    HW125613   0.506   5.241   0.766
 8238SOL    HW225614   0.463   5.398   0.780
 8239SOL     OW25615   3.069   1.620   5.871
 8239SOL    HW125616   3.006   1.689   5.833
 8239SOL    HW225617   3.092   1.554   5.800
 8240SOL     OW25618   3.673   3.219   4.999
 8240SOL    HW125619   3.623   3.214   4.913
 8240SOL    HW225620   3.688   3.314   5.024
 8241SOL     OW25621   1.365   3.533   5.624
 8241SOL    HW125622   1.426   3.458   5.649
 8241SOL    HW225623   1.272   3.499   5.612
 8242SOL     OW25624   0.553   2.687   2.317
 8242SOL    HW125625   0.563   2.752   2.392
 8242SOL    HW225626   0.526   2.736   2.234
 8243SOL     OW25627   1.160   6.539   3.832
 8243SOL    HW125628   1.090   6.584   3.777
 8243SOL    HW225629   1.159   6.577   3.925
 8244SOL     OW25630   6.670   1.198   3.363
 8244SOL    HW125631   6.756   1.246   3.380
 8244SOL    HW225632   6.638   1.218   3.270
 8245SOL     OW25633   5.093   2.773   2.778
 8245SOL    HW125634   5.169   2.831   2.806
 8245SOL    HW225635   5.033   2.824   2.716
 8246SOL     OW25636   1.845   4.464   6.842
 8246SOL    HW125637   1.885   4.428   6.926
 8246SOL    HW225638   1.758   4.419   6.823
 8247SOL     OW25639   2.933   5.370   3.623
 8247SOL    HW125640   2.899   5.407   3.710
 8247SOL    HW225641   3.027   5.338   3.635
 8248SOL     OW25642   6.868   5.170   3.383
 8248SOL    HW125643   6.915   5.225   3.452
 8248SOL    HW225644   6.900   5.196   3.292
 8249SOL     OW25645   3.232   1.471   6.717
 8249SOL    HW125646   3.281   1.472   6.804
 8249SOL    HW225647   3.280   1.529   6.651
 8250SOL     OW25648   1.250   1.965   6.925
 8250SOL    HW125649   1.158   2.003   6.908
 8250SOL    HW225650   1.296   1.949   6.838
 8251SOL     OW25651   1.083   2.182   5.775
 8251SOL    HW125652   1.098   2.104   5.715
 8251SOL    HW225653   1.166   2.238   5.779
 8252SOL     OW25654   1.000   1.954   6.613
 8252SOL    HW125655   1.084   1.903   6.593
 8252SOL    HW225656   0.968   2.000   6.530
 8253SOL     OW25657   5.812   4.882   6.158
 8253SOL    HW125658   5.840   4.941   6.234
 8253SOL    HW225659   5.820   4.932   6.072
 8254SOL     OW25660   6.467   5.858   6.972
 8254SOL    HW125661   6.546   5.897   6.925
 8254SOL    HW225662   6.399   5.829   6.905
 8255SOL     OW25663   1.285   0.277   5.988
 8255SOL    HW125664   1.265   0.208   6.057
 8255SOL    HW225665   1.200   0.306   5.944
 8256SOL     OW25666   1.343   5.991   4.590
 8256SOL    HW125667   1.309   6.047   4.665
 8256SOL    HW225668   1.423   6.035   4.549
 8257SOL     OW25669   4.887   3.931   3.347
 8257SOL    HW125670   4.972   3.967   3.308
 8257SOL    HW225671   4.862   3.987   3.426
 8258SOL     OW25672   0.550   2.672   3.609
 8258SOL    HW125673   0.562   2.749   3.546
 8258SOL    HW225674   0.478   2.694   3.675
 8259SOL     OW25675   5.893   2.079   4.297
 8259SOL    HW125676   5.892   2.018   4.377
 8259SOL    HW225677   5.986   2.112   4.282
 8260SOL     OW25678   5.151   2.784   0.283
 8260SOL    HW125679   5.097   2.710   0.244
 8260SOL    HW225680   5.214   2.747   0.352
 8261SOL     OW25681   6.048   1.349   2.885
 8261SOL    HW125682   6.124   1.286   2.902
 8261SOL    HW225683   6.071   1.439   2.923
 8262SOL     OW25684   5.254   3.796   2.022
 8262SOL    HW125685   5.199   3.749   2.090
 8262SOL    HW225686   5.297   3.729   1.962
 8263SOL     OW25687   6.625   2.062   6.056
 8263SOL    HW125688   6.723   2.067   6.071
 8263SOL    HW225689   6.599   1.969   6.032
 8264SOL     OW25690   2.791   1.102   2.223
 8264SOL    HW125691   2.772   1.171   2.154
 8264SOL    HW225692   2.889   1.104   2.246
 8265SOL     OW25693   4.585   5.036   0.633
 8265SOL    HW125694   4.528   4.954   0.633
 8265SOL    HW225695   4.581   5.079   0.724
 8266SOL     OW25696   3.686   1.296   3.637
 8266SOL    HW125697   3.649   1.264   3.550
 8266SOL    HW225698   3.621   1.273   3.710
 8267SOL     OW25699   1.768   2.440   3.681
 8267SOL    HW125700   1.845   2.502   3.662
 8267SOL    HW225701   1.782   2.396   3.770
 8268SOL     OW25702   3.527   4.928   0.204
 8268SOL    HW125703   3.527   4.938   0.303
 8268SOL    HW225704   3.445   4.879   0.175
 8269SOL     OW25705   6.319   1.921   5.176
 8269SOL    HW125706   6.250   1.955   5.112
 8269SOL    HW225707   6.409   1.926   5.132
 8270SOL     OW25708   4.235   4.918   0.462
 8270SOL    HW125709   4.237   4.973   0.545
 8270SOL    HW225710   4.244   4.821   0.485
 8271SOL     OW25711   3.336   6.765   5.955
 8271SOL    HW125712   3.362   6.829   5.883
 8271SOL    HW225713   3.326   6.815   6.041
 8272SOL     OW25714   0.443   0.658   2.185
 8272SOL    HW125715   0.436   0.642   2.284
 8272SOL    HW225716   0.450   0.570   2.138
 8273SOL     OW25717   3.571   0.051   6.393
 8273SOL    HW125718   3.571   0.062   6.493
 8273SOL    HW225719   3.656   0.005   6.365
 8274SOL     OW25720   5.574   6.488   5.495
 8274SOL    HW125721   5.508   6.540   5.440
 8274SOL    HW225722   5.663   6.534   5.492
 8275SOL     OW25723   4.901   0.986   5.498
 8275SOL    HW125724   4.856   1.074   5.513
 8275SOL    HW225725   4.994   0.988   5.537
 8276SOL     OW25726   5.838   2.536   0.122
 8276SOL    HW125727   5.908   2.513   0.055
 8276SOL    HW225728   5.790   2.452   0.149
 8277SOL     OW25729   1.272   6.253   0.957
 8277SOL    HW125730   1.316   6.221   0.873
 8277SOL    HW225731   1.181   6.288   0.935
 8278SOL     OW25732   1.820   0.144   0.985
 8278SOL    HW125733   1.900   0.148   0.925
 8278SOL    HW225734   1.748   0.090   0.942
 8279SOL     OW25735   4.606   6.029   5.562
 8279SOL    HW125736   4.678   6.031   5.492
 8279SOL    HW225737   4.607   6.115   5.612
 8280SOL     OW25738   5.292   4.244   6.745
 8280SOL    HW125739   5.376   4.206   6.786
 8280SOL    HW225740   5.213   4.194   6.779
 8281SOL     OW25741   2.626   5.783   6.027
 8281SOL    HW125742   2.616   5.848   5.952
 8281SOL    HW225743   2.615   5.690   5.991
 8282SOL     OW25744   3.617   2.815   1.562
 8282SOL    HW125745   3.567   2.872   1.626
 8282SOL    HW225746   3.648   2.732   1.608
 8283SOL     OW25747   0.624   0.339   3.364
 8283SOL    HW125748   0.631   0.319   3.462
 8283SOL    HW225749   0.558   0.414   3.350
 8284SOL     OW25750   5.063   2.108   2.086
 8284SOL    HW125751   5.143   2.165   2.105
 8284SOL    HW225752   4.993   2.125   2.156
 8285SOL     OW25753   0.866   4.495   0.390
 8285SOL    HW125754   0.886   4.415   0.334
 8285SOL    HW225755   0.782   4.479   0.442
 8286SOL     OW25756   6.450   2.122   6.940
 8286SOL    HW125757   6.419   2.028   6.924
 8286SOL    HW225758   6.446   2.142   0.013
 8287SOL     OW25759   1.535   1.291   3.150
 8287SOL    HW125760   1.471   1.315   3.078
 8287SOL    HW225761   1.515   1.199   3.185
 8288SOL     OW25762   1.959   0.458   2.258
 8288SOL    HW125763   1.867   0.434   2.229
 8288SOL    HW225764   2.025   0.428   2.189
 8289SOL     OW25765   5.815   6.941   6.915
 8289SOL    HW125766   5.754   6.869   6.880
 8289SOL    HW225767   5.827   7.012   6.845
 8290SOL     OW25768   4.709   2.656   2.097
 8290SOL    HW125769   4.762   2.738   2.120
 8290SOL    HW225770   4.673   2.665   2.004
 8291SOL     OW25771   4.812   5.943   6.511
 8291SOL    HW125772   4.894   5.972   6.561
 8291SOL    HW225773   4.825   5.850   6.476
 8292SOL     OW25774   0.306   2.719   5.589
 8292SOL    HW125775   0.365   2.788   5.631
 8292SOL    HW225776   0.248   2.677   5.659
 8293SOL     OW25777   2.870   5.269   4.361
 8293SOL    HW125778   2.849   5.353   4.412
 8293SOL    HW225779   2.815   5.194   4.397
 8294SOL     OW25780   6.093   3.686   5.403
 8294SOL    HW125781   6.141   3.704   5.317
 8294SOL    HW225782   6.024   3.757   5.418
 8295SOL     OW25783   4.825   5.127   2.525
 8295SOL    HW125784   4.771   5.051   2.488
 8295SOL    HW225785   4.915   5.129   2.480
 8296SOL     OW25786   4.258   0.527   2.491
 8296SOL    HW125787   4.194   0.603   2.502
 8296SOL    HW225788   4.318   0.546   2.413
 8297SOL     OW25789   5.603   4.230   1.923
 8297SOL    HW125790   5.672   4.191   1.984
 8297SOL    HW225791   5.646   4.294   1.860
 8298SOL     OW25792   6.426   6.773   0.520
 8298SOL    HW125793   6.379   6.689   0.491
 8298SOL    HW225794   6.466   6.818   0.441
 8299SOL     OW25795   1.333   3.382   0.017
 8299SOL    HW125796   1.266   3.450   7.013
 8299SOL    HW225797   1.301   3.336   0.100
 8300SOL     OW25798   5.958   4.919   4.624
 8300SOL    HW125799   5.862   4.919   4.653
 8300SOL    HW225800   5.977   4.837   4.570
 8301SOL     OW25801   6.621   5.940   0.304
 8301SOL    HW125802   6.544   5.995   0.273
 8301SOL    HW225803   6.615   5.849   0.265
 8302SOL     OW25804   4.161   6.616   5.371
 8302SOL    HW125805   4.209   6.686   5.423
 8302SOL    HW225806   4.081   6.585   5.423
 8303SOL     OW25807   1.271   4.838   4.022
 8303SOL    HW125808   1.311   4.873   3.938
 8303SOL    HW225809   1.175   4.814   4.006
 8304SOL     OW25810   6.303   2.756   3.687
 8304SOL    HW125811   6.231   2.805   3.638
 8304SOL    HW225812   6.280   2.659   3.692
 8305SOL     OW25813   4.338   0.568   5.797
 8305SOL    HW125814   4.400   0.645   5.815
 8305SOL    HW225815   4.264   0.598   5.737
 8306SOL     OW25816   6.068   0.518   3.861
 8306SOL    HW125817   6.143   0.484   3.918
 8306SOL    HW225818   6.103   0.538   3.769
 8307SOL     OW25819   1.088   3.864   3.478
 8307SOL    HW125820   0.997   3.828   3.499
 8307SOL    HW225821   1.142   3.868   3.563
 8308SOL     OW25822   1.400   5.075   0.509
 8308SOL    HW125823   1.311   5.054   0.549
 8308SOL    HW225824   1.397   5.056   0.411
 8309SOL     OW25825   6.455   5.361   3.435
 8309SOL    HW125826   6.453   5.439   3.373
 8309SOL    HW225827   6.388   5.374   3.508
 8310SOL     OW25828   2.618   6.518   2.752
 8310SOL    HW125829   2.584   6.575   2.826
 8310SOL    HW225830   2.717   6.528   2.745
 8311SOL     OW25831   4.599   6.315   2.430
 8311SOL    HW125832   4.636   6.323   2.338
 8311SOL    HW225833   4.500   6.316   2.427
 8312SOL     OW25834   6.360   1.518   1.041
 8312SOL    HW125835   6.291   1.491   0.973
 8312SOL    HW225836   6.427   1.579   0.998
 8313SOL     OW25837   5.358   2.610   6.456
 8313SOL    HW125838   5.438   2.553   6.478
 8313SOL    HW225839   5.370   2.650   6.365
 8314SOL     OW25840   4.308   5.876   4.032
 8314SOL    HW125841   4.233   5.882   3.967
 8314SOL    HW225842   4.380   5.817   3.994
 8315SOL     OW25843   3.325   2.902   6.172
 8315SOL    HW125844   3.389   2.855   6.110
 8315SOL    HW225845   3.269   2.965   6.119
 8316SOL     OW25846   1.487   1.904   5.565
 8316SOL    HW125847   1.537   1.959   5.632
 8316SOL    HW225848   1.534   1.909   5.476
 8317SOL     OW25849   1.156   2.068   4.240
 8317SOL    HW125850   1.082   2.086   4.176
 8317SOL    HW225851   1.125   2.004   4.310
 8318SOL     OW25852   4.200   0.005   5.934
 8318SOL    HW125853   4.119   6.972   5.926
 8318SOL    HW225854   4.175   0.090   5.979
 8319SOL     OW25855   2.165   5.697   6.745
 8319SOL    HW125856   2.073   5.704   6.708
 8319SOL    HW225857   2.165   5.723   6.842
 8320SOL     OW25858   3.869   3.840   5.246
 8320SOL    HW125859   3.808   3.869   5.320
 8320SOL    HW225860   3.961   3.828   5.282
 8321SOL     OW25861   0.635   0.024   0.803
 8321SOL    HW125862   0.562   7.010   0.859
 8321SOL    HW225863   0.702   0.068   0.863
 8322SOL     OW25864   0.972   0.276   0.414
 8322SOL    HW125865   0.950   0.319   0.327
 8322SOL    HW225866   0.989   0.347   0.483
 8323SOL     OW25867   5.377   4.469   6.604
 8323SOL    HW125868   5.331   4.393   6.650
 8323SOL    HW225869   5.376   4.550   6.663
 8324SOL     OW25870   5.357   6.328   6.660
 8324SOL    HW125871   5.354   6.412   6.714
 8324SOL    HW225872   5.452   6.299   6.648
 8325SOL     OW25873   1.699   6.540   4.929
 8325SOL    HW125874   1.646   6.513   5.009
 8325SOL    HW225875   1.738   6.631   4.945
 8326SOL     OW25876   2.175   2.908   6.959
 8326SOL    HW125877   2.134   2.838   6.901
 8326SOL    HW225878   2.190   2.870   0.026
 8327SOL     OW25879   0.971   6.407   5.101
 8327SOL    HW125880   0.887   6.379   5.053
 8327SOL    HW225881   1.007   6.331   5.154
 8328SOL     OW25882   1.375   6.189   0.724
 8328SOL    HW125883   1.466   6.203   0.684
 8328SOL    HW225884   1.357   6.091   0.731
 8329SOL     OW25885   1.624   2.425   5.402
 8329SOL    HW125886   1.601   2.414   5.306
 8329SOL    HW225887   1.658   2.339   5.439
 8330SOL     OW25888   2.986   6.551   0.612
 8330SOL    HW125889   2.980   6.649   0.597
 8330SOL    HW225890   2.966   6.503   0.526
 8331SOL     OW25891   2.388   2.459   6.075
 8331SOL    HW125892   2.442   2.402   6.137
 8331SOL    HW225893   2.294   2.425   6.071
 8332SOL     OW25894   5.913   4.067   1.375
 8332SOL    HW125895   5.914   4.166   1.384
 8332SOL    HW225896   5.818   4.034   1.377
 8333SOL     OW25897   2.552   4.191   6.816
 8333SOL    HW125898   2.576   4.100   6.849
 8333SOL    HW225899   2.454   4.197   6.801
 8334SOL     OW25900   3.415   2.361   5.342
 8334SOL    HW125901   3.332   2.388   5.294
 8334SOL    HW225902   3.464   2.293   5.287
 8335SOL     OW25903   5.310   4.704   5.735
 8335SOL    HW125904   5.311   4.632   5.666
 8335SOL    HW225905   5.333   4.665   5.824
 8336SOL     OW25906   1.562   3.081   3.570
 8336SOL    HW125907   1.563   3.181   3.565
 8336SOL    HW225908   1.542   3.053   3.664
 8337SOL     OW25909   6.770   1.012   4.386
 8337SOL    HW125910   6.749   0.923   4.426
 8337SOL    HW225911   6.704   1.031   4.313
 8338SOL     OW25912   2.747   5.722   1.068
 8338SOL    HW125913   2.683   5.651   1.099
 8338SOL    HW225914   2.773   5.704   0.973
 8339SOL     OW25915   6.038   0.416   1.947
 8339SOL    HW125916   5.987   0.486   1.998
 8339SOL    HW225917   6.103   0.461   1.886
 8340SOL     OW25918   6.011   2.210   6.572
 8340SOL    HW125919   6.082   2.157   6.619
 8340SOL    HW225920   6.046   2.242   6.484
 8341SOL     OW25921   3.882   1.019   0.860
 8341SOL    HW125922   3.843   1.066   0.939
 8341SOL    HW225923   3.969   1.063   0.835
 8342SOL     OW25924   3.731   0.497   0.454
 8342SOL    HW125925   3.640   0.511   0.492
 8342SOL    HW225926   3.738   0.404   0.417
 8343SOL     OW25927   5.671   5.072   3.130
 8343SOL    HW125928   5.658   5.145   3.197
 8343SOL    HW225929   5.650   4.984   3.172
 8344SOL     OW25930   2.136   5.079   5.524
 8344SOL    HW125931   2.204   5.009   5.503
 8344SOL    HW225932   2.177   5.170   5.509
 8345SOL     OW25933   5.735   0.778   3.960
 8345SOL    HW125934   5.737   0.703   4.027
 8345SOL    HW225935   5.737   0.740   3.868
 8346SOL     OW25936   5.294   3.949   4.376
 8346SOL    HW125937   5.339   3.910   4.456
 8346SOL    HW225938   5.343   4.031   4.346
 8347SOL     OW25939   1.525   1.453   6.069
 8347SOL    HW125940   1.616   1.487   6.045
 8347SOL    HW225941   1.508   1.471   6.166
 8348SOL     OW25942   2.970   5.591   2.144
 8348SOL    HW125943   2.871   5.599   2.138
 8348SOL    HW225944   3.010   5.680   2.168
 8349SOL     OW25945   4.872   5.863   1.493
 8349SOL    HW125946   4.859   5.924   1.572
 8349SOL    HW225947   4.875   5.917   1.409
 8350SOL     OW25948   1.207   0.023   0.186
 8350SOL    HW125949   1.279   0.084   0.152
 8350SOL    HW225950   1.243   6.994   0.262
 8351SOL     OW25951   0.522   2.390   2.782
 8351SOL    HW125952   0.441   2.343   2.818
 8351SOL    HW225953   0.576   2.427   2.858
 8352SOL     OW25954   2.444   6.640   6.772
 8352SOL    HW125955   2.505   6.694   6.714
 8352SOL    HW225956   2.498   6.590   6.840
 8353SOL     OW25957   0.537   6.250   2.230
 8353SOL    HW125958   0.633   6.223   2.236
 8353SOL    HW225959   0.531   6.342   2.193
 8354SOL     OW25960   4.071   1.650   3.113
 8354SOL    HW125961   4.164   1.615   3.110
 8354SOL    HW225962   4.073   1.749   3.128
 8355SOL     OW25963   3.310   5.228   6.229
 8355SOL    HW125964   3.227   5.236   6.284
 8355SOL    HW225965   3.286   5.207   6.134
 8356SOL     OW25966   3.066   4.465   1.176
 8356SOL    HW125967   3.059   4.416   1.263
 8356SOL    HW225968   2.993   4.434   1.115
 8357SOL     OW25969   4.291   0.045   5.250
 8357SOL    HW125970   4.304   6.983   5.297
 8357SOL    HW225971   4.252   0.112   5.314
 8358SOL     OW25972   0.676   0.778   5.242
 8358SOL    HW125973   0.602   0.841   5.268
 8358SOL    HW225974   0.758   0.831   5.222
 8359SOL     OW25975   4.454   2.344   5.662
 8359SOL    HW125976   4.451   2.417   5.730
 8359SOL    HW225977   4.548   2.313   5.650
 8360SOL     OW25978   4.002   0.087   1.381
 8360SOL    HW125979   4.045   0.066   1.469
 8360SOL    HW225980   4.069   0.077   1.308
 8361SOL     OW25981   4.553   1.422   0.145
 8361SOL    HW125982   4.499   1.453   0.223
 8361SOL    HW225983   4.523   1.470   0.063
 8362SOL     OW25984   6.723   3.403   1.309
 8362SOL    HW125985   6.646   3.425   1.368
 8362SOL    HW225986   6.711   3.449   1.221
 8363SOL     OW25987   1.770   2.657   1.319
 8363SOL    HW125988   1.746   2.561   1.306
 8363SOL    HW225989   1.692   2.714   1.293
 8364SOL     OW25990   0.353   2.267   4.243
 8364SOL    HW125991   0.289   2.342   4.227
 8364SOL    HW225992   0.335   2.193   4.179
 8365SOL     OW25993   1.365   1.991   1.324
 8365SOL    HW125994   1.386   2.070   1.381
 8365SOL    HW225995   1.433   1.983   1.251
 8366SOL     OW25996   5.557   5.431   2.011
 8366SOL    HW125997   5.477   5.419   1.952
 8366SOL    HW225998   5.593   5.524   2.000
 8367SOL     OW25999   1.922   4.585   3.641
 8367SOL    HW126000   2.019   4.565   3.637
 8367SOL    HW226001   1.885   4.591   3.548
 8368SOL     OW26002   6.185   5.365   5.613
 8368SOL    HW126003   6.120   5.392   5.683
 8368SOL    HW226004   6.141   5.369   5.523
 8369SOL     OW26005   1.734   6.800   0.252
 8369SOL    HW126006   1.830   6.828   0.251
 8369SOL    HW226007   1.727   6.705   0.280
 8370SOL     OW26008   3.100   3.127   0.955
 8370SOL    HW126009   3.066   3.033   0.949
 8370SOL    HW226010   3.154   3.138   1.038
 8371SOL     OW26011   2.647   3.903   6.441
 8371SOL    HW126012   2.732   3.895   6.494
 8371SOL    HW226013   2.574   3.935   6.501
 8372SOL     OW26014   1.260   6.082   1.181
 8372SOL    HW126015   1.256   6.134   1.266
 8372SOL    HW226016   1.259   6.145   1.103
 8373SOL     OW26017   6.767   1.029   3.943
 8373SOL    HW126018   6.711   1.086   4.004
 8373SOL    HW226019   6.731   0.936   3.942
 8374SOL     OW26020   0.542   1.251   3.881
 8374SOL    HW126021   0.482   1.295   3.948
 8374SOL    HW226022   0.576   1.165   3.919
 8375SOL     OW26023   1.585   2.443   5.148
 8375SOL    HW126024   1.603   2.393   5.064
 8375SOL    HW226025   1.508   2.506   5.134
 8376SOL     OW26026   1.350   1.840   3.681
 8376SOL    HW126027   1.449   1.843   3.670
 8376SOL    HW226028   1.328   1.817   3.776
 8377SOL     OW26029   4.034   5.745   6.883
 8377SOL    HW126030   3.974   5.799   6.825
 8377SOL    HW226031   4.065   5.663   6.834
 8378SOL     OW26032   4.499   5.817   4.714
 8378SOL    HW126033   4.485   5.779   4.623
 8378SOL    HW226034   4.589   5.862   4.718
 8379SOL     OW26035   6.231   2.042   1.743
 8379SOL    HW126036   6.230   2.119   1.679
 8379SOL    HW226037   6.226   1.957   1.692
 8380SOL     OW26038   0.707   6.154   1.488
 8380SOL    HW126039   0.680   6.126   1.396
 8380SOL    HW226040   0.739   6.074   1.538
 8381SOL     OW26041   0.931   1.783   2.595
 8381SOL    HW126042   1.015   1.836   2.582
 8381SOL    HW226043   0.863   1.839   2.642
 8382SOL     OW26044   0.950   0.145   1.921
 8382SOL    HW126045   0.894   0.118   1.843
 8382SOL    HW226046   0.985   0.237   1.907
 8383SOL     OW26047   2.888   7.015   6.135
 8383SOL    HW126048   2.934   6.965   6.209
 8383SOL    HW226049   2.950   7.022   6.057
 8384SOL     OW26050   0.444   3.817   2.600
 8384SOL    HW126051   0.403   3.785   2.515
 8384SOL    HW226052   0.391   3.894   2.636
 8385SOL     OW26053   4.100   2.211   1.928
 8385SOL    HW126054   4.184   2.164   1.901
 8385SOL    HW226055   4.054   2.248   1.847
 8386SOL     OW26056   2.335   5.640   1.873
 8386SOL    HW126057   2.241   5.669   1.890
 8386SOL    HW226058   2.337   5.543   1.852
 8387SOL     OW26059   0.855   1.419   3.683
 8387SOL    HW126060   0.798   1.337   3.681
 8387SOL    HW226061   0.811   1.490   3.737
 8388SOL     OW26062   3.930   5.215   1.029
 8388SOL    HW126063   3.931   5.119   1.057
 8388SOL    HW226064   3.942   5.273   1.109
 8389SOL     OW26065   0.729   2.784   3.800
 8389SOL    HW126066   0.694   2.714   3.737
 8389SOL    HW226067   0.823   2.761   3.826
 8390SOL     OW26068   2.801   0.486   6.249
 8390SOL    HW126069   2.867   0.420   6.214
 8390SOL    HW226070   2.709   0.447   6.245
 8391SOL     OW26071   5.516   6.122   0.665
 8391SOL    HW126072   5.448   6.131   0.592
 8391SOL    HW226073   5.485   6.054   0.731
 8392SOL     OW26074   4.665   6.068   0.179
 8392SOL    HW126075   4.568   6.086   0.164
 8392SOL    HW226076   4.677   5.974   0.211
 8393SOL     OW26077   0.418   4.839   2.517
 8393SOL    HW126078   0.321   4.813   2.515
 8393SOL    HW226079   0.442   4.870   2.609
 8394SOL     OW26080   1.365   1.599   2.772
 8394SOL    HW126081   1.340   1.573   2.679
 8394SOL    HW226082   1.306   1.673   2.803
 8395SOL     OW26083   0.910   6.368   5.699
 8395SOL    HW126084   0.853   6.376   5.618
 8395SOL    HW226085   0.859   6.321   5.772
 8396SOL     OW26086   4.299   2.409   1.755
 8396SOL    HW126087   4.238   2.482   1.787
 8396SOL    HW226088   4.311   2.416   1.656
 8397SOL     OW26089   2.288   5.446   3.990
 8397SOL    HW126090   2.227   5.415   4.063
 8397SOL    HW226091   2.320   5.368   3.937
 8398SOL     OW26092   5.743   1.486   0.279
 8398SOL    HW126093   5.720   1.508   0.184
 8398SOL    HW226094   5.660   1.491   0.335
 8399SOL     OW26095   5.579   5.878   6.662
 8399SOL    HW126096   5.495   5.826   6.651
 8399SOL    HW226097   5.633   5.874   6.578
 8400SOL     OW26098   6.283   6.826   4.170
 8400SOL    HW126099   6.351   6.897   4.187
 8400SOL    HW226100   6.206   6.836   4.234
 8401SOL     OW26101   2.820   3.952   5.719
 8401SOL    HW126102   2.726   3.922   5.705
 8401SOL    HW226103   2.865   3.965   5.630
 8402SOL     OW26104   4.590   0.886   5.722
 8402SOL    HW126105   4.609   0.810   5.660
 8402SOL    HW226106   4.553   0.850   5.808
 8403SOL     OW26107   1.072   2.561   4.938
 8403SOL    HW126108   0.983   2.521   4.958
 8403SOL    HW226109   1.094   2.548   4.842
 8404SOL     OW26110   4.572   5.089   5.140
 8404SOL    HW126111   4.501   5.140   5.090
 8404SOL    HW226112   4.606   5.145   5.215
 8405SOL     OW26113   1.661   2.725   4.939
 8405SOL    HW126114   1.689   2.646   4.994
 8405SOL    HW226115   1.673   2.809   4.991
 8406SOL     OW26116   5.586   3.408   1.243
 8406SOL    HW126117   5.643   3.325   1.246
 8406SOL    HW226118   5.590   3.448   1.152
 8407SOL     OW26119   4.939   3.710   2.949
 8407SOL    HW126120   4.896   3.673   2.867
 8407SOL    HW226121   4.922   3.808   2.954
 8408SOL     OW26122   4.600   4.505   4.240
 8408SOL    HW126123   4.547   4.479   4.160
 8408SOL    HW226124   4.623   4.423   4.293
 8409SOL     OW26125   0.496   1.991   3.754
 8409SOL    HW126126   0.446   1.948   3.679
 8409SOL    HW226127   0.544   2.072   3.720
 8410SOL     OW26128   2.613   6.255   2.657
 8410SOL    HW126129   2.612   6.344   2.704
 8410SOL    HW226130   2.519   6.227   2.639
 8411SOL     OW26131   1.874   3.291   3.413
 8411SOL    HW126132   1.924   3.235   3.479
 8411SOL    HW226133   1.818   3.232   3.355
 8412SOL     OW26134   6.032   2.663   2.723
 8412SOL    HW126135   6.130   2.658   2.737
 8412SOL    HW226136   6.002   2.758   2.729
 8413SOL     OW26137   2.637   4.737   1.278
 8413SOL    HW126138   2.677   4.753   1.368
 8413SOL    HW226139   2.546   4.779   1.273
 8414SOL     OW26140   5.838   6.989   3.176
 8414SOL    HW126141   5.930   6.978   3.138
 8414SOL    HW226142   5.771   6.952   3.112
 8415SOL     OW26143   6.533   3.808   2.143
 8415SOL    HW126144   6.496   3.887   2.095
 8415SOL    HW226145   6.568   3.837   2.233
 8416SOL     OW26146   4.645   4.216   2.379
 8416SOL    HW126147   4.588   4.257   2.308
 8416SOL    HW226148   4.654   4.118   2.362
 8417SOL     OW26149   2.360   6.007   6.706
 8417SOL    HW126150   2.338   5.938   6.637
 8417SOL    HW226151   2.277   6.056   6.731
 8418SOL     OW26152   6.228   5.428   2.674
 8418SOL    HW126153   6.160   5.374   2.626
 8418SOL    HW226154   6.247   5.388   2.763
 8419SOL     OW26155   4.989   0.384   3.932
 8419SOL    HW126156   5.084   0.402   3.910
 8419SOL    HW226157   4.941   0.470   3.946
 8420SOL     OW26158   3.988   2.029   5.548
 8420SOL    HW126159   3.934   1.959   5.502
 8420SOL    HW226160   3.926   2.094   5.594
 8421SOL     OW26161   0.185   0.169   0.973
 8421SOL    HW126162   0.242   0.240   0.931
 8421SOL    HW226163   0.196   0.171   1.072
 8422SOL     OW26164   4.257   0.189   1.512
 8422SOL    HW126165   4.270   0.265   1.575
 8422SOL    HW226166   4.329   0.191   1.443
 8423SOL     OW26167   1.949   3.474   1.633
 8423SOL    HW126168   1.854   3.444   1.621
 8423SOL    HW226169   1.976   3.529   1.554
 8424SOL     OW26170   2.701   2.254   2.251
 8424SOL    HW126171   2.762   2.239   2.173
 8424SOL    HW226172   2.704   2.350   2.278
 8425SOL     OW26173   6.357   4.693   6.347
 8425SOL    HW126174   6.451   4.660   6.342
 8425SOL    HW226175   6.342   4.736   6.436
 8426SOL     OW26176   3.749   3.644   2.649
 8426SOL    HW126177   3.801   3.587   2.713
 8426SOL    HW226178   3.734   3.734   2.690
 8427SOL     OW26179   1.992   2.721   6.849
 8427SOL    HW126180   1.980   2.688   6.942
 8427SOL    HW226181   1.913   2.774   6.820
 8428SOL     OW26182   6.207   4.427   1.421
 8428SOL    HW126183   6.267   4.490   1.373
 8428SOL    HW226184   6.238   4.333   1.406
 8429SOL     OW26185   2.154   6.922   3.017
 8429SOL    HW126186   2.115   6.863   2.946
 8429SOL    HW226187   2.199   7.000   2.973
 8430SOL     OW26188   5.088   4.151   2.860
 8430SOL    HW126189   5.158   4.148   2.932
 8430SOL    HW226190   5.111   4.084   2.789
 8431SOL     OW26191   2.787   3.496   1.741
 8431SOL    HW126192   2.842   3.442   1.678
 8431SOL    HW226193   2.693   3.462   1.741
 8432SOL     OW26194   4.889   6.429   6.896
 8432SOL    HW126195   4.978   6.471   6.915
 8432SOL    HW226196   4.841   6.415   6.983
 8433SOL     OW26197   0.644   1.954   3.979
 8433SOL    HW126198   0.578   1.950   3.904
 8433SOL    HW226199   0.683   2.046   3.984
 8434SOL     OW26200   5.552   6.029   6.290
 8434SOL    HW126201   5.568   6.012   6.193
 8434SOL    HW226202   5.457   6.007   6.312
 8435SOL     OW26203   4.780   2.355   2.056
 8435SOL    HW126204   4.861   2.368   2.114
 8435SOL    HW226205   4.738   2.445   2.038
 8436SOL     OW26206   2.962   4.315   1.716
 8436SOL    HW126207   2.948   4.231   1.770
 8436SOL    HW226208   2.966   4.393   1.778
 8437SOL     OW26209   7.016   1.627   1.112
 8437SOL    HW126210   0.037   1.684   1.044
 8437SOL    HW226211   0.057   1.591   1.177
 8438SOL     OW26212   2.193   6.081   1.051
 8438SOL    HW126213   2.253   6.156   1.076
 8438SOL    HW226214   2.128   6.111   0.981
 8439SOL     OW26215   6.435   0.276   2.317
 8439SOL    HW126216   6.478   0.189   2.340
 8439SOL    HW226217   6.488   0.323   2.247
 8440SOL     OW26218   0.193   2.660   4.419
 8440SOL    HW126219   0.106   2.687   4.459
 8440SOL    HW226220   0.261   2.731   4.436
 8441SOL     OW26221   4.138   5.560   2.054
 8441SOL    HW126222   4.236   5.546   2.036
 8441SOL    HW226223   4.123   5.655   2.081
 8442SOL     OW26224   2.140   2.852   0.393
 8442SOL    HW126225   2.059   2.855   0.452
 8442SOL    HW226226   2.116   2.810   0.306
 8443SOL     OW26227   0.971   1.915   1.911
 8443SOL    HW126228   0.953   1.888   2.005
 8443SOL    HW226229   0.885   1.914   1.859
 8444SOL     OW26230   4.722   1.551   2.804
 8444SOL    HW126231   4.635   1.582   2.843
 8444SOL    HW226232   4.790   1.624   2.812
 8445SOL     OW26233   4.662   5.540   1.936
 8445SOL    HW126234   4.622   5.612   1.992
 8445SOL    HW226235   4.693   5.579   1.849
 8446SOL     OW26236   6.439   4.073   2.932
 8446SOL    HW126237   6.536   4.098   2.925
 8446SOL    HW226238   6.431   3.982   2.974
 8447SOL     OW26239   4.483   3.038   1.404
 8447SOL    HW126240   4.548   3.020   1.329
 8447SOL    HW226241   4.390   3.036   1.368
 8448SOL     OW26242   1.719   3.364   5.935
 8448SOL    HW126243   1.726   3.279   5.883
 8448SOL    HW226244   1.642   3.357   5.999
 8449SOL     OW26245   1.021   1.550   4.310
 8449SOL    HW126246   1.032   1.562   4.409
 8449SOL    HW226247   1.105   1.510   4.272
 8450SOL     OW26248   1.989   5.192   1.553
 8450SOL    HW126249   1.904   5.240   1.531
 8450SOL    HW226250   2.065   5.257   1.552
 8451SOL     OW26251   4.045   2.683   0.101
 8451SOL    HW126252   4.097   2.690   0.187
 8451SOL    HW226253   3.974   2.613   0.111
 8452SOL     OW26254   0.372   5.545   2.004
 8452SOL    HW126255   0.376   5.509   2.097
 8452SOL    HW226256   0.291   5.603   1.994
 8453SOL     OW26257   6.503   5.445   5.275
 8453SOL    HW126258   6.467   5.428   5.367
 8453SOL    HW226259   6.428   5.442   5.209
 8454SOL     OW26260   2.178   6.538   4.564
 8454SOL    HW126261   2.154   6.631   4.592
 8454SOL    HW226262   2.094   6.483   4.555
 8455SOL     OW26263   5.846   2.565   0.585
 8455SOL    HW126264   5.926   2.510   0.609
 8455SOL    HW226265   5.797   2.522   0.509
 8456SOL     OW26266   5.280   5.568   3.363
 8456SOL    HW126267   5.279   5.596   3.459
 8456SOL    HW226268   5.193   5.593   3.320
 8457SOL     OW26269   6.354   6.051   6.165
 8457SOL    HW126270   6.413   5.991   6.111
 8457SOL    HW226271   6.408   6.098   6.234
 8458SOL     OW26272   1.599   2.133   0.976
 8458SOL    HW126273   1.664   2.146   0.900
 8458SOL    HW226274   1.515   2.184   0.957
 8459SOL     OW26275   2.479   5.684   2.820
 8459SOL    HW126276   2.418   5.700   2.743
 8459SOL    HW226277   2.485   5.766   2.876
 8460SOL     OW26278   3.939   1.455   0.663
 8460SOL    HW126279   3.903   1.528   0.721
 8460SOL    HW226280   3.869   1.427   0.597
 8461SOL     OW26281   4.958   4.260   3.196
 8461SOL    HW126282   5.042   4.207   3.189
 8461SOL    HW226283   4.879   4.199   3.189
 8462SOL     OW26284   2.315   4.165   0.681
 8462SOL    HW126285   2.273   4.164   0.772
 8462SOL    HW226286   2.246   4.188   0.612
 8463SOL     OW26287   6.448   0.593   0.311
 8463SOL    HW126288   6.425   0.645   0.394
 8463SOL    HW226289   6.541   0.617   0.282
 8464SOL     OW26290   6.561   3.847   6.487
 8464SOL    HW126291   6.579   3.791   6.569
 8464SOL    HW226292   6.589   3.796   6.406
 8465SOL     OW26293   4.889   3.347   0.841
 8465SOL    HW126294   4.856   3.364   0.748
 8465SOL    HW226295   4.829   3.281   0.885
 8466SOL     OW26296   0.668   1.126   5.298
 8466SOL    HW126297   0.668   1.208   5.355
 8466SOL    HW226298   0.625   1.051   5.349
 8467SOL     OW26299   3.451   1.529   0.285
 8467SOL    HW126300   3.376   1.502   0.225
 8467SOL    HW226301   3.440   1.625   0.312
 8468SOL     OW26302   5.880   3.669   6.765
 8468SOL    HW126303   5.811   3.673   6.837
 8468SOL    HW226304   5.865   3.588   6.708
 8469SOL     OW26305   3.858   3.411   5.333
 8469SOL    HW126306   3.955   3.405   5.357
 8469SOL    HW226307   3.819   3.319   5.330
 8470SOL     OW26308   1.594   4.971   1.455
 8470SOL    HW126309   1.545   4.905   1.513
 8470SOL    HW226310   1.690   4.975   1.484
 8471SOL     OW26311   4.226   1.499   4.354
 8471SOL    HW126312   4.301   1.433   4.344
 8471SOL    HW226313   4.139   1.455   4.333
 8472SOL     OW26314   5.782   1.850   6.510
 8472SOL    HW126315   5.740   1.918   6.571
 8472SOL    HW226316   5.791   1.763   6.559
 8473SOL     OW26317   5.340   4.863   6.161
 8473SOL    HW126318   5.297   4.846   6.073
 8473SOL    HW226319   5.271   4.898   6.225
 8474SOL     OW26320   3.157   3.994   4.637
 8474SOL    HW126321   3.147   3.996   4.736
 8474SOL    HW226322   3.072   3.963   4.595
 8475SOL     OW26323   6.677   1.947   3.165
 8475SOL    HW126324   6.729   1.968   3.082
 8475SOL    HW226325   6.725   1.984   3.244
 8476SOL     OW26326   5.836   1.139   1.685
 8476SOL    HW126327   5.875   1.111   1.598
 8476SOL    HW226328   5.764   1.207   1.669
 8477SOL     OW26329   5.674   0.274   1.875
 8477SOL    HW126330   5.724   0.334   1.813
 8477SOL    HW226331   5.723   0.266   1.962
 8478SOL     OW26332   0.256   6.975   5.256
 8478SOL    HW126333   0.212   6.982   5.346
 8478SOL    HW226334   0.349   7.012   5.261
 8479SOL     OW26335   0.452   3.170   0.489
 8479SOL    HW126336   0.448   3.223   0.573
 8479SOL    HW226337   0.379   3.199   0.427
 8480SOL     OW26338   4.247   4.032   0.727
 8480SOL    HW126339   4.249   4.068   0.820
 8480SOL    HW226340   4.160   4.056   0.683
 8481SOL     OW26341   4.150   2.259   3.142
 8481SOL    HW126342   4.131   2.237   3.238
 8481SOL    HW226343   4.082   2.213   3.084
 8482SOL     OW26344   4.274   1.099   6.816
 8482SOL    HW126345   4.303   1.053   6.732
 8482SOL    HW226346   4.254   1.030   6.886
 8483SOL     OW26347   3.979   5.275   3.380
 8483SOL    HW126348   3.901   5.235   3.331
 8483SOL    HW226349   4.059   5.215   3.369
 8484SOL     OW26350   5.999   5.989   5.183
 8484SOL    HW126351   5.948   5.911   5.220
 8484SOL    HW226352   5.948   6.073   5.200
 8485SOL     OW26353   3.739   1.139   6.724
 8485SOL    HW126354   3.746   1.225   6.674
 8485SOL    HW226355   3.669   1.082   6.680
 8486SOL     OW26356   6.020   2.370   4.445
 8486SOL    HW126357   6.076   2.315   4.507
 8486SOL    HW226358   6.039   2.467   4.460
 8487SOL     OW26359   6.626   2.448   5.948
 8487SOL    HW126360   6.697   2.418   6.013
 8487SOL    HW226361   6.541   2.400   5.967
 8488SOL     OW26362   4.666   4.964   2.335
 8488SOL    HW126363   4.739   4.958   2.266
 8488SOL    HW226364   4.681   4.895   2.406
 8489SOL     OW26365   6.217   2.226   1.998
 8489SOL    HW126366   6.228   2.172   1.915
 8489SOL    HW226367   6.136   2.196   2.047
 8490SOL     OW26368   3.055   6.880   6.947
 8490SOL    HW126369   3.052   6.823   0.004
 8490SOL    HW226370   3.039   6.823   6.867
 8491SOL     OW26371   2.985   5.801   1.915
 8491SOL    HW126372   2.925   5.721   1.909
 8491SOL    HW226373   3.002   5.837   1.822
 8492SOL     OW26374   6.437   6.164   4.422
 8492SOL    HW126375   6.495   6.145   4.342
 8492SOL    HW226376   6.432   6.263   4.435
 8493SOL     OW26377   4.818   1.223   5.921
 8493SOL    HW126378   4.801   1.148   5.984
 8493SOL    HW226379   4.916   1.233   5.905
 8494SOL     OW26380   6.821   3.493   2.205
 8494SOL    HW126381   6.782   3.418   2.258
 8494SOL    HW226382   6.921   3.489   2.209
 8495SOL     OW26383   5.814   5.396   6.321
 8495SOL    HW126384   5.758   5.416   6.241
 8495SOL    HW226385   5.810   5.473   6.385
 8496SOL     OW26386   5.367   2.344   2.959
 8496SOL    HW126387   5.309   2.281   3.011
 8496SOL    HW226388   5.448   2.296   2.925
 8497SOL     OW26389   6.450   0.433   2.912
 8497SOL    HW126390   6.401   0.520   2.906
 8497SOL    HW226391   6.503   0.430   2.997
 8498SOL     OW26392   4.768   0.083   4.095
 8498SOL    HW126393   4.719   0.007   4.138
 8498SOL    HW226394   4.851   0.104   4.148
 8499SOL     OW26395   6.075   6.906   5.661
 8499SOL    HW126396   6.110   6.974   5.597
 8499SOL    HW226397   6.149   6.846   5.689
 8500SOL     OW26398   0.997   0.800   6.603
 8500SOL    HW126399   1.013   0.701   6.601
 8500SOL    HW226400   1.051   0.841   6.677
 8501SOL     OW26401   2.283   1.246   6.376
 8501SOL    HW126402   2.220   1.321   6.353
 8501SOL    HW226403   2.268   1.170   6.313
 8502SOL     OW26404   6.574   3.811   6.789
 8502SOL    HW126405   6.619   3.836   6.874
 8502SOL    HW226406   6.475   3.823   6.799
 8503SOL     OW26407   5.122   2.044   5.445
 8503SOL    HW126408   5.137   1.971   5.379
 8503SOL    HW226409   5.024   2.062   5.454
 8504SOL     OW26410   1.165   7.001   2.610
 8504SOL    HW126411   1.090   6.988   2.675
 8504SOL    HW226412   1.139   6.963   2.521
 8505SOL     OW26413   5.593   2.667   2.167
 8505SOL    HW126414   5.568   2.576   2.199
 8505SOL    HW226415   5.599   2.667   2.067
 8506SOL     OW26416   1.006   7.004   6.253
 8506SOL    HW126417   1.100   7.024   6.282
 8506SOL    HW226418   0.959   6.955   6.326
 8507SOL     OW26419   3.262   5.786   5.413
 8507SOL    HW126420   3.208   5.737   5.345
 8507SOL    HW226421   3.275   5.726   5.493
 8508SOL     OW26422   2.371   1.020   6.600
 8508SOL    HW126423   2.464   0.988   6.621
 8508SOL    HW226424   2.374   1.119   6.584
 8509SOL     OW26425   5.372   1.920   2.629
 8509SOL    HW126426   5.430   1.955   2.555
 8509SOL    HW226427   5.301   1.987   2.649
 8510SOL     OW26428   0.433   1.554   4.812
 8510SOL    HW126429   0.478   1.480   4.863
 8510SOL    HW226430   0.465   1.642   4.846
 8511SOL     OW26431   6.069   1.705   3.249
 8511SOL    HW126432   5.993   1.733   3.307
 8511SOL    HW226433   6.070   1.605   3.242
 8512SOL     OW26434   2.425   6.317   5.390
 8512SOL    HW126435   2.522   6.333   5.406
 8512SOL    HW226436   2.407   6.218   5.390
 8513SOL     OW26437   5.297   5.896   6.634
 8513SOL    HW126438   5.296   5.984   6.587
 8513SOL    HW226439   5.214   5.886   6.689
 8514SOL     OW26440   3.807   5.819   3.540
 8514SOL    HW126441   3.789   5.732   3.587
 8514SOL    HW226442   3.867   5.802   3.461
 8515SOL     OW26443   5.971   2.401   1.346
 8515SOL    HW126444   5.969   2.321   1.407
 8515SOL    HW226445   6.025   2.474   1.389
 8516SOL     OW26446   0.151   2.081   2.184
 8516SOL    HW126447   0.074   2.044   2.131
 8516SOL    HW226448   0.119   2.158   2.239
 8517SOL     OW26449   1.358   3.955   0.106
 8517SOL    HW126450   1.267   3.984   0.077
 8517SOL    HW226451   1.393   3.886   0.043
 8518SOL     OW26452   2.672   5.843   0.678
 8518SOL    HW126453   2.726   5.763   0.703
 8518SOL    HW226454   2.708   5.883   0.594
 8519SOL     OW26455   2.424   6.067   3.577
 8519SOL    HW126456   2.462   6.125   3.505
 8519SOL    HW226457   2.334   6.102   3.603
 8520SOL     OW26458   3.337   6.550   0.280
 8520SOL    HW126459   3.301   6.506   0.362
 8520SOL    HW226460   3.285   6.521   0.200
 8521SOL     OW26461   1.638   0.410   1.486
 8521SOL    HW126462   1.628   0.456   1.397
 8521SOL    HW226463   1.660   0.314   1.471
 8522SOL     OW26464   2.580   6.818   4.460
 8522SOL    HW126465   2.532   6.823   4.547
 8522SOL    HW226466   2.678   6.830   4.475
 8523SOL     OW26467   1.455   6.249   6.679
 8523SOL    HW126468   1.470   6.319   6.748
 8523SOL    HW226469   1.456   6.291   6.588
 8524SOL     OW26470   1.388   1.510   6.696
 8524SOL    HW126471   1.442   1.442   6.645
 8524SOL    HW226472   1.291   1.485   6.693
 8525SOL     OW26473   5.384   3.835   3.997
 8525SOL    HW126474   5.468   3.791   4.030
 8525SOL    HW226475   5.339   3.776   3.930
 8526SOL     OW26476   2.094   3.666   2.155
 8526SOL    HW126477   2.155   3.600   2.110
 8526SOL    HW226478   2.110   3.664   2.253
 8527SOL     OW26479   4.442   0.960   4.142
 8527SOL    HW126480   4.535   0.924   4.137
 8527SOL    HW226481   4.415   0.971   4.237
 8528SOL     OW26482   5.774   1.838   7.024
 8528SOL    HW126483   5.697   1.836   0.063
 8528SOL    HW226484   5.853   1.792   0.040
 8529SOL     OW26485   6.719   5.553   6.089
 8529SOL    HW126486   6.702   5.469   6.139
 8529SOL    HW226487   6.793   5.605   6.133
 8530SOL     OW26488   2.203   4.787   6.223
 8530SOL    HW126489   2.201   4.767   6.321
 8530SOL    HW226490   2.275   4.733   6.180
 8531SOL     OW26491   4.307   4.751   1.968
 8531SOL    HW126492   4.401   4.784   1.957
 8531SOL    HW226493   4.282   4.693   1.890
 8532SOL     OW26494   1.258   3.770   0.941
 8532SOL    HW126495   1.305   3.812   1.018
 8532SOL    HW226496   1.294   3.806   0.855
 8533SOL     OW26497   4.462   6.751   5.504
 8533SOL    HW126498   4.537   6.697   5.543
 8533SOL    HW226499   4.478   6.765   5.407
 8534SOL     OW26500   1.785   2.807   2.179
 8534SOL    HW126501   1.737   2.894   2.181
 8534SOL    HW226502   1.819   2.789   2.086
 8535SOL     OW26503   0.346   3.780   5.142
 8535SOL    HW126504   0.370   3.684   5.152
 8535SOL    HW226505   0.249   3.793   5.161
 8536SOL     OW26506   5.963   1.473   5.509
 8536SOL    HW126507   6.047   1.452   5.459
 8536SOL    HW226508   5.897   1.514   5.447
 8537SOL     OW26509   4.731   6.533   2.955
 8537SOL    HW126510   4.745   6.563   3.050
 8537SOL    HW226511   4.778   6.596   2.893
 8538SOL     OW26512   5.218   0.671   5.596
 8538SOL    HW126513   5.251   0.610   5.525
 8538SOL    HW226514   5.128   0.639   5.628
 8539SOL     OW26515   0.156   3.509   2.893
 8539SOL    HW126516   0.229   3.559   2.847
 8539SOL    HW226517   0.085   3.485   2.827
 8540SOL     OW26518   4.049   6.783   6.470
 8540SOL    HW126519   4.095   6.869   6.492
 8540SOL    HW226520   3.994   6.754   6.549
 8541SOL     OW26521   3.061   6.121   5.126
 8541SOL    HW126522   3.026   6.138   5.218
 8541SOL    HW226523   3.144   6.175   5.111
 8542SOL     OW26524   1.190   5.157   5.156
 8542SOL    HW126525   1.274   5.150   5.210
 8542SOL    HW226526   1.211   5.198   5.067
 8543SOL     OW26527   2.842   2.539   5.287
 8543SOL    HW126528   2.838   2.466   5.218
 8543SOL    HW226529   2.930   2.536   5.333
 8544SOL     OW26530   5.642   4.683   5.139
 8544SOL    HW126531   5.630   4.778   5.167
 8544SOL    HW226532   5.680   4.630   5.215
 8545SOL     OW26533   2.035   6.898   6.294
 8545SOL    HW126534   2.067   6.826   6.356
 8545SOL    HW226535   1.966   6.860   6.232
 8546SOL     OW26536   4.343   1.529   3.723
 8546SOL    HW126537   4.349   1.463   3.647
 8546SOL    HW226538   4.435   1.551   3.756
 8547SOL     OW26539   5.608   5.995   5.767
 8547SOL    HW126540   5.562   5.910   5.744
 8547SOL    HW226541   5.547   6.072   5.746
 8548SOL     OW26542   1.478   4.581   4.461
 8548SOL    HW126543   1.483   4.626   4.372
 8548SOL    HW226544   1.484   4.482   4.450
 8549SOL     OW26545   1.531   0.357   3.981
 8549SOL    HW126546   1.548   0.263   3.949
 8549SOL    HW226547   1.546   0.361   4.080
 8550SOL     OW26548   6.769   4.937   5.950
 8550SOL    HW126549   6.691   4.936   6.013
 8550SOL    HW226550   6.786   4.844   5.918
 8551SOL     OW26551   3.813   0.848   4.827
 8551SOL    HW126552   3.738   0.784   4.847
 8551SOL    HW226553   3.874   0.853   4.906
 8552SOL     OW26554   3.442   1.393   1.735
 8552SOL    HW126555   3.441   1.304   1.781
 8552SOL    HW226556   3.348   1.422   1.716
 8553SOL     OW26557   4.778   3.593   0.739
 8553SOL    HW126558   4.853   3.549   0.789
 8553SOL    HW226559   4.799   3.690   0.726
 8554SOL     OW26560   1.339   0.746   6.635
 8554SOL    HW126561   1.412   0.692   6.678
 8554SOL    HW226562   1.276   0.778   6.706
 8555SOL     OW26563   3.880   1.899   3.455
 8555SOL    HW126564   3.853   1.849   3.373
 8555SOL    HW226565   3.845   1.852   3.536
 8556SOL     OW26566   0.575   5.584   5.344
 8556SOL    HW126567   0.590   5.584   5.245
 8556SOL    HW226568   0.585   5.492   5.379
 8557SOL     OW26569   6.834   1.003   6.305
 8557SOL    HW126570   6.813   1.101   6.298
 8557SOL    HW226571   6.753   0.949   6.284
 8558SOL     OW26572   3.304   5.814   4.111
 8558SOL    HW126573   3.330   5.881   4.180
 8558SOL    HW226574   3.274   5.730   4.155
 8559SOL     OW26575   1.571   3.732   2.523
 8559SOL    HW126576   1.540   3.661   2.460
 8559SOL    HW226577   1.659   3.706   2.563
 8560SOL     OW26578   3.598   4.223   1.169
 8560SOL    HW126579   3.510   4.231   1.121
 8560SOL    HW226580   3.581   4.207   1.266
 8561SOL     OW26581   3.412   0.659   2.911
 8561SOL    HW126582   3.507   0.688   2.898
 8561SOL    HW226583   3.363   0.729   2.963
 8562SOL     OW26584   5.644   2.323   6.894
 8562SOL    HW126585   5.693   2.250   6.942
 8562SOL    HW226586   5.695   2.349   6.812
 8563SOL     OW26587   2.474   5.227   2.769
 8563SOL    HW126588   2.386   5.255   2.731
 8563SOL    HW226589   2.524   5.173   2.702
 8564SOL     OW26590   3.727   6.123   0.719
 8564SOL    HW126591   3.646   6.066   0.705
 8564SOL    HW226592   3.700   6.218   0.731
 8565SOL     OW26593   1.250   4.622   1.125
 8565SOL    HW126594   1.251   4.522   1.129
 8565SOL    HW226595   1.339   4.655   1.094
 8566SOL     OW26596   3.273   0.505   3.163
 8566SOL    HW126597   3.250   0.510   3.066
 8566SOL    HW226598   3.190   0.496   3.217
 8567SOL     OW26599   1.633   2.631   2.360
 8567SOL    HW126600   1.685   2.669   2.283
 8567SOL    HW226601   1.590   2.546   2.332
 8568SOL     OW26602   6.135   1.023   6.009
 8568SOL    HW126603   6.155   0.940   5.957
 8568SOL    HW226604   6.092   1.091   5.950
 8569SOL     OW26605   5.077   2.167   0.625
 8569SOL    HW126606   5.133   2.240   0.586
 8569SOL    HW226607   4.989   2.163   0.578
 8570SOL     OW26608   2.451   1.688   2.803
 8570SOL    HW126609   2.373   1.628   2.792
 8570SOL    HW226610   2.526   1.638   2.847
 8571SOL     OW26611   1.679   0.681   2.884
 8571SOL    HW126612   1.754   0.736   2.848
 8571SOL    HW226613   1.619   0.738   2.940
 8572SOL     OW26614   2.730   3.977   6.019
 8572SOL    HW126615   2.640   3.989   5.978
 8572SOL    HW226616   2.797   3.959   5.947
 8573SOL     OW26617   2.253   5.997   6.412
 8573SOL    HW126618   2.184   6.005   6.340
 8573SOL    HW226619   2.329   5.942   6.378
 8574SOL     OW26620   4.751   1.222   5.545
 8574SOL    HW126621   4.746   1.292   5.473
 8574SOL    HW226622   4.688   1.246   5.619
 8575SOL     OW26623   3.343   6.183   3.770
 8575SOL    HW126624   3.285   6.140   3.840
 8575SOL    HW226625   3.438   6.160   3.788
 8576SOL     OW26626   1.878   4.868   3.687
 8576SOL    HW126627   1.892   4.770   3.673
 8576SOL    HW226628   1.830   4.883   3.773
 8577SOL     OW26629   1.585   0.768   0.595
 8577SOL    HW126630   1.519   0.779   0.521
 8577SOL    HW226631   1.538   0.776   0.684
 8578SOL     OW26632   1.435   6.783   6.142
 8578SOL    HW126633   1.400   6.709   6.201
 8578SOL    HW226634   1.531   6.799   6.163
 8579SOL     OW26635   3.074   6.750   2.320
 8579SOL    HW126636   3.005   6.764   2.248
 8579SOL    HW226637   3.165   6.767   2.282
 8580SOL     OW26638   1.713   0.414   2.148
 8580SOL    HW126639   1.712   0.385   2.052
 8580SOL    HW226640   1.696   0.512   2.153
 8581SOL     OW26641   3.523   3.908   1.620
 8581SOL    HW126642   3.535   3.984   1.683
 8581SOL    HW226643   3.599   3.906   1.555
 8582SOL     OW26644   4.256   5.008   5.558
 8582SOL    HW126645   4.310   4.932   5.521
 8582SOL    HW226646   4.263   5.008   5.658
 8583SOL     OW26647   3.286   6.584   2.746
 8583SOL    HW126648   3.257   6.539   2.830
 8583SOL    HW226649   3.205   6.612   2.694
 8584SOL     OW26650   6.584   1.457   4.827
 8584SOL    HW126651   6.560   1.471   4.731
 8584SOL    HW226652   6.684   1.452   4.836
 8585SOL     OW26653   5.290   2.576   2.510
 8585SOL    HW126654   5.348   2.534   2.580
 8585SOL    HW226655   5.196   2.544   2.521
 8586SOL     OW26656   6.123   5.880   5.474
 8586SOL    HW126657   6.145   5.819   5.551
 8586SOL    HW226658   6.116   5.826   5.390
 8587SOL     OW26659   6.749   1.295   6.463
 8587SOL    HW126660   6.779   1.286   6.368
 8587SOL    HW226661   6.822   1.337   6.517
 8588SOL     OW26662   1.923   0.829   5.198
 8588SOL    HW126663   1.830   0.862   5.185
 8588SOL    HW226664   1.970   0.887   5.265
 8589SOL     OW26665   5.825   2.761   6.983
 8589SOL    HW126666   5.841   2.670   7.022
 8589SOL    HW226667   5.907   2.817   6.996
 8590SOL     OW26668   0.739   1.637   3.813
 8590SOL    HW126669   0.796   1.684   3.880
 8590SOL    HW226670   0.645   1.630   3.848
 8591SOL     OW26671   0.022   4.480   5.595
 8591SOL    HW126672   6.978   4.416   5.562
 8591SOL    HW226673   7.020   4.573   5.573
 8592SOL     OW26674   7.010   1.550   4.167
 8592SOL    HW126675   0.035   1.633   4.194
 8592SOL    HW226676   0.045   1.471   4.177
 8593SOL     OW26677   5.892   1.291   6.886
 8593SOL    HW126678   5.855   1.384   6.882
 8593SOL    HW226679   5.850   1.241   6.962
 8594SOL     OW26680   5.984   4.022   6.302
 8594SOL    HW126681   6.046   3.948   6.331
 8594SOL    HW226682   5.984   4.094   6.370
 8595SOL     OW26683   5.186   6.189   3.089
 8595SOL    HW126684   5.155   6.114   3.148
 8595SOL    HW226685   5.113   6.257   3.082
 8596SOL     OW26686   0.902   2.208   4.793
 8596SOL    HW126687   0.870   2.121   4.831
 8596SOL    HW226688   0.954   2.191   4.710
 8597SOL     OW26689   6.081   2.758   6.294
 8597SOL    HW126690   6.037   2.716   6.214
 8597SOL    HW226691   6.057   2.855   6.297
 8598SOL     OW26692   6.845   0.300   4.983
 8598SOL    HW126693   6.922   0.356   4.952
 8598SOL    HW226694   6.793   0.269   4.904
 8599SOL     OW26695   6.401   3.613   4.951
 8599SOL    HW126696   6.349   3.579   4.872
 8599SOL    HW226697   6.467   3.543   4.980
 8600SOL     OW26698   4.516   2.627   1.453
 8600SOL    HW126699   4.565   2.600   1.370
 8600SOL    HW226700   4.581   2.634   1.529
 8601SOL     OW26701   6.563   5.890   3.412
 8601SOL    HW126702   6.554   5.935   3.323
 8601SOL    HW226703   6.659   5.892   3.441
 8602SOL     OW26704   1.951   6.676   5.594
 8602SOL    HW126705   1.912   6.767   5.604
 8602SOL    HW226706   1.914   6.616   5.664
 8603SOL     OW26707   0.193   0.466   6.249
 8603SOL    HW126708   0.110   0.518   6.273
 8603SOL    HW226709   0.218   0.485   6.154
 8604SOL     OW26710   2.088   5.283   5.941
 8604SOL    HW126711   2.174   5.319   5.978
 8604SOL    HW226712   2.022   5.274   6.015
 8605SOL     OW26713   0.346   5.290   3.880
 8605SOL    HW126714   0.325   5.265   3.785
 8605SOL    HW226715   0.424   5.352   3.882
 8606SOL     OW26716   1.660   1.238   6.992
 8606SOL    HW126717   1.655   1.150   6.946
 8606SOL    HW226718   1.713   1.229   0.051
 8607SOL     OW26719   2.421   3.434   1.107
 8607SOL    HW126720   2.366   3.370   1.054
 8607SOL    HW226721   2.514   3.397   1.117
 8608SOL     OW26722   1.809   5.844   2.556
 8608SOL    HW126723   1.793   5.940   2.580
 8608SOL    HW226724   1.751   5.819   2.478
 8609SOL     OW26725   4.925   1.987   4.316
 8609SOL    HW126726   4.836   1.997   4.273
 8609SOL    HW226727   4.929   2.046   4.397
 8610SOL     OW26728   0.273   6.077   3.415
 8610SOL    HW126729   0.287   6.175   3.430
 8610SOL    HW226730   0.332   6.046   3.341
 8611SOL     OW26731   1.715   1.542   5.130
 8611SOL    HW126732   1.725   1.584   5.040
 8611SOL    HW226733   1.780   1.584   5.194
 8612SOL     OW26734   3.248   2.958   4.668
 8612SOL    HW126735   3.340   2.921   4.658
 8612SOL    HW226736   3.247   3.025   4.743
 8613SOL     OW26737   3.856   3.001   3.001
 8613SOL    HW126738   3.823   2.925   2.945
 8613SOL    HW226739   3.896   3.071   2.942
 8614SOL     OW26740   0.577   2.178   3.342
 8614SOL    HW126741   0.639   2.254   3.322
 8614SOL    HW226742   0.497   2.184   3.282
 8615SOL     OW26743   3.425   2.201   5.556
 8615SOL    HW126744   3.444   2.272   5.488
 8615SOL    HW226745   3.336   2.160   5.538
 8616SOL     OW26746   5.615   4.133   4.621
 8616SOL    HW126747   5.705   4.174   4.606
 8616SOL    HW226748   5.613   4.042   4.581
 8617SOL     OW26749   1.547   6.882   2.969
 8617SOL    HW126750   1.499   6.868   2.882
 8617SOL    HW226751   1.545   6.797   3.022
 8618SOL     OW26752   5.729   4.049   0.696
 8618SOL    HW126753   5.755   4.120   0.631
 8618SOL    HW226754   5.710   3.964   0.646
 8619SOL     OW26755   5.603   5.674   0.470
 8619SOL    HW126756   5.558   5.755   0.430
 8619SOL    HW226757   5.683   5.650   0.415
 8620SOL     OW26758   2.275   6.810   4.156
 8620SOL    HW126759   2.354   6.871   4.147
 8620SOL    HW226760   2.307   6.718   4.180
 8621SOL     OW26761   5.679   3.295   1.842
 8621SOL    HW126762   5.595   3.280   1.894
 8621SOL    HW226763   5.752   3.323   1.904
 8622SOL     OW26764   0.392   5.615   2.481
 8622SOL    HW126765   0.360   5.557   2.556
 8622SOL    HW226766   0.484   5.649   2.502
 8623SOL     OW26767   1.972   2.580   4.087
 8623SOL    HW126768   2.049   2.531   4.045
 8623SOL    HW226769   1.999   2.674   4.105
 8624SOL     OW26770   3.541   3.800   5.221
 8624SOL    HW126771   3.592   3.819   5.304
 8624SOL    HW226772   3.483   3.719   5.236
 8625SOL     OW26773   4.280   3.144   5.659
 8625SOL    HW126774   4.206   3.123   5.723
 8625SOL    HW226775   4.242   3.162   5.569
 8626SOL     OW26776   4.468   1.823   1.777
 8626SOL    HW126777   4.468   1.874   1.864
 8626SOL    HW226778   4.438   1.884   1.703
 8627SOL     OW26779   2.109   1.128   2.559
 8627SOL    HW126780   2.104   1.123   2.658
 8627SOL    HW226781   2.039   1.190   2.524
 8628SOL     OW26782   0.808   6.844   0.591
 8628SOL    HW126783   0.767   6.934   0.579
 8628SOL    HW226784   0.800   6.815   0.686
 8629SOL     OW26785   0.613   6.797   4.453
 8629SOL    HW126786   0.699   6.785   4.404
 8629SOL    HW226787   0.583   6.893   4.446
 8630SOL     OW26788   5.013   2.531   2.680
 8630SOL    HW126789   4.921   2.540   2.643
 8630SOL    HW226790   5.038   2.616   2.727
 8631SOL     OW26791   2.333   5.861   6.146
 8631SOL    HW126792   2.267   5.863   6.070
 8631SOL    HW226793   2.408   5.924   6.127
 8632SOL     OW26794   5.768   5.833   4.159
 8632SOL    HW126795   5.852   5.791   4.194
 8632SOL    HW226796   5.751   5.918   4.209
 8633SOL     OW26797   5.747   3.604   5.235
 8633SOL    HW126798   5.826   3.545   5.223
 8633SOL    HW226799   5.677   3.581   5.168
 8634SOL     OW26800   5.049   4.105   6.817
 8634SOL    HW126801   5.024   4.104   6.914
 8634SOL    HW226802   5.047   4.011   6.781
 8635SOL     OW26803   5.192   2.651   6.893
 8635SOL    HW126804   5.230   2.561   6.874
 8635SOL    HW226805   5.253   2.700   6.956
 8636SOL     OW26806   4.455   6.304   1.781
 8636SOL    HW126807   4.469   6.298   1.879
 8636SOL    HW226808   4.366   6.347   1.762
 8637SOL     OW26809   1.856   1.853   6.349
 8637SOL    HW126810   1.866   1.920   6.275
 8637SOL    HW226811   1.932   1.862   6.413
 8638SOL     OW26812   4.892   3.219   3.748
 8638SOL    HW126813   4.858   3.228   3.841
 8638SOL    HW226814   4.940   3.303   3.722
 8639SOL     OW26815   3.431   3.677   0.027
 8639SOL    HW126816   3.439   3.751   6.985
 8639SOL    HW226817   3.516   3.670   0.078
 8640SOL     OW26818   3.663   2.578   0.692
 8640SOL    HW126819   3.679   2.595   0.790
 8640SOL    HW226820   3.611   2.493   0.682
 8641SOL     OW26821   3.921   5.071   2.411
 8641SOL    HW126822   3.971   5.124   2.479
 8641SOL    HW226823   3.823   5.080   2.428
 8642SOL     OW26824   1.384   6.019   2.780
 8642SOL    HW126825   1.477   6.003   2.750
 8642SOL    HW226826   1.375   6.114   2.813
 8643SOL     OW26827   3.717   6.814   1.156
 8643SOL    HW126828   3.796   6.756   1.138
 8643SOL    HW226829   3.653   6.765   1.215
 8644SOL     OW26830   6.551   2.729   5.946
 8644SOL    HW126831   6.520   2.644   5.989
 8644SOL    HW226832   6.482   2.800   5.960
 8645SOL     OW26833   6.083   5.769   3.009
 8645SOL    HW126834   6.016   5.714   3.058
 8645SOL    HW226835   6.040   5.810   2.929
 8646SOL     OW26836   6.899   2.227   5.365
 8646SOL    HW126837   6.985   2.254   5.322
 8646SOL    HW226838   6.836   2.193   5.295
 8647SOL     OW26839   1.948   5.516   1.693
 8647SOL    HW126840   1.899   5.437   1.731
 8647SOL    HW226841   2.043   5.491   1.673
 8648SOL     OW26842   5.072   5.266   0.577
 8648SOL    HW126843   5.072   5.191   0.643
 8648SOL    HW226844   4.984   5.314   0.582
 8649SOL     OW26845   5.158   1.173   0.913
 8649SOL    HW126846   5.241   1.169   0.857
 8649SOL    HW226847   5.171   1.238   0.988
 8650SOL     OW26848   2.109   0.273   5.475
 8650SOL    HW126849   2.178   0.200   5.467
 8650SOL    HW226850   2.098   0.318   5.387
 8651SOL     OW26851   3.792   2.494   1.519
 8651SOL    HW126852   3.774   2.554   1.597
 8651SOL    HW226853   3.790   2.399   1.549
 8652SOL     OW26854   0.761   2.622   3.275
 8652SOL    HW126855   0.732   2.704   3.227
 8652SOL    HW226856   0.833   2.576   3.222
 8653SOL     OW26857   5.724   1.510   6.333
 8653SOL    HW126858   5.736   1.608   6.317
 8653SOL    HW226859   5.719   1.462   6.246
 8654SOL     OW26860   0.361   4.335   2.868
 8654SOL    HW126861   0.323   4.408   2.924
 8654SOL    HW226862   0.370   4.251   2.923
 8655SOL     OW26863   0.983   0.111   4.776
 8655SOL    HW126864   0.927   0.080   4.700
 8655SOL    HW226865   0.954   0.067   4.860
 8656SOL     OW26866   5.108   6.667   1.086
 8656SOL    HW126867   5.100   6.727   1.007
 8656SOL    HW226868   5.201   6.629   1.089
 8657SOL     OW26869   3.145   2.077   3.035
 8657SOL    HW126870   3.112   2.136   3.109
 8657SOL    HW226871   3.244   2.065   3.044
 8658SOL     OW26872   5.951   4.839   1.619
 8658SOL    HW126873   5.864   4.883   1.595
 8658SOL    HW226874   6.011   4.838   1.540
 8659SOL     OW26875   3.729   0.662   2.292
 8659SOL    HW126876   3.775   0.575   2.309
 8659SOL    HW226877   3.732   0.718   2.375
 8660SOL     OW26878   0.418   4.796   1.548
 8660SOL    HW126879   0.469   4.713   1.573
 8660SOL    HW226880   0.411   4.802   1.448
 8661SOL     OW26881   6.910   3.611   1.939
 8661SOL    HW126882   6.969   3.576   1.866
 8661SOL    HW226883   6.936   3.569   2.026
 8662SOL     OW26884   1.359   2.690   2.641
 8662SOL    HW126885   1.366   2.591   2.653
 8662SOL    HW226886   1.418   2.736   2.707
 8663SOL     OW26887   3.676   4.999   2.680
 8663SOL    HW126888   3.709   4.906   2.662
 8663SOL    HW226889   3.647   5.042   2.594
 8664SOL     OW26890   3.924   6.373   3.583
 8664SOL    HW126891   3.927   6.327   3.672
 8664SOL    HW226892   4.001   6.438   3.576
 8665SOL     OW26893   4.582   3.795   6.715
 8665SOL    HW126894   4.634   3.873   6.680
 8665SOL    HW226895   4.641   3.714   6.716
 8666SOL     OW26896   4.567   0.332   2.979
 8666SOL    HW126897   4.525   0.241   2.974
 8666SOL    HW226898   4.527   0.384   3.054
 8667SOL     OW26899   5.139   2.333   2.805
 8667SOL    HW126900   5.087   2.413   2.776
 8667SOL    HW226901   5.223   2.362   2.851
 8668SOL     OW26902   5.129   2.475   4.843
 8668SOL    HW126903   5.082   2.519   4.920
 8668SOL    HW226904   5.156   2.382   4.870
 8669SOL     OW26905   6.363   6.423   5.793
 8669SOL    HW126906   6.279   6.394   5.838
 8669SOL    HW226907   6.368   6.381   5.702
 8670SOL     OW26908   6.624   4.777   5.359
 8670SOL    HW126909   6.653   4.724   5.279
 8670SOL    HW226910   6.626   4.718   5.440
 8671SOL     OW26911   6.781   3.123   2.838
 8671SOL    HW126912   6.846   3.091   2.769
 8671SOL    HW226913   6.726   3.047   2.870
 8672SOL     OW26914   0.049   1.428   2.478
 8672SOL    HW126915   6.988   1.384   2.503
 8672SOL    HW226916   0.034   1.487   2.398
 8673SOL     OW26917   1.287   1.591   1.109
 8673SOL    HW126918   1.266   1.684   1.079
 8673SOL    HW226919   1.374   1.562   1.068
 8674SOL     OW26920   6.802   3.980   2.689
 8674SOL    HW126921   6.776   4.073   2.662
 8674SOL    HW226922   6.849   3.935   2.613
 8675SOL     OW26923   4.303   2.362   4.809
 8675SOL    HW126924   4.399   2.341   4.828
 8675SOL    HW226925   4.249   2.354   4.893
 8676SOL     OW26926   5.068   1.967   1.373
 8676SOL    HW126927   5.057   1.938   1.278
 8676SOL    HW226928   4.980   1.999   1.409
 8677SOL     OW26929   2.458   0.163   6.091
 8677SOL    HW126930   2.540   0.112   6.067
 8677SOL    HW226931   2.398   0.106   6.146
 8678SOL     OW26932   2.695   2.252   0.512
 8678SOL    HW126933   2.627   2.214   0.574
 8678SOL    HW226934   2.653   2.323   0.456
 8679SOL     OW26935   1.144   1.412   6.664
 8679SOL    HW126936   1.081   1.345   6.703
 8679SOL    HW226937   1.092   1.491   6.631
 8680SOL     OW26938   6.895   0.500   0.372
 8680SOL    HW126939   6.853   0.565   0.435
 8680SOL    HW226940   6.984   0.536   0.341
 8681SOL     OW26941   4.811   5.122   1.125
 8681SOL    HW126942   4.858   5.202   1.162
 8681SOL    HW226943   4.843   5.039   1.172
 8682SOL     OW26944   2.378   1.130   2.347
 8682SOL    HW126945   2.460   1.143   2.404
 8682SOL    HW226946   2.328   1.050   2.379
 8683SOL     OW26947   2.495   4.462   4.440
 8683SOL    HW126948   2.414   4.444   4.385
 8683SOL    HW226949   2.509   4.387   4.505
 8684SOL     OW26950   2.537   4.635   3.248
 8684SOL    HW126951   2.518   4.537   3.242
 8684SOL    HW226952   2.459   4.682   3.288
 8685SOL     OW26953   5.066   2.987   4.467
 8685SOL    HW126954   5.109   2.925   4.401
 8685SOL    HW226955   4.970   3.001   4.441
 8686SOL     OW26956   1.585   5.596   3.438
 8686SOL    HW126957   1.513   5.648   3.482
 8686SOL    HW226958   1.556   5.501   3.427
 8687SOL     OW26959   5.792   4.695   4.912
 8687SOL    HW126960   5.742   4.763   4.858
 8687SOL    HW226961   5.734   4.662   4.986
 8688SOL     OW26962   1.416   3.845   5.130
 8688SOL    HW126963   1.422   3.807   5.038
 8688SOL    HW226964   1.488   3.914   5.142
 8689SOL     OW26965   4.252   3.424   0.886
 8689SOL    HW126966   4.164   3.450   0.926
 8689SOL    HW226967   4.295   3.355   0.944
 8690SOL     OW26968   1.214   1.349   2.499
 8690SOL    HW126969   1.219   1.447   2.517
 8690SOL    HW226970   1.264   1.328   2.415
 8691SOL     OW26971   3.470   2.716   6.001
 8691SOL    HW126972   3.554   2.684   5.957
 8691SOL    HW226973   3.391   2.679   5.954
 8692SOL     OW26974   5.021   3.059   4.194
 8692SOL    HW126975   5.049   3.150   4.224
 8692SOL    HW226976   5.073   3.033   4.112
 8693SOL     OW26977   6.293   6.880   5.409
 8693SOL    HW126978   6.282   6.835   5.321
 8693SOL    HW226979   6.243   6.967   5.409
 8694SOL     OW26980   5.218   3.079   5.436
 8694SOL    HW126981   5.175   3.135   5.365
 8694SOL    HW226982   5.154   3.009   5.466
 8695SOL     OW26983   3.435   4.907   1.156
 8695SOL    HW126984   3.496   4.935   1.231
 8695SOL    HW226985   3.340   4.924   1.182
 8696SOL     OW26986   2.329   5.549   5.823
 8696SOL    HW126987   2.270   5.609   5.877
 8696SOL    HW226988   2.277   5.512   5.745
 8697SOL     OW26989   0.972   3.875   5.220
 8697SOL    HW126990   0.942   3.863   5.315
 8697SOL    HW226991   1.055   3.930   5.219
 8698SOL     OW26992   4.301   4.750   6.505
 8698SOL    HW126993   4.289   4.844   6.475
 8698SOL    HW226994   4.250   4.689   6.444
 8699SOL     OW26995   1.896   2.258   0.494
 8699SOL    HW126996   1.822   2.295   0.550
 8699SOL    HW226997   1.870   2.167   0.461
 8700SOL     OW26998   0.979   1.415   4.614
 8700SOL    HW126999   1.018   1.507   4.609
 8700SOL    HW227000   0.881   1.420   4.630
 8701SOL     OW27001   1.387   3.010   6.285
 8701SOL    HW127002   1.319   3.079   6.260
 8701SOL    HW227003   1.345   2.942   6.344
 8702SOL     OW27004   5.799   4.232   1.049
 8702SOL    HW127005   5.855   4.169   0.995
 8702SOL    HW227006   5.702   4.211   1.033
 8703SOL     OW27007   2.852   5.685   1.356
 8703SOL    HW127008   2.843   5.622   1.279
 8703SOL    HW227009   2.861   5.634   1.441
 8704SOL     OW27010   0.119   1.140   5.000
 8704SOL    HW127011   0.151   1.234   5.014
 8704SOL    HW227012   0.050   1.139   4.927
 8705SOL     OW27013   3.730   2.328   7.014
 8705SOL    HW127014   3.741   2.371   0.079
 8705SOL    HW227015   3.812   2.346   6.959
 8706SOL     OW27016   4.539   2.373   6.893
 8706SOL    HW127017   4.465   2.440   6.898
 8706SOL    HW227018   4.625   2.417   6.918
 8707SOL     OW27019   2.104   0.852   4.334
 8707SOL    HW127020   2.165   0.827   4.260
 8707SOL    HW227021   2.073   0.770   4.382
 8708SOL     OW27022   5.809   1.969   0.696
 8708SOL    HW127023   5.739   1.897   0.695
 8708SOL    HW227024   5.900   1.927   0.695
 8709SOL     OW27025   6.547   6.752   4.466
 8709SOL    HW127026   6.548   6.834   4.522
 8709SOL    HW227027   6.452   6.726   4.446
 8710SOL     OW27028   2.108   1.775   3.345
 8710SOL    HW127029   2.009   1.786   3.337
 8710SOL    HW227030   2.135   1.782   3.440
 8711SOL     OW27031   1.391   1.144   1.736
 8711SOL    HW127032   1.397   1.217   1.668
 8711SOL    HW227033   1.423   1.059   1.696
 8712SOL     OW27034   1.240   4.350   4.525
 8712SOL    HW127035   1.198   4.312   4.442
 8712SOL    HW227036   1.236   4.450   4.522
 8713SOL     OW27037   0.422   3.233   1.841
 8713SOL    HW127038   0.504   3.284   1.868
 8713SOL    HW227039   0.394   3.261   1.750
 8714SOL     OW27040   5.918   4.339   6.646
 8714SOL    HW127041   5.938   4.344   6.549
 8714SOL    HW227042   5.870   4.422   6.675
 8715SOL     OW27043   2.170   4.805   1.916
 8715SOL    HW127044   2.073   4.796   1.891
 8715SOL    HW227045   2.194   4.901   1.923
 8716SOL     OW27046   6.635   0.377   2.181
 8716SOL    HW127047   6.729   0.396   2.209
 8716SOL    HW227048   6.622   0.406   2.086
 8717SOL     OW27049   3.119   2.768   0.508
 8717SOL    HW127050   3.044   2.701   0.509
 8717SOL    HW227051   3.182   2.749   0.583
 8718SOL     OW27052   2.618   5.247   6.462
 8718SOL    HW127053   2.618   5.212   6.368
 8718SOL    HW227054   2.654   5.340   6.462
 8719SOL     OW27055   3.275   1.419   4.863
 8719SOL    HW127056   3.370   1.447   4.870
 8719SOL    HW227057   3.245   1.382   4.952
 8720SOL     OW27058   1.100   5.460   4.585
 8720SOL    HW127059   1.166   5.522   4.541
 8720SOL    HW227060   1.146   5.374   4.608
 8721SOL     OW27061   1.029   6.854   0.344
 8721SOL    HW127062   1.042   6.937   0.289
 8721SOL    HW227063   0.999   6.878   0.436
 8722SOL     OW27064   2.969   0.827   0.893
 8722SOL    HW127065   2.901   0.901   0.894
 8722SOL    HW227066   3.060   0.866   0.908
 8723SOL     OW27067   4.335   6.958   1.911
 8723SOL    HW127068   4.250   6.981   1.959
 8723SOL    HW227069   4.412   6.976   1.971
 8724SOL     OW27070   3.378   1.519   5.125
 8724SOL    HW127071   3.446   1.590   5.111
 8724SOL    HW227072   3.419   1.429   5.108
 8725SOL     OW27073   6.671   0.332   3.115
 8725SOL    HW127074   6.633   0.242   3.137
 8725SOL    HW227075   6.717   0.369   3.196
 8726SOL     OW27076   6.447   0.728   1.032
 8726SOL    HW127077   6.421   0.800   1.096
 8726SOL    HW227078   6.367   0.699   0.980
 8727SOL     OW27079   5.364   6.113   0.174
 8727SOL    HW127080   5.433   6.181   0.199
 8727SOL    HW227081   5.305   6.151   0.103
 8728SOL     OW27082   6.562   6.819   4.884
 8728SOL    HW127083   6.588   6.866   4.968
 8728SOL    HW227084   6.569   6.882   4.807
 8729SOL     OW27085   5.299   5.805   6.014
 8729SOL    HW127086   5.206   5.779   5.990
 8729SOL    HW227087   5.358   5.797   5.934
 8730SOL     OW27088   4.354   4.616   1.701
 8730SOL    HW127089   4.425   4.569   1.754
 8730SOL    HW227090   4.390   4.702   1.667
 8731SOL     OW27091   6.727   1.706   4.160
 8731SOL    HW127092   6.706   1.763   4.240
 8731SOL    HW227093   6.823   1.680   4.162
 8732SOL     OW27094   4.853   6.533   5.870
 8732SOL    HW127095   4.933   6.514   5.926
 8732SOL    HW227096   4.794   6.453   5.867
 8733SOL     OW27097   6.404   4.856   2.394
 8733SOL    HW127098   6.343   4.852   2.315
 8733SOL    HW227099   6.464   4.936   2.385
 8734SOL     OW27100   1.331   4.549   0.812
 8734SOL    HW127101   1.366   4.636   0.847
 8734SOL    HW227102   1.366   4.533   0.720
 8735SOL     OW27103   1.039   2.877   5.593
 8735SOL    HW127104   1.024   2.779   5.596
 8735SOL    HW227105   1.015   2.917   5.682
 8736SOL     OW27106   1.521   5.627   3.167
 8736SOL    HW127107   1.555   5.595   3.256
 8736SOL    HW227108   1.599   5.647   3.108
 8737SOL     OW27109   0.368   5.867   0.046
 8737SOL    HW127110   0.371   5.842   6.974
 8737SOL    HW227111   0.462   5.875   0.081
 8738SOL     OW27112   1.976   2.614   2.312
 8738SOL    HW127113   1.932   2.698   2.281
 8738SOL    HW227114   2.060   2.600   2.260
 8739SOL     OW27115   6.039   4.851   3.919
 8739SOL    HW127116   6.116   4.842   3.983
 8739SOL    HW227117   5.956   4.820   3.964
 8740SOL     OW27118   3.275   1.659   3.783
 8740SOL    HW127119   3.342   1.651   3.708
 8740SOL    HW227120   3.230   1.748   3.777
 8741SOL     OW27121   1.098   1.560   2.647
 8741SOL    HW127122   1.044   1.644   2.655
 8741SOL    HW227123   1.081   1.502   2.726
 8742SOL     OW27124   2.658   2.597   1.717
 8742SOL    HW127125   2.716   2.535   1.768
 8742SOL    HW227126   2.566   2.558   1.709
 8743SOL     OW27127   0.712   3.082   0.905
 8743SOL    HW127128   0.766   3.142   0.963
 8743SOL    HW227129   0.618   3.115   0.900
 8744SOL     OW27130   3.735   4.237   5.856
 8744SOL    HW127131   3.698   4.214   5.946
 8744SOL    HW227132   3.833   4.253   5.863
 8745SOL     OW27133   5.908   1.610   6.010
 8745SOL    HW127134   5.986   1.628   6.070
 8745SOL    HW227135   5.873   1.518   6.027
 8746SOL     OW27136   3.962   4.890   5.041
 8746SOL    HW127137   3.925   4.847   5.123
 8746SOL    HW227138   3.952   4.990   5.048
 8747SOL     OW27139   1.023   0.456   2.740
 8747SOL    HW127140   1.064   0.372   2.704
 8747SOL    HW227141   0.924   0.451   2.733
 8748SOL     OW27142   5.589   1.716   4.789
 8748SOL    HW127143   5.569   1.682   4.881
 8748SOL    HW227144   5.516   1.777   4.759
 8749SOL     OW27145   2.643   0.987   4.170
 8749SOL    HW127146   2.644   0.970   4.269
 8749SOL    HW227147   2.725   1.037   4.145
 8750SOL     OW27148   4.229   3.593   1.442
 8750SOL    HW127149   4.242   3.587   1.541
 8750SOL    HW227150   4.146   3.544   1.417
 8751SOL     OW27151   2.642   6.986   0.427
 8751SOL    HW127152   2.717   0.014   0.467
 8751SOL    HW227153   2.590   6.941   0.499
 8752SOL     OW27154   0.018   3.060   5.542
 8752SOL    HW127155   0.102   3.027   5.499
 8752SOL    HW227156   7.015   2.995   5.613
 8753SOL     OW27157   2.162   1.822   0.785
 8753SOL    HW127158   2.082   1.850   0.838
 8753SOL    HW227159   2.174   1.723   0.791
 8754SOL     OW27160   0.719   5.632   6.609
 8754SOL    HW127161   0.634   5.651   6.659
 8754SOL    HW227162   0.793   5.618   6.674
 8755SOL     OW27163   0.453   2.525   1.709
 8755SOL    HW127164   0.519   2.587   1.666
 8755SOL    HW227165   0.392   2.488   1.639
 8756SOL     OW27166   1.148   1.675   1.940
 8756SOL    HW127167   1.107   1.765   1.924
 8756SOL    HW227168   1.120   1.641   2.030
 8757SOL     OW27169   5.439   6.440   5.739
 8757SOL    HW127170   5.456   6.452   5.641
 8757SOL    HW227171   5.396   6.351   5.755
 8758SOL     OW27172   3.802   5.918   5.521
 8758SOL    HW127173   3.804   5.873   5.432
 8758SOL    HW227174   3.850   6.005   5.516
 8759SOL     OW27175   6.196   1.027   1.944
 8759SOL    HW127176   6.170   1.104   1.885
 8759SOL    HW227177   6.171   0.941   1.899
 8760SOL     OW27178   2.598   2.441   4.247
 8760SOL    HW127179   2.634   2.394   4.328
 8760SOL    HW227180   2.656   2.422   4.168
 8761SOL     OW27181   4.732   1.991   2.917
 8761SOL    HW127182   4.782   2.050   2.854
 8761SOL    HW227183   4.636   2.017   2.919
 8762SOL     OW27184   4.036   5.934   2.857
 8762SOL    HW127185   3.989   5.980   2.782
 8762SOL    HW227186   4.069   6.002   2.922
 8763SOL     OW27187   0.170   1.082   5.624
 8763SOL    HW127188   0.186   1.106   5.720
 8763SOL    HW227189   0.139   0.987   5.618
 8764SOL     OW27190   3.843   5.356   6.143
 8764SOL    HW127191   3.846   5.275   6.085
 8764SOL    HW227192   3.747   5.384   6.156
 8765SOL     OW27193   3.877   0.042   3.416
 8765SOL    HW127194   3.812   0.017   3.345
 8765SOL    HW227195   3.967   0.060   3.375
 8766SOL     OW27196   5.455   6.859   4.940
 8766SOL    HW127197   5.444   6.763   4.966
 8766SOL    HW227198   5.368   6.907   4.953
 8767SOL     OW27199   1.893   1.524   3.299
 8767SOL    HW127200   1.850   1.504   3.388
 8767SOL    HW227201   1.860   1.459   3.231
 8768SOL     OW27202   0.109   1.576   0.333
 8768SOL    HW127203   0.024   1.584   0.385
 8768SOL    HW227204   0.088   1.578   0.235
 8769SOL     OW27205   6.215   6.878   6.272
 8769SOL    HW127206   6.262   6.820   6.206
 8769SOL    HW227207   6.117   6.876   6.254
 8770SOL     OW27208   4.972   2.271   0.381
 8770SOL    HW127209   4.895   2.278   0.318
 8770SOL    HW227210   5.057   2.283   0.331
 8771SOL     OW27211   0.650   2.977   6.388
 8771SOL    HW127212   0.697   3.029   6.460
 8771SOL    HW227213   0.650   2.880   6.413
 8772SOL     OW27214   0.212   0.218   4.213
 8772SOL    HW127215   0.114   0.197   4.219
 8772SOL    HW227216   0.226   0.316   4.227
 8773SOL     OW27217   0.385   1.553   3.469
 8773SOL    HW127218   0.423   1.614   3.398
 8773SOL    HW227219   0.352   1.608   3.546
 8774SOL     OW27220   0.992   1.621   6.920
 8774SOL    HW127221   1.052   1.563   6.975
 8774SOL    HW227222   1.005   1.717   6.945
 8775SOL     OW27223   5.370   2.565   3.217
 8775SOL    HW127224   5.305   2.607   3.154
 8775SOL    HW227225   5.463   2.578   3.182
 8776SOL     OW27226   4.749   2.557   1.012
 8776SOL    HW127227   4.729   2.632   0.949
 8776SOL    HW227228   4.773   2.475   0.959
 8777SOL     OW27229   6.728   2.291   3.664
 8777SOL    HW127230   6.781   2.262   3.743
 8777SOL    HW227231   6.631   2.271   3.680
 8778SOL     OW27232   3.138   3.992   6.761
 8778SOL    HW127233   3.086   3.912   6.731
 8778SOL    HW227234   3.075   4.068   6.778
 8779SOL     OW27235   3.827   5.205   2.793
 8779SOL    HW127236   3.851   5.225   2.887
 8779SOL    HW227237   3.796   5.110   2.785
 8780SOL     OW27238   1.000   4.002   3.741
 8780SOL    HW127239   1.071   4.073   3.735
 8780SOL    HW227240   1.043   3.912   3.746
 8781SOL     OW27241   2.340   0.768   0.910
 8781SOL    HW127242   2.436   0.744   0.898
 8781SOL    HW227243   2.323   0.859   0.872
 8782SOL     OW27244   5.802   2.391   0.939
 8782SOL    HW127245   5.768   2.485   0.932
 8782SOL    HW227246   5.893   2.385   0.899
 8783SOL     OW27247   4.844   4.084   4.804
 8783SOL    HW127248   4.778   4.151   4.838
 8783SOL    HW227249   4.872   4.023   4.878
 8784SOL     OW27250   4.450   0.755   6.960
 8784SOL    HW127251   4.372   0.816   6.946
 8784SOL    HW227252   4.463   0.698   6.879
 8785SOL     OW27253   6.915   5.249   5.629
 8785SOL    HW127254   6.843   5.295   5.576
 8785SOL    HW227255   6.888   5.246   5.725
 8786SOL     OW27256   5.635   1.870   3.036
 8786SOL    HW127257   5.729   1.836   3.035
 8786SOL    HW227258   5.612   1.909   2.947
 8787SOL     OW27259   3.517   5.679   1.342
 8787SOL    HW127260   3.483   5.593   1.304
 8787SOL    HW227261   3.615   5.687   1.324
 8788SOL     OW27262   0.561   6.484   4.166
 8788SOL    HW127263   0.486   6.542   4.136
 8788SOL    HW227264   0.561   6.477   4.266
 8789SOL     OW27265   1.309   2.428   6.152
 8789SOL    HW127266   1.358   2.514   6.167
 8789SOL    HW227267   1.363   2.351   6.186
 8790SOL     OW27268   4.317   2.835   5.382
 8790SOL    HW127269   4.309   2.934   5.369
 8790SOL    HW227270   4.235   2.790   5.346
 8791SOL     OW27271   4.179   6.463   4.337
 8791SOL    HW127272   4.135   6.551   4.318
 8791SOL    HW227273   4.156   6.398   4.265
 8792SOL     OW27274   5.345   5.443   1.855
 8792SOL    HW127275   5.246   5.428   1.862
 8792SOL    HW227276   5.377   5.405   1.768
 8793SOL     OW27277   6.948   6.276   5.499
 8793SOL    HW127278   6.892   6.359   5.493
 8793SOL    HW227279   7.014   6.274   5.424
 8794SOL     OW27280   0.123   1.450   2.791
 8794SOL    HW127281   0.101   1.413   2.701
 8794SOL    HW227282   0.204   1.509   2.783
 8795SOL     OW27283   0.999   6.445   6.944
 8795SOL    HW127284   0.983   6.413   0.013
 8795SOL    HW227285   0.944   6.527   6.927
 8796SOL     OW27286   5.719   3.855   4.850
 8796SOL    HW127287   5.645   3.788   4.853
 8796SOL    HW227288   5.772   3.843   4.765
 8797SOL     OW27289   4.717   6.369   4.359
 8797SOL    HW127290   4.779   6.419   4.419
 8797SOL    HW227291   4.706   6.419   4.273
 8798SOL     OW27292   2.783   6.121   5.348
 8798SOL    HW127293   2.731   6.118   5.262
 8798SOL    HW227294   2.784   6.030   5.389
 8799SOL     OW27295   1.435   5.832   1.893
 8799SOL    HW127296   1.398   5.752   1.846
 8799SOL    HW227297   1.535   5.833   1.884
 8800SOL     OW27298   6.565   5.965   4.229
 8800SOL    HW127299   6.526   5.879   4.260
 8800SOL    HW227300   6.651   5.982   4.276
 8801SOL     OW27301   5.769   3.533   5.711
 8801SOL    HW127302   5.712   3.533   5.794
 8801SOL    HW227303   5.719   3.490   5.636
 8802SOL     OW27304   1.795   5.723   6.457
 8802SOL    HW127305   1.715   5.721   6.397
 8802SOL    HW227306   1.872   5.676   6.413
 8803SOL     OW27307   5.769   6.004   5.431
 8803SOL    HW127308   5.689   6.061   5.449
 8803SOL    HW227309   5.741   5.921   5.382
 8804SOL     OW27310   1.081   6.053   1.943
 8804SOL    HW127311   1.026   6.068   1.862
 8804SOL    HW227312   1.178   6.049   1.918
 8805SOL     OW27313   5.232   4.957   3.129
 8805SOL    HW127314   5.146   4.946   3.179
 8805SOL    HW227315   5.307   4.971   3.193
 8806SOL     OW27316   1.096   0.404   1.885
 8806SOL    HW127317   1.079   0.445   1.975
 8806SOL    HW227318   1.137   0.472   1.825
 8807SOL     OW27319   5.290   2.592   0.471
 8807SOL    HW127320   5.227   2.520   0.500
 8807SOL    HW227321   5.310   2.652   0.548
 8808SOL     OW27322   2.149   2.300   0.015
 8808SOL    HW127323   2.178   2.255   0.099
 8808SOL    HW227324   2.093   2.238   6.985
 8809SOL     OW27325   6.823   3.351   3.002
 8809SOL    HW127326   6.822   3.271   2.943
 8809SOL    HW227327   6.850   3.432   2.948
 8810SOL     OW27328   0.399   1.820   5.120
 8810SOL    HW127329   0.406   1.872   5.205
 8810SOL    HW227330   0.307   1.830   5.082
 8811SOL     OW27331   4.256   4.813   2.751
 8811SOL    HW127332   4.295   4.900   2.720
 8811SOL    HW227333   4.300   4.738   2.701
 8812SOL     OW27334   5.004   1.129   6.803
 8812SOL    HW127335   5.084   1.137   6.744
 8812SOL    HW227336   5.033   1.103   6.895
 8813SOL     OW27337   2.081   3.359   2.769
 8813SOL    HW127338   2.166   3.326   2.810
 8813SOL    HW227339   2.062   3.307   2.686
 8814SOL     OW27340   5.206   6.777   5.379
 8814SOL    HW127341   5.170   6.859   5.423
 8814SOL    HW227342   5.303   6.791   5.358
 8815SOL     OW27343   5.187   0.626   1.212
 8815SOL    HW127344   5.184   0.541   1.266
 8815SOL    HW227345   5.120   0.690   1.249
 8816SOL     OW27346   0.632   0.047   3.969
 8816SOL    HW127347   0.608   0.088   4.058
 8816SOL    HW227348   0.681   0.114   3.914
 8817SOL     OW27349   1.082   2.685   3.076
 8817SOL    HW127350   1.149   2.744   3.122
 8817SOL    HW227351   1.123   2.645   2.995
 8818SOL     OW27352   0.635   6.576   5.446
 8818SOL    HW127353   0.716   6.518   5.447
 8818SOL    HW227354   0.647   6.649   5.379
 8819SOL     OW27355   4.804   5.674   6.383
 8819SOL    HW127356   4.781   5.623   6.466
 8819SOL    HW227357   4.771   5.625   6.303
 8820SOL     OW27358   4.181   0.312   5.460
 8820SOL    HW127359   4.171   0.277   5.553
 8820SOL    HW227360   4.234   0.397   5.462
 8821SOL     OW27361   0.616   4.450   6.377
 8821SOL    HW127362   0.540   4.451   6.442
 8821SOL    HW227363   0.611   4.532   6.319
 8822SOL     OW27364   6.119   0.246   4.764
 8822SOL    HW127365   6.134   0.324   4.825
 8822SOL    HW227366   6.023   0.220   4.766
 8823SOL     OW27367   4.095   1.759   2.664
 8823SOL    HW127368   4.014   1.706   2.690
 8823SOL    HW227369   4.166   1.697   2.631
 8824SOL     OW27370   1.308   0.126   3.190
 8824SOL    HW127371   1.399   0.089   3.171
 8824SOL    HW227372   1.265   0.153   3.104
 8825SOL     OW27373   0.294   0.179   0.239
 8825SOL    HW127374   0.222   0.235   0.280
 8825SOL    HW227375   0.330   0.116   0.307
 8826SOL     OW27376   6.939   4.389   0.473
 8826SOL    HW127377   6.953   4.292   0.496
 8826SOL    HW227378   6.972   4.406   0.380
 8827SOL     OW27379   4.367   6.656   3.468
 8827SOL    HW127380   4.418   6.734   3.434
 8827SOL    HW227381   4.406   6.571   3.431
 8828SOL     OW27382   5.057   2.315   6.308
 8828SOL    HW127383   5.086   2.372   6.231
 8828SOL    HW227384   5.052   2.219   6.278
 8829SOL     OW27385   6.944   0.830   2.755
 8829SOL    HW127386   7.007   0.907   2.745
 8829SOL    HW227387   6.856   0.863   2.789
 8830SOL     OW27388   3.143   0.523   3.777
 8830SOL    HW127389   3.233   0.559   3.800
 8830SOL    HW227390   3.084   0.598   3.746
 8831SOL     OW27391   0.007   3.406   2.668
 8831SOL    HW127392   6.935   3.389   2.683
 8831SOL    HW227393   0.018   3.471   2.593
 8832SOL     OW27394   5.307   0.385   5.957
 8832SOL    HW127395   5.358   0.370   6.042
 8832SOL    HW227396   5.209   0.388   5.977
 8833SOL     OW27397   5.182   2.226   1.310
 8833SOL    HW127398   5.252   2.275   1.362
 8833SOL    HW227399   5.168   2.136   1.351
 8834SOL     OW27400   5.564   4.032   6.367
 8834SOL    HW127401   5.589   4.122   6.401
 8834SOL    HW227402   5.473   4.036   6.326
 8835SOL     OW27403   6.837   0.816   5.288
 8835SOL    HW127404   6.925   0.849   5.254
 8835SOL    HW227405   6.840   0.716   5.299
 8836SOL     OW27406   4.148   1.410   1.166
 8836SOL    HW127407   4.241   1.431   1.136
 8836SOL    HW227408   4.146   1.318   1.207
 8837SOL     OW27409   4.496   6.199   0.502
 8837SOL    HW127410   4.522   6.277   0.445
 8837SOL    HW227411   4.411   6.220   0.550
 8838SOL     OW27412   1.788   3.483   3.634
 8838SOL    HW127413   1.780   3.427   3.716
 8838SOL    HW227414   1.723   3.451   3.565
 8839SOL     OW27415   4.964   5.330   1.205
 8839SOL    HW127416   4.989   5.392   1.130
 8839SOL    HW227417   4.966   5.379   1.291
 8840SOL     OW27418   6.595   1.203   0.630
 8840SOL    HW127419   6.603   1.122   0.689
 8840SOL    HW227420   6.593   1.285   0.687
 8841SOL     OW27421   3.407   1.267   0.641
 8841SOL    HW127422   3.319   1.256   0.686
 8841SOL    HW227423   3.480   1.242   0.704
 8842SOL     OW27424   3.546   3.204   4.139
 8842SOL    HW127425   3.612   3.223   4.211
 8842SOL    HW227426   3.520   3.290   4.094
 8843SOL     OW27427   3.086   5.584   5.289
 8843SOL    HW127428   2.996   5.560   5.326
 8843SOL    HW227429   3.151   5.510   5.309
 8844SOL     OW27430   3.702   2.559   5.912
 8844SOL    HW127431   3.781   2.567   5.973
 8844SOL    HW227432   3.725   2.601   5.823
 8845SOL     OW27433   0.964   3.448   1.671
 8845SOL    HW127434   1.045   3.500   1.699
 8845SOL    HW227435   0.914   3.417   1.752
 8846SOL     OW27436   5.967   4.673   4.507
 8846SOL    HW127437   5.873   4.644   4.522
 8846SOL    HW227438   6.027   4.592   4.506
 8847SOL     OW27439   1.076   2.048   3.832
 8847SOL    HW127440   1.150   1.984   3.851
 8847SOL    HW227441   0.998   1.999   3.793
 8848SOL     OW27442   6.098   1.322   0.673
 8848SOL    HW127443   6.058   1.360   0.590
 8848SOL    HW227444   6.054   1.235   0.695
 8849SOL     OW27445   3.584   5.219   4.268
 8849SOL    HW127446   3.556   5.143   4.210
 8849SOL    HW227447   3.534   5.301   4.240
 8850SOL     OW27448   2.683   1.665   1.568
 8850SOL    HW127449   2.772   1.624   1.546
 8850SOL    HW227450   2.697   1.759   1.599
 8851SOL     OW27451   7.012   5.241   2.848
 8851SOL    HW127452   6.922   5.285   2.846
 8851SOL    HW227453   0.023   5.236   2.755
 8852SOL     OW27454   5.209   2.739   4.503
 8852SOL    HW127455   5.246   2.673   4.568
 8852SOL    HW227456   5.113   2.756   4.522
 8853SOL     OW27457   4.886   1.915   5.575
 8853SOL    HW127458   4.945   1.846   5.535
 8853SOL    HW227459   4.798   1.916   5.526
 8854SOL     OW27460   1.738   0.699   6.306
 8854SOL    HW127461   1.705   0.715   6.213
 8854SOL    HW227462   1.661   0.676   6.365
 8855SOL     OW27463   6.526   5.037   6.474
 8855SOL    HW127464   6.588   5.062   6.399
 8855SOL    HW227465   6.563   5.071   6.560
 8856SOL     OW27466   4.994   0.978   5.160
 8856SOL    HW127467   5.092   0.959   5.150
 8856SOL    HW227468   4.976   1.014   5.252
 8857SOL     OW27469   0.930   3.160   4.649
 8857SOL    HW127470   0.989   3.151   4.729
 8857SOL    HW227471   0.982   3.141   4.566
 8858SOL     OW27472   6.839   4.008   5.493
 8858SOL    HW127473   6.843   4.064   5.575
 8858SOL    HW227474   6.752   4.024   5.446
 8859SOL     OW27475   2.897   5.914   5.167
 8859SOL    HW127476   2.944   5.996   5.134
 8859SOL    HW227477   2.959   5.836   5.163
 8860SOL     OW27478   1.505   1.920   1.111
 8860SOL    HW127479   1.535   2.002   1.063
 8860SOL    HW227480   1.415   1.893   1.078
 8861SOL     OW27481   2.206   2.603   1.286
 8861SOL    HW127482   2.204   2.510   1.323
 8861SOL    HW227483   2.192   2.600   1.187
 8862SOL     OW27484   6.546   2.218   5.075
 8862SOL    HW127485   6.496   2.195   4.992
 8862SOL    HW227486   6.485   2.266   5.139
 8863SOL     OW27487   1.424   5.535   5.045
 8863SOL    HW127488   1.495   5.500   5.106
 8863SOL    HW227489   1.373   5.607   5.091
 8864SOL     OW27490   1.478   4.003   6.105
 8864SOL    HW127491   1.401   3.940   6.111
 8864SOL    HW227492   1.448   4.088   6.062
 8865SOL     OW27493   2.362   2.414   5.631
 8865SOL    HW127494   2.439   2.476   5.639
 8865SOL    HW227495   2.341   2.375   5.721
 8866SOL     OW27496   4.609   6.883   5.788
 8866SOL    HW127497   4.518   6.841   5.793
 8866SOL    HW227498   4.662   6.856   5.869
 8867SOL     OW27499   6.591   1.201   4.036
 8867SOL    HW127500   6.509   1.166   3.992
 8867SOL    HW227501   6.597   1.300   4.021
 8868SOL     OW27502   4.836   3.288   1.183
 8868SOL    HW127503   4.796   3.260   1.095
 8868SOL    HW227504   4.876   3.208   1.228
 8869SOL     OW27505   4.299   2.285   3.579
 8869SOL    HW127506   4.217   2.253   3.628
 8869SOL    HW227507   4.376   2.289   3.643
 8870SOL     OW27508   4.562   1.132   1.989
 8870SOL    HW127509   4.469   1.096   1.982
 8870SOL    HW227510   4.626   1.056   2.006
 8871SOL     OW27511   1.355   2.695   4.494
 8871SOL    HW127512   1.371   2.646   4.408
 8871SOL    HW227513   1.396   2.786   4.488
 8872SOL     OW27514   1.739   3.072   2.727
 8872SOL    HW127515   1.655   3.088   2.674
 8872SOL    HW227516   1.793   3.000   2.683
 8873SOL     OW27517   0.065   5.775   5.137
 8873SOL    HW127518   7.002   5.801   5.096
 8873SOL    HW227519   0.052   5.696   5.196
 8874SOL     OW27520   0.641   1.426   6.671
 8874SOL    HW127521   0.550   1.399   6.700
 8874SOL    HW227522   0.675   1.361   6.603
 8875SOL     OW27523   1.672   1.174   4.329
 8875SOL    HW127524   1.589   1.161   4.384
 8875SOL    HW227525   1.721   1.088   4.321
 8876SOL     OW27526   2.591   0.605   4.720
 8876SOL    HW127527   2.683   0.643   4.734
 8876SOL    HW227528   2.541   0.607   4.806
 8877SOL     OW27529   3.287   6.650   4.655
 8877SOL    HW127530   3.334   6.666   4.568
 8877SOL    HW227531   3.240   6.561   4.651
 8878SOL     OW27532   5.858   4.676   5.581
 8878SOL    HW127533   5.811   4.700   5.666
 8878SOL    HW227534   5.947   4.634   5.603
 8879SOL     OW27535   4.894   5.715   4.913
 8879SOL    HW127536   4.824   5.649   4.884
 8879SOL    HW227537   4.946   5.745   4.833
 8880SOL     OW27538   0.122   5.955   5.496
 8880SOL    HW127539   0.117   5.856   5.511
 8880SOL    HW227540   0.181   5.974   5.418
 8881SOL     OW27541   6.793   0.490   1.760
 8881SOL    HW127542   6.822   0.452   1.672
 8881SOL    HW227543   6.819   0.586   1.766
 8882SOL     OW27544   5.355   2.449   6.774
 8882SOL    HW127545   5.440   2.432   6.824
 8882SOL    HW227546   5.367   2.425   6.678
 8883SOL     OW27547   0.172   1.433   5.493
 8883SOL    HW127548   0.248   1.477   5.445
 8883SOL    HW227549   0.108   1.396   5.427
 8884SOL     OW27550   6.870   1.045   5.670
 8884SOL    HW127551   6.790   1.102   5.688
 8884SOL    HW227552   6.938   1.060   5.741
 8885SOL     OW27553   5.316   3.376   1.625
 8885SOL    HW127554   5.348   3.437   1.552
 8885SOL    HW227555   5.273   3.430   1.697
 8886SOL     OW27556   2.916   5.865   6.089
 8886SOL    HW127557   2.892   5.787   6.147
 8886SOL    HW227558   2.832   5.911   6.059
 8887SOL     OW27559   1.600   0.023   1.136
 8887SOL    HW127560   1.544   0.104   1.154
 8887SOL    HW227561   1.697   0.048   1.137
 8888SOL     OW27562   3.468   2.092   3.555
 8888SOL    HW127563   3.557   2.137   3.560
 8888SOL    HW227564   3.440   2.064   3.647
 8889SOL     OW27565   3.640   0.248   5.083
 8889SOL    HW127566   3.580   0.234   5.004
 8889SOL    HW227567   3.618   0.335   5.127
 8890SOL     OW27568   0.767   4.092   3.647
 8890SOL    HW127569   0.739   4.053   3.559
 8890SOL    HW227570   0.862   4.068   3.665
 8891SOL     OW27571   2.458   1.792   5.921
 8891SOL    HW127572   2.375   1.827   5.878
 8891SOL    HW227573   2.505   1.866   5.968
 8892SOL     OW27574   1.216   6.833   2.900
 8892SOL    HW127575   1.183   6.756   2.846
 8892SOL    HW227576   1.290   6.880   2.851
 8893SOL     OW27577   0.048   0.750   0.873
 8893SOL    HW127578   0.058   0.849   0.884
 8893SOL    HW227579   0.069   0.705   0.960
 8894SOL     OW27580   4.264   2.737   6.423
 8894SOL    HW127581   4.280   2.675   6.499
 8894SOL    HW227582   4.329   2.813   6.429
 8895SOL     OW27583   1.677   0.931   1.944
 8895SOL    HW127584   1.586   0.902   1.913
 8895SOL    HW227585   1.668   1.014   2.000
 8896SOL     OW27586   2.248   4.247   4.749
 8896SOL    HW127587   2.198   4.210   4.826
 8896SOL    HW227588   2.265   4.175   4.682
 8897SOL     OW27589   1.125   2.530   1.466
 8897SOL    HW127590   1.140   2.448   1.522
 8897SOL    HW227591   1.028   2.535   1.440
 8898SOL     OW27592   6.811   3.019   4.811
 8898SOL    HW127593   6.779   3.068   4.729
 8898SOL    HW227594   6.792   3.074   4.892
 8899SOL     OW27595   3.103   4.742   0.548
 8899SOL    HW127596   3.167   4.668   0.526
 8899SOL    HW227597   3.114   4.768   0.644
 8900SOL     OW27598   6.986   1.621   3.212
 8900SOL    HW127599   6.919   1.548   3.216
 8900SOL    HW227600   0.050   1.584   3.187
 8901SOL     OW27601   1.955   7.008   1.917
 8901SOL    HW127602   1.860   6.975   1.915
 8901SOL    HW227603   1.955   0.082   1.925
 8902SOL     OW27604   3.204   5.919   5.052
 8902SOL    HW127605   3.242   5.946   4.964
 8902SOL    HW227606   3.152   5.996   5.091
 8903SOL     OW27607   0.693   0.822   3.453
 8903SOL    HW127608   0.630   0.860   3.385
 8903SOL    HW227609   0.772   0.781   3.407
 8904SOL     OW27610   1.282   5.474   3.132
 8904SOL    HW127611   1.330   5.394   3.169
 8904SOL    HW227612   1.345   5.551   3.127
 8905SOL     OW27613   2.082   4.138   4.971
 8905SOL    HW127614   2.002   4.078   4.968
 8905SOL    HW227615   2.160   4.088   5.008
 8906SOL     OW27616   1.621   5.138   4.570
 8906SOL    HW127617   1.643   5.205   4.641
 8906SOL    HW227618   1.669   5.052   4.589
 8907SOL     OW27619   4.019   2.844   5.796
 8907SOL    HW127620   4.112   2.835   5.832
 8907SOL    HW227621   3.989   2.939   5.803
 8908SOL     OW27622   0.303   2.575   2.353
 8908SOL    HW127623   0.283   2.519   2.273
 8908SOL    HW227624   0.402   2.590   2.359
 8909SOL     OW27625   2.271   0.055   5.512
 8909SOL    HW127626   2.260   0.013   5.602
 8909SOL    HW227627   2.288   7.008   5.444
 8910SOL     OW27628   4.117   3.065   6.634
 8910SOL    HW127629   4.082   2.972   6.624
 8910SOL    HW227630   4.068   3.111   6.707
 8911SOL     OW27631   4.777   2.494   3.898
 8911SOL    HW127632   4.726   2.515   3.815
 8911SOL    HW227633   4.791   2.578   3.951
 8912SOL     OW27634   5.438   1.825   6.693
 8912SOL    HW127635   5.514   1.759   6.695
 8912SOL    HW227636   5.428   1.860   6.600
 8913SOL     OW27637   4.819   4.059   0.966
 8913SOL    HW127638   4.744   4.033   0.905
 8913SOL    HW227639   4.799   4.148   1.007
 8914SOL     OW27640   4.682   1.766   3.412
 8914SOL    HW127641   4.652   1.792   3.504
 8914SOL    HW227642   4.614   1.705   3.371
 8915SOL     OW27643   1.175   5.558   2.021
 8915SOL    HW127644   1.081   5.590   2.010
 8915SOL    HW227645   1.207   5.580   2.113
 8916SOL     OW27646   5.990   3.376   2.308
 8916SOL    HW127647   6.025   3.429   2.231
 8916SOL    HW227648   6.058   3.309   2.336
 8917SOL     OW27649   5.454   5.501   5.478
 8917SOL    HW127650   5.532   5.464   5.427
 8917SOL    HW227651   5.478   5.509   5.575
 8918SOL     OW27652   4.900   4.083   6.034
 8918SOL    HW127653   4.985   4.122   6.071
 8918SOL    HW227654   4.902   3.984   6.043
 8919SOL     OW27655   2.484   3.822   1.396
 8919SOL    HW127656   2.395   3.809   1.352
 8919SOL    HW227657   2.543   3.878   1.337
 8920SOL     OW27658   6.314   5.108   5.596
 8920SOL    HW127659   6.261   5.192   5.588
 8920SOL    HW227660   6.372   5.097   5.515
 8921SOL     OW27661   1.464   5.345   3.421
 8921SOL    HW127662   1.412   5.287   3.483
 8921SOL    HW227663   1.475   5.298   3.333
 8922SOL     OW27664   6.524   4.402   6.949
 8922SOL    HW127665   6.459   4.477   6.954
 8922SOL    HW227666   6.479   4.322   6.910
 8923SOL     OW27667   2.007   3.945   4.713
 8923SOL    HW127668   1.939   3.888   4.759
 8923SOL    HW227669   1.968   4.035   4.695
 8924SOL     OW27670   2.744   5.558   5.208
 8924SOL    HW127671   2.810   5.483   5.216
 8924SOL    HW227672   2.713   5.565   5.113
 8925SOL     OW27673   5.142   6.170   1.802
 8925SOL    HW127674   5.152   6.079   1.761
 8925SOL    HW227675   5.124   6.237   1.730
 8926SOL     OW27676   4.934   0.873   6.991
 8926SOL    HW127677   5.033   0.874   6.978
 8926SOL    HW227678   4.913   0.855   0.062
 8927SOL     OW27679   2.264   1.520   4.221
 8927SOL    HW127680   2.222   1.607   4.249
 8927SOL    HW227681   2.355   1.538   4.183
 8928SOL     OW27682   0.977   6.964   3.777
 8928SOL    HW127683   1.064   7.007   3.802
 8928SOL    HW227684   0.931   7.020   3.708
 8929SOL     OW27685   5.256   4.478   4.030
 8929SOL    HW127686   5.219   4.569   4.047
 8929SOL    HW227687   5.261   4.462   3.931
 8930SOL     OW27688   1.325   5.067   4.891
 8930SOL    HW127689   1.268   5.026   4.819
 8930SOL    HW227690   1.313   5.166   4.890
 8931SOL     OW27691   5.023   1.058   1.518
 8931SOL    HW127692   5.112   1.014   1.507
 8931SOL    HW227693   5.031   1.156   1.497
 8932SOL     OW27694   6.026   0.695   0.253
 8932SOL    HW127695   6.089   0.635   0.204
 8932SOL    HW227696   5.947   0.714   0.194
 8933SOL     OW27697   1.446   0.565   5.664
 8933SOL    HW127698   1.425   0.476   5.624
 8933SOL    HW227699   1.363   0.622   5.663
 8934SOL     OW27700   4.502   6.876   3.398
 8934SOL    HW127701   4.599   6.901   3.396
 8934SOL    HW227702   4.458   6.918   3.478
 8935SOL     OW27703   6.176   1.866   2.529
 8935SOL    HW127704   6.245   1.915   2.475
 8935SOL    HW227705   6.087   1.874   2.484
 8936SOL     OW27706   1.895   3.950   2.984
 8936SOL    HW127707   1.811   3.906   2.952
 8936SOL    HW227708   1.878   4.047   3.001
 8937SOL     OW27709   4.048   0.709   5.302
 8937SOL    HW127710   3.970   0.649   5.285
 8937SOL    HW227711   4.119   0.691   5.234
 8938SOL     OW27712   5.763   6.676   1.756
 8938SOL    HW127713   5.726   6.614   1.686
 8938SOL    HW227714   5.803   6.756   1.712
 8939SOL     OW27715   0.508   2.660   4.554
 8939SOL    HW127716   0.529   2.638   4.459
 8939SOL    HW227717   0.448   2.739   4.558
 8940SOL     OW27718   6.473   2.942   1.870
 8940SOL    HW127719   6.480   2.964   1.968
 8940SOL    HW227720   6.408   3.005   1.827
 8941SOL     OW27721   5.232   2.145   3.087
 8941SOL    HW127722   5.145   2.157   3.040
 8941SOL    HW227723   5.235   2.204   3.168
 8942SOL     OW27724   4.803   4.374   4.057
 8942SOL    HW127725   4.802   4.444   3.986
 8942SOL    HW227726   4.888   4.379   4.108
 8943SOL     OW27727   4.424   2.559   0.869
 8943SOL    HW127728   4.355   2.489   0.848
 8943SOL    HW227729   4.430   2.570   0.969
 8944SOL     OW27730   4.859   5.735   5.213
 8944SOL    HW127731   4.888   5.730   5.118
 8944SOL    HW227732   4.804   5.817   5.228
 8945SOL     OW27733   5.700   3.907   2.673
 8945SOL    HW127734   5.634   3.971   2.634
 8945SOL    HW227735   5.770   3.957   2.723
 8946SOL     OW27736   4.285   1.256   5.116
 8946SOL    HW127737   4.372   1.222   5.154
 8946SOL    HW227738   4.304   1.320   5.042
 8947SOL     OW27739   2.281   4.701   0.196
 8947SOL    HW127740   2.311   4.742   0.282
 8947SOL    HW227741   2.224   4.766   0.146
 8948SOL     OW27742   5.470   0.702   2.938
 8948SOL    HW127743   5.399   0.763   2.974
 8948SOL    HW227744   5.451   0.608   2.967
 8949SOL     OW27745   3.430   6.123   0.691
 8949SOL    HW127746   3.377   6.059   0.747
 8949SOL    HW227747   3.381   6.140   0.606
 8950SOL     OW27748   3.253   3.641   2.499
 8950SOL    HW127749   3.311   3.618   2.577
 8950SOL    HW227750   3.293   3.718   2.449
 8951SOL     OW27751   0.805   0.566   4.352
 8951SOL    HW127752   0.797   0.541   4.256
 8951SOL    HW227753   0.721   0.541   4.400
 8952SOL     OW27754   1.782   4.558   4.183
 8952SOL    HW127755   1.861   4.513   4.225
 8952SOL    HW227756   1.723   4.490   4.141
 8953SOL     OW27757   0.918   4.769   1.425
 8953SOL    HW127758   0.870   4.681   1.421
 8953SOL    HW227759   0.929   4.795   1.521
 8954SOL     OW27760   2.066   4.111   5.519
 8954SOL    HW127761   2.141   4.172   5.495
 8954SOL    HW227762   2.036   4.131   5.612
 8955SOL     OW27763   5.714   2.910   5.162
 8955SOL    HW127764   5.733   2.836   5.226
 8955SOL    HW227765   5.615   2.929   5.162
 8956SOL     OW27766   0.753   5.965   1.034
 8956SOL    HW127767   0.846   5.927   1.034
 8956SOL    HW227768   0.755   6.058   0.997
 8957SOL     OW27769   1.326   6.440   2.629
 8957SOL    HW127770   1.411   6.485   2.654
 8957SOL    HW227771   1.328   6.418   2.531
 8958SOL     OW27772   0.709   4.454   4.675
 8958SOL    HW127773   0.644   4.488   4.606
 8958SOL    HW227774   0.704   4.354   4.679
 8959SOL     OW27775   5.838   1.747   4.146
 8959SOL    HW127776   5.850   1.656   4.106
 8959SOL    HW227777   5.741   1.764   4.162
 8960SOL     OW27778   5.221   5.379   2.998
 8960SOL    HW127779   5.256   5.382   3.091
 8960SOL    HW227780   5.203   5.285   2.972
 8961SOL     OW27781   2.831   1.778   4.734
 8961SOL    HW127782   2.817   1.858   4.675
 8961SOL    HW227783   2.889   1.712   4.687
 8962SOL     OW27784   6.227   5.549   2.264
 8962SOL    HW127785   6.213   5.451   2.250
 8962SOL    HW227786   6.139   5.595   2.269
 8963SOL     OW27787   2.891   6.656   6.210
 8963SOL    HW127788   2.793   6.658   6.193
 8963SOL    HW227789   2.914   6.718   6.284
 8964SOL     OW27790   2.157   3.153   3.856
 8964SOL    HW127791   2.247   3.111   3.844
 8964SOL    HW227792   2.152   3.195   3.947
 8965SOL     OW27793   4.105   5.491   0.494
 8965SOL    HW127794   4.162   5.427   0.442
 8965SOL    HW227795   4.098   5.459   0.589
 8966SOL     OW27796   5.333   0.307   5.282
 8966SOL    HW127797   5.254   0.247   5.286
 8966SOL    HW227798   5.417   0.253   5.279
 8967SOL     OW27799   3.203   0.164   3.398
 8967SOL    HW127800   3.182   0.210   3.484
 8967SOL    HW227801   3.221   0.067   3.416
 8968SOL     OW27802   3.693   4.901   2.207
 8968SOL    HW127803   3.627   4.871   2.276
 8968SOL    HW227804   3.676   4.852   2.122
 8969SOL     OW27805   7.009   0.596   2.839
 8969SOL    HW127806   6.990   0.687   2.804
 8969SOL    HW227807   6.924   0.546   2.851
 8970SOL     OW27808   1.985   1.154   3.263
 8970SOL    HW127809   1.938   1.233   3.223
 8970SOL    HW227810   1.959   1.144   3.359
 8971SOL     OW27811   3.360   4.179   1.025
 8971SOL    HW127812   3.292   4.162   1.097
 8971SOL    HW227813   3.316   4.170   0.935
 8972SOL     OW27814   5.056   3.837   6.726
 8972SOL    HW127815   5.043   3.738   6.739
 8972SOL    HW227816   5.039   3.861   6.631
 8973SOL     OW27817   2.675   2.363   2.989
 8973SOL    HW127818   2.593   2.310   2.967
 8973SOL    HW227819   2.756   2.312   2.961
 8974SOL     OW27820   2.137   4.429   4.044
 8974SOL    HW127821   2.183   4.499   3.989
 8974SOL    HW227822   2.039   4.429   4.025
 8975SOL     OW27823   6.734   4.427   5.777
 8975SOL    HW127824   6.703   4.477   5.696
 8975SOL    HW227825   6.689   4.463   5.858
 8976SOL     OW27826   5.996   0.158   1.969
 8976SOL    HW127827   6.009   0.257   1.966
 8976SOL    HW227828   6.071   0.117   2.022
 8977SOL     OW27829   6.610   4.499   6.705
 8977SOL    HW127830   6.607   4.596   6.682
 8977SOL    HW227831   6.597   4.487   6.803
 8978SOL     OW27832   6.014   5.754   6.105
 8978SOL    HW127833   6.054   5.675   6.151
 8978SOL    HW227834   6.085   5.799   6.050
 8979SOL     OW27835   1.804   5.136   3.635
 8979SOL    HW127836   1.710   5.161   3.655
 8979SOL    HW227837   1.821   5.042   3.664
 8980SOL     OW27838   3.712   0.686   0.251
 8980SOL    HW127839   3.752   0.609   0.301
 8980SOL    HW227840   3.685   0.757   0.316
 8981SOL     OW27841   3.923   2.155   6.555
 8981SOL    HW127842   3.926   2.154   6.655
 8981SOL    HW227843   3.861   2.227   6.525
 8982SOL     OW27844   0.258   1.276   1.580
 8982SOL    HW127845   0.212   1.253   1.494
 8982SOL    HW227846   0.286   1.192   1.626
 8983SOL     OW27847   1.496   0.008   2.224
 8983SOL    HW127848   1.533   7.000   2.137
 8983SOL    HW227849   1.556   0.079   2.261
 8984SOL     OW27850   0.020   1.403   4.770
 8984SOL    HW127851   7.017   1.308   4.755
 8984SOL    HW227852   0.105   1.404   4.823
 8985SOL     OW27853   4.867   1.309   2.585
 8985SOL    HW127854   4.863   1.406   2.562
 8985SOL    HW227855   4.798   1.288   2.654
 8986SOL     OW27856   0.052   5.622   0.327
 8986SOL    HW127857   0.049   5.543   0.388
 8986SOL    HW227858   6.993   5.675   0.338
 8987SOL     OW27859   2.274   6.978   1.464
 8987SOL    HW127860   2.284   0.053   1.464
 8987SOL    HW227861   2.191   6.953   1.514
 8988SOL     OW27862   2.987   0.135   0.987
 8988SOL    HW127863   2.910   0.087   1.028
 8988SOL    HW227864   3.051   0.163   1.059
 8989SOL     OW27865   5.836   1.562   2.599
 8989SOL    HW127866   5.913   1.589   2.542
 8989SOL    HW227867   5.853   1.472   2.639
 8990SOL     OW27868   3.270   0.859   2.990
 8990SOL    HW127869   3.252   0.935   2.928
 8990SOL    HW227870   3.222   0.875   3.076
 8991SOL     OW27871   1.392   2.705   0.696
 8991SOL    HW127872   1.445   2.728   0.614
 8991SOL    HW227873   1.295   2.723   0.678
 8992SOL     OW27874   6.456   4.278   6.315
 8992SOL    HW127875   6.514   4.238   6.244
 8992SOL    HW227876   6.363   4.289   6.279
 8993SOL     OW27877   5.712   4.390   4.837
 8993SOL    HW127878   5.763   4.475   4.846
 8993SOL    HW227879   5.614   4.408   4.852
 8994SOL     OW27880   1.327   6.275   2.854
 8994SOL    HW127881   1.239   6.246   2.893
 8994SOL    HW227882   1.314   6.356   2.797
 8995SOL     OW27883   1.845   4.015   4.124
 8995SOL    HW127884   1.789   3.941   4.161
 8995SOL    HW227885   1.866   4.080   4.197
 8996SOL     OW27886   1.962   3.632   1.416
 8996SOL    HW127887   2.032   3.685   1.464
 8996SOL    HW227888   1.884   3.692   1.396
 8997SOL     OW27889   4.364   1.397   5.558
 8997SOL    HW127890   4.379   1.443   5.470
 8997SOL    HW227891   4.395   1.303   5.552
 8998SOL     OW27892   0.706   1.482   6.195
 8998SOL    HW127893   0.741   1.422   6.122
 8998SOL    HW227894   0.607   1.473   6.199
 8999SOL     OW27895   5.329   2.455   5.398
 8999SOL    HW127896   5.372   2.543   5.381
 8999SOL    HW227897   5.393   2.395   5.446
 9000SOL     OW27898   3.497   4.902   0.899
 9000SOL    HW127899   3.578   4.861   0.858
 9000SOL    HW227900   3.502   4.897   0.998
 9001SOL     OW27901   2.225   4.252   3.549
 9001SOL    HW127902   2.142   4.204   3.578
 9001SOL    HW227903   2.261   4.210   3.465
 9002SOL     OW27904   5.601   4.010   5.325
 9002SOL    HW127905   5.670   4.058   5.271
 9002SOL    HW227906   5.621   4.022   5.422
 9003SOL     OW27907   6.477   3.174   6.475
 9003SOL    HW127908   6.432   3.151   6.560
 9003SOL    HW227909   6.474   3.096   6.413
 9004SOL     OW27910   5.063   5.473   0.984
 9004SOL    HW127911   5.069   5.381   0.945
 9004SOL    HW227912   4.967   5.496   1.002
 9005SOL     OW27913   5.157   2.793   3.741
 9005SOL    HW127914   5.148   2.831   3.833
 9005SOL    HW227915   5.197   2.702   3.746
 9006SOL     OW27916   2.242   6.860   1.096
 9006SOL    HW127917   2.277   6.786   1.154
 9006SOL    HW227918   2.318   6.916   1.063
 9007SOL     OW27919   2.060   5.927   4.760
 9007SOL    HW127920   2.087   5.865   4.687
 9007SOL    HW227921   2.006   5.876   4.828
 9008SOL     OW27922   0.545   4.206   2.622
 9008SOL    HW127923   0.629   4.152   2.626
 9008SOL    HW227924   0.547   4.276   2.693
 9009SOL     OW27925   4.397   6.466   0.105
 9009SOL    HW127926   4.321   6.436   0.048
 9009SOL    HW227927   4.363   6.496   0.194
 9010SOL     OW27928   0.193   5.415   4.725
 9010SOL    HW127929   0.247   5.486   4.772
 9010SOL    HW227930   0.226   5.406   4.631
 9011SOL     OW27931   4.526   2.254   2.748
 9011SOL    HW127932   4.568   2.316   2.681
 9011SOL    HW227933   4.478   2.309   2.817
 9012SOL     OW27934   5.380   5.389   2.269
 9012SOL    HW127935   5.417   5.408   2.360
 9012SOL    HW227936   5.453   5.398   2.201
 9013SOL     OW27937   4.564   6.645   2.778
 9013SOL    HW127938   4.469   6.614   2.791
 9013SOL    HW227939   4.613   6.639   2.865
 9014SOL     OW27940   2.255   0.733   1.159
 9014SOL    HW127941   2.192   0.809   1.176
 9014SOL    HW227942   2.296   0.743   1.068
 9015SOL     OW27943   6.352   1.735   4.822
 9015SOL    HW127944   6.287   1.807   4.845
 9015SOL    HW227945   6.395   1.701   4.905
 9016SOL     OW27946   6.949   5.739   6.155
 9016SOL    HW127947   6.963   5.746   6.254
 9016SOL    HW227948   0.000   5.783   6.107
 9017SOL     OW27949   6.940   3.817   3.123
 9017SOL    HW127950   6.923   3.896   3.182
 9017SOL    HW227951   7.024   3.771   3.152
 9018SOL     OW27952   3.613   1.748   5.975
 9018SOL    HW127953   3.593   1.847   5.974
 9018SOL    HW227954   3.704   1.732   5.938
 9019SOL     OW27955   1.417   5.199   0.076
 9019SOL    HW127956   1.402   5.117   0.131
 9019SOL    HW227957   1.338   5.215   0.017
 9020SOL     OW27958   1.133   4.939   3.535
 9020SOL    HW127959   1.164   5.017   3.481
 9020SOL    HW227960   1.109   4.864   3.474
 9021SOL     OW27961   6.194   5.614   5.233
 9021SOL    HW127962   6.108   5.586   5.276
 9021SOL    HW227963   6.220   5.546   5.165
 9022SOL     OW27964   2.925   6.757   6.650
 9022SOL    HW127965   2.883   6.845   6.630
 9022SOL    HW227966   3.017   6.755   6.611
 9023SOL     OW27967   3.456   3.052   3.480
 9023SOL    HW127968   3.429   2.988   3.553
 9023SOL    HW227969   3.543   3.095   3.504
 9024SOL     OW27970   0.781   0.420   6.623
 9024SOL    HW127971   0.708   0.378   6.676
 9024SOL    HW227972   0.818   0.354   6.558
 9025SOL     OW27973   0.186   3.918   0.268
 9025SOL    HW127974   0.096   3.913   0.225
 9025SOL    HW227975   0.240   3.838   0.240
 9026SOL     OW27976   2.972   3.374   5.617
 9026SOL    HW127977   2.975   3.469   5.584
 9026SOL    HW227978   2.877   3.346   5.628
 9027SOL     OW27979   2.315   2.796   2.529
 9027SOL    HW127980   2.355   2.718   2.576
 9027SOL    HW227981   2.311   2.777   2.431
 9028SOL     OW27982   2.658   4.764   4.439
 9028SOL    HW127983   2.580   4.748   4.378
 9028SOL    HW227984   2.646   4.711   4.523
 9029SOL     OW27985   5.760   5.484   2.951
 9029SOL    HW127986   5.681   5.446   2.999
 9029SOL    HW227987   5.779   5.576   2.986
 9030SOL     OW27988   3.762   2.113   2.265
 9030SOL    HW127989   3.699   2.134   2.190
 9030SOL    HW227990   3.793   2.198   2.307
 9031SOL     OW27991   1.557   1.559   1.013
 9031SOL    HW127992   1.634   1.495   1.006
 9031SOL    HW227993   1.538   1.597   0.923
 9032SOL     OW27994   1.121   2.932   2.702
 9032SOL    HW127995   1.136   2.833   2.694
 9032SOL    HW227996   1.023   2.951   2.704
 9033SOL     OW27997   1.526   3.922   1.722
 9033SOL    HW127998   1.537   3.878   1.810
 9033SOL    HW227999   1.525   4.021   1.734
 9034SOL     OW28000   1.743   6.685   6.803
 9034SOL    HW128001   1.749   6.621   6.726
 9034SOL    HW228002   1.696   6.641   6.880
 9035SOL     OW28003   0.158   0.635   4.418
 9035SOL    HW128004   0.107   0.721   4.409
 9035SOL    HW228005   0.167   0.613   4.515
 9036SOL     OW28006   1.230   1.460   4.117
 9036SOL    HW128007   1.193   1.370   4.093
 9036SOL    HW228008   1.271   1.502   4.036
 9037SOL     OW28009   2.473   4.044   5.971
 9037SOL    HW128010   2.446   4.096   5.889
 9037SOL    HW228011   2.391   4.004   6.013
 9038SOL     OW28012   4.687   6.223   5.182
 9038SOL    HW128013   4.729   6.230   5.092
 9038SOL    HW228014   4.687   6.127   5.211
 9039SOL     OW28015   2.778   4.557   6.751
 9039SOL    HW128016   2.857   4.591   6.698
 9039SOL    HW228017   2.706   4.626   6.751
 9040SOL     OW28018   2.937   1.959   2.355
 9040SOL    HW128019   3.011   1.979   2.290
 9040SOL    HW228020   2.853   1.941   2.304
 9041SOL     OW28021   1.627   3.082   6.448
 9041SOL    HW128022   1.543   3.065   6.396
 9041SOL    HW228023   1.604   3.127   6.534
 9042SOL     OW28024   2.200   5.636   3.472
 9042SOL    HW128025   2.120   5.644   3.532
 9042SOL    HW228026   2.235   5.542   3.474
 9043SOL     OW28027   6.346   2.426   0.556
 9043SOL    HW128028   6.371   2.489   0.630
 9043SOL    HW228029   6.264   2.375   0.583
 9044SOL     OW28030   6.776   4.311   0.730
 9044SOL    HW128031   6.728   4.398   0.744
 9044SOL    HW228032   6.865   4.329   0.688
 9045SOL     OW28033   2.478   5.665   4.009
 9045SOL    HW128034   2.453   5.732   4.079
 9045SOL    HW228035   2.407   5.595   4.003
 9046SOL     OW28036   3.791   4.614   5.971
 9046SOL    HW128037   3.714   4.622   6.035
 9046SOL    HW228038   3.862   4.557   6.013
 9047SOL     OW28039   1.063   4.528   4.744
 9047SOL    HW128040   0.989   4.587   4.777
 9047SOL    HW228041   1.130   4.515   4.818
 9048SOL     OW28042   1.510   2.294   4.918
 9048SOL    HW128043   1.562   2.311   4.834
 9048SOL    HW228044   1.416   2.271   4.895
 9049SOL     OW28045   4.671   6.281   6.709
 9049SOL    HW128046   4.751   6.225   6.733
 9049SOL    HW228047   4.702   6.368   6.671
 9050SOL     OW28048   0.001   5.020   5.440
 9050SOL    HW128049   0.097   5.036   5.465
 9050SOL    HW228050   6.969   5.025   5.521
 9051SOL     OW28051   5.349   6.671   5.850
 9051SOL    HW128052   5.373   6.695   5.756
 9051SOL    HW228053   5.396   6.586   5.875
 9052SOL     OW28054   3.134   5.228   5.100
 9052SOL    HW128055   3.153   5.131   5.081
 9052SOL    HW228056   3.163   5.283   5.022
 9053SOL     OW28057   3.488   1.658   2.949
 9053SOL    HW128058   3.413   1.701   2.998
 9053SOL    HW228059   3.511   1.712   2.868
 9054SOL     OW28060   2.422   0.040   0.928
 9054SOL    HW128061   2.513   0.008   0.901
 9054SOL    HW228062   2.430   0.099   1.008
 9055SOL     OW28063   0.839   2.432   4.951
 9055SOL    HW128064   0.846   2.373   4.870
 9055SOL    HW228065   0.778   2.389   5.017
 9056SOL     OW28066   4.707   2.744   2.570
 9056SOL    HW128067   4.656   2.722   2.654
 9056SOL    HW228068   4.732   2.841   2.572
 9057SOL     OW28069   3.946   6.252   0.243
 9057SOL    HW128070   4.040   6.283   0.232
 9057SOL    HW228071   3.934   6.212   0.334
 9058SOL     OW28072   2.152   2.619   4.438
 9058SOL    HW128073   2.059   2.589   4.416
 9058SOL    HW228074   2.214   2.540   4.436
 9059SOL     OW28075   0.306   1.071   2.344
 9059SOL    HW128076   0.322   1.153   2.399
 9059SOL    HW228077   0.262   1.096   2.258
 9060SOL     OW28078   0.440   5.204   1.385
 9060SOL    HW128079   0.453   5.302   1.370
 9060SOL    HW228080   0.520   5.154   1.353
 9061SOL     OW28081   5.100   4.082   2.428
 9061SOL    HW128082   5.021   4.141   2.413
 9061SOL    HW228083   5.088   3.997   2.377
 9062SOL     OW28084   1.251   5.777   2.838
 9062SOL    HW128085   1.156   5.771   2.807
 9062SOL    HW228086   1.282   5.872   2.832
 9063SOL     OW28087   4.798   1.555   1.809
 9063SOL    HW128088   4.811   1.648   1.841
 9063SOL    HW228089   4.887   1.510   1.801
 9064SOL     OW28090   1.122   5.869   3.384
 9064SOL    HW128091   1.027   5.885   3.358
 9064SOL    HW228092   1.177   5.852   3.303
 9065SOL     OW28093   3.291   4.268   6.054
 9065SOL    HW128094   3.282   4.170   6.068
 9065SOL    HW228095   3.250   4.317   6.131
 9066SOL     OW28096   4.421   5.034   3.999
 9066SOL    HW128097   4.343   5.012   4.058
 9066SOL    HW228098   4.388   5.062   3.909
 9067SOL     OW28099   1.856   6.628   4.642
 9067SOL    HW128100   1.785   6.686   4.681
 9067SOL    HW228101   1.849   6.536   4.681
 9068SOL     OW28102   3.751   0.754   6.327
 9068SOL    HW128103   3.793   0.822   6.387
 9068SOL    HW228104   3.665   0.789   6.291
 9069SOL     OW28105   5.474   2.983   1.881
 9069SOL    HW128106   5.486   2.950   1.788
 9069SOL    HW228107   5.384   3.028   1.890
 9070SOL     OW28108   1.851   1.465   5.586
 9070SOL    HW128109   1.752   1.457   5.597
 9070SOL    HW228110   1.897   1.423   5.664
 9071SOL     OW28111   5.580   2.467   6.482
 9071SOL    HW128112   5.607   2.456   6.386
 9071SOL    HW228113   5.662   2.475   6.539
 9072SOL     OW28114   5.452   0.157   2.277
 9072SOL    HW128115   5.468   0.246   2.236
 9072SOL    HW228116   5.379   0.164   2.345
 9073SOL     OW28117   4.562   2.972   5.458
 9073SOL    HW128118   4.553   2.920   5.372
 9073SOL    HW228119   4.516   2.922   5.531
 9074SOL     OW28120   2.134   1.066   2.848
 9074SOL    HW128121   2.035   1.070   2.836
 9074SOL    HW228122   2.158   1.103   2.938
 9075SOL     OW28123   5.859   6.074   0.311
 9075SOL    HW128124   5.779   6.028   0.352
 9075SOL    HW228125   5.858   6.171   0.338
 9076SOL     OW28126   0.735   6.612   2.460
 9076SOL    HW128127   0.799   6.584   2.388
 9076SOL    HW228128   0.754   6.706   2.486
 9077SOL     OW28129   6.235   1.772   6.784
 9077SOL    HW128130   6.172   1.699   6.814
 9077SOL    HW228131   6.328   1.735   6.779
 9078SOL     OW28132   5.222   0.499   7.003
 9078SOL    HW128133   5.311   0.455   6.993
 9078SOL    HW228134   5.181   0.514   6.913
 9079SOL     OW28135   0.883   1.370   6.363
 9079SOL    HW128136   0.804   1.426   6.337
 9079SOL    HW228137   0.888   1.290   6.303
 9080SOL     OW28138   6.027   3.867   2.326
 9080SOL    HW128139   6.114   3.865   2.374
 9080SOL    HW228140   5.956   3.827   2.384
 9081SOL     OW28141   4.896   1.905   0.792
 9081SOL    HW128142   4.969   1.948   0.847
 9081SOL    HW228143   4.848   1.838   0.848
 9082SOL     OW28144   3.550   5.388   6.171
 9082SOL    HW128145   3.477   5.433   6.119
 9082SOL    HW228146   3.509   5.317   6.230
 9083SOL     OW28147   3.461   6.671   0.752
 9083SOL    HW128148   3.464   6.571   0.743
 9083SOL    HW228149   3.445   6.695   0.848
 9084SOL     OW28150   0.203   3.553   4.886
 9084SOL    HW128151   0.245   3.643   4.894
 9084SOL    HW228152   0.234   3.510   4.801
 9085SOL     OW28153   2.664   5.253   0.326
 9085SOL    HW128154   2.732   5.274   0.256
 9085SOL    HW228155   2.700   5.184   0.388
 9086SOL     OW28156   0.022   3.353   0.573
 9086SOL    HW128157   0.010   3.452   0.559
 9086SOL    HW228158   0.010   3.332   0.670
 9087SOL     OW28159   5.216   1.301   1.171
 9087SOL    HW128160   5.162   1.381   1.145
 9087SOL    HW228161   5.309   1.329   1.194
 9088SOL     OW28162   6.001   5.853   0.305
 9088SOL    HW128163   5.947   5.935   0.326
 9088SOL    HW228164   6.073   5.876   0.240
 9089SOL     OW28165   5.002   5.622   3.649
 9089SOL    HW128166   4.932   5.631   3.579
 9089SOL    HW228167   5.092   5.643   3.609
 9090SOL     OW28168   4.860   5.988   5.891
 9090SOL    HW128169   4.864   5.941   5.980
 9090SOL    HW228170   4.925   6.064   5.892
 9091SOL     OW28171   2.821   2.015   1.930
 9091SOL    HW128172   2.735   1.965   1.919
 9091SOL    HW228173   2.835   2.035   2.027
 9092SOL     OW28174   1.935   1.216   4.926
 9092SOL    HW128175   2.022   1.241   4.883
 9092SOL    HW228176   1.949   1.202   5.024
 9093SOL     OW28177   2.239   3.634   1.070
 9093SOL    HW128178   2.210   3.617   0.976
 9093SOL    HW228179   2.318   3.577   1.091
 9094SOL     OW28180   6.593   4.526   0.764
 9094SOL    HW128181   6.510   4.471   0.780
 9094SOL    HW228182   6.568   4.622   0.758
 9095SOL     OW28183   2.251   3.275   0.094
 9095SOL    HW128184   2.154   3.281   0.121
 9095SOL    HW228185   2.297   3.360   0.120
 9096SOL     OW28186   6.142   3.221   3.043
 9096SOL    HW128187   6.191   3.283   3.103
 9096SOL    HW228188   6.188   3.132   3.041
 9097SOL     OW28189   6.642   5.395   5.879
 9097SOL    HW128190   6.710   5.322   5.869
 9097SOL    HW228191   6.662   5.449   5.961
 9098SOL     OW28192   3.417   3.726   4.469
 9098SOL    HW128193   3.418   3.703   4.567
 9098SOL    HW228194   3.511   3.745   4.439
 9099SOL     OW28195   2.134   2.455   0.343
 9099SOL    HW128196   2.067   2.480   0.412
 9099SOL    HW228197   2.214   2.415   0.387
 9100SOL     OW28198   1.122   2.899   0.333
 9100SOL    HW128199   1.205   2.869   0.286
 9100SOL    HW228200   1.052   2.924   0.266
 9101SOL     OW28201   2.011   2.237   6.776
 9101SOL    HW128202   1.958   2.303   6.722
 9101SOL    HW228203   1.967   2.148   6.773
 9102SOL     OW28204   4.953   6.632   2.503
 9102SOL    HW128205   4.873   6.592   2.548
 9102SOL    HW228206   5.031   6.571   2.514
 9103SOL     OW28207   0.353   4.134   6.385
 9103SOL    HW128208   0.342   4.138   6.485
 9103SOL    HW228209   0.270   4.167   6.341
 9104SOL     OW28210   5.131   0.229   1.895
 9104SOL    HW128211   5.230   0.234   1.883
 9104SOL    HW228212   5.093   0.165   1.828
 9105SOL     OW28213   2.274   1.642   5.585
 9105SOL    HW128214   2.252   1.558   5.535
 9105SOL    HW228215   2.195   1.669   5.641
 9106SOL     OW28216   6.531   5.166   1.601
 9106SOL    HW128217   6.565   5.244   1.655
 9106SOL    HW228218   6.605   5.099   1.590
 9107SOL     OW28219   4.805   0.334   1.088
 9107SOL    HW128220   4.720   0.366   1.130
 9107SOL    HW228221   4.790   0.316   0.991
 9108SOL     OW28222   3.770   6.101   6.863
 9108SOL    HW128223   3.805   6.057   6.945
 9108SOL    HW228224   3.714   6.180   6.889
 9109SOL     OW28225   2.636   1.712   4.418
 9109SOL    HW128226   2.583   1.665   4.489
 9109SOL    HW228227   2.678   1.794   4.456
 9110SOL     OW28228   1.364   3.021   2.803
 9110SOL    HW128229   1.279   3.004   2.754
 9110SOL    HW228230   1.344   3.066   2.891
 9111SOL     OW28231   4.367   4.018   1.699
 9111SOL    HW128232   4.307   3.968   1.761
 9111SOL    HW228233   4.389   4.107   1.738
 9112SOL     OW28234   0.467   5.241   2.426
 9112SOL    HW128235   0.546   5.208   2.479
 9112SOL    HW228236   0.426   5.164   2.377
 9113SOL     OW28237   3.602   6.289   6.953
 9113SOL    HW128238   3.569   6.344   6.876
 9113SOL    HW228239   3.663   6.345   7.010
 9114SOL     OW28240   2.534   4.543   1.681
 9114SOL    HW128241   2.511   4.471   1.745
 9114SOL    HW228242   2.474   4.537   1.601
 9115SOL     OW28243   1.880   4.451   3.863
 9115SOL    HW128244   1.902   4.486   3.773
 9115SOL    HW228245   1.800   4.499   3.899
 9116SOL     OW28246   1.879   1.332   5.830
 9116SOL    HW128247   1.910   1.364   5.920
 9116SOL    HW228248   1.790   1.287   5.839
 9117SOL     OW28249   6.457   2.351   6.772
 9117SOL    HW128250   6.532   2.397   6.820
 9117SOL    HW228251   6.450   2.256   6.802
 9118SOL     OW28252   0.082   5.782   1.561
 9118SOL    HW128253   0.060   5.801   1.465
 9118SOL    HW228254   0.074   5.683   1.577
 9119SOL     OW28255   6.448   6.735   1.166
 9119SOL    HW128256   6.498   6.663   1.214
 9119SOL    HW228257   6.350   6.724   1.182
 9120SOL     OW28258   5.350   1.272   6.288
 9120SOL    HW128259   5.261   1.238   6.318
 9120SOL    HW228260   5.394   1.323   6.362
 9121SOL     OW28261   1.614   1.009   6.871
 9121SOL    HW128262   1.656   0.995   6.781
 9121SOL    HW228263   1.516   1.025   6.861
 9122SOL     OW28264   0.427   2.591   1.044
 9122SOL    HW128265   0.513   2.543   1.062
 9122SOL    HW228266   0.447   2.685   1.016
 9123SOL     OW28267   2.822   5.798   0.161
 9123SOL    HW128268   2.834   5.897   0.154
 9123SOL    HW228269   2.739   5.771   0.112
 9124SOL     OW28270   5.996   5.046   5.512
 9124SOL    HW128271   6.000   5.044   5.612
 9124SOL    HW228272   6.063   4.982   5.474
 9125SOL     OW28273   4.661   6.138   2.656
 9125SOL    HW128274   4.577   6.102   2.616
 9125SOL    HW228275   4.739   6.105   2.603
 9126SOL     OW28276   5.899   0.929   2.110
 9126SOL    HW128277   5.881   0.932   2.208
 9126SOL    HW228278   5.952   1.009   2.084
 9127SOL     OW28279   5.073   0.501   6.796
 9127SOL    HW128280   5.099   0.504   6.699
 9127SOL    HW228281   4.978   0.530   6.806
 9128SOL     OW28282   4.949   2.688   5.051
 9128SOL    HW128283   4.910   2.596   5.046
 9128SOL    HW228284   4.896   2.749   4.992
 9129SOL     OW28285   1.939   2.039   6.151
 9129SOL    HW128286   1.975   2.109   6.212
 9129SOL    HW228287   1.899   2.081   6.070
 9130SOL     OW28288   6.018   5.156   0.743
 9130SOL    HW128289   6.065   5.225   0.689
 9130SOL    HW228290   5.962   5.099   0.683
 9131SOL     OW28291   0.543   4.074   4.394
 9131SOL    HW128292   0.560   3.975   4.389
 9131SOL    HW228293   0.613   4.122   4.342
 9132SOL     OW28294   0.776   2.949   4.819
 9132SOL    HW128295   0.832   3.020   4.778
 9132SOL    HW228296   0.707   2.991   4.877
 9133SOL     OW28297   1.432   4.234   1.435
 9133SOL    HW128298   1.500   4.204   1.368
 9133SOL    HW228299   1.343   4.196   1.410
 9134SOL     OW28300   3.055   5.395   6.217
 9134SOL    HW128301   3.090   5.486   6.241
 9134SOL    HW228302   3.002   5.359   6.294
 9135SOL     OW28303   6.608   6.417   4.258
 9135SOL    HW128304   6.509   6.407   4.255
 9135SOL    HW228305   6.649   6.367   4.181
 9136SOL     OW28306   4.666   4.520   5.598
 9136SOL    HW128307   4.756   4.505   5.557
 9136SOL    HW228308   4.672   4.594   5.665
 9137SOL     OW28309   4.136   1.078   2.331
 9137SOL    HW128310   4.226   1.108   2.362
 9137SOL    HW228311   4.146   1.013   2.256
 9138SOL     OW28312   3.762   5.084   0.323
 9138SOL    HW128313   3.700   5.030   0.266
 9138SOL    HW228314   3.857   5.063   0.299
 9139SOL     OW28315   2.679   1.342   5.800
 9139SOL    HW128316   2.650   1.371   5.891
 9139SOL    HW228317   2.615   1.379   5.732
 9140SOL     OW28318   6.911   2.192   3.927
 9140SOL    HW128319   6.873   2.132   3.998
 9140SOL    HW228320   6.953   2.136   3.856
 9141SOL     OW28321   5.861   0.447   5.997
 9141SOL    HW128322   5.798   0.460   6.073
 9141SOL    HW228323   5.830   0.371   5.940
 9142SOL     OW28324   0.131   3.745   5.777
 9142SOL    HW128325   0.214   3.698   5.807
 9142SOL    HW228326   0.056   3.724   5.840
 9143SOL     OW28327   5.196   3.366   0.742
 9143SOL    HW128328   5.103   3.348   0.775
 9143SOL    HW228329   5.201   3.347   0.645
 9144SOL     OW28330   1.984   4.327   5.155
 9144SOL    HW128331   2.040   4.265   5.100
 9144SOL    HW228332   1.896   4.341   5.110
 9145SOL     OW28333   0.348   4.521   6.429
 9145SOL    HW128334   0.340   4.555   6.336
 9145SOL    HW228335   0.313   4.427   6.433
 9146SOL     OW28336   6.336   1.996   2.359
 9146SOL    HW128337   6.428   2.018   2.393
 9146SOL    HW228338   6.286   2.080   2.341
 9147SOL     OW28339   4.121   5.644   5.938
 9147SOL    HW128340   4.078   5.554   5.942
 9147SOL    HW228341   4.203   5.644   5.995
 9148SOL     OW28342   4.211   5.856   3.146
 9148SOL    HW128343   4.266   5.926   3.100
 9148SOL    HW228344   4.271   5.786   3.184
 9149SOL     OW28345   5.731   3.668   3.986
 9149SOL    HW128346   5.668   3.642   4.059
 9149SOL    HW228347   5.770   3.758   4.006
 9150SOL     OW28348   4.955   0.989   2.911
 9150SOL    HW128349   4.977   0.907   2.964
 9150SOL    HW228350   4.894   1.048   2.964
 9151SOL     OW28351   1.618   3.855   1.961
 9151SOL    HW128352   1.548   3.825   2.026
 9151SOL    HW228353   1.691   3.786   1.956
 9152SOL     OW28354   2.085   5.561   2.883
 9152SOL    HW128355   2.024   5.628   2.840
 9152SOL    HW228356   2.080   5.570   2.982
 9153SOL     OW28357   1.537   3.086   6.066
 9153SOL    HW128358   1.489   3.050   5.985
 9153SOL    HW228359   1.498   3.045   6.148
 9154SOL     OW28360   2.251   5.934   0.236
 9154SOL    HW128361   2.347   5.961   0.242
 9154SOL    HW228362   2.196   5.993   0.295
 9155SOL     OW28363   1.218   4.013   0.743
 9155SOL    HW128364   1.231   3.916   0.724
 9155SOL    HW228365   1.120   4.033   0.751
 9156SOL     OW28366   4.984   2.747   1.473
 9156SOL    HW128367   4.930   2.793   1.544
 9156SOL    HW228368   4.922   2.700   1.410
 9157SOL     OW28369   5.355   3.921   5.630
 9157SOL    HW128370   5.363   4.013   5.670
 9157SOL    HW228371   5.443   3.874   5.638
 9158SOL     OW28372   0.690   3.923   3.849
 9158SOL    HW128373   0.632   3.846   3.825
 9158SOL    HW228374   0.720   3.970   3.766
 9159SOL     OW28375   6.683   4.370   3.149
 9159SOL    HW128376   6.682   4.382   3.050
 9159SOL    HW228377   6.595   4.397   3.187
 9160SOL     OW28378   6.458   6.916   6.855
 9160SOL    HW128379   6.502   6.987   6.800
 9160SOL    HW228380   6.447   6.948   6.949
 9161SOL     OW28381   4.841   4.054   4.369
 9161SOL    HW128382   4.851   4.005   4.456
 9161SOL    HW228383   4.873   3.995   4.294
 9162SOL     OW28384   4.982   2.225   2.995
 9162SOL    HW128385   4.897   2.279   2.995
 9162SOL    HW228386   5.044   2.261   2.926
 9163SOL     OW28387   3.311   1.554   4.044
 9163SOL    HW128388   3.373   1.617   4.090
 9163SOL    HW228389   3.301   1.581   3.948
 9164SOL     OW28390   3.199   0.442   0.515
 9164SOL    HW128391   3.131   0.479   0.578
 9164SOL    HW228392   3.267   0.390   0.567
 9165SOL     OW28393   6.163   6.864   0.162
 9165SOL    HW128394   6.200   6.832   0.075
 9165SOL    HW228395   6.234   6.914   0.213
 9166SOL     OW28396   3.211   5.541   1.315
 9166SOL    HW128397   3.202   5.557   1.216
 9166SOL    HW228398   3.203   5.628   1.364
 9167SOL     OW28399   1.365   4.392   5.427
 9167SOL    HW128400   1.304   4.341   5.367
 9167SOL    HW228401   1.459   4.360   5.415
 9168SOL     OW28402   1.911   0.817   6.454
 9168SOL    HW128403   2.000   0.832   6.412
 9168SOL    HW228404   1.846   0.786   6.385
 9169SOL     OW28405   0.394   0.420   3.567
 9169SOL    HW128406   0.430   0.491   3.627
 9169SOL    HW228407   0.408   0.331   3.608
 9170SOL     OW28408   6.469   6.094   6.430
 9170SOL    HW128409   6.508   6.165   6.488
 9170SOL    HW228410   6.540   6.031   6.401
 9171SOL     OW28411   2.602   5.830   6.501
 9171SOL    HW128412   2.677   5.822   6.567
 9171SOL    HW228413   2.525   5.773   6.530
 9172SOL     OW28414   3.027   1.582   4.086
 9172SOL    HW128415   2.974   1.602   4.004
 9172SOL    HW228416   3.120   1.555   4.060
 9173SOL     OW28417   0.985   5.632   4.186
 9173SOL    HW128418   0.887   5.641   4.169
 9173SOL    HW228419   1.006   5.535   4.202
 9174SOL     OW28420   0.694   5.103   0.439
 9174SOL    HW128421   0.681   5.130   0.344
 9174SOL    HW228422   0.623   5.038   0.466
 9175SOL     OW28423   1.839   6.197   6.066
 9175SOL    HW128424   1.903   6.174   5.993
 9175SOL    HW228425   1.782   6.117   6.087
 9176SOL     OW28426   2.020   0.508   6.144
 9176SOL    HW128427   1.981   0.522   6.235
 9176SOL    HW228428   2.105   0.456   6.152
 9177SOL     OW28429   0.823   4.811   3.603
 9177SOL    HW128430   0.805   4.722   3.560
 9177SOL    HW228431   0.905   4.851   3.562
 9178SOL     OW28432   2.759   5.020   0.035
 9178SOL    HW128433   2.803   5.018   0.124
 9178SOL    HW228434   2.665   5.052   0.044
 9179SOL     OW28435   3.746   4.895   4.361
 9179SOL    HW128436   3.686   4.939   4.294
 9179SOL    HW228437   3.726   4.797   4.363
 9180SOL     OW28438   5.195   1.681   3.269
 9180SOL    HW128439   5.240   1.751   3.213
 9180SOL    HW228440   5.096   1.687   3.258
 9181SOL     OW28441   4.559   1.732   2.445
 9181SOL    HW128442   4.548   1.826   2.479
 9181SOL    HW228443   4.487   1.674   2.482
 9182SOL     OW28444   0.968   6.780   1.429
 9182SOL    HW128445   1.067   6.786   1.435
 9182SOL    HW228446   0.942   6.741   1.341
 9183SOL     OW28447   5.294   6.181   0.446
 9183SOL    HW128448   5.321   6.166   0.351
 9183SOL    HW228449   5.247   6.099   0.480
 9184SOL     OW28450   5.086   0.163   0.206
 9184SOL    HW128451   5.104   0.072   0.167
 9184SOL    HW228452   5.173   0.204   0.236
 9185SOL     OW28453   3.465   1.197   5.131
 9185SOL    HW128454   3.428   1.131   5.065
 9185SOL    HW228455   3.541   1.247   5.089
 9186SOL     OW28456   5.685   0.902   6.282
 9186SOL    HW128457   5.678   0.952   6.196
 9186SOL    HW228458   5.781   0.883   6.302
 9187SOL     OW28459   2.304   6.246   2.380
 9187SOL    HW128460   2.389   6.288   2.346
 9187SOL    HW228461   2.312   6.230   2.478
 9188SOL     OW28462   2.591   6.389   1.085
 9188SOL    HW128463   2.534   6.449   1.030
 9188SOL    HW228464   2.532   6.331   1.142
 9189SOL     OW28465   5.363   5.741   2.145
 9189SOL    HW128466   5.438   5.742   2.210
 9189SOL    HW228467   5.312   5.655   2.154
 9190SOL     OW28468   1.879   5.238   0.318
 9190SOL    HW128469   1.902   5.335   0.315
 9190SOL    HW228470   1.796   5.221   0.265
 9191SOL     OW28471   0.222   0.137   5.822
 9191SOL    HW128472   0.249   0.203   5.752
 9191SOL    HW228473   0.122   0.131   5.824
 9192SOL     OW28474   6.883   4.154   4.139
 9192SOL    HW128475   6.850   4.245   4.114
 9192SOL    HW228476   6.935   4.115   4.062
 9193SOL     OW28477   2.832   3.494   6.932
 9193SOL    HW128478   2.907   3.434   6.905
 9193SOL    HW228479   2.756   3.484   6.868
 9194SOL     OW28480   3.891   0.701   3.796
 9194SOL    HW128481   3.981   0.710   3.837
 9194SOL    HW228482   3.839   0.631   3.845
 9195SOL     OW28483   2.016   1.698   3.974
 9195SOL    HW128484   2.101   1.734   3.935
 9195SOL    HW228485   1.952   1.774   3.989
 9196SOL     OW28486   4.835   2.455   5.109
 9196SOL    HW128487   4.844   2.358   5.085
 9196SOL    HW228488   4.754   2.468   5.166
 9197SOL     OW28489   2.304   3.675   1.682
 9197SOL    HW128490   2.362   3.735   1.737
 9197SOL    HW228491   2.257   3.610   1.741
 9198SOL     OW28492   6.722   5.106   4.381
 9198SOL    HW128493   6.641   5.052   4.357
 9198SOL    HW228494   6.756   5.078   4.470
 9199SOL     OW28495   6.359   4.218   4.739
 9199SOL    HW128496   6.269   4.219   4.783
 9199SOL    HW228497   6.430   4.218   4.809
 9200SOL     OW28498   3.242   6.968   0.397
 9200SOL    HW128499   3.295   0.026   0.417
 9200SOL    HW228500   3.224   6.919   0.483
 9201SOL     OW28501   1.943   4.119   0.753
 9201SOL    HW128502   1.844   4.123   0.769
 9201SOL    HW228503   1.981   4.211   0.758
 9202SOL     OW28504   2.387   0.277   3.479
 9202SOL    HW128505   2.411   0.216   3.404
 9202SOL    HW228506   2.338   0.357   3.443
 9203SOL     OW28507   6.911   6.201   0.838
 9203SOL    HW128508   6.872   6.244   0.757
 9203SOL    HW228509   7.001   6.242   0.857
 9204SOL     OW28510   4.867   1.129   6.331
 9204SOL    HW128511   4.832   1.093   6.245
 9204SOL    HW228512   4.967   1.128   6.329
 9205SOL     OW28513   6.953   4.123   1.965
 9205SOL    HW128514   0.022   4.150   1.942
 9205SOL    HW228515   6.955   4.032   2.008
 9206SOL     OW28516   3.311   5.741   0.582
 9206SOL    HW128517   3.357   5.657   0.611
 9206SOL    HW228518   3.325   5.753   0.484
 9207SOL     OW28519   4.721   5.317   0.008
 9207SOL    HW128520   4.643   5.280   0.060
 9207SOL    HW228521   4.799   5.327   0.069
 9208SOL     OW28522   0.859   3.750   3.496
 9208SOL    HW128523   0.891   3.666   3.452
 9208SOL    HW228524   0.798   3.727   3.572
 9209SOL     OW28525   2.860   0.866   6.186
 9209SOL    HW128526   2.942   0.864   6.128
 9209SOL    HW228527   2.803   0.944   6.160
 9210SOL     OW28528   6.833   0.705   3.644
 9210SOL    HW128529   6.737   0.733   3.646
 9210SOL    HW228530   6.888   0.777   3.601
 9211SOL     OW28531   0.790   1.681   2.873
 9211SOL    HW128532   0.873   1.627   2.885
 9211SOL    HW228533   0.719   1.625   2.830
 9212SOL     OW28534   3.295   4.955   4.221
 9212SOL    HW128535   3.232   4.961   4.144
 9212SOL    HW228536   3.252   4.906   4.296
 9213SOL     OW28537   5.934   3.874   6.605
 9213SOL    HW128538   5.839   3.892   6.579
 9213SOL    HW228539   5.936   3.814   6.685
 9214SOL     OW28540   0.054   5.123   0.903
 9214SOL    HW128541   0.048   5.080   0.993
 9214SOL    HW228542   0.071   5.054   0.833
 9215SOL     OW28543   0.757   1.239   0.689
 9215SOL    HW128544   0.735   1.323   0.738
 9215SOL    HW228545   0.768   1.258   0.592
 9216SOL     OW28546   2.372   6.617   3.004
 9216SOL    HW128547   2.385   6.679   3.081
 9216SOL    HW228548   2.437   6.541   3.011
 9217SOL     OW28549   0.834   2.706   6.673
 9217SOL    HW128550   0.892   2.625   6.672
 9217SOL    HW228551   0.815   2.735   6.579
 9218SOL     OW28552   2.699   0.603   0.291
 9218SOL    HW128553   2.647   0.673   0.242
 9218SOL    HW228554   2.796   0.612   0.268
 9219SOL     OW28555   6.958   2.322   0.727
 9219SOL    HW128556   6.979   2.306   0.630
 9219SOL    HW228557   6.868   2.365   0.736
 9220SOL     OW28558   3.272   6.431   1.993
 9220SOL    HW128559   3.264   6.342   2.038
 9220SOL    HW228560   3.343   6.426   1.922
 9221SOL     OW28561   3.188   5.612   4.222
 9221SOL    HW128562   3.179   5.592   4.320
 9221SOL    HW228563   3.203   5.527   4.172
 9222SOL     OW28564   2.329   2.171   5.881
 9222SOL    HW128565   2.417   2.134   5.912
 9222SOL    HW228566   2.272   2.192   5.960
 9223SOL     OW28567   2.739   3.110   5.301
 9223SOL    HW128568   2.753   3.016   5.333
 9223SOL    HW228569   2.652   3.116   5.252
 9224SOL     OW28570   2.479   4.938   5.446
 9224SOL    HW128571   2.460   4.909   5.540
 9224SOL    HW228572   2.473   4.859   5.385
 9225SOL     OW28573   2.355   6.312   6.855
 9225SOL    HW128574   2.281   6.375   6.833
 9225SOL    HW228575   2.401   6.283   6.770
 9226SOL     OW28576   4.234   6.791   1.138
 9226SOL    HW128577   4.302   6.758   1.073
 9226SOL    HW228578   4.242   6.741   1.224
 9227SOL     OW28579   1.582   5.768   2.353
 9227SOL    HW128580   1.516   5.839   2.377
 9227SOL    HW228581   1.536   5.693   2.306
 9228SOL     OW28582   0.708   0.071   6.692
 9228SOL    HW128583   0.635   0.125   6.652
 9228SOL    HW228584   0.766   0.129   6.750
 9229SOL     OW28585   0.711   5.130   4.937
 9229SOL    HW128586   0.766   5.046   4.938
 9229SOL    HW228587   0.621   5.110   4.898
 9230SOL     OW28588   5.673   0.111   4.093
 9230SOL    HW128589   5.723   0.179   4.039
 9230SOL    HW228590   5.700   0.117   4.188
 9231SOL     OW28591   1.736   2.879   3.514
 9231SOL    HW128592   1.682   2.964   3.509
 9231SOL    HW228593   1.706   2.817   3.441
 9232SOL     OW28594   3.949   4.887   1.368
 9232SOL    HW128595   3.890   4.855   1.294
 9232SOL    HW228596   3.895   4.942   1.432
 9233SOL     OW28597   5.124   5.162   0.934
 9233SOL    HW128598   5.064   5.118   0.867
 9233SOL    HW228599   5.103   5.128   1.025
 9234SOL     OW28600   2.039   6.166   3.880
 9234SOL    HW128601   1.972   6.144   3.952
 9234SOL    HW228602   2.131   6.165   3.919
 9235SOL     OW28603   0.653   1.950   3.216
 9235SOL    HW128604   0.680   2.026   3.275
 9235SOL    HW228605   0.606   1.985   3.135
 9236SOL     OW28606   3.060   3.040   5.754
 9236SOL    HW128607   3.008   3.112   5.708
 9236SOL    HW228608   3.043   2.952   5.709
 9237SOL     OW28609   1.721   3.742   3.663
 9237SOL    HW128610   1.801   3.793   3.695
 9237SOL    HW228611   1.749   3.650   3.636
 9238SOL     OW28612   4.556   3.007   5.944
 9238SOL    HW128613   4.488   3.064   5.989
 9238SOL    HW228614   4.614   2.962   6.013
 9239SOL     OW28615   2.181   3.963   0.989
 9239SOL    HW128616   2.212   3.884   1.042
 9239SOL    HW228617   2.091   3.991   1.021
 9240SOL     OW28618   4.430   1.350   2.483
 9240SOL    HW128619   4.417   1.298   2.567
 9240SOL    HW228620   4.499   1.305   2.426
 9241SOL     OW28621   0.326   5.632   6.574
 9241SOL    HW128622   0.313   5.577   6.491
 9241SOL    HW228623   0.244   5.688   6.590
 9242SOL     OW28624   6.905   6.134   1.810
 9242SOL    HW128625   6.811   6.106   1.789
 9242SOL    HW228626   6.969   6.081   1.755
 9243SOL     OW28627   5.985   5.955   4.884
 9243SOL    HW128628   5.892   5.921   4.895
 9243SOL    HW228629   6.015   5.998   4.969
 9244SOL     OW28630   3.904   5.232   6.610
 9244SOL    HW128631   3.850   5.204   6.530
 9244SOL    HW228632   3.863   5.195   6.693
 9245SOL     OW28633   0.327   5.217   1.033
 9245SOL    HW128634   0.264   5.289   1.061
 9245SOL    HW228635   0.414   5.257   1.006
 9246SOL     OW28636   0.342   5.016   4.273
 9246SOL    HW128637   0.354   5.110   4.242
 9246SOL    HW228638   0.273   5.014   4.346
 9247SOL     OW28639   1.591   6.201   2.452
 9247SOL    HW128640   1.677   6.192   2.502
 9247SOL    HW228641   1.575   6.297   2.429
 9248SOL     OW28642   2.800   1.583   6.461
 9248SOL    HW128643   2.844   1.611   6.546
 9248SOL    HW228644   2.809   1.484   6.449
 9249SOL     OW28645   4.682   0.484   3.823
 9249SOL    HW128646   4.652   0.400   3.867
 9249SOL    HW228647   4.760   0.465   3.764
 9250SOL     OW28648   5.271   3.630   4.218
 9250SOL    HW128649   5.274   3.601   4.314
 9250SOL    HW228650   5.204   3.704   4.208
 9251SOL     OW28651   3.148   2.018   2.739
 9251SOL    HW128652   3.161   2.020   2.838
 9251SOL    HW228653   3.051   2.029   2.718
 9252SOL     OW28654   1.218   6.955   4.809
 9252SOL    HW128655   1.186   0.014   4.852
 9252SOL    HW228656   1.227   6.883   4.878
 9253SOL     OW28657   1.142   6.788   5.736
 9253SOL    HW128658   1.207   6.857   5.767
 9253SOL    HW228659   1.104   6.814   5.647
 9254SOL     OW28660   5.749   3.612   1.359
 9254SOL    HW128661   5.698   3.530   1.330
 9254SOL    HW228662   5.688   3.672   1.410
 9255SOL     OW28663   5.951   4.456   0.955
 9255SOL    HW128664   5.869   4.401   0.941
 9255SOL    HW228665   6.015   4.406   1.015
 9256SOL     OW28666   4.205   5.030   1.744
 9256SOL    HW128667   4.184   4.969   1.820
 9256SOL    HW228668   4.129   5.094   1.731
 9257SOL     OW28669   1.063   4.325   1.042
 9257SOL    HW128670   1.017   4.256   1.098
 9257SOL    HW228671   1.159   4.332   1.071
 9258SOL     OW28672   4.116   3.610   3.469
 9258SOL    HW128673   4.141   3.521   3.430
 9258SOL    HW228674   4.130   3.608   3.568
 9259SOL     OW28675   0.628   2.949   0.187
 9259SOL    HW128676   0.571   3.023   0.152
 9259SOL    HW228677   0.574   2.892   0.249
 9260SOL     OW28678   5.590   3.168   6.215
 9260SOL    HW128679   5.535   3.090   6.185
 9260SOL    HW228680   5.645   3.202   6.139
 9261SOL     OW28681   4.676   6.951   6.834
 9261SOL    HW128682   4.774   6.971   6.829
 9261SOL    HW228683   4.629   0.002   6.878
 9262SOL     OW28684   4.613   1.322   5.769
 9262SOL    HW128685   4.679   1.275   5.827
 9262SOL    HW228686   4.525   1.328   5.816
 9263SOL     OW28687   5.335   3.826   1.662
 9263SOL    HW128688   5.272   3.768   1.714
 9263SOL    HW228689   5.373   3.774   1.586
 9264SOL     OW28690   6.313   3.576   0.903
 9264SOL    HW128691   6.370   3.655   0.928
 9264SOL    HW228692   6.221   3.607   0.879
 9265SOL     OW28693   1.564   0.825   6.458
 9265SOL    HW128694   1.652   0.857   6.493
 9265SOL    HW228695   1.513   0.779   6.531
 9266SOL     OW28696   1.815   6.149   2.630
 9266SOL    HW128697   1.810   6.154   2.730
 9266SOL    HW228698   1.903   6.184   2.599
 9267SOL     OW28699   2.070   4.570   5.294
 9267SOL    HW128700   2.055   4.484   5.246
 9267SOL    HW228701   2.019   4.643   5.249
 9268SOL     OW28702   0.221   0.546   2.944
 9268SOL    HW128703   0.138   0.561   2.891
 9268SOL    HW228704   0.278   0.628   2.942
 9269SOL     OW28705   3.453   1.123   6.352
 9269SOL    HW128706   3.391   1.121   6.431
 9269SOL    HW228707   3.402   1.149   6.270
 9270SOL     OW28708   0.166   6.990   5.545
 9270SOL    HW128709   0.169   6.930   5.625
 9270SOL    HW228710   0.079   0.014   5.543
 9271SOL     OW28711   1.669   4.733   0.230
 9271SOL    HW128712   1.716   4.792   0.165
 9271SOL    HW228713   1.714   4.738   0.319
 9272SOL     OW28714   2.710   4.889   6.407
 9272SOL    HW128715   2.682   4.906   6.501
 9272SOL    HW228716   2.789   4.827   6.406
 9273SOL     OW28717   4.086   6.341   5.114
 9273SOL    HW128718   4.082   6.319   5.016
 9273SOL    HW228719   4.142   6.423   5.127
 9274SOL     OW28720   6.376   2.020   0.418
 9274SOL    HW128721   6.422   1.941   0.378
 9274SOL    HW228722   6.388   2.018   0.518
 9275SOL     OW28723   1.035   0.526   6.616
 9275SOL    HW128724   0.950   0.484   6.585
 9275SOL    HW228725   1.035   0.532   6.716
 9276SOL     OW28726   4.705   6.262   4.894
 9276SOL    HW128727   4.614   6.278   4.931
 9276SOL    HW228728   4.705   6.175   4.843
 9277SOL     OW28729   3.467   3.278   0.193
 9277SOL    HW128730   3.378   3.300   0.233
 9277SOL    HW228731   3.487   3.181   0.205
 9278SOL     OW28732   1.427   2.167   1.633
 9278SOL    HW128733   1.497   2.225   1.675
 9278SOL    HW228734   1.434   2.074   1.669
 9279SOL     OW28735   3.542   7.024   2.187
 9279SOL    HW128736   3.508   0.052   2.264
 9279SOL    HW228737   3.514   0.042   2.102
 9280SOL     OW28738   2.204   7.007   3.773
 9280SOL    HW128739   2.199   7.024   3.674
 9280SOL    HW228740   2.238   6.915   3.789
 9281SOL     OW28741   2.085   2.186   0.264
 9281SOL    HW128742   2.108   2.156   0.357
 9281SOL    HW228743   2.067   2.284   0.264
 9282SOL     OW28744   4.840   2.015   5.869
 9282SOL    HW128745   4.848   1.969   5.957
 9282SOL    HW228746   4.861   1.949   5.796
 9283SOL     OW28747   5.742   2.331   2.065
 9283SOL    HW128748   5.657   2.381   2.051
 9283SOL    HW228749   5.818   2.384   2.028
 9284SOL     OW28750   2.853   3.433   1.469
 9284SOL    HW128751   2.806   3.521   1.468
 9284SOL    HW228752   2.785   3.359   1.461
 9285SOL     OW28753   6.356   3.107   6.708
 9285SOL    HW128754   6.337   3.173   6.780
 9285SOL    HW228755   6.303   3.023   6.724
 9286SOL     OW28756   5.637   6.609   5.217
 9286SOL    HW128757   5.723   6.588   5.172
 9286SOL    HW228758   5.563   6.559   5.173
 9287SOL     OW28759   3.503   6.804   1.797
 9287SOL    HW128760   3.584   6.806   1.738
 9287SOL    HW228761   3.529   6.770   1.888
 9288SOL     OW28762   5.105   2.653   5.913
 9288SOL    HW128763   5.126   2.736   5.862
 9288SOL    HW228764   5.020   2.613   5.879
 9289SOL     OW28765   4.943   3.179   2.885
 9289SOL    HW128766   4.908   3.144   2.972
 9289SOL    HW228767   5.011   3.250   2.903
 9290SOL     OW28768   4.902   2.199   5.057
 9290SOL    HW128769   4.846   2.134   5.005
 9290SOL    HW228770   4.999   2.183   5.036
 9291SOL     OW28771   0.819   1.933   4.868
 9291SOL    HW128772   0.886   1.897   4.803
 9291SOL    HW228773   0.858   1.933   4.960
 9292SOL     OW28774   0.300   3.270   6.670
 9292SOL    HW128775   0.298   3.212   6.590
 9292SOL    HW228776   0.213   3.320   6.678
 9293SOL     OW28777   5.479   4.227   6.976
 9293SOL    HW128778   5.505   4.322   6.957
 9293SOL    HW228779   5.560   4.176   7.007
 9294SOL     OW28780   6.553   6.226   6.674
 9294SOL    HW128781   6.479   6.165   6.703
 9294SOL    HW228782   6.551   6.309   6.729
 9295SOL     OW28783   4.533   1.553   3.311
 9295SOL    HW128784   4.498   1.521   3.398
 9295SOL    HW228785   4.463   1.542   3.240
 9296SOL     OW28786   6.113   0.185   5.754
 9296SOL    HW128787   6.025   0.137   5.749
 9296SOL    HW228788   6.165   0.150   5.832
 9297SOL     OW28789   0.626   1.452   0.491
 9297SOL    HW128790   0.564   1.448   0.570
 9297SOL    HW228791   0.595   1.387   0.421
 9298SOL     OW28792   1.017   5.919   4.687
 9298SOL    HW128793   1.042   6.011   4.718
 9298SOL    HW228794   1.100   5.868   4.665
 9299SOL     OW28795   1.900   3.108   4.341
 9299SOL    HW128796   1.999   3.100   4.356
 9299SOL    HW228797   1.877   3.075   4.250
 9300SOL     OW28798   5.679   4.669   4.556
 9300SOL    HW128799   5.623   4.651   4.636
 9300SOL    HW228800   5.620   4.679   4.476
 9301SOL     OW28801   5.502   4.352   2.792
 9301SOL    HW128802   5.483   4.254   2.797
 9301SOL    HW228803   5.416   4.403   2.791
 9302SOL     OW28804   2.278   1.763   2.457
 9302SOL    HW128805   2.371   1.788   2.432
 9302SOL    HW228806   2.257   1.672   2.422
 9303SOL     OW28807   3.626   5.299   0.455
 9303SOL    HW128808   3.684   5.232   0.410
 9303SOL    HW228809   3.615   5.275   0.551
 9304SOL     OW28810   3.676   3.247   0.869
 9304SOL    HW128811   3.616   3.217   0.795
 9304SOL    HW228812   3.732   3.170   0.900
 9305SOL     OW28813   5.634   2.947   2.086
 9305SOL    HW128814   5.583   2.972   2.004
 9305SOL    HW228815   5.595   2.863   2.125
 9306SOL     OW28816   6.973   3.829   3.869
 9306SOL    HW128817   6.879   3.846   3.837
 9306SOL    HW228818   0.001   3.789   3.795
 9307SOL     OW28819   1.841   1.732   6.736
 9307SOL    HW128820   1.820   1.643   6.776
 9307SOL    HW228821   1.776   1.752   6.662
 9308SOL     OW28822   6.757   2.840   0.838
 9308SOL    HW128823   6.673   2.795   0.869
 9308SOL    HW228824   6.813   2.776   0.786
 9309SOL     OW28825   4.913   3.422   6.268
 9309SOL    HW128826   4.898   3.461   6.359
 9309SOL    HW228827   4.843   3.353   6.250
 9310SOL     OW28828   3.919   5.926   6.696
 9310SOL    HW128829   3.985   5.963   6.632
 9310SOL    HW228830   3.852   5.997   6.720
 9311SOL     OW28831   5.964   2.984   0.810
 9311SOL    HW128832   5.963   3.035   0.896
 9311SOL    HW228833   6.012   3.038   0.740
 9312SOL     OW28834   1.304   4.427   6.377
 9312SOL    HW128835   1.360   4.374   6.440
 9312SOL    HW228836   1.260   4.365   6.311
 9313SOL     OW28837   6.429   6.753   3.102
 9313SOL    HW128838   6.439   6.847   3.135
 9313SOL    HW228839   6.466   6.747   3.009
 9314SOL     OW28840   5.211   4.540   0.148
 9314SOL    HW128841   5.179   4.589   0.067
 9314SOL    HW228842   5.189   4.593   0.230
 9315SOL     OW28843   0.144   6.862   6.448
 9315SOL    HW128844   0.051   6.832   6.471
 9315SOL    HW228845   0.210   6.805   6.496
 9316SOL     OW28846   3.904   6.062   3.644
 9316SOL    HW128847   3.837   6.127   3.680
 9316SOL    HW228848   3.858   5.976   3.622
 9317SOL     OW28849   6.383   4.340   4.087
 9317SOL    HW128850   6.357   4.404   4.015
 9317SOL    HW228851   6.429   4.390   4.161
 9318SOL     OW28852   6.774   6.836   6.271
 9318SOL    HW128853   6.766   6.799   6.178
 9318SOL    HW228854   6.795   6.933   6.266
 9319SOL     OW28855   0.384   3.528   5.210
 9319SOL    HW128856   0.406   3.539   5.307
 9319SOL    HW228857   0.316   3.456   5.199
 9320SOL     OW28858   4.873   2.517   6.362
 9320SOL    HW128859   4.935   2.438   6.362
 9320SOL    HW228860   4.912   2.590   6.419
 9321SOL     OW28861   6.608   5.756   3.009
 9321SOL    HW128862   6.644   5.703   3.086
 9321SOL    HW228863   6.673   5.751   2.932
 9322SOL     OW28864   0.747   6.113   6.694
 9322SOL    HW128865   0.813   6.189   6.693
 9322SOL    HW228866   0.790   6.033   6.736
 9323SOL     OW28867   0.308   0.866   6.023
 9323SOL    HW128868   0.289   0.852   5.926
 9323SOL    HW228869   0.303   0.963   6.045
 9324SOL     OW28870   1.574   5.675   6.912
 9324SOL    HW128871   1.624   5.589   6.903
 9324SOL    HW228872   1.578   5.725   6.826
 9325SOL     OW28873   6.191   2.349   0.910
 9325SOL    HW128874   6.191   2.393   0.820
 9325SOL    HW228875   6.192   2.420   0.981
 9326SOL     OW28876   2.308   6.427   1.297
 9326SOL    HW128877   2.242   6.390   1.363
 9326SOL    HW228878   2.369   6.355   1.266
 9327SOL     OW28879   4.104   1.343   3.186
 9327SOL    HW128880   4.007   1.361   3.177
 9327SOL    HW228881   4.150   1.362   3.099
 9328SOL     OW28882   3.220   1.130   2.027
 9328SOL    HW128883   3.140   1.103   1.973
 9328SOL    HW228884   3.254   1.218   1.995
 9329SOL     OW28885   1.501   3.615   1.472
 9329SOL    HW128886   1.573   3.621   1.541
 9329SOL    HW228887   1.442   3.695   1.477
 9330SOL     OW28888   5.609   0.579   6.851
 9330SOL    HW128889   5.688   0.584   6.912
 9330SOL    HW228890   5.532   0.628   6.891
 9331SOL     OW28891   0.579   0.987   0.128
 9331SOL    HW128892   0.513   0.914   0.145
 9331SOL    HW228893   0.541   1.053   0.064
 9332SOL     OW28894   3.693   3.300   4.381
 9332SOL    HW128895   3.623   3.369   4.365
 9332SOL    HW228896   3.718   3.299   4.478
 9333SOL     OW28897   5.909   4.921   0.926
 9333SOL    HW128898   5.841   4.991   0.906
 9333SOL    HW228899   5.877   4.832   0.894
 9334SOL     OW28900   2.655   6.712   4.974
 9334SOL    HW128901   2.637   6.809   4.993
 9334SOL    HW228902   2.576   6.672   4.928
 9335SOL     OW28903   0.455   0.855   0.674
 9335SOL    HW128904   0.482   0.810   0.759
 9335SOL    HW228905   0.452   0.954   0.687
 9336SOL     OW28906   3.105   6.856   5.538
 9336SOL    HW128907   3.063   6.899   5.458
 9336SOL    HW228908   3.152   6.925   5.593
 9337SOL     OW28909   5.245   0.636   2.629
 9337SOL    HW128910   5.205   0.647   2.538
 9337SOL    HW228911   5.173   0.614   2.694
 9338SOL     OW28912   3.558   0.075   1.659
 9338SOL    HW128913   3.493   0.003   1.638
 9338SOL    HW228914   3.533   0.158   1.608
 9339SOL     OW28915   4.483   6.466   0.647
 9339SOL    HW128916   4.428   6.547   0.625
 9339SOL    HW228917   4.569   6.471   0.596
 9340SOL     OW28918   6.161   3.550   0.476
 9340SOL    HW128919   6.114   3.467   0.445
 9340SOL    HW228920   6.188   3.605   0.398
 9341SOL     OW28921   6.966   5.091   6.246
 9341SOL    HW128922   7.017   5.139   6.175
 9341SOL    HW228923   6.915   5.157   6.301
 9342SOL     OW28924   1.178   6.353   6.033
 9342SOL    HW128925   1.200   6.386   5.942
 9342SOL    HW228926   1.100   6.403   6.070
 9343SOL     OW28927   6.311   5.605   4.787
 9343SOL    HW128928   6.317   5.689   4.732
 9343SOL    HW228929   6.274   5.531   4.731
 9344SOL     OW28930   4.845   6.686   1.492
 9344SOL    HW128931   4.760   6.720   1.452
 9344SOL    HW228932   4.860   6.730   1.581
 9345SOL     OW28933   6.602   2.650   0.984
 9345SOL    HW128934   6.577   2.736   1.028
 9345SOL    HW228935   6.654   2.594   1.048
 9346SOL     OW28936   5.572   0.173   0.596
 9346SOL    HW128937   5.606   0.102   0.657
 9346SOL    HW228938   5.644   0.240   0.578
 9347SOL     OW28939   1.494   6.839   1.966
 9347SOL    HW128940   1.412   6.784   1.979
 9347SOL    HW228941   1.468   6.935   1.950
 9348SOL     OW28942   3.235   4.789   6.786
 9348SOL    HW128943   3.202   4.882   6.767
 9348SOL    HW228944   3.322   4.794   6.834
 9349SOL     OW28945   1.776   6.513   2.696
 9349SOL    HW128946   1.779   6.605   2.656
 9349SOL    HW228947   1.857   6.462   2.669
 9350SOL     OW28948   0.643   2.897   6.039
 9350SOL    HW128949   0.576   2.905   6.113
 9350SOL    HW228950   0.719   2.960   6.057
 9351SOL     OW28951   2.725   1.402   6.870
 9351SOL    HW128952   2.686   1.348   6.796
 9351SOL    HW228953   2.666   1.481   6.889
 9352SOL     OW28954   2.677   4.699   5.656
 9352SOL    HW128955   2.663   4.796   5.678
 9352SOL    HW228956   2.775   4.682   5.642
 9353SOL     OW28957   6.728   0.063   1.083
 9353SOL    HW128958   6.729   7.013   1.018
 9353SOL    HW228959   6.635   0.081   1.113
 9354SOL     OW28960   0.277   2.139   6.636
 9354SOL    HW128961   0.202   2.076   6.616
 9354SOL    HW228962   0.360   2.087   6.657
 9355SOL     OW28963   0.705   1.723   5.603
 9355SOL    HW128964   0.776   1.726   5.673
 9355SOL    HW228965   0.743   1.688   5.518
 9356SOL     OW28966   5.391   6.926   3.044
 9356SOL    HW128967   5.336   6.991   3.096
 9356SOL    HW228968   5.429   6.857   3.106
 9357SOL     OW28969   1.044   2.004   0.221
 9357SOL    HW128970   1.063   1.910   0.250
 9357SOL    HW228971   0.956   2.006   0.173
 9358SOL     OW28972   0.610   3.301   1.438
 9358SOL    HW128973   0.639   3.296   1.342
 9358SOL    HW228974   0.685   3.271   1.496
 9359SOL     OW28975   1.343   0.318   5.607
 9359SOL    HW128976   1.288   0.321   5.690
 9359SOL    HW228977   1.298   0.260   5.539
 9360SOL     OW28978   1.033   7.010   5.997
 9360SOL    HW128979   1.130   6.985   5.995
 9360SOL    HW228980   1.000   7.006   6.091
 9361SOL     OW28981   1.805   6.175   4.107
 9361SOL    HW128982   1.795   6.244   4.035
 9361SOL    HW228983   1.843   6.218   4.189
 9362SOL     OW28984   2.289   0.063   1.953
 9362SOL    HW128985   2.334   0.068   1.863
 9362SOL    HW228986   2.313   7.002   1.998
 9363SOL     OW28987   1.689   4.716   2.450
 9363SOL    HW128988   1.694   4.624   2.412
 9363SOL    HW228989   1.750   4.724   2.528
 9364SOL     OW28990   1.247   2.731   1.192
 9364SOL    HW128991   1.237   2.656   1.257
 9364SOL    HW228992   1.170   2.794   1.200
 9365SOL     OW28993   2.824   1.505   4.384
 9365SOL    HW128994   2.747   1.566   4.403
 9365SOL    HW228995   2.817   1.472   4.290
 9366SOL     OW28996   3.962   5.917   1.928
 9366SOL    HW128997   3.876   5.867   1.919
 9366SOL    HW228998   4.003   5.895   2.017
 9367SOL     OW28999   0.043   0.682   1.583
 9367SOL    HW129000   0.081   0.615   1.646
 9367SOL    HW229001   0.117   0.733   1.539
 9368SOL     OW29002   2.759   0.090   3.181
 9368SOL    HW129003   2.824   0.082   3.106
 9368SOL    HW229004   2.767   0.009   3.240
 9369SOL     OW29005   3.285   5.464   0.432
 9369SOL    HW129006   3.208   5.401   0.428
 9369SOL    HW229007   3.333   5.453   0.519
 9370SOL     OW29008   4.753   1.766   4.531
 9370SOL    HW129009   4.796   1.720   4.453
 9370SOL    HW229010   4.683   1.706   4.570
 9371SOL     OW29011   4.395   5.635   1.093
 9371SOL    HW129012   4.478   5.686   1.116
 9371SOL    HW229013   4.410   5.580   1.011
 9372SOL     OW29014   4.651   6.249   1.592
 9372SOL    HW129015   4.576   6.259   1.657
 9372SOL    HW229016   4.682   6.340   1.563
 9373SOL     OW29017   0.000   2.341   1.294
 9373SOL    HW129018   7.003   2.300   1.206
 9373SOL    HW229019   0.058   2.422   1.280
 9374SOL     OW29020   0.344   5.451   5.539
 9374SOL    HW129021   0.273   5.398   5.584
 9374SOL    HW229022   0.369   5.408   5.452
 9375SOL     OW29023   0.511   1.218   0.342
 9375SOL    HW129024   0.519   1.141   0.405
 9375SOL    HW229025   0.522   1.186   0.248
 9376SOL     OW29026   2.436   4.057   1.588
 9376SOL    HW129027   2.516   4.113   1.610
 9376SOL    HW229028   2.459   3.996   1.512
 9377SOL     OW29029   1.661   0.924   3.425
 9377SOL    HW129030   1.735   0.937   3.491
 9377SOL    HW229031   1.606   1.008   3.419
 9378SOL     OW29032   3.539   1.131   4.814
 9378SOL    HW129033   3.551   1.032   4.813
 9378SOL    HW229034   3.448   1.154   4.779
 9379SOL     OW29035   4.948   6.520   4.628
 9379SOL    HW129036   5.014   6.451   4.599
 9379SOL    HW229037   4.948   6.596   4.562
 9380SOL     OW29038   5.340   5.527   0.196
 9380SOL    HW129039   5.425   5.559   0.155
 9380SOL    HW229040   5.360   5.485   0.285
 9381SOL     OW29041   5.743   1.419   5.117
 9381SOL    HW129042   5.672   1.420   5.047
 9381SOL    HW229043   5.828   1.454   5.078
 9382SOL     OW29044   3.213   5.651   5.671
 9382SOL    HW129045   3.161   5.696   5.744
 9382SOL    HW229046   3.163   5.570   5.640
 9383SOL     OW29047   5.762   4.079   2.956
 9383SOL    HW129048   5.770   4.178   2.944
 9383SOL    HW229049   5.684   4.058   3.016
 9384SOL     OW29050   2.528   0.709   1.976
 9384SOL    HW129051   2.479   0.771   1.913
 9384SOL    HW229052   2.598   0.761   2.025
 9385SOL     OW29053   4.781   1.717   4.027
 9385SOL    HW129054   4.879   1.707   4.007
 9385SOL    HW229055   4.756   1.814   4.021
 9386SOL     OW29056   4.892   6.039   0.425
 9386SOL    HW129057   4.989   6.020   0.443
 9386SOL    HW229058   4.849   6.074   0.508
 9387SOL     OW29059   2.721   2.011   0.117
 9387SOL    HW129060   2.665   1.975   0.043
 9387SOL    HW229061   2.798   2.063   0.079
 9388SOL     OW29062   2.338   6.858   5.338
 9388SOL    HW129063   2.409   6.788   5.338
 9388SOL    HW229064   2.313   6.881   5.244
 9389SOL     OW29065   1.845   4.774   2.133
 9389SOL    HW129066   1.886   4.833   2.203
 9389SOL    HW229067   1.783   4.709   2.177
 9390SOL     OW29068   5.066   5.089   4.474
 9390SOL    HW129069   5.112   5.016   4.524
 9390SOL    HW229070   5.072   5.072   4.375
 9391SOL     OW29071   1.511   3.828   4.130
 9391SOL    HW129072   1.602   3.822   4.171
 9391SOL    HW229073   1.455   3.753   4.164
 9392SOL     OW29074   4.873   4.732   2.723
 9392SOL    HW129075   4.825   4.789   2.789
 9392SOL    HW229076   4.970   4.729   2.746
 9393SOL     OW29077   2.004   6.233   6.296
 9393SOL    HW129078   2.096   6.267   6.282
 9393SOL    HW229079   1.959   6.220   6.207
 9394SOL     OW29080   3.984   0.612   0.576
 9394SOL    HW129081   3.897   0.569   0.549
 9394SOL    HW229082   3.980   0.710   0.556
 9395SOL     OW29083   1.567   1.784   0.826
 9395SOL    HW129084   1.509   1.860   0.796
 9395SOL    HW229085   1.601   1.803   0.918
 9396SOL     OW29086   0.812   0.166   6.056
 9396SOL    HW129087   0.753   0.123   6.124
 9396SOL    HW229088   0.861   0.096   6.004
 9397SOL     OW29089   3.499   0.909   5.070
 9397SOL    HW129090   3.586   0.943   5.107
 9397SOL    HW229091   3.511   0.883   4.975
 9398SOL     OW29092   0.562   2.268   0.181
 9398SOL    HW129093   0.659   2.263   0.206
 9398SOL    HW229094   0.535   2.364   0.172
 9399SOL     OW29095   0.913   2.599   4.301
 9399SOL    HW129096   0.961   2.528   4.248
 9399SOL    HW229097   0.825   2.618   4.259
 9400SOL     OW29098   5.574   1.318   1.147
 9400SOL    HW129099   5.537   1.394   1.200
 9400SOL    HW229100   5.661   1.345   1.105
 9401SOL     OW29101   0.358   2.345   3.827
 9401SOL    HW129102   0.437   2.378   3.880
 9401SOL    HW229103   0.327   2.257   3.865
 9402SOL     OW29104   2.530   6.613   4.672
 9402SOL    HW129105   2.493   6.703   4.696
 9402SOL    HW229106   2.620   6.625   4.630
 9403SOL     OW29107   5.384   2.087   1.865
 9403SOL    HW129108   5.352   2.116   1.775
 9403SOL    HW229109   5.472   2.040   1.856
 9404SOL     OW29110   2.526   2.197   0.762
 9404SOL    HW129111   2.525   2.247   0.848
 9404SOL    HW229112   2.443   2.142   0.755
 9405SOL     OW29113   6.759   5.411   5.407
 9405SOL    HW129114   6.660   5.421   5.392
 9405SOL    HW229115   6.797   5.500   5.431
 9406SOL     OW29116   0.804   2.149   0.508
 9406SOL    HW129117   0.889   2.114   0.548
 9406SOL    HW229118   0.761   2.077   0.453
 9407SOL     OW29119   2.277   4.819   5.184
 9407SOL    HW129120   2.368   4.802   5.221
 9407SOL    HW229121   2.208   4.774   5.241
 9408SOL     OW29122   6.808   3.889   4.174
 9408SOL    HW129123   6.805   3.986   4.150
 9408SOL    HW229124   6.902   3.856   4.170
 9409SOL     OW29125   6.168   5.288   2.246
 9409SOL    HW129126   6.254   5.281   2.195
 9409SOL    HW229127   6.093   5.256   2.189
 9410SOL     OW29128   3.932   0.727   0.897
 9410SOL    HW129129   3.901   0.812   0.854
 9410SOL    HW229130   3.864   0.656   0.881
 9411SOL     OW29131   3.123   3.960   3.172
 9411SOL    HW129132   3.201   4.022   3.168
 9411SOL    HW229133   3.053   3.988   3.106
 9412SOL     OW29134   4.806   6.039   1.678
 9412SOL    HW129135   4.740   5.973   1.713
 9412SOL    HW229136   4.760   6.127   1.662
 9413SOL     OW29137   4.765   4.076   3.163
 9413SOL    HW129138   4.795   4.040   3.074
 9413SOL    HW229139   4.788   4.011   3.235
 9414SOL     OW29140   2.326   2.107   3.306
 9414SOL    HW129141   2.311   2.033   3.239
 9414SOL    HW229142   2.347   2.192   3.257
 9415SOL     OW29143   5.072   1.013   1.964
 9415SOL    HW129144   5.146   1.071   1.929
 9415SOL    HW229145   4.995   1.016   1.901
 9416SOL     OW29146   5.076   5.086   5.833
 9416SOL    HW129147   5.173   5.089   5.857
 9416SOL    HW229148   5.063   5.131   5.744
 9417SOL     OW29149   3.324   5.863   2.661
 9417SOL    HW129150   3.235   5.819   2.676
 9417SOL    HW229151   3.397   5.799   2.681
 9418SOL     OW29152   3.043   1.828   5.255
 9418SOL    HW129153   3.121   1.827   5.316
 9418SOL    HW229154   3.054   1.902   5.188
 9419SOL     OW29155   1.814   2.917   6.511
 9419SOL    HW129156   1.841   2.952   6.601
 9419SOL    HW229157   1.743   2.976   6.473
 9420SOL     OW29158   5.964   4.209   6.068
 9420SOL    HW129159   5.913   4.293   6.087
 9420SOL    HW229160   5.924   4.134   6.121
 9421SOL     OW29161   3.523   6.397   6.714
 9421SOL    HW129162   3.536   6.441   6.625
 9421SOL    HW229163   3.491   6.303   6.700
 9422SOL     OW29164   2.344   6.216   6.000
 9422SOL    HW129165   2.404   6.235   5.922
 9422SOL    HW229166   2.251   6.200   5.967
 9423SOL     OW29167   4.484   4.716   2.382
 9423SOL    HW129168   4.510   4.632   2.334
 9423SOL    HW229169   4.429   4.773   2.321
 9424SOL     OW29170   5.988   0.360   4.094
 9424SOL    HW129171   6.069   0.335   4.040
 9424SOL    HW229172   6.011   0.356   4.191
 9425SOL     OW29173   6.828   3.765   0.988
 9425SOL    HW129174   6.825   3.850   0.935
 9425SOL    HW229175   6.869   3.783   1.078
 9426SOL     OW29176   6.089   3.031   6.302
 9426SOL    HW129177   6.048   3.117   6.274
 9426SOL    HW229178   6.124   3.039   6.396
 9427SOL     OW29179   4.548   4.352   2.687
 9427SOL    HW129180   4.547   4.278   2.619
 9427SOL    HW229181   4.558   4.314   2.778
 9428SOL     OW29182   1.297   6.030   5.592
 9428SOL    HW129183   1.203   6.065   5.596
 9428SOL    HW229184   1.295   5.931   5.579
 9429SOL     OW29185   2.404   2.777   4.397
 9429SOL    HW129186   2.394   2.845   4.469
 9429SOL    HW229187   2.319   2.725   4.387
 9430SOL     OW29188   1.563   1.707   4.023
 9430SOL    HW129189   1.643   1.658   4.058
 9430SOL    HW229190   1.480   1.663   4.056
 9431SOL     OW29191   0.825   4.562   5.727
 9431SOL    HW129192   0.862   4.539   5.637
 9431SOL    HW229193   0.883   4.631   5.770
 9432SOL     OW29194   7.019   0.805   4.042
 9432SOL    HW129195   7.016   0.719   3.991
 9432SOL    HW229196   0.022   0.879   3.981
 9433SOL     OW29197   4.737   5.637   1.679
 9433SOL    HW129198   4.828   5.655   1.641
 9433SOL    HW229199   4.668   5.655   1.610
 9434SOL     OW29200   4.109   5.859   3.842
 9434SOL    HW129201   4.128   5.820   3.752
 9434SOL    HW229202   4.068   5.950   3.832
 9435SOL     OW29203   6.437   3.826   0.945
 9435SOL    HW129204   6.481   3.914   0.927
 9435SOL    HW229205   6.431   3.812   1.043
 9436SOL     OW29206   2.583   0.561   3.047
 9436SOL    HW129207   2.516   0.625   3.009
 9436SOL    HW229208   2.606   0.587   3.141
 9437SOL     OW29209   5.254   0.904   5.076
 9437SOL    HW129210   5.287   0.817   5.114
 9437SOL    HW229211   5.324   0.942   5.016
 9438SOL     OW29212   4.915   0.324   2.273
 9438SOL    HW129213   4.986   0.360   2.213
 9438SOL    HW229214   4.870   0.247   2.228
 9439SOL     OW29215   1.696   3.848   0.774
 9439SOL    HW129216   1.705   3.947   0.771
 9439SOL    HW229217   1.623   3.819   0.712
 9440SOL     OW29218   1.900   5.042   3.412
 9440SOL    HW129219   1.974   5.108   3.400
 9440SOL    HW229220   1.844   5.068   3.491
 9441SOL     OW29221   0.213   6.738   4.538
 9441SOL    HW129222   0.237   6.826   4.496
 9441SOL    HW229223   0.127   6.705   4.501
 9442SOL     OW29224   5.593   3.145   0.986
 9442SOL    HW129225   5.526   3.188   1.046
 9442SOL    HW229226   5.577   3.176   0.892
 9443SOL     OW29227   1.914   4.704   1.845
 9443SOL    HW129228   1.847   4.751   1.788
 9443SOL    HW229229   1.877   4.696   1.938
 9444SOL     OW29230   2.237   4.679   6.822
 9444SOL    HW129231   2.332   4.660   6.797
 9444SOL    HW229232   2.185   4.594   6.820
 9445SOL     OW29233   0.107   1.760   4.295
 9445SOL    HW129234   0.207   1.765   4.301
 9445SOL    HW229235   0.069   1.756   4.387
 9446SOL     OW29236   6.173   3.930   4.701
 9446SOL    HW129237   6.114   3.987   4.644
 9446SOL    HW229238   6.129   3.916   4.790
 9447SOL     OW29239   4.936   4.092   2.089
 9447SOL    HW129240   4.876   4.166   2.062
 9447SOL    HW229241   5.020   4.095   2.034
 9448SOL     OW29242   6.290   2.047   6.376
 9448SOL    HW129243   6.260   1.957   6.345
 9448SOL    HW229244   6.325   2.040   6.469
 9449SOL     OW29245   5.675   0.077   2.439
 9449SOL    HW129246   5.585   0.091   2.398
 9449SOL    HW229247   5.680   0.126   2.526
 9450SOL     OW29248   1.307   6.328   3.589
 9450SOL    HW129249   1.268   6.389   3.658
 9450SOL    HW229250   1.395   6.364   3.558
 9451SOL     OW29251   4.020   5.341   0.203
 9451SOL    HW129252   3.951   5.308   0.268
 9451SOL    HW229253   4.110   5.308   0.231
 9452SOL     OW29254   6.357   4.420   6.641
 9452SOL    HW129255   6.353   4.462   6.550
 9452SOL    HW229256   6.447   4.380   6.655
 9453SOL     OW29257   5.436   4.624   1.524
 9453SOL    HW129258   5.468   4.533   1.501
 9453SOL    HW229259   5.366   4.619   1.595
 9454SOL     OW29260   6.141   4.984   0.359
 9454SOL    HW129261   6.052   5.030   0.359
 9454SOL    HW229262   6.145   4.917   0.285
 9455SOL     OW29263   3.780   0.795   1.724
 9455SOL    HW129264   3.867   0.762   1.688
 9455SOL    HW229265   3.734   0.720   1.773
 9456SOL     OW29266   6.612   1.843   3.445
 9456SOL    HW129267   6.589   1.839   3.348
 9456SOL    HW229268   6.698   1.794   3.460
 9457SOL     OW29269   6.357   6.069   4.681
 9457SOL    HW129270   6.299   6.133   4.733
 9457SOL    HW229271   6.377   6.108   4.592
 9458SOL     OW29272   5.971   4.045   0.009
 9458SOL    HW129273   6.049   4.064   6.974
 9458SOL    HW229274   6.002   3.988   0.085
 9459SOL     OW29275   4.681   4.326   4.845
 9459SOL    HW129276   4.674   4.423   4.865
 9459SOL    HW229277   4.644   4.308   4.753
 9460SOL     OW29278   0.972   3.374   1.984
 9460SOL    HW129279   0.955   3.339   2.076
 9460SOL    HW229280   1.032   3.454   1.989
 9461SOL     OW29281   1.616   1.259   1.481
 9461SOL    HW129282   1.651   1.332   1.539
 9461SOL    HW229283   1.557   1.298   1.411
 9462SOL     OW29284   6.952   1.080   4.790
 9462SOL    HW129285   6.887   1.047   4.859
 9462SOL    HW229286   6.902   1.120   4.713
 9463SOL     OW29287   6.383   4.282   0.753
 9463SOL    HW129288   6.307   4.319   0.701
 9463SOL    HW229289   6.443   4.231   0.693
 9464SOL     OW29290   1.276   0.430   1.488
 9464SOL    HW129291   1.312   0.337   1.488
 9464SOL    HW229292   1.351   0.495   1.500
 9465SOL     OW29293   6.837   5.700   0.462
 9465SOL    HW129294   6.792   5.788   0.479
 9465SOL    HW229295   6.773   5.626   0.480
 9466SOL     OW29296   4.463   3.760   5.607
 9466SOL    HW129297   4.371   3.798   5.623
 9466SOL    HW229298   4.525   3.833   5.578
 9467SOL     OW29299   1.513   2.909   0.901
 9467SOL    HW129300   1.442   2.903   0.830
 9467SOL    HW229301   1.472   2.939   0.987
 9468SOL     OW29302   5.754   1.072   0.864
 9468SOL    HW129303   5.729   1.164   0.832
 9468SOL    HW229304   5.696   1.047   0.942
 9469SOL     OW29305   6.785   6.813   1.429
 9469SOL    HW129306   6.755   6.745   1.362
 9469SOL    HW229307   6.779   6.773   1.521
 9470SOL     OW29308   3.784   3.081   0.380
 9470SOL    HW129309   3.834   3.106   0.297
 9470SOL    HW229310   3.846   3.035   0.444
 9471SOL     OW29311   6.244   2.537   4.869
 9471SOL    HW129312   6.226   2.635   4.863
 9471SOL    HW229313   6.161   2.490   4.898
 9472SOL     OW29314   1.626   3.865   5.722
 9472SOL    HW129315   1.628   3.777   5.769
 9472SOL    HW229316   1.642   3.939   5.788
 9473SOL     OW29317   2.730   3.909   1.271
 9473SOL    HW129318   2.684   3.970   1.206
 9473SOL    HW229319   2.804   3.860   1.224
 9474SOL     OW29320   5.228   4.097   0.899
 9474SOL    HW129321   5.302   4.057   0.845
 9474SOL    HW229322   5.208   4.189   0.867
 9475SOL     OW29323   5.006   4.099   5.557
 9475SOL    HW129324   4.949   4.065   5.632
 9475SOL    HW229325   4.952   4.159   5.498
 9476SOL     OW29326   4.377   3.759   1.301
 9476SOL    HW129327   4.314   3.694   1.344
 9476SOL    HW229328   4.325   3.836   1.265
 9477SOL     OW29329   2.951   4.495   0.321
 9477SOL    HW129330   2.890   4.425   0.358
 9477SOL    HW229331   2.939   4.502   0.222
 9478SOL     OW29332   5.732   3.868   6.220
 9478SOL    HW129333   5.805   3.936   6.207
 9478SOL    HW229334   5.666   3.903   6.286
 9479SOL     OW29335   4.632   0.938   1.677
 9479SOL    HW129336   4.663   1.029   1.649
 9479SOL    HW229337   4.663   0.920   1.770
 9480SOL     OW29338   5.777   0.571   1.129
 9480SOL    HW129339   5.768   0.483   1.082
 9480SOL    HW229340   5.692   0.592   1.177
 9481SOL     OW29341   4.442   0.626   3.397
 9481SOL    HW129342   4.515   0.615   3.329
 9481SOL    HW229343   4.483   0.632   3.488
 9482SOL     OW29344   6.118   5.681   6.483
 9482SOL    HW129345   6.146   5.588   6.507
 9482SOL    HW229346   6.191   5.724   6.430
 9483SOL     OW29347   6.748   6.950   0.006
 9483SOL    HW129348   6.651   6.933   0.020
 9483SOL    HW229349   6.761   7.021   6.963
 9484SOL     OW29350   3.054   5.635   4.730
 9484SOL    HW129351   3.072   5.664   4.824
 9484SOL    HW229352   2.966   5.588   4.726
 9485SOL     OW29353   0.176   1.305   5.828
 9485SOL    HW129354   0.167   1.404   5.841
 9485SOL    HW229355   0.259   1.273   5.873
 9486SOL     OW29356   6.455   5.407   6.733
 9486SOL    HW129357   6.511   5.468   6.788
 9486SOL    HW229358   6.358   5.433   6.742
 9487SOL     OW29359   3.513   3.842   3.166
 9487SOL    HW129360   3.453   3.820   3.243
 9487SOL    HW229361   3.468   3.817   3.080
 9488SOL     OW29362   1.445   0.645   1.380
 9488SOL    HW129363   1.382   0.722   1.390
 9488SOL    HW229364   1.436   0.607   1.288
 9489SOL     OW29365   5.445   3.467   0.341
 9489SOL    HW129366   5.492   3.451   0.428
 9489SOL    HW229367   5.507   3.442   0.266
 9490SOL     OW29368   5.554   3.459   5.093
 9490SOL    HW129369   5.584   3.416   5.007
 9490SOL    HW229370   5.522   3.389   5.156
 9491SOL     OW29371   5.613   0.143   2.728
 9491SOL    HW129372   5.690   0.090   2.762
 9491SOL    HW229373   5.643   0.237   2.710
 9492SOL     OW29374   4.996   2.788   3.524
 9492SOL    HW129375   4.900   2.772   3.548
 9492SOL    HW229376   5.049   2.804   3.608
 9493SOL     OW29377   3.872   6.335   1.256
 9493SOL    HW129378   3.901   6.403   1.324
 9493SOL    HW229379   3.774   6.319   1.265
 9494SOL     OW29380   5.859   1.804   1.872
 9494SOL    HW129381   5.958   1.794   1.867
 9494SOL    HW229382   5.831   1.807   1.968
 9495SOL     OW29383   6.160   2.535   1.120
 9495SOL    HW129384   6.114   2.503   1.203
 9495SOL    HW229385   6.212   2.618   1.140
 9496SOL     OW29386   5.929   1.908   1.589
 9496SOL    HW129387   5.874   1.842   1.538
 9496SOL    HW229388   5.906   1.903   1.686
 9497SOL     OW29389   4.596   4.576   4.918
 9497SOL    HW129390   4.590   4.624   4.831
 9497SOL    HW229391   4.511   4.587   4.969
 9498SOL     OW29392   1.042   5.368   4.144
 9498SOL    HW129393   1.038   5.304   4.220
 9498SOL    HW229394   1.133   5.365   4.102
 9499SOL     OW29395   5.538   5.762   4.476
 9499SOL    HW129396   5.496   5.852   4.491
 9499SOL    HW229397   5.630   5.775   4.440
 9500SOL     OW29398   3.277   1.706   0.489
 9500SOL    HW129399   3.235   1.795   0.507
 9500SOL    HW229400   3.205   1.638   0.470
 9501SOL     OW29401   2.185   3.813   4.854
 9501SOL    HW129402   2.129   3.858   4.784
 9501SOL    HW229403   2.253   3.877   4.889
 9502SOL     OW29404   5.252   4.807   3.937
 9502SOL    HW129405   5.218   4.858   3.857
 9502SOL    HW229406   5.351   4.800   3.932
 9503SOL     OW29407   6.082   0.774   0.720
 9503SOL    HW129408   6.040   0.727   0.643
 9503SOL    HW229409   6.012   0.798   0.787
 9504SOL     OW29410   6.366   5.709   1.771
 9504SOL    HW129411   6.372   5.702   1.870
 9504SOL    HW229412   6.276   5.679   1.740
 9505SOL     OW29413   4.682   4.241   6.020
 9505SOL    HW129414   4.772   4.197   6.013
 9505SOL    HW229415   4.691   4.338   5.994
 9506SOL     OW29416   2.586   1.001   1.076
 9506SOL    HW129417   2.541   1.059   1.143
 9506SOL    HW229418   2.566   0.905   1.095
 9507SOL     OW29419   5.985   0.185   2.601
 9507SOL    HW129420   5.943   0.110   2.652
 9507SOL    HW229421   5.925   0.213   2.527
 9508SOL     OW29422   4.536   1.588   2.202
 9508SOL    HW129423   4.438   1.569   2.207
 9508SOL    HW229424   4.563   1.646   2.280
 9509SOL     OW29425   5.578   0.946   3.313
 9509SOL    HW129426   5.587   1.038   3.274
 9509SOL    HW229427   5.553   0.882   3.240
 9510SOL     OW29428   1.935   2.785   3.325
 9510SOL    HW129429   1.843   2.748   3.332
 9510SOL    HW229430   1.981   2.779   3.414
 9511SOL     OW29431   0.198   1.831   1.127
 9511SOL    HW129432   0.226   1.754   1.185
 9511SOL    HW229433   0.145   1.896   1.180
 9512SOL     OW29434   6.634   1.678   1.712
 9512SOL    HW129435   6.679   1.590   1.723
 9512SOL    HW229436   6.645   1.731   1.796
 9513SOL     OW29437   4.604   3.958   5.499
 9513SOL    HW129438   4.617   4.036   5.560
 9513SOL    HW229439   4.592   3.990   5.405
 9514SOL     OW29440   3.783   2.868   6.830
 9514SOL    HW129441   3.840   2.787   6.844
 9514SOL    HW229442   3.834   2.950   6.858
 9515SOL     OW29443   0.681   5.512   3.668
 9515SOL    HW129444   0.647   5.587   3.723
 9515SOL    HW229445   0.651   5.523   3.573
 9516SOL     OW29446   6.792   4.072   6.377
 9516SOL    HW129447   6.725   4.046   6.446
 9516SOL    HW229448   6.788   4.008   6.301
 9517SOL     OW29449   0.330   6.529   1.442
 9517SOL    HW129450   0.411   6.493   1.488
 9517SOL    HW229451   0.300   6.613   1.487
 9518SOL     OW29452   1.046   0.321   0.853
 9518SOL    HW129453   1.087   0.311   0.762
 9518SOL    HW229454   1.119   0.326   0.921
 9519SOL     OW29455   0.860   2.952   5.375
 9519SOL    HW129456   0.956   2.924   5.373
 9519SOL    HW229457   0.841   3.013   5.298
 9520SOL     OW29458   3.967   6.770   1.629
 9520SOL    HW129459   3.998   6.695   1.571
 9520SOL    HW229460   4.033   6.845   1.625
 9521SOL     OW29461   5.425   5.686   3.078
 9521SOL    HW129462   5.476   5.641   3.151
 9521SOL    HW229463   5.330   5.697   3.107
 9522SOL     OW29464   3.045   5.740   0.016
 9522SOL    HW129465   2.969   5.767   0.076
 9522SOL    HW229466   3.111   5.814   0.012
 9523SOL     OW29467   2.694   6.458   5.806
 9523SOL    HW129468   2.785   6.433   5.772
 9523SOL    HW229469   2.670   6.549   5.774
 9524SOL     OW29470   4.505   2.501   1.127
 9524SOL    HW129471   4.600   2.504   1.096
 9524SOL    HW229472   4.466   2.411   1.107
 9525SOL     OW29473   4.074   0.239   5.105
 9525SOL    HW129474   4.041   0.312   5.166
 9525SOL    HW229475   4.172   0.251   5.089
 9526SOL     OW29476   4.484   6.522   2.129
 9526SOL    HW129477   4.514   6.428   2.112
 9526SOL    HW229478   4.528   6.583   2.063
 9527SOL     OW29479   6.717   2.097   1.431
 9527SOL    HW129480   6.815   2.074   1.432
 9527SOL    HW229481   6.673   2.056   1.511
 9528SOL     OW29482   6.945   0.980   1.803
 9528SOL    HW129483   0.016   0.961   1.825
 9528SOL    HW229484   6.935   0.986   1.703
 9529SOL     OW29485   1.028   3.776   4.972
 9529SOL    HW129486   0.974   3.811   5.048
 9529SOL    HW229487   0.966   3.749   4.898
 9530SOL     OW29488   1.356   2.547   4.260
 9530SOL    HW129489   1.384   2.561   4.166
 9530SOL    HW229490   1.323   2.453   4.272
 9531SOL     OW29491   3.006   6.350   3.609
 9531SOL    HW129492   2.957   6.353   3.697
 9531SOL    HW229493   2.948   6.308   3.540
 9532SOL     OW29494   2.966   1.525   1.897
 9532SOL    HW129495   2.954   1.620   1.869
 9532SOL    HW229496   2.920   1.464   1.832
 9533SOL     OW29497   1.272   1.285   4.663
 9533SOL    HW129498   1.306   1.239   4.581
 9533SOL    HW229499   1.179   1.318   4.647
 9534SOL     OW29500   5.404   1.820   4.423
 9534SOL    HW129501   5.357   1.732   4.437
 9534SOL    HW229502   5.416   1.866   4.511
 9535SOL     OW29503   3.195   2.038   4.694
 9535SOL    HW129504   3.251   2.081   4.624
 9535SOL    HW229505   3.101   2.072   4.687
 9536SOL     OW29506   2.392   6.288   6.574
 9536SOL    HW129507   2.341   6.203   6.563
 9536SOL    HW229508   2.490   6.271   6.564
 9537SOL     OW29509   2.852   6.659   0.843
 9537SOL    HW129510   2.875   6.579   0.787
 9537SOL    HW229511   2.933   6.718   0.851
 9538SOL     OW29512   6.139   3.882   3.500
 9538SOL    HW129513   6.172   3.838   3.416
 9538SOL    HW229514   6.175   3.975   3.505
 9539SOL     OW29515   0.355   3.732   0.137
 9539SOL    HW129516   0.323   3.651   0.088
 9539SOL    HW229517   0.446   3.756   0.104
 9540SOL     OW29518   5.575   3.288   5.702
 9540SOL    HW129519   5.480   3.260   5.688
 9540SOL    HW229520   5.637   3.221   5.661
 9541SOL     OW29521   0.196   1.715   3.651
 9541SOL    HW129522   0.212   1.755   3.561
 9541SOL    HW229523   0.098   1.714   3.670
 9542SOL     OW29524   4.639   4.338   4.553
 9542SOL    HW129525   4.694   4.329   4.470
 9542SOL    HW229526   4.543   4.349   4.529
 9543SOL     OW29527   5.253   2.197   1.641
 9543SOL    HW129528   5.192   2.261   1.687
 9543SOL    HW229529   5.298   2.242   1.564
 9544SOL     OW29530   3.985   1.429   1.771
 9544SOL    HW129531   4.014   1.524   1.759
 9544SOL    HW229532   4.054   1.368   1.733
 9545SOL     OW29533   1.250   0.246   4.576
 9545SOL    HW129534   1.266   0.286   4.486
 9545SOL    HW229535   1.155   0.259   4.602
 9546SOL     OW29536   2.222   4.621   2.145
 9546SOL    HW129537   2.192   4.700   2.090
 9546SOL    HW229538   2.162   4.543   2.126
 9547SOL     OW29539   5.956   5.279   3.561
 9547SOL    HW129540   5.890   5.292   3.635
 9547SOL    HW229541   6.048   5.273   3.598
 9548SOL     OW29542   4.992   0.504   2.831
 9548SOL    HW129543   4.910   0.551   2.797
 9548SOL    HW229544   5.022   0.438   2.762
 9549SOL     OW29545   2.406   5.726   0.527
 9549SOL    HW129546   2.369   5.633   0.518
 9549SOL    HW229547   2.404   5.754   0.623
 9550SOL     OW29548   1.218   1.131   0.415
 9550SOL    HW129549   1.267   1.196   0.473
 9550SOL    HW229550   1.194   1.050   0.468
 9551SOL     OW29551   1.324   6.114   5.860
 9551SOL    HW129552   1.228   6.128   5.887
 9551SOL    HW229553   1.327   6.075   5.768
 9552SOL     OW29554   0.566   5.237   3.472
 9552SOL    HW129555   0.646   5.187   3.503
 9552SOL    HW229556   0.594   5.305   3.404
 9553SOL     OW29557   5.556   4.423   6.118
 9553SOL    HW129558   5.551   4.324   6.105
 9553SOL    HW229559   5.498   4.450   6.195
 9554SOL     OW29560   1.824   1.834   1.617
 9554SOL    HW129561   1.819   1.831   1.517
 9554SOL    HW229562   1.733   1.819   1.655
 9555SOL     OW29563   0.095   2.681   6.267
 9555SOL    HW129564   0.040   2.750   6.219
 9555SOL    HW229565   0.094   2.699   6.365
 9556SOL     OW29566   6.621   1.412   0.796
 9556SOL    HW129567   6.708   1.459   0.811
 9556SOL    HW229568   6.546   1.470   0.827
 9557SOL     OW29569   5.196   1.772   2.223
 9557SOL    HW129570   5.146   1.859   2.231
 9557SOL    HW229571   5.246   1.755   2.307
 9558SOL     OW29572   6.137   4.431   1.701
 9558SOL    HW129573   6.137   4.425   1.601
 9558SOL    HW229574   6.185   4.352   1.739
 9559SOL     OW29575   6.806   3.986   2.189
 9559SOL    HW129576   6.897   3.961   2.222
 9559SOL    HW229577   6.739   3.973   2.262
 9560SOL     OW29578   4.047   2.177   5.068
 9560SOL    HW129579   4.107   2.247   5.030
 9560SOL    HW229580   4.062   2.172   5.167
 9561SOL     OW29581   2.992   6.638   5.949
 9561SOL    HW129582   2.962   6.641   6.045
 9561SOL    HW229583   3.084   6.677   5.942
 9562SOL     OW29584   5.996   4.773   4.235
 9562SOL    HW129585   5.979   4.770   4.334
 9562SOL    HW229586   5.926   4.828   4.191
 9563SOL     OW29587   0.530   6.219   6.853
 9563SOL    HW129588   0.610   6.189   6.801
 9563SOL    HW229589   0.560   6.274   6.931
 9564SOL     OW29590   1.547   0.515   6.415
 9564SOL    HW129591   1.582   0.434   6.463
 9564SOL    HW229592   1.455   0.535   6.447
 9565SOL     OW29593   3.681   6.000   4.096
 9565SOL    HW129594   3.657   5.907   4.067
 9565SOL    HW229595   3.738   5.996   4.178
 9566SOL     OW29596   3.503   4.658   6.257
 9566SOL    HW129597   3.501   4.758   6.248
 9566SOL    HW229598   3.488   4.633   6.352
 9567SOL     OW29599   5.925   5.153   4.825
 9567SOL    HW129600   5.834   5.170   4.787
 9567SOL    HW229601   5.976   5.094   4.762
 9568SOL     OW29602   5.495   3.930   5.907
 9568SOL    HW129603   5.414   3.988   5.911
 9568SOL    HW229604   5.488   3.858   5.977
 9569SOL     OW29605   5.387   6.866   1.915
 9569SOL    HW129606   5.414   6.920   1.995
 9569SOL    HW229607   5.415   6.914   1.832
 9570SOL     OW29608   0.939   1.583   6.664
 9570SOL    HW129609   0.952   1.589   6.763
 9570SOL    HW229610   0.842   1.575   6.644
 9571SOL     OW29611   2.511   2.506   0.507
 9571SOL    HW129612   2.458   2.589   0.520
 9571SOL    HW229613   2.467   2.430   0.555
 9572SOL     OW29614   0.312   3.685   1.129
 9572SOL    HW129615   0.262   3.753   1.074
 9572SOL    HW229616   0.407   3.714   1.138
 9573SOL     OW29617   5.190   1.212   2.522
 9573SOL    HW129618   5.160   1.235   2.614
 9573SOL    HW229619   5.145   1.128   2.491
 9574SOL     OW29620   2.845   2.067   3.613
 9574SOL    HW129621   2.936   2.031   3.593
 9574SOL    HW229622   2.800   2.091   3.527
 9575SOL     OW29623   4.530   1.320   3.011
 9575SOL    HW129624   4.612   1.358   3.052
 9575SOL    HW229625   4.526   1.221   3.027
 9576SOL     OW29626   4.001   3.007   5.248
 9576SOL    HW129627   4.025   2.911   5.266
 9576SOL    HW229628   3.922   3.032   5.304
 9577SOL     OW29629   0.677   5.880   3.322
 9577SOL    HW129630   0.739   5.929   3.383
 9577SOL    HW229631   0.726   5.852   3.239
 9578SOL     OW29632   6.596   4.396   1.501
 9578SOL    HW129633   6.664   4.331   1.531
 9578SOL    HW229634   6.554   4.441   1.580
 9579SOL     OW29635   1.839   5.330   2.840
 9579SOL    HW129636   1.874   5.418   2.873
 9579SOL    HW229637   1.744   5.341   2.810
 9580SOL     OW29638   4.328   3.352   5.844
 9580SOL    HW129639   4.326   3.291   5.765
 9580SOL    HW229640   4.326   3.447   5.813
 9581SOL     OW29641   1.042   5.897   5.445
 9581SOL    HW129642   0.985   5.874   5.524
 9581SOL    HW229643   0.984   5.919   5.367
 9582SOL     OW29644   4.557   5.363   2.952
 9582SOL    HW129645   4.632   5.345   2.889
 9582SOL    HW229646   4.479   5.400   2.902
 9583SOL     OW29647   1.922   5.002   1.946
 9583SOL    HW129648   1.833   5.039   1.975
 9583SOL    HW229649   1.924   4.904   1.965
 9584SOL     OW29650   5.170   4.867   0.068
 9584SOL    HW129651   5.185   4.965   0.053
 9584SOL    HW229652   5.115   4.830   7.019
 9585SOL     OW29653   6.974   0.894   3.048
 9585SOL    HW129654   0.002   0.851   3.121
 9585SOL    HW229655   0.001   0.892   2.963
 9586SOL     OW29656   4.891   3.731   2.643
 9586SOL    HW129657   4.971   3.713   2.585
 9586SOL    HW229658   4.846   3.814   2.612
 9587SOL     OW29659   5.092   6.376   1.634
 9587SOL    HW129660   5.088   6.346   1.539
 9587SOL    HW229661   5.146   6.460   1.640
 9588SOL     OW29662   6.792   1.032   2.896
 9588SOL    HW129663   6.702   1.004   2.927
 9588SOL    HW229664   6.859   1.016   2.968
 9589SOL     OW29665   3.082   2.011   4.996
 9589SOL    HW129666   3.130   1.985   4.913
 9589SOL    HW229667   3.088   2.110   5.009
 9590SOL     OW29668   0.852   5.100   4.553
 9590SOL    HW129669   0.835   5.179   4.613
 9590SOL    HW229670   0.908   5.128   4.476
 9591SOL     OW29671   1.068   4.210   2.450
 9591SOL    HW129672   1.026   4.271   2.519
 9591SOL    HW229673   1.047   4.115   2.474
 9592SOL     OW29674   5.073   5.926   0.871
 9592SOL    HW129675   5.036   5.840   0.838
 9592SOL    HW229676   5.131   5.909   0.950
 9593SOL     OW29677   2.726   2.325   3.351
 9593SOL    HW129678   2.688   2.400   3.298
 9593SOL    HW229679   2.662   2.299   3.423
 9594SOL     OW29680   6.113   0.098   1.075
 9594SOL    HW129681   6.013   0.098   1.072
 9594SOL    HW229682   6.147   0.020   1.022
 9595SOL     OW29683   1.207   5.076   4.193
 9595SOL    HW129684   1.272   5.150   4.174
 9595SOL    HW229685   1.237   4.992   4.148
 9596SOL     OW29686   5.209   5.800   1.932
 9596SOL    HW129687   5.272   5.773   2.005
 9596SOL    HW229688   5.124   5.749   1.941
 9597SOL     OW29689   2.012   4.373   0.821
 9597SOL    HW129690   2.066   4.394   0.739
 9597SOL    HW229691   2.045   4.429   0.897
 9598SOL     OW29692   0.544   5.799   5.857
 9598SOL    HW129693   0.586   5.789   5.947
 9598SOL    HW229694   0.533   5.897   5.836
 9599SOL     OW29695   3.760   1.680   4.850
 9599SOL    HW129696   3.817   1.726   4.918
 9599SOL    HW229697   3.682   1.738   4.828
 9600SOL     OW29698   1.192   6.228   6.624
 9600SOL    HW129699   1.176   6.189   6.534
 9600SOL    HW229700   1.291   6.231   6.642
 9601SOL     OW29701   0.707   6.724   5.235
 9601SOL    HW129702   0.689   6.655   5.165
 9601SOL    HW229703   0.695   6.815   5.196
 9602SOL     OW29704   0.950   5.315   6.342
 9602SOL    HW129705   0.890   5.262   6.402
 9602SOL    HW229706   0.959   5.268   6.254
 9603SOL     OW29707   1.104   5.120   2.466
 9603SOL    HW129708   1.187   5.102   2.412
 9603SOL    HW229709   1.063   5.206   2.436
 9604SOL     OW29710   6.992   6.962   6.706
 9604SOL    HW129711   6.914   7.024   6.718
 9604SOL    HW229712   6.967   6.891   6.640
 9605SOL     OW29713   2.903   4.963   0.255
 9605SOL    HW129714   2.934   4.996   0.345
 9605SOL    HW229715   2.948   4.875   0.236
 9606SOL     OW29716   6.885   6.965   5.270
 9606SOL    HW129717   6.826   6.944   5.348
 9606SOL    HW229718   6.960   6.899   5.268
 9607SOL     OW29719   0.080   2.294   2.319
 9607SOL    HW129720   0.028   2.379   2.317
 9607SOL    HW229721   0.081   2.257   2.412
 9608SOL     OW29722   6.858   0.507   2.284
 9608SOL    HW129723   6.917   0.569   2.337
 9608SOL    HW229724   6.880   0.515   2.187
 9609SOL     OW29725   1.974   2.080   3.340
 9609SOL    HW129726   1.970   1.981   3.330
 9609SOL    HW229727   2.017   2.103   3.428
 9610SOL     OW29728   3.724   0.731   5.828
 9610SOL    HW129729   3.630   0.760   5.849
 9610SOL    HW229730   3.752   0.770   5.741
 9611SOL     OW29731   5.469   6.022   1.238
 9611SOL    HW129732   5.392   5.958   1.234
 9611SOL    HW229733   5.489   6.056   1.147
 9612SOL     OW29734   5.236   3.678   3.809
 9612SOL    HW129735   5.156   3.735   3.793
 9612SOL    HW229736   5.271   3.643   3.722
 9613SOL     OW29737   5.669   0.910   5.319
 9613SOL    HW129738   5.679   0.812   5.335
 9613SOL    HW229739   5.607   0.924   5.242
 9614SOL     OW29740   3.005   2.872   0.896
 9614SOL    HW129741   2.987   2.945   0.830
 9614SOL    HW229742   2.957   2.789   0.868
 9615SOL     OW29743   0.870   5.763   3.907
 9615SOL    HW129744   0.890   5.691   3.973
 9615SOL    HW229745   0.946   5.771   3.843
 9616SOL     OW29746   0.917   2.690   1.368
 9616SOL    HW129747   0.861   2.760   1.413
 9616SOL    HW229748   0.858   2.629   1.316
 9617SOL     OW29749   0.115   3.044   2.417
 9617SOL    HW129750   0.120   3.087   2.327
 9617SOL    HW229751   0.104   2.945   2.405
 9618SOL     OW29752   4.929   3.908   1.167
 9618SOL    HW129753   4.892   3.986   1.116
 9618SOL    HW229754   4.911   3.824   1.117
 9619SOL     OW29755   0.477   0.061   1.256
 9619SOL    HW129756   0.550   0.019   1.201
 9619SOL    HW229757   0.518   0.125   1.321
 9620SOL     OW29758   2.926   1.559   6.717
 9620SOL    HW129759   2.997   1.490   6.726
 9620SOL    HW229760   2.838   1.519   6.742
 9621SOL     OW29761   0.386   0.562   1.583
 9621SOL    HW129762   0.346   0.610   1.505
 9621SOL    HW229763   0.474   0.605   1.606
 9622SOL     OW29764   6.144   5.696   5.663
 9622SOL    HW129765   6.088   5.662   5.739
 9622SOL    HW229766   6.190   5.620   5.618
 9623SOL     OW29767   3.331   6.129   5.402
 9623SOL    HW129768   3.242   6.089   5.425
 9623SOL    HW229769   3.395   6.056   5.378
 9624SOL     OW29770   4.593   5.112   5.536
 9624SOL    HW129771   4.630   5.021   5.516
 9624SOL    HW229772   4.493   5.110   5.524
 9625SOL     OW29773   4.489   4.061   5.953
 9625SOL    HW129774   4.523   3.972   5.922
 9625SOL    HW229775   4.565   4.126   5.958
 9626SOL     OW29776   2.404   2.479   6.641
 9626SOL    HW129777   2.360   2.559   6.683
 9626SOL    HW229778   2.401   2.402   6.705
 9627SOL     OW29779   0.317   5.517   0.812
 9627SOL    HW129780   0.326   5.584   0.886
 9627SOL    HW229781   0.304   5.566   0.726
 9628SOL     OW29782   6.572   1.242   6.073
 9628SOL    HW129783   6.514   1.221   6.152
 9628SOL    HW229784   6.516   1.284   6.001
 9629SOL     OW29785   0.507   5.723   3.729
 9629SOL    HW129786   0.455   5.699   3.811
 9629SOL    HW229787   0.539   5.817   3.736
 9630SOL     OW29788   5.375   1.707   6.274
 9630SOL    HW129789   5.321   1.644   6.330
 9630SOL    HW229790   5.381   1.796   6.319
 9631SOL     OW29791   4.817   6.719   0.532
 9631SOL    HW129792   4.778   6.631   0.560
 9631SOL    HW229793   4.837   6.775   0.613
 9632SOL     OW29794   2.278   4.709   2.881
 9632SOL    HW129795   2.348   4.645   2.912
 9632SOL    HW229796   2.321   4.792   2.846
 9633SOL     OW29797   3.667   2.840   4.795
 9633SOL    HW129798   3.709   2.757   4.759
 9633SOL    HW229799   3.727   2.918   4.780
 9634SOL     OW29800   5.351   4.703   3.019
 9634SOL    HW129801   5.445   4.702   3.054
 9634SOL    HW229802   5.300   4.777   3.062
 9635SOL     OW29803   0.692   4.693   4.129
 9635SOL    HW129804   0.620   4.646   4.179
 9635SOL    HW229805   0.700   4.787   4.162
 9636SOL     OW29806   5.972   4.191   3.950
 9636SOL    HW129807   5.996   4.262   3.884
 9636SOL    HW229808   6.025   4.108   3.931
 9637SOL     OW29809   1.555   3.790   0.511
 9637SOL    HW129810   1.605   3.866   0.469
 9637SOL    HW229811   1.615   3.710   0.517
 9638SOL     OW29812   6.069   5.543   5.872
 9638SOL    HW129813   5.988   5.501   5.913
 9638SOL    HW229814   6.143   5.547   5.940
 9639SOL     OW29815   5.051   2.394   1.724
 9639SOL    HW129816   5.114   2.400   1.647
 9639SOL    HW229817   5.028   2.487   1.756
 9640SOL     OW29818   3.557   0.442   3.121
 9640SOL    HW129819   3.489   0.503   3.080
 9640SOL    HW229820   3.512   0.360   3.156
 9641SOL     OW29821   6.656   2.808   4.862
 9641SOL    HW129822   6.725   2.880   4.857
 9641SOL    HW229823   6.574   2.837   4.813
 9642SOL     OW29824   0.657   2.321   4.612
 9642SOL    HW129825   0.751   2.307   4.643
 9642SOL    HW229826   0.656   2.337   4.513
 9643SOL     OW29827   5.397   5.091   4.357
 9643SOL    HW129828   5.476   5.050   4.313
 9643SOL    HW229829   5.323   5.102   4.291
 9644SOL     OW29830   1.519   4.918   3.574
 9644SOL    HW129831   1.556   4.921   3.481
 9644SOL    HW229832   1.464   4.836   3.586
 9645SOL     OW29833   1.670   4.749   6.429
 9645SOL    HW129834   1.766   4.745   6.459
 9645SOL    HW229835   1.649   4.841   6.395
 9646SOL     OW29836   3.240   5.717   0.293
 9646SOL    HW129837   3.278   5.685   0.205
 9646SOL    HW229838   3.245   5.642   0.359
 9647SOL     OW29839   5.791   6.552   2.950
 9647SOL    HW129840   5.853   6.556   3.028
 9647SOL    HW229841   5.763   6.457   2.935
 9648SOL     OW29842   2.648   1.982   1.118
 9648SOL    HW129843   2.716   1.989   1.045
 9648SOL    HW229844   2.686   1.930   1.194
 9649SOL     OW29845   0.415   5.469   1.269
 9649SOL    HW129846   0.469   5.440   1.189
 9649SOL    HW229847   0.349   5.539   1.240
 9650SOL     OW29848   1.222   4.780   4.726
 9650SOL    HW129849   1.141   4.735   4.689
 9650SOL    HW229850   1.220   4.877   4.701
 9651SOL     OW29851   3.553   1.710   6.667
 9651SOL    HW129852   3.459   1.727   6.637
 9651SOL    HW229853   3.612   1.701   6.588
 9652SOL     OW29854   0.429   4.074   0.175
 9652SOL    HW129855   0.366   4.001   0.203
 9652SOL    HW229856   0.513   4.033   0.139
 9653SOL     OW29857   5.154   4.473   5.519
 9653SOL    HW129858   5.172   4.396   5.580
 9653SOL    HW229859   5.208   4.463   5.435
 9654SOL     OW29860   3.844   3.453   3.424
 9654SOL    HW129861   3.834   3.521   3.352
 9654SOL    HW229862   3.844   3.499   3.513
 9655SOL     OW29863   4.457   1.751   1.092
 9655SOL    HW129864   4.493   1.788   1.177
 9655SOL    HW229865   4.379   1.807   1.062
 9656SOL     OW29866   4.865   4.171   6.320
 9656SOL    HW129867   4.839   4.240   6.254
 9656SOL    HW229868   4.876   4.083   6.274
 9657SOL     OW29869   5.167   4.916   3.716
 9657SOL    HW129870   5.100   4.959   3.655
 9657SOL    HW229871   5.237   4.871   3.661
 9658SOL     OW29872   5.574   1.488   2.474
 9658SOL    HW129873   5.658   1.500   2.528
 9658SOL    HW229874   5.536   1.397   2.491
 9659SOL     OW29875   3.313   2.847   6.457
 9659SOL    HW129876   3.324   2.873   6.361
 9659SOL    HW229877   3.226   2.881   6.492
 9660SOL     OW29878   1.528   6.521   1.258
 9660SOL    HW129879   1.467   6.475   1.323
 9660SOL    HW229880   1.531   6.470   1.172
 9661SOL     OW29881   4.082   3.239   1.695
 9661SOL    HW129882   4.113   3.319   1.746
 9661SOL    HW229883   4.148   3.219   1.622
 9662SOL     OW29884   4.794   6.798   5.991
 9662SOL    HW129885   4.881   6.846   6.001
 9662SOL    HW229886   4.812   6.701   5.973
 9663SOL     OW29887   0.991   5.418   2.859
 9663SOL    HW129888   0.983   5.493   2.924
 9663SOL    HW229889   1.079   5.424   2.812
 9664SOL     OW29890   3.338   5.068   2.568
 9664SOL    HW129891   3.295   5.114   2.646
 9664SOL    HW229892   3.401   5.132   2.523
 9665SOL     OW29893   6.102   4.287   5.773
 9665SOL    HW129894   6.034   4.236   5.826
 9665SOL    HW229895   6.123   4.238   5.688
 9666SOL     OW29896   5.249   3.637   0.244
 9666SOL    HW129897   5.330   3.585   0.273
 9666SOL    HW229898   5.189   3.651   0.323
 9667SOL     OW29899   5.317   6.074   6.841
 9667SOL    HW129900   5.258   5.996   6.819
 9667SOL    HW229901   5.350   6.115   6.756
 9668SOL     OW29902   1.759   1.151   6.168
 9668SOL    HW129903   1.691   1.097   6.218
 9668SOL    HW229904   1.785   1.104   6.084
 9669SOL     OW29905   2.928   0.148   0.264
 9669SOL    HW129906   2.851   0.186   0.212
 9669SOL    HW229907   2.913   0.050   0.278
 9670SOL     OW29908   0.851   0.521   0.896
 9670SOL    HW129909   0.903   0.437   0.879
 9670SOL    HW229910   0.901   0.599   0.859
 9671SOL     OW29911   1.194   5.249   6.965
 9671SOL    HW129912   1.148   5.161   6.952
 9671SOL    HW229913   1.130   5.314   7.006
 9672SOL     OW29914   0.978   3.822   4.216
 9672SOL    HW129915   1.025   3.871   4.290
 9672SOL    HW229916   0.933   3.888   4.157
 9673SOL     OW29917   2.341   3.340   6.771
 9673SOL    HW129918   2.438   3.355   6.747
 9673SOL    HW229919   2.333   3.257   6.825
 9674SOL     OW29920   2.113   6.688   3.963
 9674SOL    HW129921   2.101   6.591   3.986
 9674SOL    HW229922   2.181   6.728   4.025
 9675SOL     OW29923   6.382   4.023   5.506
 9675SOL    HW129924   6.313   3.977   5.561
 9675SOL    HW229925   6.377   3.990   5.411
 9676SOL     OW29926   1.182   3.637   5.366
 9676SOL    HW129927   1.132   3.633   5.279
 9676SOL    HW229928   1.149   3.564   5.427
 9677SOL     OW29929   6.656   4.799   2.592
 9677SOL    HW129930   6.587   4.728   2.581
 9677SOL    HW229931   6.627   4.881   2.543
 9678SOL     OW29932   3.632   3.577   5.457
 9678SOL    HW129933   3.690   3.593   5.536
 9678SOL    HW229934   3.683   3.527   5.387
 9679SOL     OW29935   1.784   0.769   4.074
 9679SOL    HW129936   1.870   0.791   4.028
 9679SOL    HW229937   1.729   0.851   4.086
 9680SOL     OW29938   4.508   0.640   2.006
 9680SOL    HW129939   4.598   0.601   1.987
 9680SOL    HW229940   4.487   0.629   2.103
 9681SOL     OW29941   1.542   2.793   1.298
 9681SOL    HW129942   1.481   2.780   1.220
 9681SOL    HW229943   1.537   2.888   1.329
 9682SOL     OW29944   5.042   0.138   6.077
 9682SOL    HW129945   5.117   0.120   6.140
 9682SOL    HW229946   4.957   0.104   6.116
 9683SOL     OW29947   4.130   6.508   3.830
 9683SOL    HW129948   4.224   6.526   3.799
 9683SOL    HW229949   4.075   6.591   3.817
 9684SOL     OW29950   0.202   3.301   5.540
 9684SOL    HW129951   0.166   3.390   5.567
 9684SOL    HW229952   0.173   3.280   5.446
 9685SOL     OW29953   3.350   4.776   1.727
 9685SOL    HW129954   3.432   4.723   1.746
 9685SOL    HW229955   3.272   4.714   1.715
 9686SOL     OW29956   0.409   1.365   5.636
 9686SOL    HW129957   0.310   1.378   5.630
 9686SOL    HW229958   0.444   1.337   5.547
 9687SOL     OW29959   5.534   1.269   3.685
 9687SOL    HW129960   5.543   1.259   3.784
 9687SOL    HW229961   5.623   1.291   3.645
 9688SOL     OW29962   0.407   4.838   1.283
 9688SOL    HW129963   0.455   4.922   1.256
 9688SOL    HW229964   0.314   4.839   1.247
 9689SOL     OW29965   1.511   5.633   1.441
 9689SOL    HW129966   1.482   5.606   1.349
 9689SOL    HW229967   1.444   5.697   1.479
 9690SOL     OW29968   0.703   4.421   5.075
 9690SOL    HW129969   0.649   4.348   5.117
 9690SOL    HW229970   0.642   4.484   5.027
 9691SOL     OW29971   3.743   3.442   1.673
 9691SOL    HW129972   3.769   3.365   1.615
 9691SOL    HW229973   3.801   3.521   1.651
 9692SOL     OW29974   5.099   4.466   0.558
 9692SOL    HW129975   5.019   4.502   0.605
 9692SOL    HW229976   5.155   4.542   0.524
 9693SOL     OW29977   4.805   2.982   5.641
 9693SOL    HW129978   4.745   2.975   5.561
 9693SOL    HW229979   4.796   3.073   5.681
 9694SOL     OW29980   2.571   6.536   1.464
 9694SOL    HW129981   2.644   6.540   1.532
 9694SOL    HW229982   2.546   6.629   1.437
 9695SOL     OW29983   1.011   3.091   4.201
 9695SOL    HW129984   1.007   3.133   4.110
 9695SOL    HW229985   1.013   2.991   4.192
 9696SOL     OW29986   5.123   3.027   3.422
 9696SOL    HW129987   5.142   3.017   3.325
 9696SOL    HW229988   5.116   2.936   3.465
 9697SOL     OW29989   0.495   6.960   1.663
 9697SOL    HW129990   0.521   6.866   1.642
 9697SOL    HW229991   0.532   7.023   1.595
 9698SOL     OW29992   0.113   3.625   1.728
 9698SOL    HW129993   0.111   3.725   1.739
 9698SOL    HW229994   0.139   3.603   1.634
 9699SOL     OW29995   1.105   5.729   1.648
 9699SOL    HW129996   1.112   5.829   1.647
 9699SOL    HW229997   1.174   5.692   1.711
 9700SOL     OW29998   5.137   1.087   6.311
 9700SOL    HW129999   5.163   0.999   6.349
 9700SOL    HW230000   5.150   1.085   6.212
 9701SOL     OW30001   5.313   3.765   6.819
 9701SOL    HW130002   5.323   3.862   6.844
 9701SOL    HW230003   5.238   3.755   6.754
 9702SOL     OW30004   3.837   3.942   1.615
 9702SOL    HW130005   3.865   3.995   1.535
 9702SOL    HW230006   3.896   3.965   1.692
 9703SOL     OW30007   5.778   4.838   3.450
 9703SOL    HW130008   5.841   4.762   3.464
 9703SOL    HW230009   5.828   4.919   3.421
 9704SOL     OW30010   1.214   4.183   2.227
 9704SOL    HW130011   1.220   4.090   2.190
 9704SOL    HW230012   1.161   4.182   2.311
 9705SOL     OW30013   0.259   3.029   5.708
 9705SOL    HW130014   0.265   3.129   5.700
 9705SOL    HW230015   0.331   2.987   5.654
 9706SOL     OW30016   0.941   1.008   2.513
 9706SOL    HW130017   0.979   0.936   2.455
 9706SOL    HW230018   0.842   0.997   2.518
 9707SOL     OW30019   0.686   5.083   2.550
 9707SOL    HW130020   0.734   5.152   2.603
 9707SOL    HW230021   0.748   5.009   2.526
 9708SOL     OW30022   2.435   0.901   1.803
 9708SOL    HW130023   2.498   0.878   1.729
 9708SOL    HW230024   2.452   0.995   1.833
 9709SOL     OW30025   5.419   1.373   1.570
 9709SOL    HW130026   5.347   1.310   1.541
 9709SOL    HW230027   5.378   1.455   1.609
 9710SOL     OW30028   5.043   5.156   4.837
 9710SOL    HW130029   5.073   5.248   4.859
 9710SOL    HW230030   4.949   5.159   4.802
 9711SOL     OW30031   2.901   0.808   6.883
 9711SOL    HW130032   2.866   0.762   6.802
 9711SOL    HW230033   3.001   0.806   6.881
 9712SOL     OW30034   5.208   0.502   6.272
 9712SOL    HW130035   5.150   0.481   6.193
 9712SOL    HW230036   5.264   0.582   6.252
 9713SOL     OW30037   2.027   6.800   2.780
 9713SOL    HW130038   1.939   6.827   2.820
 9713SOL    HW230039   2.046   6.856   2.700
 9714SOL     OW30040   2.183   3.959   3.857
 9714SOL    HW130041   2.201   3.890   3.787
 9714SOL    HW230042   2.111   3.926   3.918
 9715SOL     OW30043   6.899   2.871   6.347
 9715SOL    HW130044   6.938   2.906   6.262
 9715SOL    HW230045   6.967   2.875   6.420
 9716SOL     OW30046   2.707   6.432   0.516
 9716SOL    HW130047   2.804   6.443   0.497
 9716SOL    HW230048   2.694   6.389   0.605
 9717SOL     OW30049   3.865   2.246   5.696
 9717SOL    HW130050   3.892   2.262   5.791
 9717SOL    HW230051   3.769   2.220   5.694
 9718SOL     OW30052   4.198   2.225   6.492
 9718SOL    HW130053   4.109   2.185   6.511
 9718SOL    HW230054   4.191   2.289   6.415
 9719SOL     OW30055   4.484   6.977   6.108
 9719SOL    HW130056   4.510   0.002   6.025
 9719SOL    HW230057   4.385   6.962   6.109
 9720SOL     OW30058   2.272   2.371   2.449
 9720SOL    HW130059   2.325   2.451   2.478
 9720SOL    HW230060   2.328   2.289   2.458
 9721SOL     OW30061   0.598   1.691   1.118
 9721SOL    HW130062   0.539   1.771   1.128
 9721SOL    HW230063   0.542   1.612   1.092
 9722SOL     OW30064   3.943   2.402   5.476
 9722SOL    HW130065   3.932   2.339   5.553
 9722SOL    HW230066   3.853   2.434   5.446
 9723SOL     OW30067   6.169   0.482   4.923
 9723SOL    HW130068   6.267   0.495   4.909
 9723SOL    HW230069   6.148   0.484   5.020
 9724SOL     OW30070   1.336   4.343   1.042
 9724SOL    HW130071   1.333   4.387   0.953
 9724SOL    HW230072   1.374   4.251   1.032
 9725SOL     OW30073   4.923   5.479   4.013
 9725SOL    HW130074   4.884   5.501   4.103
 9725SOL    HW230075   4.864   5.515   3.941
 9726SOL     OW30076   6.721   0.056   3.179
 9726SOL    HW130077   6.771   6.996   3.193
 9726SOL    HW230078   6.623   0.036   3.169
 9727SOL     OW30079   6.103   2.498   1.740
 9727SOL    HW130080   6.182   2.492   1.802
 9727SOL    HW230081   6.133   2.530   1.650
 9728SOL     OW30082   5.365   2.143   4.376
 9728SOL    HW130083   5.324   2.156   4.286
 9728SOL    HW230084   5.357   2.046   4.403
 9729SOL     OW30085   0.343   3.867   3.323
 9729SOL    HW130086   0.258   3.918   3.315
 9729SOL    HW230087   0.397   3.877   3.240
 9730SOL     OW30088   0.805   5.266   2.743
 9730SOL    HW130089   0.723   5.314   2.775
 9730SOL    HW230090   0.885   5.326   2.752
 9731SOL     OW30091   5.850   2.900   1.690
 9731SOL    HW130092   5.841   2.803   1.715
 9731SOL    HW230093   5.759   2.938   1.672
 9732SOL     OW30094   1.249   3.720   2.868
 9732SOL    HW130095   1.291   3.653   2.807
 9732SOL    HW230096   1.318   3.757   2.930
 9733SOL     OW30097   6.336   4.747   2.017
 9733SOL    HW130098   6.340   4.757   1.917
 9733SOL    HW230099   6.303   4.832   2.057
 9734SOL     OW30100   4.613   5.302   6.316
 9734SOL    HW130101   4.555   5.369   6.362
 9734SOL    HW230102   4.704   5.303   6.359
 9735SOL     OW30103   7.013   2.155   0.496
 9735SOL    HW130104   0.034   2.224   0.441
 9735SOL    HW230105   0.055   2.096   0.540
 9736SOL     OW30106   5.153   2.432   5.157
 9736SOL    HW130107   5.063   2.412   5.196
 9736SOL    HW230108   5.219   2.444   5.231
 9737SOL     OW30109   5.689   2.860   3.877
 9737SOL    HW130110   5.725   2.932   3.935
 9737SOL    HW230111   5.718   2.875   3.782
 9738SOL     OW30112   2.440   6.359   1.703
 9738SOL    HW130113   2.471   6.395   1.615
 9738SOL    HW230114   2.462   6.261   1.708
 9739SOL     OW30115   6.118   6.215   0.586
 9739SOL    HW130116   6.126   6.248   0.681
 9739SOL    HW230117   6.184   6.141   0.572
 9740SOL     OW30118   6.151   0.370   2.276
 9740SOL    HW130119   6.115   0.317   2.200
 9740SOL    HW230120   6.248   0.349   2.290
 9741SOL     OW30121   2.368   2.287   3.901
 9741SOL    HW130122   2.354   2.308   3.805
 9741SOL    HW230123   2.325   2.199   3.923
 9742SOL     OW30124   3.162   1.998   6.467
 9742SOL    HW130125   3.085   1.936   6.479
 9742SOL    HW230126   3.145   2.058   6.389
 9743SOL     OW30127   6.348   3.753   4.310
 9743SOL    HW130128   6.429   3.756   4.252
 9743SOL    HW230129   6.312   3.660   4.313
 9744SOL     OW30130   1.588   1.525   2.383
 9744SOL    HW130131   1.626   1.520   2.475
 9744SOL    HW230132   1.660   1.547   2.318
 9745SOL     OW30133   0.294   6.897   5.786
 9745SOL    HW130134   0.278   6.996   5.788
 9745SOL    HW230135   0.323   6.866   5.877
 9746SOL     OW30136   3.308   6.468   6.023
 9746SOL    HW130137   3.309   6.550   5.966
 9746SOL    HW230138   3.357   6.394   5.977
 9747SOL     OW30139   3.448   1.550   3.543
 9747SOL    HW130140   3.546   1.554   3.524
 9747SOL    HW230141   3.398   1.600   3.472
 9748SOL     OW30142   0.961   1.273   2.571
 9748SOL    HW130143   1.059   1.292   2.568
 9748SOL    HW230144   0.944   1.178   2.544
 9749SOL     OW30145   6.847   0.758   1.901
 9749SOL    HW130146   6.878   0.853   1.895
 9749SOL    HW230147   6.750   0.756   1.926
 9750SOL     OW30148   5.758   2.684   5.315
 9750SOL    HW130149   5.851   2.686   5.350
 9750SOL    HW230150   5.702   2.622   5.371
 9751SOL     OW30151   3.261   0.064   1.542
 9751SOL    HW130152   3.297   0.096   1.453
 9751SOL    HW230153   3.271   6.990   1.547
 9752SOL     OW30154   3.238   2.729   0.740
 9752SOL    HW130155   3.165   2.746   0.807
 9752SOL    HW230156   3.326   2.759   0.778
 9753SOL     OW30157   6.828   5.666   4.202
 9753SOL    HW130158   6.821   5.572   4.235
 9753SOL    HW230159   6.768   5.725   4.257
 9754SOL     OW30160   3.188   1.397   2.309
 9754SOL    HW130161   3.149   1.461   2.375
 9754SOL    HW230162   3.249   1.447   2.247
 9755SOL     OW30163   3.874   3.749   0.150
 9755SOL    HW130164   3.938   3.716   0.080
 9755SOL    HW230165   3.923   3.760   0.236
 9756SOL     OW30166   5.435   0.352   6.206
 9756SOL    HW130167   5.462   0.288   6.277
 9756SOL    HW230168   5.357   0.407   6.237
 9757SOL     OW30169   5.123   3.286   4.323
 9757SOL    HW130170   5.054   3.234   4.372
 9757SOL    HW230171   5.164   3.353   4.385
 9758SOL     OW30172   2.638   1.132   2.483
 9758SOL    HW130173   2.688   1.106   2.565
 9758SOL    HW230174   2.700   1.131   2.404
 9759SOL     OW30175   6.728   1.940   1.908
 9759SOL    HW130176   6.715   1.974   1.815
 9759SOL    HW230177   6.639   1.925   1.951
 9760SOL     OW30178   4.321   0.676   6.708
 9760SOL    HW130179   4.340   0.771   6.685
 9760SOL    HW230180   4.406   0.624   6.710
 9761SOL     OW30181   0.688   2.470   1.448
 9761SOL    HW130182   0.712   2.435   1.538
 9761SOL    HW230183   0.656   2.565   1.456
 9762SOL     OW30184   2.820   1.013   5.559
 9762SOL    HW130185   2.882   0.986   5.633
 9762SOL    HW230186   2.857   1.092   5.511
 9763SOL     OW30187   6.427   2.530   1.497
 9763SOL    HW130188   6.517   2.490   1.480
 9763SOL    HW230189   6.426   2.573   1.587
 9764SOL     OW30190   0.605   2.137   2.278
 9764SOL    HW130191   0.593   2.236   2.267
 9764SOL    HW230192   0.543   2.104   2.349
 9765SOL     OW30193   6.888   0.909   1.551
 9765SOL    HW130194   6.800   0.878   1.516
 9765SOL    HW230195   6.945   0.829   1.573
 9766SOL     OW30196   0.656   2.461   3.003
 9766SOL    HW130197   0.694   2.420   3.086
 9766SOL    HW230198   0.699   2.550   2.987
 9767SOL     OW30199   2.391   1.676   5.143
 9767SOL    HW130200   2.445   1.592   5.153
 9767SOL    HW230201   2.296   1.658   5.171
 9768SOL     OW30202   5.456   3.061   0.139
 9768SOL    HW130203   5.369   3.062   0.190
 9768SOL    HW230204   5.438   3.072   0.042
 9769SOL     OW30205   2.807   1.908   5.389
 9769SOL    HW130206   2.833   1.991   5.438
 9769SOL    HW230207   2.889   1.862   5.355
 9770SOL     OW30208   1.903   3.240   5.588
 9770SOL    HW130209   1.900   3.163   5.525
 9770SOL    HW230210   1.999   3.262   5.608
 9771SOL     OW30211   2.996   0.836   1.336
 9771SOL    HW130212   3.037   0.779   1.265
 9771SOL    HW230213   3.028   0.805   1.426
 9772SOL     OW30214   0.816   0.655   1.148
 9772SOL    HW130215   0.822   0.608   1.060
 9772SOL    HW230216   0.772   0.596   1.215
 9773SOL     OW30217   5.986   6.035   2.289
 9773SOL    HW130218   6.046   6.090   2.231
 9773SOL    HW230219   5.893   6.036   2.251
 9774SOL     OW30220   2.120   4.864   4.215
 9774SOL    HW130221   2.173   4.932   4.165
 9774SOL    HW230222   2.031   4.851   4.171
 9775SOL     OW30223   2.355   1.338   2.562
 9775SOL    HW130224   2.275   1.312   2.509
 9775SOL    HW230225   2.358   1.285   2.647
 9776SOL     OW30226   2.433   5.474   1.469
 9776SOL    HW130227   2.382   5.551   1.431
 9776SOL    HW230228   2.412   5.391   1.418
 9777SOL     OW30229   4.430   1.770   5.438
 9777SOL    HW130230   4.356   1.808   5.493
 9777SOL    HW230231   4.394   1.696   5.381
 9778SOL     OW30232   0.675   3.791   3.233
 9778SOL    HW130233   0.676   3.706   3.181
 9778SOL    HW230234   0.731   3.780   3.315
 9779SOL     OW30235   2.912   0.730   3.700
 9779SOL    HW130236   2.865   0.798   3.644
 9779SOL    HW230237   2.864   0.642   3.694
 9780SOL     OW30238   0.287   1.809   0.834
 9780SOL    HW130239   0.376   1.763   0.826
 9780SOL    HW230240   0.255   1.804   0.929
 9781SOL     OW30241   1.042   0.756   1.994
 9781SOL    HW130242   1.068   0.736   1.899
 9781SOL    HW230243   1.059   0.675   2.050
 9782SOL     OW30244   0.060   2.410   0.428
 9782SOL    HW130245   0.104   2.449   0.509
 9782SOL    HW230246   7.015   2.472   0.394
 9783SOL     OW30247   4.505   1.696   2.899
 9783SOL    HW130248   4.425   1.715   2.843
 9783SOL    HW230249   4.512   1.762   2.973
 9784SOL     OW30250   1.895   1.384   6.099
 9784SOL    HW130251   1.854   1.293   6.107
 9784SOL    HW230252   1.869   1.439   6.178
 9785SOL     OW30253   0.671   4.175   4.669
 9785SOL    HW130254   0.594   4.116   4.693
 9785SOL    HW230255   0.722   4.134   4.593
 9786SOL     OW30256   2.697   4.328   6.634
 9786SOL    HW130257   2.659   4.256   6.693
 9786SOL    HW230258   2.731   4.403   6.690
 9787SOL     OW30259   3.010   3.860   2.037
 9787SOL    HW130260   3.013   3.821   2.129
 9787SOL    HW230261   2.988   3.787   1.972
 9788SOL     OW30262   3.978   0.162   2.387
 9788SOL    HW130263   3.940   0.177   2.295
 9788SOL    HW230264   3.904   0.136   2.449
 9789SOL     OW30265   3.211   1.289   0.309
 9789SOL    HW130266   3.201   1.266   0.212
 9789SOL    HW230267   3.305   1.271   0.338
 9790SOL     OW30268   4.581   5.974   4.973
 9790SOL    HW130269   4.533   5.970   4.885
 9790SOL    HW230270   4.679   5.977   4.957
 9791SOL     OW30271   0.820   0.107   1.420
 9791SOL    HW130272   0.861   0.150   1.339
 9791SOL    HW230273   0.797   0.012   1.400
 9792SOL     OW30274   3.827   4.678   1.138
 9792SOL    HW130275   3.767   4.603   1.166
 9792SOL    HW230276   3.921   4.659   1.166
 9793SOL     OW30277   6.185   1.138   3.116
 9793SOL    HW130278   6.233   1.225   3.103
 9793SOL    HW230279   6.165   1.098   3.027
 9794SOL     OW30280   4.434   4.549   4.458
 9794SOL    HW130281   4.484   4.561   4.373
 9794SOL    HW230282   4.339   4.527   4.439
 9795SOL     OW30283   0.871   3.260   3.205
 9795SOL    HW130284   0.938   3.324   3.166
 9795SOL    HW230285   0.814   3.309   3.272
 9796SOL     OW30286   2.929   3.602   3.782
 9796SOL    HW130287   2.938   3.546   3.865
 9796SOL    HW230288   2.953   3.697   3.803
 9797SOL     OW30289   2.916   5.552   6.813
 9797SOL    HW130290   2.996   5.544   6.871
 9797SOL    HW230291   2.927   5.493   6.733
 9798SOL     OW30292   0.125   4.362   6.640
 9798SOL    HW130293   0.088   4.406   6.558
 9798SOL    HW230294   0.070   4.387   6.719
 9799SOL     OW30295   3.321   0.431   0.252
 9799SOL    HW130296   3.356   0.346   0.211
 9799SOL    HW230297   3.278   0.410   0.340
 9800SOL     OW30298   6.586   3.467   4.251
 9800SOL    HW130299   6.674   3.492   4.210
 9800SOL    HW230300   6.597   3.459   4.351
 9801SOL     OW30301   5.151   5.977   0.561
 9801SOL    HW130302   5.129   5.965   0.658
 9801SOL    HW230303   5.162   5.887   0.518
 9802SOL     OW30304   4.317   3.697   0.054
 9802SOL    HW130305   4.348   3.607   0.023
 9802SOL    HW230306   4.291   3.691   0.151
 9803SOL     OW30307   1.120   3.587   6.217
 9803SOL    HW130308   1.090   3.508   6.270
 9803SOL    HW230309   1.052   3.659   6.223
 9804SOL     OW30310   0.671   4.420   2.808
 9804SOL    HW130311   0.647   4.407   2.904
 9804SOL    HW230312   0.612   4.491   2.768
 9805SOL     OW30313   1.050   5.516   3.780
 9805SOL    HW130314   0.954   5.533   3.800
 9805SOL    HW230315   1.108   5.574   3.838
 9806SOL     OW30316   3.799   1.801   0.340
 9806SOL    HW130317   3.894   1.816   0.367
 9806SOL    HW230318   3.776   1.705   0.354
 9807SOL     OW30319   4.092   3.240   3.302
 9807SOL    HW130320   4.093   3.262   3.399
 9807SOL    HW230321   4.064   3.145   3.290
 9808SOL     OW30322   3.959   5.430   1.839
 9808SOL    HW130323   4.003   5.374   1.769
 9808SOL    HW230324   4.021   5.442   1.917
 9809SOL     OW30325   6.396   2.827   0.668
 9809SOL    HW130326   6.386   2.897   0.739
 9809SOL    HW230327   6.391   2.870   0.578
 9810SOL     OW30328   2.230   2.090   1.042
 9810SOL    HW130329   2.229   2.187   1.019
 9810SOL    HW230330   2.158   2.042   0.991
 9811SOL     OW30331   5.622   3.796   4.440
 9811SOL    HW130332   5.551   3.843   4.493
 9811SOL    HW230333   5.682   3.745   4.501
 9812SOL     OW30334   3.137   5.946   5.689
 9812SOL    HW130335   3.174   5.893   5.613
 9812SOL    HW230336   3.098   5.883   5.757
 9813SOL     OW30337   4.766   0.620   2.684
 9813SOL    HW130338   4.785   0.574   2.597
 9813SOL    HW230339   4.786   0.718   2.675
 9814SOL     OW30340   0.368   1.206   6.055
 9814SOL    HW130341   0.452   1.176   6.009
 9814SOL    HW230342   0.379   1.299   6.089
 9815SOL     OW30343   4.603   2.548   4.112
 9815SOL    HW130344   4.630   2.629   4.060
 9815SOL    HW230345   4.661   2.540   4.193
 9816SOL     OW30346   2.922   1.279   0.906
 9816SOL    HW130347   2.854   1.341   0.866
 9816SOL    HW230348   2.934   1.301   1.003
 9817SOL     OW30349   6.677   0.031   2.076
 9817SOL    HW130350   6.638   0.005   2.165
 9817SOL    HW230351   6.756   6.998   2.057
 9818SOL     OW30352   5.302   2.721   5.325
 9818SOL    HW130353   5.343   2.801   5.369
 9818SOL    HW230354   5.204   2.719   5.343
 9819SOL     OW30355   4.115   0.900   2.141
 9819SOL    HW130356   4.100   0.801   2.144
 9819SOL    HW230357   4.028   0.946   2.124
 9820SOL     OW30358   4.060   2.798   6.680
 9820SOL    HW130359   4.021   2.726   6.622
 9820SOL    HW230360   4.141   2.763   6.726
 9821SOL     OW30361   6.835   5.536   0.097
 9821SOL    HW130362   6.934   5.551   0.096
 9821SOL    HW230363   6.808   5.506   0.189
 9822SOL     OW30364   1.052   6.898   3.108
 9822SOL    HW130365   1.112   6.885   3.030
 9822SOL    HW230366   1.103   6.939   3.184
 9823SOL     OW30367   3.718   6.807   1.571
 9823SOL    HW130368   3.807   6.772   1.601
 9823SOL    HW230369   3.732   6.876   1.500
 9824SOL     OW30370   0.975   4.095   5.710
 9824SOL    HW130371   0.879   4.123   5.714
 9824SOL    HW230372   0.986   4.008   5.758
 9825SOL     OW30373   4.152   5.018   5.243
 9825SOL    HW130374   4.178   5.112   5.264
 9825SOL    HW230375   4.056   5.003   5.268
 9826SOL     OW30376   4.834   0.367   6.293
 9826SOL    HW130377   4.900   0.436   6.324
 9826SOL    HW230378   4.798   0.318   6.371
 9827SOL     OW30379   0.897   3.836   4.634
 9827SOL    HW130380   0.980   3.890   4.620
 9827SOL    HW230381   0.920   3.751   4.681
 9828SOL     OW30382   2.968   2.647   6.265
 9828SOL    HW130383   3.067   2.638   6.257
 9828SOL    HW230384   2.940   2.740   6.239
 9829SOL     OW30385   3.083   4.880   1.065
 9829SOL    HW130386   3.114   4.899   1.158
 9829SOL    HW230387   3.004   4.819   1.069
 9830SOL     OW30388   6.301   1.049   0.245
 9830SOL    HW130389   6.304   1.144   0.278
 9830SOL    HW230390   6.394   1.018   0.225
 9831SOL     OW30391   5.691   6.744   0.850
 9831SOL    HW130392   5.706   6.723   0.754
 9831SOL    HW230393   5.690   6.659   0.903
 9832SOL     OW30394   4.374   4.947   0.909
 9832SOL    HW130395   4.418   4.892   0.837
 9832SOL    HW230396   4.392   4.906   0.998
 9833SOL     OW30397   4.156   3.758   5.387
 9833SOL    HW130398   4.162   3.659   5.405
 9833SOL    HW230399   4.186   3.776   5.293
 9834SOL     OW30400   1.363   2.977   4.758
 9834SOL    HW130401   1.359   2.939   4.665
 9834SOL    HW230402   1.444   3.035   4.766
 9835SOL     OW30403   4.664   1.496   4.440
 9835SOL    HW130404   4.594   1.523   4.507
 9835SOL    HW230405   4.733   1.440   4.486
 9836SOL     OW30406   4.936   4.863   2.280
 9836SOL    HW130407   5.019   4.881   2.332
 9836SOL    HW230408   4.900   4.773   2.306
 9837SOL     OW30409   1.353   6.662   4.421
 9837SOL    HW130410   1.378   6.565   4.421
 9837SOL    HW230411   1.386   6.705   4.505
 9838SOL     OW30412   6.965   5.266   5.299
 9838SOL    HW130413   6.884   5.318   5.327
 9838SOL    HW230414   6.989   5.201   5.371
 9839SOL     OW30415   6.867   2.013   2.552
 9839SOL    HW130416   6.867   2.098   2.604
 9839SOL    HW230417   6.809   2.023   2.471
 9840SOL     OW30418   6.549   0.483   1.039
 9840SOL    HW130419   6.502   0.445   1.118
 9840SOL    HW230420   6.522   0.579   1.027
 9841SOL     OW30421   1.743   3.788   4.272
 9841SOL    HW130422   1.732   3.760   4.367
 9841SOL    HW230423   1.749   3.707   4.214
 9842SOL     OW30424   3.287   2.983   2.916
 9842SOL    HW130425   3.278   3.053   2.845
 9842SOL    HW230426   3.235   3.010   2.997
 9843SOL     OW30427   5.553   3.164   2.294
 9843SOL    HW130428   5.489   3.187   2.220
 9843SOL    HW230429   5.615   3.092   2.262
 9844SOL     OW30430   4.809   0.517   2.419
 9844SOL    HW130431   4.832   0.431   2.373
 9844SOL    HW230432   4.842   0.594   2.364
 9845SOL     OW30433   1.125   1.942   3.550
 9845SOL    HW130434   1.032   1.926   3.582
 9845SOL    HW230435   1.189   1.886   3.603
 9846SOL     OW30436   2.912   3.392   3.126
 9846SOL    HW130437   2.912   3.293   3.110
 9846SOL    HW230438   2.894   3.440   3.040
 9847SOL     OW30439   2.300   4.450   5.051
 9847SOL    HW130440   2.363   4.456   4.974
 9847SOL    HW230441   2.351   4.444   5.136
 9848SOL     OW30442   4.690   3.530   0.309
 9848SOL    HW130443   4.765   3.561   0.250
 9848SOL    HW230444   4.667   3.603   0.373
 9849SOL     OW30445   0.521   6.576   5.096
 9849SOL    HW130446   0.475   6.492   5.068
 9849SOL    HW230447   0.453   6.640   5.132
 9850SOL     OW30448   4.296   6.966   2.721
 9850SOL    HW130449   4.356   6.909   2.665
 9850SOL    HW230450   4.305   6.939   2.817
 9851SOL     OW30451   5.934   2.531   4.810
 9851SOL    HW130452   5.923   2.563   4.904
 9851SOL    HW230453   5.930   2.431   4.809
 9852SOL     OW30454   4.946   2.035   3.889
 9852SOL    HW130455   4.926   2.099   3.814
 9852SOL    HW230456   4.861   2.006   3.931
 9853SOL     OW30457   6.563   3.931   1.683
 9853SOL    HW130458   6.631   3.895   1.747
 9853SOL    HW230459   6.609   3.980   1.609
 9854SOL     OW30460   4.715   6.063   3.489
 9854SOL    HW130461   4.782   6.045   3.562
 9854SOL    HW230462   4.627   6.086   3.530
 9855SOL     OW30463   1.333   3.255   1.067
 9855SOL    HW130464   1.381   3.328   1.116
 9855SOL    HW230465   1.345   3.266   0.969
 9856SOL     OW30466   4.261   2.808   0.864
 9856SOL    HW130467   4.178   2.770   0.905
 9856SOL    HW230468   4.310   2.737   0.815
 9857SOL     OW30469   5.575   4.073   3.643
 9857SOL    HW130470   5.630   3.990   3.631
 9857SOL    HW230471   5.492   4.066   3.588
 9858SOL     OW30472   4.439   1.475   1.093
 9858SOL    HW130473   4.425   1.445   1.187
 9858SOL    HW230474   4.452   1.574   1.091
 9859SOL     OW30475   6.406   0.389   1.726
 9859SOL    HW130476   6.469   0.405   1.801
 9859SOL    HW230477   6.404   0.292   1.704
 9860SOL     OW30478   0.666   1.076   2.547
 9860SOL    HW130479   0.579   1.028   2.561
 9860SOL    HW230480   0.652   1.174   2.564
 9861SOL     OW30481   4.127   6.987   4.557
 9861SOL    HW130482   4.135   0.036   4.491
 9861SOL    HW230483   4.044   6.934   4.537
 9862SOL     OW30484   0.575   2.410   0.591
 9862SOL    HW130485   0.613   2.318   0.584
 9862SOL    HW230486   0.642   2.470   0.634
 9863SOL     OW30487   3.082   6.801   0.891
 9863SOL    HW130488   3.073   6.893   0.853
 9863SOL    HW230489   3.171   6.793   0.938
 9864SOL     OW30490   4.615   5.995   2.251
 9864SOL    HW130491   4.614   5.992   2.351
 9864SOL    HW230492   4.526   5.963   2.217
 9865SOL     OW30493   0.437   2.359   4.970
 9865SOL    HW130494   0.338   2.371   4.969
 9865SOL    HW230495   0.476   2.398   4.886
 9866SOL     OW30496   4.278   4.821   3.418
 9866SOL    HW130497   4.252   4.830   3.322
 9866SOL    HW230498   4.197   4.798   3.472
 9867SOL     OW30499   4.017   0.605   6.359
 9867SOL    HW130500   3.991   0.509   6.360
 9867SOL    HW230501   3.938   0.661   6.334
 9868SOL     OW30502   0.072   5.272   0.072
 9868SOL    HW130503   0.129   5.229   0.002
 9868SOL    HW230504   0.124   5.345   0.117
 9869SOL     OW30505   1.479   3.794   3.526
 9869SOL    HW130506   1.558   3.766   3.581
 9869SOL    HW230507   1.398   3.802   3.584
 9870SOL     OW30508   5.024   4.677   2.452
 9870SOL    HW130509   5.089   4.753   2.443
 9870SOL    HW230510   4.947   4.705   2.508
 9871SOL     OW30511   1.583   1.086   4.930
 9871SOL    HW130512   1.587   1.186   4.940
 9871SOL    HW230513   1.506   1.061   4.871
 9872SOL     OW30514   1.631   4.967   3.317
 9872SOL    HW130515   1.584   4.986   3.231
 9872SOL    HW230516   1.721   5.010   3.315
 9873SOL     OW30517   0.613   2.865   0.789
 9873SOL    HW130518   0.522   2.902   0.811
 9873SOL    HW230519   0.683   2.924   0.828
 9874SOL     OW30520   0.700   2.454   3.716
 9874SOL    HW130521   0.669   2.503   3.635
 9874SOL    HW230522   0.646   2.482   3.796
 9875SOL     OW30523   1.096   0.679   3.340
 9875SOL    HW130524   1.012   0.713   3.297
 9875SOL    HW230525   1.170   0.744   3.325
 9876SOL     OW30526   0.183   6.205   2.662
 9876SOL    HW130527   0.130   6.290   2.661
 9876SOL    HW230528   0.121   6.128   2.677
 9877SOL     OW30529   3.393   0.117   2.416
 9877SOL    HW130530   3.390   0.217   2.420
 9877SOL    HW230531   3.427   0.081   2.504
 9878SOL     OW30532   0.631   6.915   5.063
 9878SOL    HW130533   0.637   6.988   4.995
 9878SOL    HW230534   0.546   6.864   5.049
 9879SOL     OW30535   5.030   6.195   5.958
 9879SOL    HW130536   4.978   6.280   5.956
 9879SOL    HW230537   5.098   6.198   6.031
 9880SOL     OW30538   1.544   1.987   4.898
 9880SOL    HW130539   1.530   1.912   4.963
 9880SOL    HW230540   1.559   2.072   4.948
 9881SOL     OW30541   0.058   2.404   6.205
 9881SOL    HW130542   0.149   2.388   6.167
 9881SOL    HW230543   0.054   2.497   6.243
 9882SOL     OW30544   1.246   1.520   3.194
 9882SOL    HW130545   1.195   1.479   3.270
 9882SOL    HW230546   1.342   1.529   3.219
 9883SOL     OW30547   2.295   0.208   1.526
 9883SOL    HW130548   2.354   0.148   1.581
 9883SOL    HW230549   2.256   0.279   1.585
 9884SOL     OW30550   3.804   0.483   4.189
 9884SOL    HW130551   3.798   0.496   4.090
 9884SOL    HW230552   3.881   0.535   4.224
 9885SOL     OW30553   6.028   5.162   3.933
 9885SOL    HW130554   6.092   5.239   3.928
 9885SOL    HW230555   6.075   5.078   3.908
 9886SOL     OW30556   1.147   3.792   2.463
 9886SOL    HW130557   1.093   3.809   2.381
 9886SOL    HW230558   1.154   3.694   2.480
 9887SOL     OW30559   4.201   0.800   6.385
 9887SOL    HW130560   4.136   0.723   6.382
 9887SOL    HW230561   4.155   0.883   6.356
 9888SOL     OW30562   0.203   4.219   0.296
 9888SOL    HW130563   0.260   4.203   0.376
 9888SOL    HW230564   0.198   4.135   0.241
 9889SOL     OW30565   0.299   5.080   0.339
 9889SOL    HW130566   0.321   5.087   0.241
 9889SOL    HW230567   0.249   5.162   0.367
 9890SOL     OW30568   1.182   2.833   1.517
 9890SOL    HW130569   1.172   2.926   1.480
 9890SOL    HW230570   1.128   2.770   1.461
 9891SOL     OW30571   5.183   1.844   1.589
 9891SOL    HW130572   5.158   1.881   1.679
 9891SOL    HW230573   5.118   1.877   1.521
 9892SOL     OW30574   6.962   5.739   6.422
 9892SOL    HW130575   0.002   5.747   6.498
 9892SOL    HW230576   6.874   5.707   6.457
 9893SOL     OW30577   1.870   0.913   0.907
 9893SOL    HW130578   1.833   0.830   0.950
 9893SOL    HW230579   1.876   0.986   0.975
 9894SOL     OW30580   1.734   2.098   0.707
 9894SOL    HW130581   1.755   2.037   0.631
 9894SOL    HW230582   1.691   2.181   0.673
 9895SOL     OW30583   5.295   3.256   5.628
 9895SOL    HW130584   5.295   3.225   5.723
 9895SOL    HW230585   5.251   3.187   5.570
 9896SOL     OW30586   5.979   0.040   0.074
 9896SOL    HW130587   6.061   7.008   0.086
 9896SOL    HW230588   5.914   7.017   0.014
 9897SOL     OW30589   4.904   5.301   3.367
 9897SOL    HW130590   4.951   5.301   3.455
 9897SOL    HW230591   4.886   5.206   3.339
 9898SOL     OW30592   3.450   6.382   5.320
 9898SOL    HW130593   3.394   6.314   5.366
 9898SOL    HW230594   3.397   6.425   5.246
 9899SOL     OW30595   0.089   5.558   7.013
 9899SOL    HW130596   0.106   5.656   7.014
 9899SOL    HW230597   0.054   5.531   6.923
 9900SOL     OW30598   2.161   3.908   3.341
 9900SOL    HW130599   2.068   3.946   3.344
 9900SOL    HW230600   2.223   3.975   3.301
 9901SOL     OW30601   2.034   2.469   5.245
 9901SOL    HW130602   2.083   2.510   5.322
 9901SOL    HW230603   2.100   2.418   5.188
 9902SOL     OW30604   2.864   4.488   0.009
 9902SOL    HW130605   2.914   4.454   6.955
 9902SOL    HW230606   2.828   4.579   7.014
 9903SOL     OW30607   5.792   1.158   3.361
 9903SOL    HW130608   5.835   1.080   3.405
 9903SOL    HW230609   5.841   1.179   3.276
 9904SOL     OW30610   0.027   2.951   6.135
 9904SOL    HW130611   0.094   2.949   6.060
 9904SOL    HW230612   6.965   2.988   6.101
 9905SOL     OW30613   4.319   1.450   0.343
 9905SOL    HW130614   4.291   1.384   0.274
 9905SOL    HW230615   4.243   1.513   0.362
 9906SOL     OW30616   4.020   3.875   4.382
 9906SOL    HW130617   4.077   3.928   4.320
 9906SOL    HW230618   4.001   3.785   4.342
 9907SOL     OW30619   0.626   6.867   1.121
 9907SOL    HW130620   0.640   6.844   1.218
 9907SOL    HW230621   0.715   6.871   1.075
 9908SOL     OW30622   5.178   3.436   3.168
 9908SOL    HW130623   5.247   3.371   3.136
 9908SOL    HW230624   5.140   3.404   3.255
 9909SOL     OW30625   2.244   0.107   5.186
 9909SOL    HW130626   2.185   0.086   5.109
 9909SOL    HW230627   2.324   0.158   5.154
 9910SOL     OW30628   0.833   4.133   3.205
 9910SOL    HW130629   0.902   4.064   3.182
 9910SOL    HW230630   0.865   4.188   3.282
 9911SOL     OW30631   2.872   6.274   2.007
 9911SOL    HW130632   2.917   6.353   2.051
 9911SOL    HW230633   2.916   6.190   2.037
 9912SOL     OW30634   4.632   1.279   6.921
 9912SOL    HW130635   4.693   1.210   6.881
 9912SOL    HW230636   4.593   1.244   7.006
 9913SOL     OW30637   5.707   3.011   6.944
 9913SOL    HW130638   5.730   2.921   6.980
 9913SOL    HW230639   5.690   3.074   7.019
 9914SOL     OW30640   0.343   2.652   5.067
 9914SOL    HW130641   0.331   2.611   5.157
 9914SOL    HW230642   0.441   2.661   5.048
 9915SOL     OW30643   5.591   0.986   3.589
 9915SOL    HW130644   5.660   1.050   3.623
 9915SOL    HW230645   5.600   0.979   3.489
 9916SOL     OW30646   2.203   2.377   2.137
 9916SOL    HW130647   2.210   2.471   2.172
 9916SOL    HW230648   2.272   2.364   2.065
 9917SOL     OW30649   6.852   4.234   5.017
 9917SOL    HW130650   6.883   4.237   4.922
 9917SOL    HW230651   6.877   4.146   5.058
 9918SOL     OW30652   4.235   2.312   2.612
 9918SOL    HW130653   4.313   2.349   2.561
 9918SOL    HW230654   4.172   2.267   2.548
 9919SOL     OW30655   6.711   6.064   0.561
 9919SOL    HW130656   6.639   6.018   0.509
 9919SOL    HW230657   6.670   6.130   0.624
 9920SOL     OW30658   4.667   1.358   2.123
 9920SOL    HW130659   4.617   1.292   2.068
 9920SOL    HW230660   4.608   1.437   2.142
 9921SOL     OW30661   3.858   5.586   5.672
 9921SOL    HW130662   3.871   5.683   5.691
 9921SOL    HW230663   3.874   5.533   5.756
 9922SOL     OW30664   0.397   5.423   0.470
 9922SOL    HW130665   0.300   5.404   0.453
 9922SOL    HW230666   0.422   5.390   0.561
 9923SOL     OW30667   5.513   4.628   0.258
 9923SOL    HW130668   5.460   4.668   0.333
 9923SOL    HW230669   5.607   4.663   0.262
 9924SOL     OW30670   0.699   3.812   4.858
 9924SOL    HW130671   0.720   3.725   4.903
 9924SOL    HW230672   0.769   3.831   4.789
 9925SOL     OW30673   5.330   2.109   4.078
 9925SOL    HW130674   5.252   2.049   4.095
 9925SOL    HW230675   5.297   2.201   4.056
 9926SOL     OW30676   2.110   4.900   0.099
 9926SOL    HW130677   2.123   4.918   0.001
 9926SOL    HW230678   2.145   4.977   0.152
 9927SOL     OW30679   6.023   6.852   2.991
 9927SOL    HW130680   6.067   6.773   3.034
 9927SOL    HW230681   5.998   6.830   2.897
 9928SOL     OW30682   4.894   4.498   1.415
 9928SOL    HW130683   4.924   4.408   1.383
 9928SOL    HW230684   4.809   4.523   1.369
 9929SOL     OW30685   2.596   4.598   3.704
 9929SOL    HW130686   2.545   4.515   3.678
 9929SOL    HW230687   2.535   4.661   3.752
 9930SOL     OW30688   6.544   0.433   3.941
 9930SOL    HW130689   6.478   0.498   3.979
 9930SOL    HW230690   6.636   0.472   3.946
 9931SOL     OW30691   1.133   4.809   5.617
 9931SOL    HW130692   1.203   4.750   5.579
 9931SOL    HW230693   1.066   4.831   5.546
 9932SOL     OW30694   0.956   5.951   4.978
 9932SOL    HW130695   0.967   5.940   4.880
 9932SOL    HW230696   1.020   6.020   5.012
 9933SOL     OW30697   0.177   5.715   2.039
 9933SOL    HW130698   0.114   5.742   2.112
 9933SOL    HW230699   0.202   5.795   1.985
 9934SOL     OW30700   6.400   2.202   6.129
 9934SOL    HW130701   6.320   2.143   6.118
 9934SOL    HW230702   6.482   2.145   6.141
 9935SOL     OW30703   3.156   1.407   6.349
 9935SOL    HW130704   3.064   1.372   6.368
 9935SOL    HW230705   3.168   1.419   6.251
 9936SOL     OW30706   0.868   4.351   4.460
 9936SOL    HW130707   0.938   4.402   4.411
 9936SOL    HW230708   0.837   4.404   4.539
 9937SOL     OW30709   6.412   2.432   6.267
 9937SOL    HW130710   6.398   2.345   6.219
 9937SOL    HW230711   6.508   2.440   6.294
 9938SOL     OW30712   6.579   6.299   3.269
 9938SOL    HW130713   6.584   6.395   3.241
 9938SOL    HW230714   6.610   6.241   3.193
 9939SOL     OW30715   2.953   3.396   2.317
 9939SOL    HW130716   2.980   3.308   2.356
 9939SOL    HW230717   2.975   3.396   2.219
 9940SOL     OW30718   6.890   1.393   0.908
 9940SOL    HW130719   6.905   1.342   0.823
 9940SOL    HW230720   6.916   1.488   0.895
 9941SOL     OW30721   3.483   4.948   5.626
 9941SOL    HW130722   3.487   5.044   5.653
 9941SOL    HW230723   3.449   4.892   5.701
 9942SOL     OW30724   2.583   5.592   3.233
 9942SOL    HW130725   2.518   5.535   3.283
 9942SOL    HW230726   2.624   5.538   3.159
 9943SOL     OW30727   1.111   6.563   5.340
 9943SOL    HW130728   1.096   6.472   5.300
 9943SOL    HW230729   1.105   6.556   5.440
 9944SOL     OW30730   0.659   3.932   0.373
 9944SOL    HW130731   0.621   3.904   0.462
 9944SOL    HW230732   0.757   3.915   0.371
 9945SOL     OW30733   6.641   5.415   6.970
 9945SOL    HW130734   6.620   5.329   7.015
 9945SOL    HW230735   6.726   5.452   7.007
 9946SOL     OW30736   4.871   0.744   5.126
 9946SOL    HW130737   4.913   0.835   5.127
 9946SOL    HW230738   4.943   0.675   5.117
 9947SOL     OW30739   6.325   4.452   3.848
 9947SOL    HW130740   6.406   4.498   3.883
 9947SOL    HW230741   6.288   4.504   3.771
 9948SOL     OW30742   4.766   4.585   4.599
 9948SOL    HW130743   4.693   4.644   4.631
 9948SOL    HW230744   4.731   4.492   4.586
 9949SOL     OW30745   5.540   5.330   3.023
 9949SOL    HW130746   5.550   5.259   2.952
 9949SOL    HW230747   5.474   5.299   3.091
 9950SOL     OW30748   4.225   5.924   5.573
 9950SOL    HW130749   4.154   5.966   5.517
 9950SOL    HW230750   4.183   5.860   5.637
 9951SOL     OW30751   5.886   1.788   3.057
 9951SOL    HW130752   5.949   1.731   3.110
 9951SOL    HW230753   5.891   1.882   3.090
 9952SOL     OW30754   6.989   5.200   0.303
 9952SOL    HW130755   6.904   5.253   0.307
 9952SOL    HW230756   0.017   5.229   0.223
 9953SOL     OW30757   0.206   1.391   4.528
 9953SOL    HW130758   0.198   1.331   4.607
 9953SOL    HW230759   0.115   1.407   4.489
 9954SOL     OW30760   4.556   0.466   5.479
 9954SOL    HW130761   4.572   0.387   5.419
 9954SOL    HW230762   4.458   0.483   5.486
 9955SOL     OW30763   0.965   4.384   5.020
 9955SOL    HW130764   0.993   4.307   4.963
 9955SOL    HW230765   0.866   4.386   5.028
 9956SOL     OW30766   1.612   6.108   1.193
 9956SOL    HW130767   1.638   6.202   1.213
 9956SOL    HW230768   1.534   6.107   1.131
 9957SOL     OW30769   6.123   4.095   3.168
 9957SOL    HW130770   6.081   4.040   3.096
 9957SOL    HW230771   6.053   4.120   3.236
 9958SOL     OW30772   2.292   4.520   1.513
 9958SOL    HW130773   2.240   4.478   1.587
 9958SOL    HW230774   2.265   4.478   1.426
 9959SOL     OW30775   3.852   3.844   0.659
 9959SOL    HW130776   3.759   3.816   0.686
 9959SOL    HW230777   3.919   3.794   0.716
 9960SOL     OW30778   0.746   1.446   2.582
 9960SOL    HW130779   0.740   1.499   2.497
 9960SOL    HW230780   0.834   1.399   2.586
 9961SOL     OW30781   2.102   4.469   4.829
 9961SOL    HW130782   2.091   4.474   4.928
 9961SOL    HW230783   2.167   4.396   4.807
 9962SOL     OW30784   5.293   6.139   5.533
 9962SOL    HW130785   5.237   6.080   5.592
 9962SOL    HW230786   5.234   6.181   5.464
 9963SOL     OW30787   3.006   0.642   0.628
 9963SOL    HW130788   2.946   0.584   0.572
 9963SOL    HW230789   2.960   0.663   0.714
 9964SOL     OW30790   4.613   5.741   5.583
 9964SOL    HW130791   4.597   5.840   5.591
 9964SOL    HW230792   4.527   5.694   5.569
 9965SOL     OW30793   4.136   0.353   0.168
 9965SOL    HW130794   4.227   0.395   0.170
 9965SOL    HW230795   4.123   0.297   0.250
 9966SOL     OW30796   0.555   6.973   2.841
 9966SOL    HW130797   0.598   0.015   2.902
 9966SOL    HW230798   0.567   6.881   2.880
 9967SOL     OW30799   1.108   5.104   0.650
 9967SOL    HW130800   1.118   5.008   0.675
 9967SOL    HW230801   1.140   5.161   0.725
 9968SOL     OW30802   3.452   2.865   2.698
 9968SOL    HW130803   3.399   2.872   2.783
 9968SOL    HW230804   3.397   2.897   2.621
 9969SOL     OW30805   0.546   3.642   1.616
 9969SOL    HW130806   0.595   3.619   1.700
 9969SOL    HW230807   0.470   3.579   1.603
 9970SOL     OW30808   5.522   4.372   1.450
 9970SOL    HW130809   5.588   4.371   1.375
 9970SOL    HW230810   5.432   4.345   1.416
 9971SOL     OW30811   2.338   5.620   0.237
 9971SOL    HW130812   2.377   5.530   0.219
 9971SOL    HW230813   2.405   5.691   0.214
 9972SOL     OW30814   6.639   4.518   1.923
 9972SOL    HW130815   6.635   4.445   1.855
 9972SOL    HW230816   6.735   4.541   1.941
 9973SOL     OW30817   5.554   6.830   4.679
 9973SOL    HW130818   5.534   6.834   4.777
 9973SOL    HW230819   5.617   6.756   4.661
 9974SOL     OW30820   1.886   0.493   4.142
 9974SOL    HW130821   1.875   0.589   4.166
 9974SOL    HW230822   1.966   0.456   4.189
 9975SOL     OW30823   0.112   3.071   0.639
 9975SOL    HW130824   0.137   3.141   0.573
 9975SOL    HW230825   0.016   3.079   0.664
 9976SOL     OW30826   1.880   0.329   4.941
 9976SOL    HW130827   1.784   0.346   4.921
 9976SOL    HW230828   1.935   0.405   4.907
 9977SOL     OW30829   6.862   4.540   4.384
 9977SOL    HW130830   6.830   4.577   4.472
 9977SOL    HW230831   6.837   4.443   4.378
 9978SOL     OW30832   6.983   2.362   4.156
 9978SOL    HW130833   6.895   2.316   4.171
 9978SOL    HW230834   7.015   2.342   4.063
 9979SOL     OW30835   0.643   3.971   5.501
 9979SOL    HW130836   0.633   4.056   5.554
 9979SOL    HW230837   0.592   3.979   5.416
 9980SOL     OW30838   3.775   0.018   5.071
 9980SOL    HW130839   3.716   6.971   5.033
 9980SOL    HW230840   3.736   0.107   5.050
 9981SOL     OW30841   3.468   2.105   4.136
 9981SOL    HW130842   3.381   2.147   4.162
 9981SOL    HW230843   3.481   2.113   4.037
 9982SOL     OW30844   6.325   5.966   3.484
 9982SOL    HW130845   6.261   5.925   3.420
 9982SOL    HW230846   6.418   5.940   3.461
 9983SOL     OW30847   0.289   1.019   1.235
 9983SOL    HW130848   0.264   0.980   1.147
 9983SOL    HW230849   0.388   1.033   1.240
 9984SOL     OW30850   2.539   0.789   0.161
 9984SOL    HW130851   2.475   0.842   0.216
 9984SOL    HW230852   2.623   0.841   0.147
 9985SOL     OW30853   1.401   0.789   1.908
 9985SOL    HW130854   1.418   0.730   1.986
 9985SOL    HW230855   1.309   0.771   1.871
 9986SOL     OW30856   5.486   4.466   5.033
 9986SOL    HW130857   5.504   4.383   5.086
 9986SOL    HW230858   5.540   4.542   5.070
 9987SOL     OW30859   6.809   3.930   6.147
 9987SOL    HW130860   6.885   3.977   6.101
 9987SOL    HW230861   6.773   3.860   6.086
 9988SOL     OW30862   6.637   6.951   4.635
 9988SOL    HW130863   6.712   6.904   4.587
 9988SOL    HW230864   6.602   0.000   4.577
 9989SOL     OW30865   0.723   3.536   4.959
 9989SOL    HW130866   0.657   3.460   4.964
 9989SOL    HW230867   0.800   3.509   4.902
 9990SOL     OW30868   1.013   5.353   2.332
 9990SOL    HW130869   0.926   5.373   2.376
 9990SOL    HW230870   0.997   5.312   2.242
 9991SOL     OW30871   3.998   2.137   3.416
 9991SOL    HW130872   3.965   2.043   3.404
 9991SOL    HW230873   4.042   2.146   3.505
 9992SOL     OW30874   6.244   5.510   6.121
 9992SOL    HW130875   6.282   5.426   6.080
 9992SOL    HW230876   6.318   5.574   6.139
 9993SOL     OW30877   0.641   0.692   1.620
 9993SOL    HW130878   0.666   0.707   1.716
 9993SOL    HW230879   0.603   0.775   1.582
 9994SOL     OW30880   5.846   4.742   2.892
 9994SOL    HW130881   5.805   4.727   2.982
 9994SOL    HW230882   5.880   4.656   2.855
 9995SOL     OW30883   4.804   1.061   4.968
 9995SOL    HW130884   4.893   1.071   5.013
 9995SOL    HW230885   4.792   0.967   4.938
 9996SOL     OW30886   2.514   3.604   6.857
 9996SOL    HW130887   2.594   3.594   6.797
 9996SOL    HW230888   2.431   3.609   6.802
 9997SOL     OW30889   2.934   7.014   4.971
 9997SOL    HW130890   2.897   0.049   4.900
 9997SOL    HW230891   2.865   6.947   4.998
 9998SOL     OW30892   5.555   6.219   5.503
 9998SOL    HW130893   5.461   6.189   5.493
 9998SOL    HW230894   5.559   6.319   5.498
 9999SOL     OW30895   0.375   2.888   4.532
 9999SOL    HW130896   0.443   2.960   4.548
 9999SOL    HW230897   0.284   2.923   4.555
10000SOL     OW30898   7.011   3.762   0.103
10000SOL    HW130899   6.952   3.685   0.078
10000SOL    HW230900   0.046   3.784   0.027
10001SOL     OW30901   4.025   0.191   2.990
10001SOL    HW130902   4.043   0.128   3.065
10001SOL    HW230903   4.082   0.167   2.911
10002SOL     OW30904   0.812   1.580   1.742
10002SOL    HW130905   0.888   1.523   1.775
10002SOL    HW230906   0.731   1.562   1.798
10003SOL     OW30907   4.576   1.888   3.647
10003SOL    HW130908   4.581   1.978   3.603
10003SOL    HW230909   4.486   1.877   3.690
10004SOL     OW30910   0.527   2.040   2.982
10004SOL    HW130911   0.599   2.089   2.933
10004SOL    HW230912   0.455   2.105   3.008
10005SOL     OW30913   5.285   6.760   4.616
10005SOL    HW130914   5.381   6.758   4.644
10005SOL    HW230915   5.227   6.769   4.697
10006SOL     OW30916   4.367   0.924   4.752
10006SOL    HW130917   4.351   0.942   4.849
10006SOL    HW230918   4.379   0.826   4.738
10007SOL     OW30919   6.491   3.319   4.068
10007SOL    HW130920   6.502   3.387   4.140
10007SOL    HW230921   6.508   3.227   4.105
10008SOL     OW30922   3.677   6.978   3.946
10008SOL    HW130923   3.648   0.045   3.920
10008SOL    HW230924   3.602   6.932   3.994
10009SOL     OW30925   0.673   4.207   2.018
10009SOL    HW130926   0.664   4.108   2.030
10009SOL    HW230927   0.682   4.228   1.920
10010SOL     OW30928   0.143   1.387   6.210
10010SOL    HW130929   0.071   1.416   6.148
10010SOL    HW230930   0.103   1.336   6.287
10011SOL     OW30931   0.179   6.728   4.829
10011SOL    HW130932   0.115   6.665   4.786
10011SOL    HW230933   0.216   6.790   4.760
10012SOL     OW30934   5.740   0.591   4.219
10012SOL    HW130935   5.710   0.649   4.295
10012SOL    HW230936   5.778   0.506   4.255
10013SOL     OW30937   1.246   0.684   2.365
10013SOL    HW130938   1.301   0.653   2.287
10013SOL    HW230939   1.255   0.619   2.441
10014SOL     OW30940   1.725   5.176   5.932
10014SOL    HW130941   1.791   5.174   5.857
10014SOL    HW230942   1.682   5.266   5.936
10015SOL     OW30943   2.517   5.091   0.067
10015SOL    HW130944   2.438   5.151   0.053
10015SOL    HW230945   2.505   5.041   0.153
10016SOL     OW30946   2.384   0.690   5.567
10016SOL    HW130947   2.437   0.775   5.573
10016SOL    HW230948   2.362   0.658   5.660
10017SOL     OW30949   0.734   1.780   4.196
10017SOL    HW130950   0.696   1.848   4.133
10017SOL    HW230951   0.785   1.827   4.269
10018SOL     OW30952   4.767   6.720   6.457
10018SOL    HW130953   4.724   6.716   6.366
10018SOL    HW230954   4.737   6.802   6.505
10019SOL     OW30955   1.633   1.131   2.146
10019SOL    HW130956   1.553   1.155   2.090
10019SOL    HW230957   1.607   1.129   2.242
10020SOL     OW30958   6.717   2.811   0.505
10020SOL    HW130959   6.766   2.737   0.458
10020SOL    HW230960   6.783   2.869   0.553
10021SOL     OW30961   5.771   3.206   1.289
10021SOL    HW130962   5.827   3.206   1.372
10021SOL    HW230963   5.725   3.117   1.279
10022SOL     OW30964   1.634   0.312   6.565
10022SOL    HW130965   1.673   0.372   6.635
10022SOL    HW230966   1.699   0.238   6.546
10023SOL     OW30967   6.989   3.369   1.249
10023SOL    HW130968   6.890   3.376   1.263
10023SOL    HW230969   7.012   3.275   1.225
10024SOL     OW30970   1.226   4.622   3.150
10024SOL    HW130971   1.134   4.605   3.113
10024SOL    HW230972   1.291   4.562   3.103
10025SOL     OW30973   1.324   1.561   0.373
10025SOL    HW130974   1.311   1.590   0.278
10025SOL    HW230975   1.240   1.521   0.408
10026SOL     OW30976   0.129   0.616   3.855
10026SOL    HW130977   0.139   0.695   3.795
10026SOL    HW230978   0.149   0.532   3.803
10027SOL     OW30979   5.156   2.447   6.103
10027SOL    HW130980   5.136   2.539   6.072
10027SOL    HW230981   5.142   2.382   6.028
10028SOL     OW30982   1.865   0.677   1.086
10028SOL    HW130983   1.852   0.747   1.157
10028SOL    HW230984   1.958   0.641   1.092
10029SOL     OW30985   5.135   1.865   3.795
10029SOL    HW130986   5.126   1.868   3.695
10029SOL    HW230987   5.074   1.933   3.836
10030SOL     OW30988   1.782   0.982   3.141
10030SOL    HW130989   1.838   1.064   3.153
10030SOL    HW230990   1.722   0.971   3.220
10031SOL     OW30991   6.581   4.438   4.273
10031SOL    HW130992   6.643   4.513   4.247
10031SOL    HW230993   6.577   4.432   4.373
10032SOL     OW30994   2.555   1.464   5.296
10032SOL    HW130995   2.630   1.525   5.321
10032SOL    HW230996   2.553   1.386   5.358
10033SOL     OW30997   5.964   2.655   4.563
10033SOL    HW130998   5.978   2.630   4.658
10033SOL    HW230999   5.868   2.681   4.550
10034SOL     OW31000   4.612   0.338   6.119
10034SOL    HW131001   4.691   0.345   6.180
10034SOL    HW231002   4.640   0.299   6.032
10035SOL     OW31003   0.244   6.681   3.276
10035SOL    HW131004   0.308   6.717   3.209
10035SOL    HW231005   0.183   6.616   3.231
10036SOL     OW31006   6.895   0.902   0.131
10036SOL    HW131007   6.879   0.848   0.049
10036SOL    HW231008   6.878   0.998   0.112
10037SOL     OW31009   0.357   6.694   1.151
10037SOL    HW131010   0.364   6.773   1.212
10037SOL    HW231011   0.311   6.619   1.199
10038SOL     OW31012   6.497   0.034   0.842
10038SOL    HW131013   6.442   0.003   0.920
10038SOL    HW231014   6.536   6.980   0.795
10039SOL     OW31015   3.064   0.412   3.352
10039SOL    HW131016   3.058   0.362   3.438
10039SOL    HW231017   3.043   0.509   3.368
10040SOL     OW31018   0.306   2.161   1.311
10040SOL    HW131019   0.356   2.154   1.225
10040SOL    HW231020   0.371   2.164   1.387
10041SOL     OW31021   1.842   5.809   0.963
10041SOL    HW131022   1.869   5.890   1.015
10041SOL    HW231023   1.766   5.763   1.009
10042SOL     OW31024   6.321   2.516   2.971
10042SOL    HW131025   6.282   2.605   2.949
10042SOL    HW231026   6.361   2.476   2.889
10043SOL     OW31027   0.603   2.611   5.032
10043SOL    HW131028   0.668   2.556   5.083
10043SOL    HW231029   0.593   2.574   4.939
10044SOL     OW31030   3.938   1.566   6.176
10044SOL    HW131031   3.843   1.553   6.203
10044SOL    HW231032   3.943   1.627   6.097
10045SOL     OW31033   2.164   0.850   0.263
10045SOL    HW131034   2.240   0.801   0.220
10045SOL    HW231035   2.191   0.880   0.354
10046SOL     OW31036   1.180   5.216   0.881
10046SOL    HW131037   1.113   5.284   0.849
10046SOL    HW231038   1.174   5.209   0.981
10047SOL     OW31039   0.930   4.014   0.769
10047SOL    HW131040   0.887   4.105   0.770
10047SOL    HW231041   0.881   3.956   0.703
10048SOL     OW31042   5.509   5.068   2.805
10048SOL    HW131043   5.558   5.124   2.738
10048SOL    HW231044   5.568   4.992   2.833
10049SOL     OW31045   5.819   1.132   5.352
10049SOL    HW131046   5.768   1.212   5.383
10049SOL    HW231047   5.759   1.052   5.351
10050SOL     OW31048   0.348   2.576   6.186
10050SOL    HW131049   0.263   2.618   6.217
10050SOL    HW231050   0.379   2.620   6.102
10051SOL     OW31051   2.226   2.087   3.991
10051SOL    HW131052   2.241   2.044   4.079
10051SOL    HW231053   2.128   2.099   3.975
10052SOL     OW31054   1.496   0.564   3.251
10052SOL    HW131055   1.589   0.600   3.247
10052SOL    HW231056   1.460   0.572   3.343
10053SOL     OW31057   5.717   5.290   3.361
10053SOL    HW131058   5.692   5.375   3.407
10053SOL    HW231059   5.764   5.230   3.426
10054SOL     OW31060   6.914   4.229   4.411
10054SOL    HW131061   6.899   4.183   4.323
10054SOL    HW231062   6.860   4.184   4.482
10055SOL     OW31063   1.534   2.705   6.659
10055SOL    HW131064   1.507   2.797   6.688
10055SOL    HW231065   1.590   2.712   6.577
10056SOL     OW31066   6.429   2.028   4.226
10056SOL    HW131067   6.400   1.955   4.288
10056SOL    HW231068   6.395   2.116   4.260
10057SOL     OW31069   5.229   4.969   5.453
10057SOL    HW131070   5.324   4.964   5.483
10057SOL    HW231071   5.211   4.901   5.383
10058SOL     OW31072   0.300   4.192   4.750
10058SOL    HW131073   0.335   4.101   4.729
10058SOL    HW231074   0.221   4.212   4.691
10059SOL     OW31075   5.556   6.916   6.624
10059SOL    HW131076   5.621   6.844   6.598
10059SOL    HW231077   5.508   6.888   6.707
10060SOL     OW31078   3.160   2.080   1.897
10060SOL    HW131079   3.247   2.083   1.847
10060SOL    HW231080   3.091   2.131   1.845
10061SOL     OW31081   3.123   0.065   2.413
10061SOL    HW131082   3.083   0.072   2.322
10061SOL    HW231083   3.222   0.075   2.406
10062SOL     OW31084   0.859   6.765   4.819
10062SOL    HW131085   0.768   6.723   4.820
10062SOL    HW231086   0.874   6.812   4.732
10063SOL     OW31087   2.704   2.400   4.737
10063SOL    HW131088   2.660   2.476   4.689
10063SOL    HW231089   2.685   2.408   4.835
10064SOL     OW31090   2.622   0.488   1.711
10064SOL    HW131091   2.584   0.526   1.626
10064SOL    HW231092   2.549   0.449   1.767
10065SOL     OW31093   0.148   1.668   1.726
10065SOL    HW131094   0.169   1.701   1.633
10065SOL    HW231095   0.219   1.604   1.755
10066SOL     OW31096   6.597   5.120   3.381
10066SOL    HW131097   6.695   5.139   3.374
10066SOL    HW231098   6.549   5.203   3.407
10067SOL     OW31099   0.091   3.349   5.274
10067SOL    HW131100   0.054   3.439   5.298
10067SOL    HW231101   0.136   3.355   5.184
10068SOL     OW31102   1.533   3.483   2.392
10068SOL    HW131103   1.624   3.469   2.353
10068SOL    HW231104   1.484   3.396   2.394
10069SOL     OW31105   3.638   4.519   0.941
10069SOL    HW131106   3.547   4.521   0.982
10069SOL    HW231107   3.676   4.612   0.938
10070SOL     OW31108   5.298   6.966   0.232
10070SOL    HW131109   5.356   6.891   0.199
10070SOL    HW231110   5.203   6.934   0.235
10071SOL     OW31111   5.184   1.097   6.044
10071SOL    HW131112   5.163   1.005   6.010
10071SOL    HW231113   5.160   1.164   5.973
10072SOL     OW31114   6.270   3.134   1.815
10072SOL    HW131115   6.239   3.184   1.895
10072SOL    HW231116   6.206   3.059   1.796
10073SOL     OW31117   5.580   5.206   4.919
10073SOL    HW131118   5.529   5.121   4.903
10073SOL    HW231119   5.617   5.239   4.832
10074SOL     OW31120   2.584   4.601   0.386
10074SOL    HW131121   2.623   4.656   0.311
10074SOL    HW231122   2.495   4.639   0.411
10075SOL     OW31123   1.245   3.348   1.507
10075SOL    HW131124   1.210   3.390   1.423
10075SOL    HW231125   1.238   3.413   1.582
10076SOL     OW31126   5.518   4.650   4.311
10076SOL    HW131127   5.567   4.611   4.233
10076SOL    HW231128   5.433   4.599   4.326
10077SOL     OW31129   4.642   3.549   6.373
10077SOL    HW131130   4.712   3.479   6.385
10077SOL    HW231131   4.552   3.510   6.395
10078SOL     OW31132   6.448   5.025   4.329
10078SOL    HW131133   6.456   5.124   4.317
10078SOL    HW231134   6.364   4.993   4.286
10079SOL     OW31135   4.975   4.415   3.525
10079SOL    HW131136   4.956   4.456   3.615
10079SOL    HW231137   4.933   4.472   3.454
10080SOL     OW31138   4.874   1.680   5.270
10080SOL    HW131139   4.945   1.707   5.335
10080SOL    HW231140   4.823   1.603   5.307
10081SOL     OW31141   1.251   4.820   0.748
10081SOL    HW131142   1.186   4.781   0.813
10081SOL    HW231143   1.315   4.880   0.797
10082SOL     OW31144   1.049   4.431   0.794
10082SOL    HW131145   1.056   4.401   0.889
10082SOL    HW231146   1.120   4.500   0.776
10083SOL     OW31147   2.770   6.128   2.289
10083SOL    HW131148   2.730   6.039   2.314
10083SOL    HW231149   2.868   6.126   2.305
10084SOL     OW31150   1.022   2.193   4.548
10084SOL    HW131151   1.005   2.224   4.454
10084SOL    HW231152   1.120   2.176   4.560
10085SOL     OW31153   5.067   7.019   1.435
10085SOL    HW131154   5.037   6.929   1.402
10085SOL    HW231155   5.051   0.062   1.364
10086SOL     OW31156   4.370   6.360   3.062
10086SOL    HW131157   4.436   6.337   2.991
10086SOL    HW231158   4.350   6.458   3.059
10087SOL     OW31159   2.080   6.024   5.479
10087SOL    HW131160   2.041   5.977   5.558
10087SOL    HW231161   2.020   6.013   5.400
10088SOL     OW31162   6.472   2.240   1.660
10088SOL    HW131163   6.509   2.331   1.678
10088SOL    HW231164   6.382   2.248   1.616
10089SOL     OW31165   4.018   0.622   1.872
10089SOL    HW131166   4.029   0.666   1.783
10089SOL    HW231167   3.994   0.526   1.858
10090SOL     OW31168   1.421   6.171   3.338
10090SOL    HW131169   1.494   6.186   3.270
10090SOL    HW231170   1.431   6.238   3.411
10091SOL     OW31171   5.451   5.064   4.636
10091SOL    HW131172   5.389   4.995   4.674
10091SOL    HW231173   5.432   5.076   4.539
10092SOL     OW31174   1.210   2.019   3.274
10092SOL    HW131175   1.205   1.931   3.227
10092SOL    HW231176   1.175   2.008   3.367
10093SOL     OW31177   4.314   3.911   6.308
10093SOL    HW131178   4.292   4.009   6.315
10093SOL    HW231179   4.313   3.870   6.399
10094SOL     OW31180   3.251   2.112   0.189
10094SOL    HW131181   3.306   2.082   0.267
10094SOL    HW231182   3.268   2.208   0.171
10095SOL     OW31183   4.182   3.184   5.380
10095SOL    HW131184   4.222   3.256   5.324
10095SOL    HW231185   4.115   3.134   5.326
10096SOL     OW31186   6.516   3.486   2.340
10096SOL    HW131187   6.420   3.497   2.366
10096SOL    HW231188   6.533   3.530   2.252
10097SOL     OW31189   0.750   1.521   0.804
10097SOL    HW131190   0.814   1.572   0.747
10097SOL    HW231191   0.799   1.479   0.880
10098SOL     OW31192   3.751   5.900   4.621
10098SOL    HW131193   3.670   5.842   4.610
10098SOL    HW231194   3.728   5.994   4.598
10099SOL     OW31195   6.774   4.606   3.355
10099SOL    HW131196   6.686   4.559   3.357
10099SOL    HW231197   6.783   4.665   3.435
10100SOL     OW31198   5.207   5.246   3.715
10100SOL    HW131199   5.296   5.289   3.702
10100SOL    HW231200   5.220   5.154   3.754
10101SOL     OW31201   6.370   2.989   0.321
10101SOL    HW131202   6.367   3.071   0.262
10101SOL    HW231203   6.444   2.999   0.387
10102SOL     OW31204   6.225   4.585   3.622
10102SOL    HW131205   6.188   4.676   3.605
10102SOL    HW231206   6.295   4.563   3.554
10103SOL     OW31207   0.394   6.400   6.718
10103SOL    HW131208   0.465   6.336   6.748
10103SOL    HW231209   0.340   6.429   6.798
10104SOL     OW31210   2.503   1.243   4.815
10104SOL    HW131211   2.420   1.219   4.765
10104SOL    HW231212   2.583   1.233   4.755
10105SOL     OW31213   3.149   1.373   3.503
10105SOL    HW131214   3.180   1.435   3.432
10105SOL    HW231215   3.226   1.348   3.562
10106SOL     OW31216   5.648   3.973   1.387
10106SOL    HW131217   5.614   4.010   1.473
10106SOL    HW231218   5.580   3.987   1.316
10107SOL     OW31219   5.361   5.612   6.571
10107SOL    HW131220   5.383   5.546   6.499
10107SOL    HW231221   5.316   5.691   6.530
10108SOL     OW31222   2.086   2.494   4.776
10108SOL    HW131223   2.152   2.569   4.766
10108SOL    HW231224   2.133   2.412   4.810
10109SOL     OW31225   1.031   2.508   1.003
10109SOL    HW131226   1.026   2.566   0.922
10109SOL    HW231227   1.127   2.490   1.025
10110SOL     OW31228   6.567   5.733   1.560
10110SOL    HW131229   6.664   5.725   1.585
10110SOL    HW231230   6.510   5.721   1.641
10111SOL     OW31231   6.616   2.184   2.111
10111SOL    HW131232   6.553   2.256   2.142
10111SOL    HW231233   6.567   2.120   2.052
10112SOL     OW31234   6.090   2.973   3.901
10112SOL    HW131235   6.044   3.053   3.863
10112SOL    HW231236   6.116   2.911   3.827
10113SOL     OW31237   6.536   6.644   5.704
10113SOL    HW131238   6.552   6.546   5.695
10113SOL    HW231239   6.591   6.681   5.779
10114SOL     OW31240   4.983   3.450   1.936
10114SOL    HW131241   4.965   3.363   1.981
10114SOL    HW231242   4.921   3.461   1.858
10115SOL     OW31243   3.352   3.120   5.896
10115SOL    HW131244   3.296   3.039   5.913
10115SOL    HW231245   3.332   3.189   5.965
10116SOL     OW31246   0.406   0.127   6.026
10116SOL    HW131247   0.328   0.111   5.965
10116SOL    HW231248   0.491   0.107   5.978
10117SOL     OW31249   6.612   4.258   1.802
10117SOL    HW131250   6.620   4.208   1.888
10117SOL    HW231251   6.694   4.243   1.747
10118SOL     OW31252   4.079   5.346   3.670
10118SOL    HW131253   4.104   5.323   3.576
10118SOL    HW231254   3.985   5.317   3.687
10119SOL     OW31255   6.196   6.156   6.464
10119SOL    HW131256   6.184   6.251   6.436
10119SOL    HW231257   6.277   6.118   6.420
10120SOL     OW31258   2.445   2.574   2.675
10120SOL    HW131259   2.413   2.514   2.749
10120SOL    HW231260   2.538   2.547   2.649
10121SOL     OW31261   6.718   5.491   0.939
10121SOL    HW131262   6.715   5.462   1.035
10121SOL    HW231263   6.782   5.433   0.889
10122SOL     OW31264   1.929   0.113   3.414
10122SOL    HW131265   1.832   0.119   3.439
10122SOL    HW231266   1.943   0.152   3.323
10123SOL     OW31267   6.441   5.682   6.151
10123SOL    HW131268   6.469   5.746   6.080
10123SOL    HW231269   6.519   5.626   6.179
10124SOL     OW31270   2.345   5.177   2.329
10124SOL    HW131271   2.364   5.087   2.367
10124SOL    HW231272   2.249   5.182   2.301
10125SOL     OW31273   1.095   0.793   5.071
10125SOL    HW131274   1.068   0.759   4.981
10125SOL    HW231275   1.071   0.724   5.140
10126SOL     OW31276   6.505   5.982   5.069
10126SOL    HW131277   6.411   5.960   5.097
10126SOL    HW231278   6.548   6.038   5.139
10127SOL     OW31279   2.253   6.976   5.802
10127SOL    HW131280   2.284   6.882   5.784
10127SOL    HW231281   2.301   7.010   5.883
10128SOL     OW31282   2.433   2.324   6.905
10128SOL    HW131283   2.497   2.268   6.958
10128SOL    HW231284   2.415   2.409   6.955
10129SOL     OW31285   6.318   1.963   4.615
10129SOL    HW131286   6.323   1.887   4.680
10129SOL    HW231287   6.356   1.934   4.527
10130SOL     OW31288   1.304   2.271   3.256
10130SOL    HW131289   1.355   2.272   3.342
10130SOL    HW231290   1.269   2.179   3.239
10131SOL     OW31291   2.003   0.008   5.301
10131SOL    HW131292   1.943   6.962   5.265
10131SOL    HW231293   2.077   0.026   5.236
10132SOL     OW31294   5.723   0.384   2.645
10132SOL    HW131295   5.786   0.395   2.568
10132SOL    HW231296   5.639   0.435   2.626
10133SOL     OW31297   5.007   6.260   1.386
10133SOL    HW131298   4.942   6.330   1.357
10133SOL    HW231299   4.966   6.170   1.375
10134SOL     OW31300   0.230   6.647   3.555
10134SOL    HW131301   0.225   6.555   3.592
10134SOL    HW231302   0.227   6.643   3.455
10135SOL     OW31303   6.370   6.667   3.475
10135SOL    HW131304   6.430   6.681   3.553
10135SOL    HW231305   6.420   6.619   3.403
10136SOL     OW31306   4.538   1.226   3.706
10136SOL    HW131307   4.510   1.199   3.798
10136SOL    HW231308   4.608   1.297   3.713
10137SOL     OW31309   0.073   5.830   4.030
10137SOL    HW131310   0.021   5.848   4.114
10137SOL    HW231311   0.127   5.746   4.041
10138SOL     OW31312   0.123   2.493   1.905
10138SOL    HW131313   0.111   2.416   1.842
10138SOL    HW231314   0.039   2.547   1.909
10139SOL     OW31315   4.016   2.363   6.824
10139SOL    HW131316   3.987   2.455   6.798
10139SOL    HW231317   4.084   2.329   6.759
10140SOL     OW31318   0.005   5.545   5.295
10140SOL    HW131319   0.004   5.445   5.301
10140SOL    HW231320   0.074   5.581   5.359
10141SOL     OW31321   1.606   2.585   4.397
10141SOL    HW131322   1.556   2.499   4.381
10141SOL    HW231323   1.563   2.635   4.472
10142SOL     OW31324   4.810   5.749   2.199
10142SOL    HW131325   4.714   5.761   2.173
10142SOL    HW231326   4.837   5.823   2.261
10143SOL     OW31327   5.966   3.107   5.980
10143SOL    HW131328   6.037   3.046   6.014
10143SOL    HW231329   5.993   3.144   5.890
10144SOL     OW31330   3.478   0.554   0.546
10144SOL    HW131331   3.484   0.513   0.638
10144SOL    HW231332   3.387   0.592   0.532
10145SOL     OW31333   6.604   6.681   5.403
10145SOL    HW131334   6.525   6.707   5.459
10145SOL    HW231335   6.666   6.758   5.396
10146SOL     OW31336   1.707   2.658   5.522
10146SOL    HW131337   1.685   2.574   5.473
10146SOL    HW231338   1.656   2.662   5.608
10147SOL     OW31339   3.836   5.682   6.634
10147SOL    HW131340   3.827   5.653   6.729
10147SOL    HW231341   3.887   5.768   6.630
10148SOL     OW31342   0.882   5.197   6.608
10148SOL    HW131343   0.901   5.113   6.558
10148SOL    HW231344   0.841   5.175   6.697
10149SOL     OW31345   3.739   3.191   1.940
10149SOL    HW131346   3.760   3.256   2.013
10149SOL    HW231347   3.764   3.231   1.852
10150SOL     OW31348   4.881   3.969   1.433
10150SOL    HW131349   4.870   3.944   1.337
10150SOL    HW231350   4.790   3.983   1.474
10151SOL     OW31351   7.014   0.906   6.111
10151SOL    HW131352   6.931   0.935   6.158
10151SOL    HW231353   0.068   0.918   6.171
10152SOL     OW31354   3.804   6.842   3.052
10152SOL    HW131355   3.796   6.856   2.953
10152SOL    HW231356   3.759   6.918   3.100
10153SOL     OW31357   4.866   3.597   1.712
10153SOL    HW131358   4.892   3.675   1.769
10153SOL    HW231359   4.840   3.629   1.621
10154SOL     OW31360   4.609   5.305   5.324
10154SOL    HW131361   4.575   5.398   5.333
10154SOL    HW231362   4.625   5.266   5.415
10155SOL     OW31363   4.628   2.125   4.264
10155SOL    HW131364   4.659   2.135   4.358
10155SOL    HW231365   4.554   2.190   4.246
10156SOL     OW31366   4.048   1.892   6.233
10156SOL    HW131367   4.012   1.800   6.251
10156SOL    HW231368   4.028   1.951   6.311
10157SOL     OW31369   0.584   4.830   1.022
10157SOL    HW131370   0.626   4.873   0.942
10157SOL    HW231371   0.639   4.752   1.051
10158SOL     OW31372   5.498   5.114   0.372
10158SOL    HW131373   5.566   5.138   0.303
10158SOL    HW231374   5.421   5.068   0.329
10159SOL     OW31375   3.231   3.311   2.457
10159SOL    HW131376   3.228   3.264   2.368
10159SOL    HW231377   3.256   3.407   2.442
10160SOL     OW31378   0.071   4.170   2.456
10160SOL    HW131379   0.171   4.174   2.445
10160SOL    HW231380   0.045   4.221   2.538
10161SOL     OW31381   6.131   3.367   5.849
10161SOL    HW131382   6.163   3.376   5.943
10161SOL    HW231383   6.054   3.429   5.834
10162SOL     OW31384   1.837   2.393   2.449
10162SOL    HW131385   1.884   2.476   2.420
10162SOL    HW231386   1.807   2.403   2.544
10163SOL     OW31387   3.488   4.984   4.707
10163SOL    HW131388   3.411   4.924   4.683
10163SOL    HW231389   3.476   5.017   4.800
10164SOL     OW31390   0.283   1.269   4.009
10164SOL    HW131391   0.224   1.341   3.972
10164SOL    HW231392   0.346   1.310   4.076
10165SOL     OW31393   1.783   3.358   4.351
10165SOL    HW131394   1.828   3.419   4.416
10165SOL    HW231395   1.820   3.265   4.363
10166SOL     OW31396   2.809   5.984   3.105
10166SOL    HW131397   2.890   6.024   3.149
10166SOL    HW231398   2.751   5.942   3.174
10167SOL     OW31399   2.924   2.214   6.391
10167SOL    HW131400   2.929   2.220   6.491
10167SOL    HW231401   2.937   2.119   6.362
10168SOL     OW31402   0.218   0.772   6.283
10168SOL    HW131403   0.266   0.776   6.196
10168SOL    HW231404   0.191   0.864   6.310
10169SOL     OW31405   4.443   5.919   2.849
10169SOL    HW131406   4.465   5.839   2.904
10169SOL    HW231407   4.391   5.984   2.904
10170SOL     OW31408   5.138   6.800   0.515
10170SOL    HW131409   5.223   6.851   0.502
10170SOL    HW231410   5.059   6.860   0.499
10171SOL     OW31411   2.264   4.141   4.260
10171SOL    HW131412   2.227   4.052   4.287
10171SOL    HW231413   2.301   4.134   4.167
10172SOL     OW31414   0.497   0.601   2.693
10172SOL    HW131415   0.453   0.511   2.702
10172SOL    HW231416   0.490   0.650   2.780
10173SOL     OW31417   3.636   3.870   4.942
10173SOL    HW131418   3.604   3.858   5.036
10173SOL    HW231419   3.587   3.808   4.881
10174SOL     OW31420   5.155   4.551   1.251
10174SOL    HW131421   5.148   4.569   1.349
10174SOL    HW231422   5.067   4.568   1.206
10175SOL     OW31423   6.490   0.141   4.208
10175SOL    HW131424   6.563   0.202   4.176
10175SOL    HW231425   6.518   0.046   4.197
10176SOL     OW31426   0.105   0.822   4.724
10176SOL    HW131427   0.010   0.791   4.721
10176SOL    HW231428   0.114   0.906   4.672
10177SOL     OW31429   2.728   1.463   4.078
10177SOL    HW131430   2.777   1.389   4.125
10177SOL    HW231431   2.773   1.482   3.991
10178SOL     OW31432   0.400   1.435   1.441
10178SOL    HW131433   0.335   1.392   1.504
10178SOL    HW231434   0.487   1.449   1.487
10179SOL     OW31435   0.139   6.078   1.139
10179SOL    HW131436   0.216   6.023   1.106
10179SOL    HW231437   0.145   6.170   1.099
10180SOL     OW31438   3.192   6.738   6.413
10180SOL    HW131439   3.215   6.728   6.510
10180SOL    HW231440   3.213   6.653   6.364
10181SOL     OW31441   0.411   3.596   3.295
10181SOL    HW131442   0.321   3.571   3.262
10181SOL    HW231443   0.416   3.695   3.307
10182SOL     OW31444   4.082   0.190   0.442
10182SOL    HW131445   4.162   0.219   0.492
10182SOL    HW231446   4.003   0.186   0.504
10183SOL     OW31447   4.372   6.290   5.735
10183SOL    HW131448   4.308   6.223   5.774
10183SOL    HW231449   4.339   6.319   5.645
10184SOL     OW31450   5.758   2.173   5.527
10184SOL    HW131451   5.662   2.155   5.507
10184SOL    HW231452   5.803   2.088   5.553
10185SOL     OW31453   2.897   4.787   2.417
10185SOL    HW131454   2.856   4.697   2.401
10185SOL    HW231455   2.984   4.775   2.465
10186SOL     OW31456   3.505   2.996   0.259
10186SOL    HW131457   3.595   3.021   0.294
10186SOL    HW231458   3.515   2.950   0.171
10187SOL     OW31459   2.179   3.866   5.519
10187SOL    HW131460   2.210   3.837   5.428
10187SOL    HW231461   2.115   3.942   5.509
10188SOL     OW31462   2.197   6.861   6.962
10188SOL    HW131463   2.113   6.865   6.908
10188SOL    HW231464   2.275   6.855   6.901
10189SOL     OW31465   1.987   1.826   4.795
10189SOL    HW131466   1.974   1.923   4.775
10189SOL    HW231467   2.079   1.811   4.832
10190SOL     OW31468   4.386   4.189   0.954
10190SOL    HW131469   4.302   4.158   0.997
10190SOL    HW231470   4.461   4.182   1.020
10191SOL     OW31471   5.579   0.719   0.395
10191SOL    HW131472   5.628   0.700   0.480
10191SOL    HW231473   5.483   0.735   0.415
10192SOL     OW31474   2.024   0.852   3.901
10192SOL    HW131475   2.117   0.884   3.919
10192SOL    HW231476   2.028   0.767   3.849
10193SOL     OW31477   3.381   3.865   4.110
10193SOL    HW131478   3.480   3.852   4.112
10193SOL    HW231479   3.346   3.874   4.203
10194SOL     OW31480   3.068   6.383   2.809
10194SOL    HW131481   3.126   6.404   2.888
10194SOL    HW231482   3.095   6.295   2.771
10195SOL     OW31483   5.203   0.522   3.257
10195SOL    HW131484   5.178   0.603   3.310
10195SOL    HW231485   5.297   0.532   3.225
10196SOL     OW31486   5.048   4.242   4.415
10196SOL    HW131487   5.060   4.267   4.511
10196SOL    HW231488   4.973   4.177   4.407
10197SOL     OW31489   5.466   1.546   3.230
10197SOL    HW131490   5.482   1.504   3.319
10197SOL    HW231491   5.407   1.626   3.241
10198SOL     OW31492   3.070   1.020   1.696
10198SOL    HW131493   3.098   1.109   1.660
10198SOL    HW231494   2.970   1.015   1.698
10199SOL     OW31495   1.153   2.158   0.418
10199SOL    HW131496   1.157   2.107   0.332
10199SOL    HW231497   1.177   2.253   0.401
10200SOL     OW31498   5.925   6.300   4.818
10200SOL    HW131499   5.920   6.395   4.788
10200SOL    HW231500   5.941   6.241   4.738
10201SOL     OW31501   1.532   4.737   2.921
10201SOL    HW131502   1.507   4.648   2.960
10201SOL    HW231503   1.485   4.749   2.834
10202SOL     OW31504   0.466   1.881   3.455
10202SOL    HW131505   0.500   1.872   3.361
10202SOL    HW231506   0.543   1.873   3.518
10203SOL     OW31507   0.374   2.779   1.347
10203SOL    HW131508   0.451   2.751   1.290
10203SOL    HW231509   0.296   2.718   1.330
10204SOL     OW31510   2.866   5.435   4.775
10204SOL    HW131511   2.790   5.403   4.717
10204SOL    HW231512   2.949   5.385   4.752
10205SOL     OW31513   4.183   0.785   0.967
10205SOL    HW131514   4.211   0.762   1.061
10205SOL    HW231515   4.091   0.749   0.950
10206SOL     OW31516   5.114   6.769   6.569
10206SOL    HW131517   5.061   6.810   6.495
10206SOL    HW231518   5.176   6.699   6.531
10207SOL     OW31519   4.238   1.496   2.828
10207SOL    HW131520   4.270   1.402   2.817
10207SOL    HW231521   4.138   1.499   2.823
10208SOL     OW31522   6.819   3.531   5.526
10208SOL    HW131523   6.826   3.584   5.610
10208SOL    HW231524   6.828   3.433   5.547
10209SOL     OW31525   4.016   6.252   6.810
10209SOL    HW131526   4.041   6.184   6.741
10209SOL    HW231527   3.929   6.226   6.853
10210SOL     OW31528   5.875   5.642   0.402
10210SOL    HW131529   5.916   5.725   0.366
10210SOL    HW231530   5.857   5.578   0.327
10211SOL     OW31531   3.856   5.798   5.289
10211SOL    HW131532   3.942   5.755   5.261
10211SOL    HW231533   3.787   5.783   5.218
10212SOL     OW31534   5.895   6.022   5.921
10212SOL    HW131535   5.985   6.011   5.963
10212SOL    HW231536   5.899   5.994   5.826
10213SOL     OW31537   4.630   1.056   4.478
10213SOL    HW131538   4.534   1.032   4.462
10213SOL    HW231539   4.637   1.106   4.565
10214SOL     OW31540   0.576   0.981   0.451
10214SOL    HW131541   0.648   0.937   0.396
10214SOL    HW231542   0.546   0.918   0.523
10215SOL     OW31543   4.254   2.492   6.948
10215SOL    HW131544   4.314   2.552   7.001
10215SOL    HW231545   4.161   2.498   6.984
10216SOL     OW31546   5.092   0.080   2.779
10216SOL    HW131547   5.028   0.150   2.745
10216SOL    HW231548   5.185   0.104   2.749
10217SOL     OW31549   3.344   2.304   5.803
10217SOL    HW131550   3.319   2.400   5.812
10217SOL    HW231551   3.355   2.281   5.707
10218SOL     OW31552   2.798   2.256   6.899
10218SOL    HW131553   2.885   2.283   6.940
10218SOL    HW231554   2.724   2.267   6.966
10219SOL     OW31555   0.883   5.208   6.876
10219SOL    HW131556   0.797   5.161   6.896
10219SOL    HW231557   0.866   5.305   6.863
10220SOL     OW31558   4.168   2.211   0.248
10220SOL    HW131559   4.203   2.124   0.213
10220SOL    HW231560   4.096   2.193   0.315
10221SOL     OW31561   2.721   0.950   4.454
10221SOL    HW131562   2.704   0.851   4.458
10221SOL    HW231563   2.677   0.994   4.532
10222SOL     OW31564   1.883   4.908   5.594
10222SOL    HW131565   1.795   4.869   5.622
10222SOL    HW231566   1.925   4.955   5.672
10223SOL     OW31567   0.296   4.490   0.269
10223SOL    HW131568   0.266   4.399   0.237
10223SOL    HW231569   0.299   4.491   0.368
10224SOL     OW31570   2.839   0.224   4.555
10224SOL    HW131571   2.879   0.174   4.478
10224SOL    HW231572   2.866   0.320   4.550
10225SOL     OW31573   4.743   6.021   4.658
10225SOL    HW131574   4.738   6.014   4.559
10225SOL    HW231575   4.817   5.964   4.693
10226SOL     OW31576   6.850   3.077   6.644
10226SOL    HW131577   6.823   2.987   6.679
10226SOL    HW231578   6.948   3.090   6.658
10227SOL     OW31579   4.942   4.770   5.478
10227SOL    HW131580   4.996   4.795   5.398
10227SOL    HW231581   4.985   4.806   5.561
10228SOL     OW31582   1.233   3.256   2.108
10228SOL    HW131583   1.143   3.253   2.152
10228SOL    HW231584   1.285   3.173   2.131
10229SOL     OW31585   1.931   0.816   1.330
10229SOL    HW131586   1.963   0.765   1.410
10229SOL    HW231587   2.008   0.859   1.285
10230SOL     OW31588   5.940   6.569   3.535
10230SOL    HW131589   6.010   6.534   3.598
10230SOL    HW231590   5.956   6.666   3.518
10231SOL     OW31591   4.869   7.019   4.409
10231SOL    HW131592   4.911   0.070   4.359
10231SOL    HW231593   4.931   6.989   4.482
10232SOL     OW31594   4.002   1.933   3.831
10232SOL    HW131595   3.933   1.880   3.783
10232SOL    HW231596   3.957   2.002   3.888
10233SOL     OW31597   4.725   0.524   5.874
10233SOL    HW131598   4.727   0.580   5.791
10233SOL    HW231599   4.673   0.572   5.944
10234SOL     OW31600   4.615   5.843   1.192
10234SOL    HW131601   4.676   5.790   1.251
10234SOL    HW231602   4.669   5.894   1.125
10235SOL     OW31603   4.856   1.141   0.123
10235SOL    HW131604   4.761   1.154   0.093
10235SOL    HW231605   4.865   1.052   0.168
10236SOL     OW31606   1.836   6.105   1.731
10236SOL    HW131607   1.856   6.145   1.642
10236SOL    HW231608   1.897   6.145   1.800
10237SOL     OW31609   5.742   2.518   3.562
10237SOL    HW131610   5.700   2.594   3.514
10237SOL    HW231611   5.689   2.496   3.643
10238SOL     OW31612   4.406   6.156   4.776
10238SOL    HW131613   4.481   6.177   4.714
10238SOL    HW231614   4.341   6.094   4.731
10239SOL     OW31615   6.105   3.707   4.546
10239SOL    HW131616   6.125   3.764   4.626
10239SOL    HW231617   6.184   3.709   4.484
10240SOL     OW31618   5.009   3.957   3.626
10240SOL    HW131619   4.928   4.007   3.595
10240SOL    HW231620   5.079   4.022   3.656
10241SOL     OW31621   1.932   1.791   2.959
10241SOL    HW131622   1.873   1.841   3.022
10241SOL    HW231623   1.963   1.852   2.886
10242SOL     OW31624   1.128   5.240   6.017
10242SOL    HW131625   1.098   5.335   6.009
10242SOL    HW231626   1.050   5.179   6.003
10243SOL     OW31627   0.963   6.388   2.786
10243SOL    HW131628   1.013   6.343   2.860
10243SOL    HW231629   0.872   6.348   2.778
10244SOL     OW31630   1.491   5.433   0.428
10244SOL    HW131631   1.485   5.497   0.351
10244SOL    HW231632   1.400   5.414   0.463
10245SOL     OW31633   2.355   2.558   0.011
10245SOL    HW131634   2.270   2.506   0.007
10245SOL    HW231635   2.365   2.601   0.100
10246SOL     OW31636   3.348   3.438   4.052
10246SOL    HW131637   3.401   3.515   4.015
10246SOL    HW231638   3.302   3.390   3.978
10247SOL     OW31639   0.670   6.105   5.025
10247SOL    HW131640   0.725   6.079   4.945
10247SOL    HW231641   0.611   6.029   5.051
10248SOL     OW31642   5.551   1.179   3.155
10248SOL    HW131643   5.640   1.220   3.172
10248SOL    HW231644   5.488   1.202   3.229
10249SOL     OW31645   4.831   1.477   6.541
10249SOL    HW131646   4.898   1.466   6.468
10249SOL    HW231647   4.865   1.433   6.624
10250SOL     OW31648   5.362   6.999   0.512
10250SOL    HW131649   5.393   6.987   0.418
10250SOL    HW231650   5.416   0.046   0.556
10251SOL     OW31651   3.959   4.658   0.827
10251SOL    HW131652   4.042   4.659   0.882
10251SOL    HW231653   3.930   4.564   0.813
10252SOL     OW31654   6.914   4.608   1.294
10252SOL    HW131655   6.871   4.555   1.221
10252SOL    HW231656   6.847   4.627   1.365
10253SOL     OW31657   3.488   4.971   0.483
10253SOL    HW131658   3.491   4.883   0.530
10253SOL    HW231659   3.561   5.029   0.517
10254SOL     OW31660   2.268   1.374   4.614
10254SOL    HW131661   2.181   1.402   4.573
10254SOL    HW231662   2.281   1.276   4.602
10255SOL     OW31663   3.157   5.509   2.768
10255SOL    HW131664   3.220   5.561   2.826
10255SOL    HW231665   3.160   5.546   2.675
10256SOL     OW31666   6.028   6.320   6.691
10256SOL    HW131667   6.111   6.356   6.649
10256SOL    HW231668   5.957   6.308   6.622
10257SOL     OW31669   1.715   5.844   5.464
10257SOL    HW131670   1.784   5.773   5.475
10257SOL    HW231671   1.667   5.831   5.378
10258SOL     OW31672   4.126   0.871   3.554
10258SOL    HW131673   4.175   0.958   3.564
10258SOL    HW231674   4.040   0.876   3.604
10259SOL     OW31675   0.789   3.475   3.999
10259SOL    HW131676   0.760   3.381   4.017
10259SOL    HW231677   0.869   3.497   4.055
10260SOL     OW31678   6.913   6.191   2.072
10260SOL    HW131679   6.997   6.142   2.095
10260SOL    HW231680   6.886   6.170   1.978
10261SOL     OW31681   1.857   0.419   1.868
10261SOL    HW131682   1.919   0.496   1.851
10261SOL    HW231683   1.910   0.340   1.900
10262SOL     OW31684   1.159   5.671   4.000
10262SOL    HW131685   1.149   5.763   3.963
10262SOL    HW231686   1.092   5.657   4.073
10263SOL     OW31687   6.934   2.746   5.409
10263SOL    HW131688   7.021   2.793   5.425
10263SOL    HW231689   6.911   2.751   5.311
10264SOL     OW31690   0.444   6.620   0.104
10264SOL    HW131691   0.431   6.693   0.036
10264SOL    HW231692   0.541   6.614   0.127
10265SOL     OW31693   4.421   2.083   2.430
10265SOL    HW131694   4.338   2.048   2.472
10265SOL    HW231695   4.414   2.076   2.331
10266SOL     OW31696   4.081   3.496   6.718
10266SOL    HW131697   4.097   3.496   6.816
10266SOL    HW231698   3.989   3.462   6.698
10267SOL     OW31699   6.626   1.576   6.523
10267SOL    HW131700   6.708   1.538   6.566
10267SOL    HW231701   6.579   1.504   6.472
10268SOL     OW31702   6.329   4.364   1.009
10268SOL    HW131703   6.343   4.353   0.910
10268SOL    HW231704   6.414   4.341   1.057
10269SOL     OW31705   3.191   1.758   6.083
10269SOL    HW131706   3.134   1.734   6.163
10269SOL    HW231707   3.165   1.700   6.006
10270SOL     OW31708   3.047   6.570   1.916
10270SOL    HW131709   3.003   6.557   2.005
10270SOL    HW231710   3.123   6.506   1.907
10271SOL     OW31711   2.876   5.431   1.159
10271SOL    HW131712   2.778   5.440   1.179
10271SOL    HW231713   2.898   5.334   1.147
10272SOL     OW31714   1.949   2.107   4.164
10272SOL    HW131715   1.928   2.036   4.097
10272SOL    HW231716   1.869   2.164   4.179
10273SOL     OW31717   3.955   0.245   4.322
10273SOL    HW131718   3.917   0.174   4.263
10273SOL    HW231719   3.935   0.223   4.418
10274SOL     OW31720   2.954   4.965   6.553
10274SOL    HW131721   3.046   5.001   6.567
10274SOL    HW231722   2.896   4.989   6.631
10275SOL     OW31723   0.852   6.832   1.670
10275SOL    HW131724   0.904   6.843   1.585
10275SOL    HW231725   0.900   6.768   1.730
10276SOL     OW31726   0.442   5.808   6.799
10276SOL    HW131727   0.410   5.736   6.738
10276SOL    HW231728   0.434   5.896   6.753
10277SOL     OW31729   0.664   6.052   1.975
10277SOL    HW131730   0.580   5.999   1.987
10277SOL    HW231731   0.730   6.027   2.046
10278SOL     OW31732   6.456   0.043   5.622
10278SOL    HW131733   6.529   0.058   5.688
10278SOL    HW231734   6.420   6.975   5.632
10279SOL     OW31735   4.118   6.270   4.867
10279SOL    HW131736   4.153   6.179   4.845
10279SOL    HW231737   4.116   6.326   4.785
10280SOL     OW31738   3.390   2.772   6.737
10280SOL    HW131739   3.380   2.770   6.638
10280SOL    HW231740   3.360   2.684   6.775
10281SOL     OW31741   4.179   0.402   4.271
10281SOL    HW131742   4.107   0.335   4.290
10281SOL    HW231743   4.267   0.355   4.265
10282SOL     OW31744   1.146   2.857   4.581
10282SOL    HW131745   1.193   2.776   4.545
10282SOL    HW231746   1.101   2.834   4.667
10283SOL     OW31747   1.819   3.980   6.283
10283SOL    HW131748   1.759   3.950   6.356
10283SOL    HW231749   1.787   4.069   6.248
10284SOL     OW31750   4.773   2.898   0.120
10284SOL    HW131751   4.773   2.998   0.108
10284SOL    HW231752   4.866   2.864   0.110
10285SOL     OW31753   5.474   0.732   0.820
10285SOL    HW131754   5.435   0.736   0.912
10285SOL    HW231755   5.544   0.803   0.811
10286SOL     OW31756   4.493   1.182   3.976
10286SOL    HW131757   4.507   1.272   4.018
10286SOL    HW231758   4.499   1.112   4.047
10287SOL     OW31759   1.121   4.422   2.143
10287SOL    HW131760   1.176   4.344   2.171
10287SOL    HW231761   1.111   4.485   2.219
10288SOL     OW31762   4.605   6.241   4.593
10288SOL    HW131763   4.658   6.162   4.624
10288SOL    HW231764   4.642   6.274   4.507
10289SOL     OW31765   2.685   1.412   1.287
10289SOL    HW131766   2.601   1.446   1.330
10289SOL    HW231767   2.720   1.482   1.225
10290SOL     OW31768   2.970   3.448   2.075
10290SOL    HW131769   3.068   3.431   2.060
10290SOL    HW231770   2.934   3.502   1.999
10291SOL     OW31771   3.943   0.555   5.523
10291SOL    HW131772   3.890   0.639   5.528
10291SOL    HW231773   3.984   0.536   5.613
10292SOL     OW31774   0.547   1.990   4.899
10292SOL    HW131775   0.515   1.931   4.974
10292SOL    HW231776   0.646   1.981   4.889
10293SOL     OW31777   2.986   5.551   3.278
10293SOL    HW131778   3.014   5.637   3.321
10293SOL    HW231779   2.893   5.528   3.306
10294SOL     OW31780   6.793   1.658   2.743
10294SOL    HW131781   6.762   1.563   2.738
10294SOL    HW231782   6.822   1.678   2.836
10295SOL     OW31783   1.886   4.195   4.308
10295SOL    HW131784   1.915   4.291   4.300
10295SOL    HW231785   1.907   4.163   4.401
10296SOL     OW31786   6.688   3.023   1.714
10296SOL    HW131787   6.681   3.121   1.727
10296SOL    HW231788   6.609   2.977   1.754
10297SOL     OW31789   3.093   5.315   4.671
10297SOL    HW131790   3.158   5.355   4.736
10297SOL    HW231791   3.134   5.312   4.580
10298SOL     OW31792   5.845   3.159   3.084
10298SOL    HW131793   5.808   3.238   3.033
10298SOL    HW231794   5.931   3.185   3.127
10299SOL     OW31795   4.910   3.847   1.900
10299SOL    HW131796   4.901   3.782   1.975
10299SOL    HW231797   4.992   3.904   1.915
10300SOL     OW31798   1.213   5.289   1.541
10300SOL    HW131799   1.186   5.332   1.455
10300SOL    HW231800   1.203   5.190   1.534
10301SOL     OW31801   4.359   1.389   1.594
10301SOL    HW131802   4.425   1.453   1.631
10301SOL    HW231803   4.294   1.438   1.536
10302SOL     OW31804   1.993   4.460   4.325
10302SOL    HW131805   2.089   4.442   4.304
10302SOL    HW231806   1.985   4.546   4.376
10303SOL     OW31807   4.009   2.693   1.415
10303SOL    HW131808   3.925   2.650   1.449
10303SOL    HW231809   4.039   2.646   1.332
10304SOL     OW31810   6.022   6.466   3.857
10304SOL    HW131811   6.077   6.391   3.892
10304SOL    HW231812   6.078   6.549   3.852
10305SOL     OW31813   1.519   5.472   1.036
10305SOL    HW131814   1.561   5.509   0.953
10305SOL    HW231815   1.502   5.375   1.024
10306SOL     OW31816   4.179   4.350   0.773
10306SOL    HW131817   4.219   4.380   0.860
10306SOL    HW231818   4.223   4.264   0.744
10307SOL     OW31819   2.152   1.547   5.237
10307SOL    HW131820   2.166   1.486   5.314
10307SOL    HW231821   2.061   1.589   5.243
10308SOL     OW31822   2.867   5.673   3.799
10308SOL    HW131823   2.960   5.672   3.835
10308SOL    HW231824   2.812   5.603   3.846
10309SOL     OW31825   0.073   6.096   3.698
10309SOL    HW131826   0.058   6.154   3.619
10309SOL    HW231827   7.015   6.093   3.753
10310SOL     OW31828   3.510   2.902   4.589
10310SOL    HW131829   3.569   2.920   4.510
10310SOL    HW231830   3.567   2.883   4.669
10311SOL     OW31831   0.348   6.660   0.719
10311SOL    HW131832   0.291   6.694   0.794
10311SOL    HW231833   0.389   6.738   0.672
10312SOL     OW31834   2.253   4.760   1.036
10312SOL    HW131835   2.182   4.795   0.975
10312SOL    HW231836   2.224   4.671   1.072
10313SOL     OW31837   6.493   5.393   3.804
10313SOL    HW131838   6.507   5.433   3.714
10313SOL    HW231839   6.556   5.435   3.869
10314SOL     OW31840   6.286   5.405   5.106
10314SOL    HW131841   6.229   5.340   5.157
10314SOL    HW231842   6.289   5.377   5.010
10315SOL     OW31843   4.826   0.017   5.587
10315SOL    HW131844   4.776   7.015   5.669
10315SOL    HW231845   4.771   0.081   5.534
10316SOL     OW31846   0.035   3.831   2.648
10316SOL    HW131847   0.052   3.794   2.739
10316SOL    HW231848   0.102   3.903   2.629
10317SOL     OW31849   4.886   4.541   0.127
10317SOL    HW131850   4.843   4.513   0.041
10317SOL    HW231851   4.904   4.460   0.183
10318SOL     OW31852   6.484   5.559   2.686
10318SOL    HW131853   6.425   5.526   2.759
10318SOL    HW231854   6.461   5.654   2.665
10319SOL     OW31855   5.565   6.493   4.819
10319SOL    HW131856   5.561   6.410   4.875
10319SOL    HW231857   5.548   6.470   4.724
10320SOL     OW31858   4.329   5.750   1.896
10320SOL    HW131859   4.309   5.844   1.869
10320SOL    HW231860   4.286   5.686   1.831
10321SOL     OW31861   3.981   0.297   3.988
10321SOL    HW131862   4.065   0.345   3.964
10321SOL    HW231863   3.968   0.301   4.088
10322SOL     OW31864   0.618   2.591   6.773
10322SOL    HW131865   0.709   2.624   6.747
10322SOL    HW231866   0.611   2.493   6.751
10323SOL     OW31867   0.837   2.298   5.762
10323SOL    HW131868   0.789   2.252   5.688
10323SOL    HW231869   0.932   2.266   5.766
10324SOL     OW31870   3.775   2.930   4.448
10324SOL    HW131871   3.838   2.987   4.395
10324SOL    HW231872   3.767   2.840   4.405
10325SOL     OW31873   0.094   4.166   2.833
10325SOL    HW131874   0.069   4.227   2.908
10325SOL    HW231875   0.095   4.217   2.747
10326SOL     OW31876   5.390   1.798   1.415
10326SOL    HW131877   5.422   1.876   1.362
10326SOL    HW231878   5.317   1.828   1.477
10327SOL     OW31879   6.522   1.242   3.117
10327SOL    HW131880   6.481   1.175   3.055
10327SOL    HW231881   6.451   1.305   3.149
10328SOL     OW31882   6.195   3.780   2.658
10328SOL    HW131883   6.111   3.763   2.709
10328SOL    HW231884   6.244   3.694   2.644
10329SOL     OW31885   3.480   6.150   2.731
10329SOL    HW131886   3.504   6.227   2.673
10329SOL    HW231887   3.528   6.158   2.818
10330SOL     OW31888   3.130   3.998   1.138
10330SOL    HW131889   3.094   3.993   1.045
10330SOL    HW231890   3.208   3.937   1.147
10331SOL     OW31891   5.407   0.917   4.435
10331SOL    HW131892   5.317   0.887   4.466
10331SOL    HW231893   5.398   0.970   4.351
10332SOL     OW31894   0.542   1.210   6.415
10332SOL    HW131895   0.633   1.184   6.447
10332SOL    HW231896   0.478   1.204   6.492
10333SOL     OW31897   6.314   4.628   5.658
10333SOL    HW131898   6.347   4.653   5.567
10333SOL    HW231899   6.217   4.607   5.653
10334SOL     OW31900   1.034   4.774   5.138
10334SOL    HW131901   1.123   4.821   5.129
10334SOL    HW231902   1.048   4.685   5.181
10335SOL     OW31903   3.250   5.097   2.135
10335SOL    HW131904   3.242   5.019   2.073
10335SOL    HW231905   3.333   5.149   2.113
10336SOL     OW31906   5.106   6.851   2.627
10336SOL    HW131907   5.064   6.787   2.563
10336SOL    HW231908   5.051   6.934   2.633
10337SOL     OW31909   0.397   4.732   5.713
10337SOL    HW131910   0.358   4.685   5.634
10337SOL    HW231911   0.337   4.808   5.739
10338SOL     OW31912   2.787   5.003   2.554
10338SOL    HW131913   2.812   5.100   2.560
10338SOL    HW231914   2.845   4.958   2.486
10339SOL     OW31915   2.981   5.809   0.871
10339SOL    HW131916   2.961   5.848   0.961
10339SOL    HW231917   2.915   5.737   0.851
10340SOL     OW31918   1.643   6.225   0.310
10340SOL    HW131919   1.734   6.266   0.300
10340SOL    HW231920   1.621   6.174   0.226
10341SOL     OW31921   0.916   2.354   2.182
10341SOL    HW131922   0.873   2.294   2.115
10341SOL    HW231923   0.846   2.387   2.246
10342SOL     OW31924   3.677   6.542   3.845
10342SOL    HW131925   3.667   6.454   3.798
10342SOL    HW231926   3.590   6.590   3.846
10343SOL     OW31927   2.414   2.616   4.181
10343SOL    HW131928   2.490   2.551   4.177
10343SOL    HW231929   2.429   2.680   4.256
10344SOL     OW31930   4.350   3.558   1.761
10344SOL    HW131931   4.291   3.499   1.817
10344SOL    HW231932   4.440   3.515   1.751
10345SOL     OW31933   2.839   2.313   5.771
10345SOL    HW131934   2.811   2.271   5.684
10345SOL    HW231935   2.927   2.276   5.799
10346SOL     OW31936   6.140   5.373   0.626
10346SOL    HW131937   6.148   5.436   0.703
10346SOL    HW231938   6.145   5.424   0.540
10347SOL     OW31939   4.509   0.495   1.410
10347SOL    HW131940   4.499   0.438   1.491
10347SOL    HW231941   4.483   0.589   1.432
10348SOL     OW31942   6.871   4.907   5.689
10348SOL    HW131943   6.800   4.838   5.701
10348SOL    HW231944   6.908   4.932   5.778
10349SOL     OW31945   6.692   2.197   0.234
10349SOL    HW131946   6.708   2.258   0.311
10349SOL    HW231947   6.593   2.192   0.216
10350SOL     OW31948   2.229   4.740   4.907
10350SOL    HW131949   2.254   4.643   4.900
10350SOL    HW231950   2.273   4.779   4.988
10351SOL     OW31951   4.022   4.896   4.758
10351SOL    HW131952   4.098   4.960   4.771
10351SOL    HW231953   3.977   4.880   4.845
10352SOL     OW31954   6.664   0.887   6.943
10352SOL    HW131955   6.728   0.818   6.910
10352SOL    HW231956   6.687   0.976   6.903
10353SOL     OW31957   6.432   2.402   3.922
10353SOL    HW131958   6.431   2.363   3.830
10353SOL    HW231959   6.467   2.334   3.987
10354SOL     OW31960   6.146   2.583   1.446
10354SOL    HW131961   6.244   2.597   1.455
10354SOL    HW231962   6.103   2.669   1.417
10355SOL     OW31963   0.499   1.635   0.773
10355SOL    HW131964   0.591   1.606   0.800
10355SOL    HW231965   0.453   1.560   0.726
10356SOL     OW31966   5.272   2.105   6.447
10356SOL    HW131967   5.235   2.038   6.511
10356SOL    HW231968   5.235   2.196   6.468
10357SOL     OW31969   1.285   7.024   6.257
10357SOL    HW131970   1.305   6.931   6.226
10357SOL    HW231971   1.369   0.040   6.293
10358SOL     OW31972   0.166   2.528   2.890
10358SOL    HW131973   0.104   2.549   2.966
10358SOL    HW231974   0.228   2.454   2.917
10359SOL     OW31975   0.635   1.973   2.047
10359SOL    HW131976   0.612   2.029   2.126
10359SOL    HW231977   0.704   1.906   2.072
10360SOL     OW31978   6.001   3.973   1.117
10360SOL    HW131979   6.029   3.882   1.149
10360SOL    HW231980   5.993   4.034   1.196
10361SOL     OW31981   6.320   1.803   2.136
10361SOL    HW131982   6.323   1.852   2.224
10361SOL    HW231983   6.233   1.756   2.127
10362SOL     OW31984   1.306   5.623   1.797
10362SOL    HW131985   1.271   5.589   1.885
10362SOL    HW231986   1.317   5.546   1.734
10363SOL     OW31987   5.553   5.067   6.818
10363SOL    HW131988   5.505   5.014   6.888
10363SOL    HW231989   5.486   5.111   6.757
10364SOL     OW31990   5.402   5.456   2.802
10364SOL    HW131991   5.311   5.441   2.839
10364SOL    HW231992   5.468   5.466   2.877
10365SOL     OW31993   6.264   5.589   0.200
10365SOL    HW131994   6.335   5.651   0.232
10365SOL    HW231995   6.222   5.626   0.117
10366SOL     OW31996   3.021   6.469   4.257
10366SOL    HW131997   3.100   6.527   4.235
10366SOL    HW231998   3.045   6.373   4.243
10367SOL     OW31999   5.402   6.520   2.143
10367SOL    HW132000   5.407   6.498   2.045
10367SOL    HW232001   5.460   6.598   2.163
10368SOL     OW32002   1.308   5.323   1.878
10368SOL    HW132003   1.224   5.358   1.835
10368SOL    HW232004   1.301   5.334   1.977
10369SOL     OW32005   2.572   0.198   5.849
10369SOL    HW132006   2.511   0.167   5.922
10369SOL    HW232007   2.522   0.260   5.789
10370SOL     OW32008   2.029   1.666   5.690
10370SOL    HW132009   1.976   1.615   5.623
10370SOL    HW232010   2.032   1.615   5.776
10371SOL     OW32011   4.206   5.733   2.580
10371SOL    HW132012   4.192   5.696   2.672
10371SOL    HW232013   4.301   5.718   2.552
10372SOL     OW32014   2.416   6.629   1.121
10372SOL    HW132015   2.505   6.673   1.130
10372SOL    HW232016   2.410   6.553   1.185
10373SOL     OW32017   6.036   1.196   6.680
10373SOL    HW132018   5.995   1.253   6.751
10373SOL    HW232019   6.135   1.193   6.694
10374SOL     OW32020   2.941   5.153   3.302
10374SOL    HW132021   2.920   5.055   3.307
10374SOL    HW232022   2.929   5.185   3.207
10375SOL     OW32023   2.269   5.629   0.933
10375SOL    HW132024   2.293   5.539   0.970
10375SOL    HW232025   2.348   5.669   0.888
10376SOL     OW32026   2.393   4.944   3.545
10376SOL    HW132027   2.411   5.037   3.577
10376SOL    HW232028   2.478   4.904   3.511
10377SOL     OW32029   2.075   0.971   2.062
10377SOL    HW132030   2.053   0.877   2.087
10377SOL    HW232031   2.092   0.977   1.964
10378SOL     OW32032   0.476   6.180   4.668
10378SOL    HW132033   0.441   6.224   4.585
10378SOL    HW232034   0.434   6.089   4.677
10379SOL     OW32035   2.351   0.198   3.782
10379SOL    HW132036   2.284   0.124   3.773
10379SOL    HW232037   2.370   0.237   3.692
10380SOL     OW32038   3.469   1.767   4.137
10380SOL    HW132039   3.562   1.734   4.117
10380SOL    HW232040   3.443   1.836   4.070
10381SOL     OW32041   4.031   6.575   2.638
10381SOL    HW132042   4.018   6.625   2.552
10381SOL    HW232043   3.952   6.590   2.698
10382SOL     OW32044   4.178   5.587   1.726
10382SOL    HW132045   4.222   5.510   1.680
10382SOL    HW232046   4.098   5.554   1.777
10383SOL     OW32047   0.883   4.860   7.015
10383SOL    HW132048   0.870   4.822   0.081
10383SOL    HW232049   0.807   4.921   6.993
10384SOL     OW32050   5.370   5.600   1.403
10384SOL    HW132051   5.392   5.556   1.316
10384SOL    HW232052   5.273   5.586   1.424
10385SOL     OW32053   4.602   4.402   0.670
10385SOL    HW132054   4.570   4.419   0.577
10385SOL    HW232055   4.610   4.304   0.686
10386SOL     OW32056   0.337   0.656   1.303
10386SOL    HW132057   0.318   0.563   1.270
10386SOL    HW232058   0.423   0.688   1.263
10387SOL     OW32059   5.136   3.240   2.289
10387SOL    HW132060   5.170   3.189   2.368
10387SOL    HW232061   5.112   3.333   2.317
10388SOL     OW32062   1.766   6.809   4.932
10388SOL    HW132063   1.756   6.852   4.842
10388SOL    HW232064   1.732   6.872   5.002
10389SOL     OW32065   0.949   3.836   6.960
10389SOL    HW132066   0.993   3.800   6.877
10389SOL    HW232067   0.868   3.888   6.935
10390SOL     OW32068   2.392   2.612   1.918
10390SOL    HW132069   2.422   2.704   1.891
10390SOL    HW232070   2.380   2.556   1.836
10391SOL     OW32071   5.856   6.623   4.203
10391SOL    HW132072   5.865   6.652   4.298
10391SOL    HW232073   5.910   6.540   4.188
10392SOL     OW32074   6.550   3.961   4.498
10392SOL    HW132075   6.471   3.900   4.508
10392SOL    HW232076   6.543   4.010   4.412
10393SOL     OW32077   1.619   2.926   3.096
10393SOL    HW132078   1.566   2.878   3.026
10393SOL    HW232079   1.685   2.864   3.137
10394SOL     OW32080   3.129   0.321   4.191
10394SOL    HW132081   3.153   0.320   4.288
10394SOL    HW232082   3.102   0.414   4.164
10395SOL     OW32083   1.105   0.062   0.556
10395SOL    HW132084   1.182   0.121   0.579
10395SOL    HW232085   1.029   0.119   0.522
10396SOL     OW32086   3.362   2.098   4.997
10396SOL    HW132087   3.294   2.168   5.014
10396SOL    HW232088   3.377   2.090   4.899
10397SOL     OW32089   5.097   1.979   4.091
10397SOL    HW132090   5.047   1.972   4.177
10397SOL    HW232091   5.031   1.991   4.016
10398SOL     OW32092   5.858   2.661   2.302
10398SOL    HW132093   5.769   2.663   2.256
10398SOL    HW232094   5.931   2.670   2.233
10399SOL     OW32095   0.933   3.964   1.941
10399SOL    HW132096   1.032   3.958   1.933
10399SOL    HW232097   0.897   3.878   1.977
10400SOL     OW32098   2.206   6.327   0.824
10400SOL    HW132099   2.277   6.383   0.783
10400SOL    HW232100   2.166   6.375   0.902
10401SOL     OW32101   0.594   0.813   5.605
10401SOL    HW132102   0.628   0.894   5.654
10401SOL    HW232103   0.646   0.733   5.634
10402SOL     OW32104   0.057   2.986   5.065
10402SOL    HW132105   0.036   3.046   5.143
10402SOL    HW232106   0.025   2.894   5.085
10403SOL     OW32107   3.412   7.013   0.751
10403SOL    HW132108   3.373   6.963   0.674
10403SOL    HW232109   3.350   0.061   0.779
10404SOL     OW32110   6.725   6.521   6.361
10404SOL    HW132111   6.804   6.555   6.310
10404SOL    HW232112   6.756   6.466   6.438
10405SOL     OW32113   0.730   2.389   6.487
10405SOL    HW132114   0.675   2.430   6.415
10405SOL    HW232115   0.670   2.360   6.562
10406SOL     OW32116   1.835   4.945   1.536
10406SOL    HW132117   1.898   5.018   1.564
10406SOL    HW232118   1.883   4.881   1.475
10407SOL     OW32119   2.083   6.146   5.918
10407SOL    HW132120   2.124   6.158   5.827
10407SOL    HW232121   2.099   6.053   5.950
10408SOL     OW32122   3.957   1.234   0.328
10408SOL    HW132123   3.946   1.176   0.247
10408SOL    HW232124   3.984   1.326   0.300
10409SOL     OW32125   5.802   4.933   1.245
10409SOL    HW132126   5.716   4.884   1.251
10409SOL    HW232127   5.865   4.884   1.185
10410SOL     OW32128   5.058   0.564   0.976
10410SOL    HW132129   5.105   0.592   1.059
10410SOL    HW232130   5.111   0.593   0.896
10411SOL     OW32131   2.599   5.257   3.952
10411SOL    HW132132   2.698   5.241   3.956
10411SOL    HW232133   2.554   5.202   4.022
10412SOL     OW32134   5.822   0.272   0.611
10412SOL    HW132135   5.911   0.230   0.592
10412SOL    HW232136   5.832   0.343   0.681
10413SOL     OW32137   0.072   2.802   2.062
10413SOL    HW132138   0.133   2.725   2.082
10413SOL    HW232139   0.069   2.818   1.963
10414SOL     OW32140   5.235   2.789   4.226
10414SOL    HW132141   5.248   2.885   4.251
10414SOL    HW232142   5.248   2.731   4.307
10415SOL     OW32143   7.016   0.222   6.199
10415SOL    HW132144   7.000   0.228   6.101
10415SOL    HW232145   7.021   0.314   6.238
10416SOL     OW32146   5.394   3.450   4.797
10416SOL    HW132147   5.433   3.377   4.741
10416SOL    HW232148   5.310   3.418   4.841
10417SOL     OW32149   2.614   4.859   3.122
10417SOL    HW132150   2.569   4.865   3.033
10417SOL    HW232151   2.599   4.767   3.160
10418SOL     OW32152   1.310   5.082   6.126
10418SOL    HW132153   1.375   5.139   6.177
10418SOL    HW232154   1.233   5.139   6.097
10419SOL     OW32155   1.080   1.374   0.973
10419SOL    HW132156   1.013   1.447   0.962
10419SOL    HW232157   1.163   1.410   1.015
10420SOL     OW32158   0.499   3.301   3.650
10420SOL    HW132159   0.438   3.288   3.572
10420SOL    HW232160   0.540   3.392   3.646
10421SOL     OW32161   0.393   1.032   3.493
10421SOL    HW132162   0.409   1.014   3.590
10421SOL    HW232163   0.420   1.126   3.472
10422SOL     OW32164   5.750   3.286   6.039
10422SOL    HW132165   5.739   3.384   6.022
10422SOL    HW232166   5.783   3.241   5.955
10423SOL     OW32167   5.021   4.420   2.871
10423SOL    HW132168   5.046   4.325   2.849
10423SOL    HW232169   4.934   4.442   2.828
10424SOL     OW32170   4.681   2.181   6.195
10424SOL    HW132171   4.584   2.169   6.172
10424SOL    HW232172   4.716   2.263   6.149
10425SOL     OW32173   1.998   6.445   1.810
10425SOL    HW132174   2.081   6.494   1.784
10425SOL    HW232175   2.022   6.359   1.855
10426SOL     OW32176   6.404   3.508   0.001
10426SOL    HW132177   6.460   3.473   0.076
10426SOL    HW232178   6.447   3.485   6.938
10427SOL     OW32179   4.762   1.491   0.893
10427SOL    HW132180   4.773   1.450   0.803
10427SOL    HW232181   4.742   1.420   0.960
10428SOL     OW32182   4.364   1.366   4.803
10428SOL    HW132183   4.328   1.440   4.747
10428SOL    HW232184   4.439   1.321   4.754
10429SOL     OW32185   6.280   6.756   2.295
10429SOL    HW132186   6.198   6.761   2.237
10429SOL    HW232187   6.324   6.845   2.298
10430SOL     OW32188   4.011   6.555   3.082
10430SOL    HW132189   3.976   6.463   3.098
10430SOL    HW232190   3.990   6.613   3.161
10431SOL     OW32191   2.270   1.218   5.169
10431SOL    HW132192   2.287   1.317   5.177
10431SOL    HW232193   2.172   1.200   5.168
10432SOL     OW32194   5.402   1.170   5.367
10432SOL    HW132195   5.357   1.109   5.432
10432SOL    HW232196   5.476   1.219   5.413
10433SOL     OW32197   2.856   6.496   1.093
10433SOL    HW132198   2.768   6.451   1.112
10433SOL    HW232199   2.854   6.534   1.001
10434SOL     OW32200   2.797   1.920   4.127
10434SOL    HW132201   2.889   1.923   4.089
10434SOL    HW232202   2.798   1.870   4.213
10435SOL     OW32203   5.177   6.252   6.990
10435SOL    HW132204   5.113   6.177   7.008
10435SOL    HW232205   5.242   6.223   6.919
10436SOL     OW32206   1.105   6.794   2.383
10436SOL    HW132207   1.035   6.722   2.382
10436SOL    HW232208   1.195   6.752   2.394
10437SOL     OW32209   6.477   5.096   5.874
10437SOL    HW132210   6.485   5.176   5.814
10437SOL    HW232211   6.444   5.018   5.820
10438SOL     OW32212   3.440   6.251   6.277
10438SOL    HW132213   3.402   6.164   6.308
10438SOL    HW232214   3.365   6.316   6.261
10439SOL     OW32215   4.008   0.482   5.799
10439SOL    HW132216   3.909   0.465   5.806
10439SOL    HW232217   4.054   0.399   5.768
10440SOL     OW32218   2.532   5.872   0.318
10440SOL    HW132219   2.472   5.828   0.385
10440SOL    HW232220   2.613   5.908   0.364
10441SOL     OW32221   3.635   0.684   6.744
10441SOL    HW132222   3.698   0.703   6.820
10441SOL    HW232223   3.674   0.611   6.687
10442SOL     OW32224   4.478   5.472   5.887
10442SOL    HW132225   4.394   5.475   5.833
10442SOL    HW232226   4.524   5.561   5.881
10443SOL     OW32227   6.249   2.831   5.237
10443SOL    HW132228   6.233   2.745   5.189
10443SOL    HW232229   6.173   2.893   5.220
10444SOL     OW32230   3.784   4.973   3.765
10444SOL    HW132231   3.835   4.944   3.846
10444SOL    HW232232   3.686   4.961   3.781
10445SOL     OW32233   6.190   6.016   4.093
10445SOL    HW132234   6.132   5.935   4.090
10445SOL    HW232235   6.275   5.998   4.043
10446SOL     OW32236   1.086   5.822   6.337
10446SOL    HW132237   1.059   5.727   6.332
10446SOL    HW232238   1.005   5.881   6.338
10447SOL     OW32239   5.990   2.111   1.426
10447SOL    HW132240   6.078   2.097   1.381
10447SOL    HW232241   5.969   2.033   1.484
10448SOL     OW32242   3.306   3.974   2.090
10448SOL    HW132243   3.209   3.957   2.075
10448SOL    HW232244   3.360   3.902   2.047
10449SOL     OW32245   1.639   4.958   4.320
10449SOL    HW132246   1.593   4.882   4.273
10449SOL    HW232247   1.655   4.933   4.415
10450SOL     OW32248   0.033   3.128   0.992
10450SOL    HW132249   0.119   3.078   0.981
10450SOL    HW232250   6.991   3.070   1.038
10451SOL     OW32251   2.291   4.192   2.839
10451SOL    HW132252   2.257   4.280   2.806
10451SOL    HW232253   2.382   4.175   2.801
10452SOL     OW32254   1.202   4.013   5.205
10452SOL    HW132255   1.273   3.948   5.177
10452SOL    HW232256   1.226   4.051   5.294
10453SOL     OW32257   5.418   0.270   1.914
10453SOL    HW132258   5.515   0.264   1.891
10453SOL    HW232259   5.408   0.321   2.000
10454SOL     OW32260   4.904   3.424   2.571
10454SOL    HW132261   4.931   3.419   2.667
10454SOL    HW232262   4.888   3.332   2.536
10455SOL     OW32263   6.488   4.305   2.620
10455SOL    HW132264   6.468   4.398   2.650
10455SOL    HW232265   6.404   4.263   2.585
10456SOL     OW32266   4.016   6.377   1.032
10456SOL    HW132267   4.014   6.301   0.967
10456SOL    HW232268   3.946   6.362   1.103
10457SOL     OW32269   3.700   3.746   4.468
10457SOL    HW132270   3.727   3.838   4.497
10457SOL    HW232271   3.744   3.678   4.526
10458SOL     OW32272   6.824   6.698   1.691
10458SOL    HW132273   6.893   6.626   1.677
10458SOL    HW232274   6.870   6.783   1.716
10459SOL     OW32275   6.721   5.026   2.465
10459SOL    HW132276   6.742   4.993   2.373
10459SOL    HW232277   6.708   5.125   2.463
10460SOL     OW32278   2.088   5.447   1.993
10460SOL    HW132279   2.040   5.384   1.932
10460SOL    HW232280   2.063   5.541   1.970
10461SOL     OW32281   2.348   1.530   6.032
10461SOL    HW132282   2.265   1.528   5.976
10461SOL    HW232283   2.403   1.610   6.009
10462SOL     OW32284   5.758   6.748   1.249
10462SOL    HW132285   5.696   6.824   1.268
10462SOL    HW232286   5.747   6.677   1.318
10463SOL     OW32287   2.821   3.988   1.609
10463SOL    HW132288   2.884   4.021   1.679
10463SOL    HW232289   2.857   3.904   1.568
10464SOL     OW32290   5.423   0.341   1.663
10464SOL    HW132291   5.403   0.315   1.758
10464SOL    HW232292   5.499   0.407   1.662
10465SOL     OW32293   6.760   5.349   4.829
10465SOL    HW132294   6.827   5.422   4.824
10465SOL    HW232295   6.775   5.296   4.913
10466SOL     OW32296   5.241   6.184   6.123
10466SOL    HW132297   5.212   6.257   6.185
10466SOL    HW232298   5.241   6.097   6.172
10467SOL     OW32299   4.232   0.968   3.961
10467SOL    HW132300   4.204   0.872   3.958
10467SOL    HW232301   4.325   0.974   3.997
10468SOL     OW32302   3.361   5.659   2.906
10468SOL    HW132303   3.382   5.587   2.973
10468SOL    HW232304   3.432   5.659   2.835
10469SOL     OW32305   1.858   4.806   0.040
10469SOL    HW132306   1.951   4.824   0.072
10469SOL    HW232307   1.860   4.777   6.970
10470SOL     OW32308   2.515   1.601   4.162
10470SOL    HW132309   2.531   1.679   4.223
10470SOL    HW232310   2.603   1.561   4.137
10471SOL     OW32311   4.594   3.672   0.528
10471SOL    HW132312   4.645   3.619   0.595
10471SOL    HW232313   4.510   3.707   0.571
10472SOL     OW32314   4.900   1.631   3.103
10472SOL    HW132315   4.905   1.671   3.012
10472SOL    HW232316   4.892   1.704   3.171
10473SOL     OW32317   4.888   5.523   0.587
10473SOL    HW132318   4.832   5.440   0.588
10473SOL    HW232319   4.926   5.537   0.495
10474SOL     OW32320   4.658   0.377   4.351
10474SOL    HW132321   4.663   0.382   4.450
10474SOL    HW232322   4.717   0.447   4.310
10475SOL     OW32323   4.626   5.903   1.821
10475SOL    HW132324   4.683   5.913   1.903
10475SOL    HW232325   4.530   5.917   1.845
10476SOL     OW32326   7.024   4.399   0.216
10476SOL    HW132327   6.989   4.345   0.140
10476SOL    HW232328   0.075   4.352   0.259
10477SOL     OW32329   4.666   4.821   5.126
10477SOL    HW132330   4.652   4.919   5.116
10477SOL    HW232331   4.703   4.784   5.041
10478SOL     OW32332   0.356   6.081   2.292
10478SOL    HW132333   0.417   6.151   2.255
10478SOL    HW232334   0.385   5.991   2.258
10479SOL     OW32335   1.332   4.744   2.695
10479SOL    HW132336   1.305   4.839   2.681
10479SOL    HW232337   1.254   4.692   2.730
10480SOL     OW32338   6.337   0.197   2.695
10480SOL    HW132339   6.268   0.266   2.713
10480SOL    HW232340   6.325   0.120   2.757
10481SOL     OW32341   2.408   0.569   4.933
10481SOL    HW132342   2.318   0.599   4.902
10481SOL    HW232343   2.404   0.474   4.964
10482SOL     OW32344   1.172   5.318   5.625
10482SOL    HW132345   1.177   5.380   5.547
10482SOL    HW232346   1.227   5.237   5.606
10483SOL     OW32347   6.981   5.393   0.846
10483SOL    HW132348   7.012   5.487   0.861
10483SOL    HW232349   0.033   5.338   0.813
10484SOL     OW32350   6.245   1.676   1.559
10484SOL    HW132351   6.177   1.654   1.489
10484SOL    HW232352   6.308   1.745   1.523
10485SOL     OW32353   3.146   4.068   3.553
10485SOL    HW132354   3.096   3.999   3.502
10485SOL    HW232355   3.114   4.070   3.648
10486SOL     OW32356   5.877   5.460   5.005
10486SOL    HW132357   5.944   5.534   5.016
10486SOL    HW232358   5.792   5.485   5.052
10487SOL     OW32359   5.163   2.700   3.055
10487SOL    HW132360   5.083   2.696   3.115
10487SOL    HW232361   5.133   2.708   2.960
10488SOL     OW32362   7.018   2.137   5.650
10488SOL    HW132363   6.966   2.219   5.625
10488SOL    HW232364   7.021   2.075   5.572
10489SOL     OW32365   6.027   4.072   4.522
10489SOL    HW132366   6.109   4.105   4.475
10489SOL    HW232367   5.973   4.150   4.553
10490SOL     OW32368   5.422   6.912   6.865
10490SOL    HW132369   5.441   6.963   6.949
10490SOL    HW232370   5.326   6.883   6.865
10491SOL     OW32371   2.022   2.861   5.609
10491SOL    HW132372   1.974   2.894   5.527
10491SOL    HW232373   2.118   2.889   5.605
10492SOL     OW32374   3.726   5.939   0.355
10492SOL    HW132375   3.785   6.001   0.407
10492SOL    HW232376   3.776   5.855   0.335
10493SOL     OW32377   3.820   5.479   1.464
10493SOL    HW132378   3.792   5.459   1.558
10493SOL    HW232379   3.894   5.546   1.465
10494SOL     OW32380   0.769   4.146   4.283
10494SOL    HW132381   0.815   4.226   4.321
10494SOL    HW232382   0.818   4.114   4.202
10495SOL     OW32383   0.187   6.308   0.778
10495SOL    HW132384   0.123   6.342   0.710
10495SOL    HW232385   0.280   6.330   0.750
10496SOL     OW32386   0.373   4.531   6.734
10496SOL    HW132387   0.321   4.458   6.778
10496SOL    HW232388   0.325   4.562   6.652
10497SOL     OW32389   2.839   0.775   1.824
10497SOL    HW132390   2.925   0.755   1.872
10497SOL    HW232391   2.826   0.874   1.819
10498SOL     OW32392   4.540   4.083   6.423
10498SOL    HW132393   4.549   4.160   6.361
10498SOL    HW232394   4.531   3.998   6.370
10499SOL     OW32395   5.378   3.784   2.895
10499SOL    HW132396   5.466   3.739   2.881
10499SOL    HW232397   5.345   3.764   2.988
10500SOL     OW32398   1.061   3.566   5.134
10500SOL    HW132399   1.058   3.656   5.091
10500SOL    HW232400   1.076   3.496   5.065
10501SOL     OW32401   3.512   4.975   2.915
10501SOL    HW132402   3.575   4.977   2.837
10501SOL    HW232403   3.418   4.961   2.882
10502SOL     OW32404   3.499   3.545   2.645
10502SOL    HW132405   3.594   3.575   2.643
10502SOL    HW232406   3.491   3.463   2.702
10503SOL     OW32407   6.974   1.483   6.033
10503SOL    HW132408   0.033   1.518   5.992
10503SOL    HW232409   6.895   1.531   5.993
10504SOL     OW32410   0.762   3.820   5.939
10504SOL    HW132411   0.701   3.877   5.884
10504SOL    HW232412   0.722   3.806   6.030
10505SOL     OW32413   6.082   0.109   0.721
10505SOL    HW132414   6.035   0.179   0.774
10505SOL    HW232415   6.094   0.027   0.777
10506SOL     OW32416   1.131   4.270   6.254
10506SOL    HW132417   1.095   4.361   6.229
10506SOL    HW232418   1.118   4.207   6.177
10507SOL     OW32419   1.171   5.746   5.736
10507SOL    HW132420   1.192   5.766   5.831
10507SOL    HW232421   1.095   5.680   5.732
10508SOL     OW32422   1.786   5.428   6.195
10508SOL    HW132423   1.843   5.508   6.210
10508SOL    HW232424   1.770   5.381   6.282
10509SOL     OW32425   4.924   2.539   3.215
10509SOL    HW132426   4.826   2.529   3.201
10509SOL    HW232427   4.967   2.449   3.216
10510SOL     OW32428   5.359   5.689   3.595
10510SOL    HW132429   5.343   5.747   3.675
10510SOL    HW232430   5.416   5.737   3.530
10511SOL     OW32431   4.137   1.654   0.848
10511SOL    HW132432   4.039   1.635   0.854
10511SOL    HW232433   4.188   1.569   0.863
10512SOL     OW32434   3.884   1.664   5.225
10512SOL    HW132435   3.909   1.727   5.151
10512SOL    HW232436   3.892   1.711   5.313
10513SOL     OW32437   4.026   3.099   0.248
10513SOL    HW132438   4.071   3.187   0.257
10513SOL    HW232439   4.077   3.030   0.299
10514SOL     OW32440   1.527   4.531   1.881
10514SOL    HW132441   1.532   4.620   1.836
10514SOL    HW232442   1.455   4.531   1.950
10515SOL     OW32443   2.166   3.049   4.849
10515SOL    HW132444   2.204   3.004   4.769
10515SOL    HW232445   2.234   3.050   4.922
10516SOL     OW32446   4.818   2.263   1.803
10516SOL    HW132447   4.785   2.277   1.896
10516SOL    HW232448   4.916   2.285   1.799
10517SOL     OW32449   0.806   2.826   2.324
10517SOL    HW132450   0.906   2.819   2.328
10517SOL    HW232451   0.765   2.747   2.369
10518SOL     OW32452   1.238   5.568   2.297
10518SOL    HW132453   1.226   5.630   2.375
10518SOL    HW232454   1.177   5.490   2.308
10519SOL     OW32455   3.756   6.990   1.370
10519SOL    HW132456   3.745   6.939   1.285
10519SOL    HW232457   3.847   0.006   1.373
10520SOL     OW32458   1.354   2.706   6.441
10520SOL    HW132459   1.263   2.743   6.460
10520SOL    HW232460   1.399   2.683   6.528
10521SOL     OW32461   6.643   2.508   3.309
10521SOL    HW132462   6.717   2.470   3.364
10521SOL    HW232463   6.559   2.511   3.363
10522SOL     OW32464   5.617   1.410   3.911
10522SOL    HW132465   5.641   1.493   3.861
10522SOL    HW232466   5.525   1.419   3.948
10523SOL     OW32467   0.979   4.520   2.500
10523SOL    HW132468   0.893   4.570   2.501
10523SOL    HW232469   1.038   4.554   2.573
10524SOL     OW32470   6.793   6.000   4.637
10524SOL    HW132471   6.776   6.098   4.647
10524SOL    HW232472   6.873   5.974   4.691
10525SOL     OW32473   5.051   1.678   3.989
10525SOL    HW132474   5.126   1.647   4.047
10525SOL    HW232475   5.085   1.747   3.925
10526SOL     OW32476   1.188   5.217   6.435
10526SOL    HW132477   1.213   5.252   6.525
10526SOL    HW232478   1.101   5.258   6.406
10527SOL     OW32479   0.267   6.553   5.354
10527SOL    HW132480   0.312   6.464   5.367
10527SOL    HW232481   0.309   6.620   5.415
10528SOL     OW32482   1.660   5.043   5.380
10528SOL    HW132483   1.654   4.966   5.317
10528SOL    HW232484   1.658   5.009   5.474
10529SOL     OW32485   0.100   5.372   1.093
10529SOL    HW132486   0.069   5.447   1.152
10529SOL    HW232487   0.030   5.352   1.025
10530SOL     OW32488   0.068   6.369   1.811
10530SOL    HW132489   0.043   6.443   1.748
10530SOL    HW232490   0.005   6.292   1.798
10531SOL     OW32491   3.266   2.733   5.693
10531SOL    HW132492   3.241   2.749   5.598
10531SOL    HW232493   3.352   2.682   5.698
10532SOL     OW32494   4.754   6.288   5.941
10532SOL    HW132495   4.730   6.327   6.030
10532SOL    HW232496   4.818   6.213   5.954
10533SOL     OW32497   3.804   0.513   2.961
10533SOL    HW132498   3.862   0.546   3.035
10533SOL    HW232499   3.712   0.495   2.996
10534SOL     OW32500   1.365   5.744   3.516
10534SOL    HW132501   1.268   5.767   3.503
10534SOL    HW232502   1.420   5.827   3.510
10535SOL     OW32503   3.521   2.027   2.470
10535SOL    HW132504   3.442   2.035   2.409
10535SOL    HW232505   3.605   2.023   2.416
10536SOL     OW32506   5.736   3.170   5.281
10536SOL    HW132507   5.732   3.074   5.256
10536SOL    HW232508   5.646   3.212   5.269
10537SOL     OW32509   4.018   1.020   4.182
10537SOL    HW132510   4.092   1.018   4.115
10537SOL    HW232511   4.038   1.088   4.252
10538SOL     OW32512   0.122   2.961   3.370
10538SOL    HW132513   0.117   2.978   3.469
10538SOL    HW232514   0.119   3.049   3.321
10539SOL     OW32515   6.696   6.441   2.958
10539SOL    HW132516   6.720   6.399   2.870
10539SOL    HW232517   6.676   6.538   2.945
10540SOL     OW32518   1.986   4.297   0.036
10540SOL    HW132519   2.070   4.350   0.045
10540SOL    HW232520   2.005   4.214   7.007
10541SOL     OW32521   2.986   3.111   5.287
10541SOL    HW132522   2.888   3.130   5.288
10541SOL    HW232523   3.010   3.063   5.203
10542SOL     OW32524   4.960   6.332   3.097
10542SOL    HW132525   4.922   6.382   3.018
10542SOL    HW232526   4.896   6.261   3.125
10543SOL     OW32527   2.124   2.874   4.343
10543SOL    HW132528   2.138   2.780   4.375
10543SOL    HW232529   2.089   2.873   4.249
10544SOL     OW32530   3.431   1.417   2.843
10544SOL    HW132531   3.504   1.390   2.780
10544SOL    HW232532   3.456   1.501   2.890
10545SOL     OW32533   2.186   2.919   2.125
10545SOL    HW132534   2.271   2.945   2.172
10545SOL    HW232535   2.204   2.910   2.027
10546SOL     OW32536   2.118   0.093   6.910
10546SOL    HW132537   2.156   0.004   6.933
10546SOL    HW232538   2.171   0.135   6.836
10547SOL     OW32539   4.204   6.096   5.800
10547SOL    HW132540   4.113   6.074   5.835
10547SOL    HW232541   4.213   6.063   5.706
10548SOL     OW32542   0.440   6.009   3.213
10548SOL    HW132543   0.497   5.928   3.225
10548SOL    HW232544   0.418   6.020   3.116
10549SOL     OW32545   6.431   0.465   2.517
10549SOL    HW132546   6.439   0.403   2.440
10549SOL    HW232547   6.470   0.423   2.599
10550SOL     OW32548   5.093   5.727   2.811
10550SOL    HW132549   5.102   5.762   2.905
10550SOL    HW232550   5.159   5.773   2.752
10551SOL     OW32551   3.630   1.012   5.602
10551SOL    HW132552   3.533   1.039   5.602
10551SOL    HW232553   3.680   1.072   5.664
10552SOL     OW32554   2.845   0.109   3.748
10552SOL    HW132555   2.764   0.094   3.805
10552SOL    HW232556   2.865   0.025   3.696
10553SOL     OW32557   6.240   5.846   0.751
10553SOL    HW132558   6.256   5.880   0.658
10553SOL    HW232559   6.176   5.908   0.798
10554SOL     OW32560   6.188   6.418   2.729
10554SOL    HW132561   6.211   6.326   2.761
10554SOL    HW232562   6.160   6.414   2.634
10555SOL     OW32563   3.300   3.509   1.023
10555SOL    HW132564   3.331   3.458   1.104
10555SOL    HW232565   3.289   3.446   0.946
10556SOL     OW32566   2.751   1.822   2.189
10556SOL    HW132567   2.794   1.732   2.180
10556SOL    HW232568   2.710   1.848   2.102
10557SOL     OW32569   1.912   4.452   2.886
10557SOL    HW132570   1.893   4.525   2.951
10557SOL    HW232571   1.847   4.456   2.810
10558SOL     OW32572   3.897   5.234   4.780
10558SOL    HW132573   3.978   5.213   4.724
10558SOL    HW232574   3.831   5.160   4.772
10559SOL     OW32575   4.131   6.584   1.504
10559SOL    HW132576   4.179   6.511   1.554
10559SOL    HW232577   4.099   6.549   1.416
10560SOL     OW32578   5.205   6.742   3.300
10560SOL    HW132579   5.302   6.763   3.315
10560SOL    HW232580   5.194   6.686   3.218
10561SOL     OW32581   0.121   4.932   6.362
10561SOL    HW132582   0.030   4.951   6.325
10561SOL    HW232583   0.181   5.011   6.347
10562SOL     OW32584   4.111   5.857   2.151
10562SOL    HW132585   4.085   5.833   2.245
10562SOL    HW232586   4.199   5.904   2.152
10563SOL     OW32587   0.856   6.716   2.759
10563SOL    HW132588   0.818   6.744   2.670
10563SOL    HW232589   0.942   6.668   2.745
10564SOL     OW32590   4.897   4.752   3.158
10564SOL    HW132591   4.930   4.661   3.132
10564SOL    HW232592   4.862   4.799   3.077
10565SOL     OW32593   0.319   0.845   5.734
10565SOL    HW132594   0.398   0.852   5.673
10565SOL    HW232595   0.236   0.832   5.679
10566SOL     OW32596   3.432   2.092   0.399
10566SOL    HW132597   3.451   2.188   0.378
10566SOL    HW232598   3.513   2.049   0.439
10567SOL     OW32599   1.866   2.600   6.286
10567SOL    HW132600   1.829   2.535   6.219
10567SOL    HW232601   1.966   2.590   6.289
10568SOL     OW32602   4.996   2.255   5.887
10568SOL    HW132603   4.957   2.181   5.942
10568SOL    HW232604   4.927   2.326   5.872
10569SOL     OW32605   5.770   0.595   0.595
10569SOL    HW132606   5.848   0.593   0.532
10569SOL    HW232607   5.756   0.688   0.629
10570SOL     OW32608   1.673   3.587   3.199
10570SOL    HW132609   1.625   3.567   3.284
10570SOL    HW232610   1.748   3.652   3.218
10571SOL     OW32611   6.817   4.442   5.190
10571SOL    HW132612   6.900   4.497   5.196
10571SOL    HW232613   6.830   4.370   5.121
10572SOL     OW32614   6.093   4.308   1.142
10572SOL    HW132615   6.188   4.315   1.112
10572SOL    HW232616   6.054   4.222   1.110
10573SOL     OW32617   6.764   2.682   3.114
10573SOL    HW132618   6.726   2.603   3.163
10573SOL    HW232619   6.750   2.764   3.168
10574SOL     OW32620   5.907   2.311   2.641
10574SOL    HW132621   5.865   2.394   2.677
10574SOL    HW232622   5.972   2.274   2.708
10575SOL     OW32623   5.716   6.832   2.923
10575SOL    HW132624   5.617   6.819   2.930
10575SOL    HW232625   5.762   6.748   2.951
10576SOL     OW32626   1.456   4.050   4.500
10576SOL    HW132627   1.399   4.022   4.578
10576SOL    HW232628   1.398   4.060   4.419
10577SOL     OW32629   4.600   4.056   0.780
10577SOL    HW132630   4.535   4.119   0.823
10577SOL    HW232631   4.551   3.993   0.720
10578SOL     OW32632   0.598   3.585   3.059
10578SOL    HW132633   0.658   3.509   3.036
10578SOL    HW232634   0.552   3.566   3.146
10579SOL     OW32635   0.590   3.479   0.497
10579SOL    HW132636   0.614   3.415   0.425
10579SOL    HW232637   0.503   3.523   0.474
10580SOL     OW32638   5.418   6.609   6.727
10580SOL    HW132639   5.517   6.621   6.736
10580SOL    HW232640   5.372   6.664   6.796
10581SOL     OW32641   4.368   0.923   3.349
10581SOL    HW132642   4.437   0.989   3.321
10581SOL    HW232643   4.413   0.839   3.381
10582SOL     OW32644   6.848   3.635   6.219
10582SOL    HW132645   6.861   3.691   6.300
10582SOL    HW232646   6.759   3.589   6.225
10583SOL     OW32647   3.202   2.085   5.489
10583SOL    HW132648   3.226   1.999   5.444
10583SOL    HW232649   3.174   2.067   5.583
10584SOL     OW32650   0.965   6.470   3.487
10584SOL    HW132651   1.040   6.404   3.483
10584SOL    HW232652   0.974   6.526   3.570
10585SOL     OW32653   1.688   0.937   5.119
10585SOL    HW132654   1.597   0.919   5.157
10585SOL    HW232655   1.680   1.003   5.043
10586SOL     OW32656   4.367   4.239   5.328
10586SOL    HW132657   4.298   4.192   5.383
10586SOL    HW232658   4.326   4.319   5.284
10587SOL     OW32659   2.659   5.014   5.256
10587SOL    HW132660   2.596   4.987   5.329
10587SOL    HW232661   2.645   4.956   5.177
10588SOL     OW32662   1.460   3.359   3.577
10588SOL    HW132663   1.441   3.402   3.665
10588SOL    HW232664   1.447   3.426   3.504
10589SOL     OW32665   5.822   6.236   3.770
10589SOL    HW132666   5.905   6.276   3.807
10589SOL    HW232667   5.844   6.186   3.686
10590SOL     OW32668   0.924   4.950   2.607
10590SOL    HW132669   0.968   4.930   2.695
10590SOL    HW232670   0.977   5.020   2.559
10591SOL     OW32671   0.047   3.849   2.063
10591SOL    HW132672   6.992   3.792   2.085
10591SOL    HW232673   0.084   3.887   2.148
10592SOL     OW32674   0.479   2.093   4.652
10592SOL    HW132675   0.502   2.063   4.744
10592SOL    HW232676   0.511   2.187   4.638
10593SOL     OW32677   3.259   5.057   3.508
10593SOL    HW132678   3.231   5.149   3.478
10593SOL    HW232679   3.354   5.041   3.483
10594SOL     OW32680   3.209   5.327   3.659
10594SOL    HW132681   3.215   5.372   3.570
10594SOL    HW232682   3.282   5.259   3.667
10595SOL     OW32683   5.056   6.802   0.854
10595SOL    HW132684   5.085   6.728   0.794
10595SOL    HW232685   4.964   6.833   0.827
10596SOL     OW32686   5.103   3.082   6.918
10596SOL    HW132687   5.197   3.114   6.908
10596SOL    HW232688   5.084   3.061   7.014
10597SOL     OW32689   2.043   6.244   4.822
10597SOL    HW132690   2.128   6.282   4.785
10597SOL    HW232691   2.047   6.144   4.819
10598SOL     OW32692   3.187   0.704   0.262
10598SOL    HW132693   3.233   0.616   0.254
10598SOL    HW232694   3.217   0.765   0.188
10599SOL     OW32695   0.936   2.270   0.814
10599SOL    HW132696   0.858   2.218   0.848
10599SOL    HW232697   0.949   2.352   0.869
10600SOL     OW32698   3.892   1.167   2.063
10600SOL    HW132699   3.805   1.179   2.014
10600SOL    HW232700   3.914   1.250   2.113
10601SOL     OW32701   2.066   0.941   4.614
10601SOL    HW132702   2.053   0.924   4.516
10601SOL    HW232703   1.977   0.952   4.658
10602SOL     OW32704   6.570   0.206   1.854
10602SOL    HW132705   6.623   0.181   1.773
10602SOL    HW232706   6.601   0.152   1.932
10603SOL     OW32707   5.666   0.294   3.076
10603SOL    HW132708   5.640   0.292   3.172
10603SOL    HW232709   5.662   0.201   3.039
10604SOL     OW32710   5.088   1.120   4.912
10604SOL    HW132711   5.002   1.122   4.861
10604SOL    HW232712   5.165   1.109   4.849
10605SOL     OW32713   3.142   2.117   0.844
10605SOL    HW132714   3.121   2.215   0.844
10605SOL    HW232715   3.172   2.089   0.753
10606SOL     OW32716   6.651   0.671   6.693
10606SOL    HW132717   6.672   0.769   6.692
10606SOL    HW232718   6.555   0.658   6.714
10607SOL     OW32719   3.598   4.099   0.324
10607SOL    HW132720   3.588   4.101   0.225
10607SOL    HW232721   3.511   4.074   0.366
10608SOL     OW32722   5.259   4.453   3.758
10608SOL    HW132723   5.325   4.493   3.694
10608SOL    HW232724   5.232   4.362   3.727
10609SOL     OW32725   5.844   0.625   7.006
10609SOL    HW132726   5.901   0.567   6.947
10609SOL    HW232727   5.801   0.568   0.051
10610SOL     OW32728   0.684   1.602   3.304
10610SOL    HW132729   0.632   1.545   3.240
10610SOL    HW232730   0.761   1.643   3.256
10611SOL     OW32731   3.940   5.173   5.056
10611SOL    HW132732   4.013   5.238   5.075
10611SOL    HW232733   3.915   5.179   4.960
10612SOL     OW32734   6.571   2.546   3.627
10612SOL    HW132735   6.556   2.626   3.686
10612SOL    HW232736   6.642   2.488   3.668
10613SOL     OW32737   4.214   6.133   3.946
10613SOL    HW132738   4.238   6.182   4.030
10613SOL    HW232739   4.282   6.062   3.928
10614SOL     OW32740   3.607   2.025   5.942
10614SOL    HW132741   3.605   2.030   5.842
10614SOL    HW232742   3.597   2.116   5.980
10615SOL     OW32743   2.229   2.703   5.456
10615SOL    HW132744   2.243   2.763   5.535
10615SOL    HW232745   2.318   2.670   5.424
10616SOL     OW32746   1.670   5.936   0.323
10616SOL    HW132747   1.633   5.850   0.287
10616SOL    HW232748   1.725   5.981   0.252
10617SOL     OW32749   1.585   3.094   1.367
10617SOL    HW132750   1.590   3.103   1.267
10617SOL    HW232751   1.674   3.067   1.403
10618SOL     OW32752   1.123   4.442   4.215
10618SOL    HW132753   1.045   4.415   4.157
10618SOL    HW232754   1.108   4.535   4.249
10619SOL     OW32755   1.243   2.594   2.119
10619SOL    HW132756   1.206   2.584   2.026
10619SOL    HW232757   1.182   2.653   2.172
10620SOL     OW32758   3.143   0.470   5.627
10620SOL    HW132759   3.094   0.516   5.552
10620SOL    HW232760   3.078   0.426   5.688
10621SOL     OW32761   0.120   3.923   2.967
10621SOL    HW132762   0.053   3.906   3.039
10621SOL    HW232763   0.098   4.009   2.920
10622SOL     OW32764   4.483   2.233   0.360
10622SOL    HW132765   4.484   2.190   0.270
10622SOL    HW232766   4.534   2.319   0.356
10623SOL     OW32767   4.929   5.872   5.646
10623SOL    HW132768   4.895   5.907   5.733
10623SOL    HW232769   4.873   5.794   5.617
10624SOL     OW32770   0.471   2.038   0.020
10624SOL    HW132771   0.449   1.956   0.073
10624SOL    HW232772   0.511   2.107   0.081
10625SOL     OW32773   6.457   5.699   0.417
10625SOL    HW132774   6.534   5.678   0.357
10625SOL    HW232775   6.491   5.710   0.511
10626SOL     OW32776   5.684   2.737   1.339
10626SOL    HW132777   5.777   2.701   1.348
10626SOL    HW232778   5.677   2.824   1.387
10627SOL     OW32779   5.738   5.187   5.142
10627SOL    HW132780   5.834   5.214   5.138
10627SOL    HW232781   5.696   5.200   5.053
10628SOL     OW32782   2.965   6.466   0.354
10628SOL    HW132783   2.948   6.539   0.288
10628SOL    HW232784   2.981   6.380   0.305
10629SOL     OW32785   4.533   5.444   4.478
10629SOL    HW132786   4.461   5.428   4.546
10629SOL    HW232787   4.514   5.530   4.429
10630SOL     OW32788   3.665   1.014   1.655
10630SOL    HW132789   3.702   0.937   1.708
10630SOL    HW232790   3.589   1.055   1.705
10631SOL     OW32791   3.675   6.018   1.852
10631SOL    HW132792   3.624   5.932   1.855
10631SOL    HW232793   3.726   6.025   1.767
10632SOL     OW32794   5.608   6.341   4.595
10632SOL    HW132795   5.565   6.304   4.512
10632SOL    HW232796   5.637   6.435   4.578
10633SOL     OW32797   2.229   3.543   0.740
10633SOL    HW132798   2.318   3.500   0.758
10633SOL    HW232799   2.232   3.639   0.767
10634SOL     OW32800   6.919   4.716   6.751
10634SOL    HW132801   6.974   4.713   6.667
10634SOL    HW232802   6.947   4.640   6.810
10635SOL     OW32803   3.026   5.873   6.473
10635SOL    HW132804   3.107   5.922   6.440
10635SOL    HW232805   2.994   5.915   6.558
10636SOL     OW32806   6.452   2.688   6.983
10636SOL    HW132807   6.424   2.739   0.039
10636SOL    HW232808   6.489   2.752   6.915
10637SOL     OW32809   2.568   0.755   6.910
10637SOL    HW132810   2.551   0.728   7.005
10637SOL    HW232811   2.610   0.679   6.860
10638SOL     OW32812   5.382   5.181   0.833
10638SOL    HW132813   5.290   5.157   0.865
10638SOL    HW232814   5.375   5.228   0.745
10639SOL     OW32815   0.264   4.844   1.772
10639SOL    HW132816   0.272   4.943   1.783
10639SOL    HW232817   0.310   4.816   1.687
10640SOL     OW32818   4.357   6.232   3.511
10640SOL    HW132819   4.369   6.303   3.441
10640SOL    HW232820   4.283   6.171   3.483
10641SOL     OW32821   1.193   2.129   2.891
10641SOL    HW132822   1.198   2.148   2.793
10641SOL    HW232823   1.280   2.091   2.922
10642SOL     OW32824   6.916   3.330   6.176
10642SOL    HW132825   6.921   3.426   6.201
10642SOL    HW232826   6.872   3.278   6.249
10643SOL     OW32827   2.467   5.216   5.692
10643SOL    HW132828   2.477   5.120   5.667
10643SOL    HW232829   2.402   5.261   5.631
10644SOL     OW32830   6.265   3.098   2.757
10644SOL    HW132831   6.266   3.130   2.852
10644SOL    HW232832   6.254   3.177   2.696
10645SOL     OW32833   2.104   2.076   3.010
10645SOL    HW132834   2.044   2.135   3.063
10645SOL    HW232835   2.137   2.001   3.067
10646SOL     OW32836   5.398   0.248   3.667
10646SOL    HW132837   5.455   0.305   3.726
10646SOL    HW232838   5.454   0.210   3.593
10647SOL     OW32839   3.497   5.510   5.156
10647SOL    HW132840   3.552   5.479   5.234
10647SOL    HW232841   3.493   5.437   5.087
10648SOL     OW32842   4.827   4.253   5.398
10648SOL    HW132843   4.823   4.340   5.448
10648SOL    HW232844   4.757   4.253   5.327
10649SOL     OW32845   6.043   3.405   3.292
10649SOL    HW132846   6.092   3.465   3.356
10649SOL    HW232847   6.060   3.309   3.316
10650SOL     OW32848   0.688   0.113   2.995
10650SOL    HW132849   0.725   0.082   3.082
10650SOL    HW232850   0.697   0.212   2.988
10651SOL     OW32851   2.990   5.468   5.929
10651SOL    HW132852   2.972   5.421   6.015
10651SOL    HW232853   2.916   5.449   5.864
10652SOL     OW32854   1.614   6.979   0.091
10652SOL    HW132855   1.645   6.918   0.164
10652SOL    HW232856   1.662   6.955   0.006
10653SOL     OW32857   5.218   6.028   4.745
10653SOL    HW132858   5.141   6.091   4.731
10653SOL    HW232859   5.210   5.983   4.833
10654SOL     OW32860   6.770   2.184   4.183
10654SOL    HW132861   6.717   2.111   4.139
10654SOL    HW232862   6.740   2.195   4.278
10655SOL     OW32863   7.023   4.322   0.941
10655SOL    HW132864   6.942   4.281   0.981
10655SOL    HW232865   6.997   4.403   0.887
10656SOL     OW32866   5.805   1.969   4.572
10656SOL    HW132867   5.827   1.937   4.665
10656SOL    HW232868   5.706   1.967   4.559
10657SOL     OW32869   5.243   0.006   5.037
10657SOL    HW132870   5.245   0.038   5.132
10657SOL    HW232871   5.173   0.056   4.986
10658SOL     OW32872   1.137   1.703   5.330
10658SOL    HW132873   1.107   1.611   5.307
10658SOL    HW232874   1.215   1.698   5.393
10659SOL     OW32875   0.742   5.689   0.541
10659SOL    HW132876   0.717   5.596   0.567
10659SOL    HW232877   0.768   5.741   0.622
10660SOL     OW32878   5.513   2.820   5.747
10660SOL    HW132879   5.602   2.839   5.705
10660SOL    HW232880   5.512   2.726   5.781
10661SOL     OW32881   3.470   5.183   5.432
10661SOL    HW132882   3.400   5.238   5.386
10661SOL    HW232883   3.490   5.101   5.378
10662SOL     OW32884   2.476   1.516   1.449
10662SOL    HW132885   2.539   1.579   1.495
10662SOL    HW232886   2.383   1.553   1.455
10663SOL     OW32887   0.859   2.007   3.586
10663SOL    HW132888   0.802   2.089   3.600
10663SOL    HW232889   0.800   1.927   3.575
10664SOL     OW32890   1.146   5.052   4.636
10664SOL    HW132891   1.176   5.050   4.541
10664SOL    HW232892   1.054   5.091   4.642
10665SOL     OW32893   3.248   3.234   6.867
10665SOL    HW132894   3.276   3.162   6.931
10665SOL    HW232895   3.291   3.218   6.778
10666SOL     OW32896   3.425   3.760   1.407
10666SOL    HW132897   3.366   3.684   1.436
10666SOL    HW232898   3.445   3.818   1.485
10667SOL     OW32899   5.401   2.865   3.975
10667SOL    HW132900   5.426   2.850   4.071
10667SOL    HW232901   5.482   2.856   3.917
10668SOL     OW32902   3.253   2.579   5.906
10668SOL    HW132903   3.175   2.535   5.950
10668SOL    HW232904   3.222   2.638   5.832
10669SOL     OW32905   6.056   1.610   1.386
10669SOL    HW132906   6.047   1.513   1.407
10669SOL    HW232907   5.968   1.647   1.356
10670SOL     OW32908   4.965   3.711   4.407
10670SOL    HW132909   4.967   3.747   4.314
10670SOL    HW232910   4.934   3.783   4.469
10671SOL     OW32911   1.442   3.612   5.311
10671SOL    HW132912   1.352   3.625   5.353
10671SOL    HW232913   1.458   3.685   5.244
10672SOL     OW32914   5.793   3.528   2.397
10672SOL    HW132915   5.828   3.613   2.437
10672SOL    HW232916   5.869   3.463   2.386
10673SOL     OW32917   2.035   1.542   0.911
10673SOL    HW132918   2.108   1.546   0.843
10673SOL    HW232919   2.003   1.635   0.931
10674SOL     OW32920   3.295   3.798   3.715
10674SOL    HW132921   3.214   3.853   3.740
10674SOL    HW232922   3.265   3.710   3.679
10675SOL     OW32923   3.950   6.860   5.305
10675SOL    HW132924   3.895   6.853   5.388
10675SOL    HW232925   3.937   6.777   5.250
10676SOL     OW32926   1.528   0.090   5.893
10676SOL    HW132927   1.625   0.092   5.867
10676SOL    HW232928   1.490   0.182   5.889
10677SOL     OW32929   0.036   1.658   0.033
10677SOL    HW132930   0.093   1.721   0.085
10677SOL    HW232931   0.034   1.686   6.962
10678SOL     OW32932   3.755   5.758   1.970
10678SOL    HW132933   3.789   5.664   1.967
10678SOL    HW232934   3.663   5.762   1.932
10679SOL     OW32935   4.085   3.756   6.602
10679SOL    HW132936   4.182   3.762   6.577
10679SOL    HW232937   4.064   3.662   6.630
10680SOL     OW32938   3.706   1.312   5.057
10680SOL    HW132939   3.747   1.378   5.120
10680SOL    HW232940   3.777   1.250   5.023
10681SOL     OW32941   2.020   3.608   5.554
10681SOL    HW132942   1.949   3.572   5.493
10681SOL    HW232943   2.062   3.688   5.513
10682SOL     OW32944   5.368   3.143   6.557
10682SOL    HW132945   5.380   3.234   6.598
10682SOL    HW232946   5.450   3.119   6.505
10683SOL     OW32947   2.623   0.607   3.582
10683SOL    HW132948   2.524   0.601   3.596
10683SOL    HW232949   2.643   0.615   3.485
10684SOL     OW32950   4.737   4.648   2.088
10684SOL    HW132951   4.825   4.623   2.126
10684SOL    HW232952   4.750   4.714   2.014
10685SOL     OW32953   1.030   6.499   1.498
10685SOL    HW132954   1.089   6.516   1.419
10685SOL    HW232955   1.001   6.587   1.536
10686SOL     OW32956   2.595   0.975   6.732
10686SOL    HW132957   2.581   0.889   6.781
10686SOL    HW232958   2.684   1.014   6.758
10687SOL     OW32959   0.911   3.978   3.993
10687SOL    HW132960   0.815   3.964   3.967
10687SOL    HW232961   0.962   4.011   3.913
10688SOL     OW32962   5.091   1.346   2.747
10688SOL    HW132963   5.108   1.444   2.748
10688SOL    HW232964   5.006   1.327   2.699
10689SOL     OW32965   0.780   6.865   2.506
10689SOL    HW132966   0.808   6.875   2.411
10689SOL    HW232967   0.726   6.944   2.534
10690SOL     OW32968   0.113   6.820   4.201
10690SOL    HW132969   0.148   6.904   4.160
10690SOL    HW232970   0.128   6.743   4.138
10691SOL     OW32971   3.694   0.374   2.306
10691SOL    HW132972   3.692   0.324   2.392
10691SOL    HW232973   3.604   0.413   2.287
10692SOL     OW32974   2.250   1.036   3.965
10692SOL    HW132975   2.205   1.113   3.920
10692SOL    HW232976   2.304   0.985   3.898
10693SOL     OW32977   1.881   5.099   0.000
10693SOL    HW132978   1.861   5.002   0.018
10693SOL    HW232979   1.883   5.149   0.087
10694SOL     OW32980   4.235   0.691   5.093
10694SOL    HW132981   4.214   0.615   5.032
10694SOL    HW232982   4.327   0.680   5.130
10695SOL     OW32983   5.600   4.385   2.190
10695SOL    HW132984   5.559   4.394   2.099
10695SOL    HW232985   5.699   4.398   2.183
10696SOL     OW32986   6.635   4.507   3.689
10696SOL    HW132987   6.560   4.541   3.632
10696SOL    HW232988   6.615   4.526   3.785
10697SOL     OW32989   2.365   5.171   5.279
10697SOL    HW132990   2.377   5.099   5.346
10697SOL    HW232991   2.308   5.137   5.204
10698SOL     OW32992   4.007   3.180   6.891
10698SOL    HW132993   4.042   3.093   6.927
10698SOL    HW232994   3.914   3.194   6.925
10699SOL     OW32995   3.449   2.837   0.892
10699SOL    HW132996   3.527   2.897   0.908
10699SOL    HW232997   3.470   2.745   0.924
10700SOL     OW32998   4.912   0.791   1.506
10700SOL    HW132999   4.945   0.885   1.508
10700SOL    HW233000   4.814   0.789   1.520
10701SOL     OW33001   3.177   0.180   6.591
10701SOL    HW133002   3.263   0.141   6.623
10701SOL    HW233003   3.122   0.210   6.669
10702SOL     OW33004   5.639   1.965   1.878
10702SOL    HW133005   5.694   1.888   1.847
10702SOL    HW233006   5.692   2.022   1.941
10703SOL     OW33007   0.860   2.960   6.196
10703SOL    HW133008   0.795   2.944   6.271
10703SOL    HW233009   0.922   2.882   6.188
10704SOL     OW33010   5.457   0.003   1.692
10704SOL    HW133011   5.497   0.095   1.696
10704SOL    HW233012   5.520   6.967   1.644
10705SOL     OW33013   5.627   3.790   1.123
10705SOL    HW133014   5.685   3.774   1.203
10705SOL    HW233015   5.572   3.873   1.138
10706SOL     OW33016   4.184   0.182   0.810
10706SOL    HW133017   4.138   0.262   0.771
10706SOL    HW233018   4.273   0.169   0.765
10707SOL     OW33019   5.769   0.311   3.936
10707SOL    HW133020   5.789   0.323   3.839
10707SOL    HW233021   5.852   0.326   3.989
10708SOL     OW33022   4.173   1.626   2.005
10708SOL    HW133023   4.178   1.709   2.061
10708SOL    HW233024   4.264   1.588   1.994
10709SOL     OW33025   6.103   4.864   3.643
10709SOL    HW133026   6.047   4.821   3.572
10709SOL    HW233027   6.064   4.843   3.733
10710SOL     OW33028   5.441   1.477   3.520
10710SOL    HW133029   5.461   1.410   3.592
10710SOL    HW233030   5.382   1.549   3.557
10711SOL     OW33031   4.210   0.271   1.864
10711SOL    HW133032   4.217   0.175   1.894
10711SOL    HW233033   4.117   0.289   1.832
10712SOL     OW33034   5.295   6.831   2.818
10712SOL    HW133035   5.201   6.864   2.808
10712SOL    HW233036   5.333   6.865   2.904
10713SOL     OW33037   1.190   4.101   1.347
10713SOL    HW133038   1.113   4.112   1.285
10713SOL    HW233039   1.159   4.057   1.432
10714SOL     OW33040   2.963   3.851   4.513
10714SOL    HW133041   2.874   3.849   4.468
10714SOL    HW233042   2.961   3.794   4.595
10715SOL     OW33043   6.575   0.755   1.919
10715SOL    HW133044   6.584   0.656   1.912
10715SOL    HW233045   6.523   0.789   1.841
10716SOL     OW33046   5.623   1.680   3.548
10716SOL    HW133047   5.670   1.698   3.461
10716SOL    HW233048   5.585   1.588   3.546
10717SOL     OW33049   1.461   2.466   0.080
10717SOL    HW133050   1.432   2.398   0.148
10717SOL    HW233051   1.523   2.532   0.123
10718SOL     OW33052   1.810   5.342   5.447
10718SOL    HW133053   1.817   5.282   5.368
10718SOL    HW233054   1.801   5.287   5.530
10719SOL     OW33055   6.117   5.740   4.506
10719SOL    HW133056   6.146   5.791   4.587
10719SOL    HW233057   6.161   5.650   4.506
10720SOL     OW33058   6.977   4.921   3.421
10720SOL    HW133059   6.919   4.858   3.471
10720SOL    HW233060   6.939   5.014   3.427
10721SOL     OW33061   5.415   3.840   5.329
10721SOL    HW133062   5.492   3.900   5.306
10721SOL    HW233063   5.332   3.894   5.341
10722SOL     OW33064   6.611   4.521   5.526
10722SOL    HW133065   6.546   4.451   5.495
10722SOL    HW233066   6.702   4.501   5.488
10723SOL     OW33067   5.857   6.776   0.215
10723SOL    HW133068   5.772   6.810   0.255
10723SOL    HW233069   5.920   6.853   0.202
10724SOL     OW33070   6.683   6.445   0.402
10724SOL    HW133071   6.751   6.373   0.390
10724SOL    HW233072   6.605   6.409   0.454
10725SOL     OW33073   2.600   5.645   5.441
10725SOL    HW133074   2.632   5.602   5.357
10725SOL    HW233075   2.670   5.634   5.513
10726SOL     OW33076   5.500   1.268   4.535
10726SOL    HW133077   5.540   1.180   4.562
10726SOL    HW233078   5.547   1.342   4.583
10727SOL     OW33079   1.924   5.882   5.675
10727SOL    HW133080   1.856   5.809   5.673
10727SOL    HW233081   1.879   5.970   5.684
10728SOL     OW33082   6.103   6.039   0.900
10728SOL    HW133083   6.062   6.127   0.878
10728SOL    HW233084   6.055   5.998   0.978
10729SOL     OW33085   6.701   2.960   1.434
10729SOL    HW133086   6.690   2.996   1.527
10729SOL    HW233087   6.687   2.861   1.435
10730SOL     OW33088   4.472   0.252   1.949
10730SOL    HW133089   4.483   0.259   2.048
10730SOL    HW233090   4.377   0.269   1.924
10731SOL     OW33091   4.118   1.169   1.269
10731SOL    HW133092   4.151   1.139   1.359
10731SOL    HW233093   4.147   1.104   1.199
10732SOL     OW33094   0.931   5.030   5.239
10732SOL    HW133095   0.933   4.945   5.186
10732SOL    HW233096   0.997   5.094   5.201
10733SOL     OW33097   5.970   2.481   6.924
10733SOL    HW133098   5.933   2.434   6.844
10733SOL    HW233099   6.056   2.527   6.899
10734SOL     OW33100   6.983   2.122   1.805
10734SOL    HW133101   7.024   2.032   1.821
10734SOL    HW233102   0.027   2.184   1.768
10735SOL     OW33103   0.071   3.908   2.341
10735SOL    HW133104   0.154   3.855   2.357
10735SOL    HW233105   0.068   3.985   2.404
10736SOL     OW33106   3.068   0.298   3.617
10736SOL    HW133107   2.995   0.256   3.671
10736SOL    HW233108   3.107   0.375   3.668
10737SOL     OW33109   6.975   1.989   1.508
10737SOL    HW133110   6.981   2.026   1.601
10737SOL    HW233111   6.930   1.900   1.510
10738SOL     OW33112   4.162   0.898   3.094
10738SOL    HW133113   4.142   0.874   3.189
10738SOL    HW233114   4.252   0.864   3.069
10739SOL     OW33115   1.922   2.809   1.932
10739SOL    HW133116   1.877   2.889   1.893
10739SOL    HW233117   2.017   2.831   1.952
10740SOL     OW33118   5.047   4.971   3.461
10740SOL    HW133119   5.024   5.019   3.376
10740SOL    HW233120   4.969   4.916   3.490
10741SOL     OW33121   3.740   0.552   2.623
10741SOL    HW133122   3.770   0.623   2.687
10741SOL    HW233123   3.813   0.485   2.610
10742SOL     OW33124   6.119   5.572   0.834
10742SOL    HW133125   6.142   5.547   0.928
10742SOL    HW233126   6.171   5.653   0.807
10743SOL     OW33127   2.210   1.987   4.251
10743SOL    HW133128   2.174   2.061   4.308
10743SOL    HW233129   2.202   1.900   4.300
10744SOL     OW33130   3.859   2.410   0.949
10744SOL    HW133131   3.922   2.448   0.882
10744SOL    HW233132   3.911   2.380   1.030
10745SOL     OW33133   0.197   5.789   5.699
10745SOL    HW133134   0.197   5.722   5.773
10745SOL    HW233135   0.215   5.880   5.737
10746SOL     OW33136   0.409   4.174   5.496
10746SOL    HW133137   0.365   4.255   5.458
10746SOL    HW233138   0.340   4.104   5.513
10747SOL     OW33139   3.027   1.270   4.565
10747SOL    HW133140   3.008   1.340   4.497
10747SOL    HW233141   3.016   1.309   4.657
10748SOL     OW33142   5.186   1.377   2.299
10748SOL    HW133143   5.217   1.317   2.373
10748SOL    HW233144   5.089   1.397   2.311
10749SOL     OW33145   2.032   6.856   5.972
10749SOL    HW133146   2.132   6.856   5.973
10749SOL    HW233147   1.999   6.947   5.946
10750SOL     OW33148   3.532   0.833   6.175
10750SOL    HW133149   3.508   0.747   6.131
10750SOL    HW233150   3.516   0.909   6.112
10751SOL     OW33151   2.332   4.941   4.030
10751SOL    HW133152   2.300   4.972   3.941
10751SOL    HW233153   2.395   5.008   4.069
10752SOL     OW33154   4.955   4.959   4.228
10752SOL    HW133155   4.937   5.028   4.158
10752SOL    HW233156   4.877   4.896   4.233
10753SOL     OW33157   0.359   3.159   4.367
10753SOL    HW133158   0.278   3.191   4.415
10753SOL    HW233159   0.432   3.140   4.434
10754SOL     OW33160   1.566   0.313   2.559
10754SOL    HW133161   1.496   0.380   2.584
10754SOL    HW233162   1.617   0.286   2.640
10755SOL     OW33163   6.405   5.681   2.065
10755SOL    HW133164   6.338   5.623   2.110
10755SOL    HW233165   6.385   5.777   2.085
10756SOL     OW33166   6.953   6.707   5.100
10756SOL    HW133167   6.994   6.717   5.009
10756SOL    HW233168   6.859   6.739   5.097
10757SOL     OW33169   2.564   2.965   1.011
10757SOL    HW133170   2.470   2.988   1.037
10757SOL    HW233171   2.568   2.868   0.985
10758SOL     OW33172   0.709   5.279   3.839
10758SOL    HW133173   0.642   5.208   3.822
10758SOL    HW233174   0.713   5.341   3.761
10759SOL     OW33175   6.929   2.875   0.263
10759SOL    HW133176   6.881   2.956   0.297
10759SOL    HW233177   6.892   2.850   0.174
10760SOL     OW33178   6.416   0.795   3.391
10760SOL    HW133179   6.405   0.740   3.308
10760SOL    HW233180   6.360   0.877   3.384
10761SOL     OW33181   2.770   5.092   5.519
10761SOL    HW133182   2.721   5.070   5.435
10761SOL    HW233183   2.860   5.048   5.516
10762SOL     OW33184   3.537   0.699   4.551
10762SOL    HW133185   3.597   0.634   4.598
10762SOL    HW233186   3.476   0.649   4.490
10763SOL     OW33187   4.116   0.111   3.258
10763SOL    HW133188   4.076   0.195   3.296
10763SOL    HW233189   4.212   0.127   3.237
10764SOL     OW33190   5.662   0.013   3.717
10764SOL    HW133191   5.563   0.001   3.726
10764SOL    HW233192   5.705   6.949   3.703
10765SOL     OW33193   5.588   3.493   0.985
10765SOL    HW133194   5.569   3.587   0.956
10765SOL    HW233195   5.560   3.430   0.913
10766SOL     OW33196   3.934   2.856   1.796
10766SOL    HW133197   3.957   2.891   1.887
10766SOL    HW233198   4.003   2.788   1.769
10767SOL     OW33199   2.876   1.390   1.670
10767SOL    HW133200   2.840   1.304   1.634
10767SOL    HW233201   2.903   1.449   1.594
10768SOL     OW33202   6.743   5.316   0.332
10768SOL    HW133203   6.671   5.248   0.320
10768SOL    HW233204   6.739   5.353   0.424
10769SOL     OW33205   1.669   4.042   5.916
10769SOL    HW133206   1.687   4.129   5.962
10769SOL    HW233207   1.611   3.985   5.973
10770SOL     OW33208   4.575   6.328   2.873
10770SOL    HW133209   4.648   6.384   2.914
10770SOL    HW233210   4.616   6.264   2.808
10771SOL     OW33211   2.736   0.946   3.568
10771SOL    HW133212   2.785   1.033   3.567
10771SOL    HW233213   2.656   0.954   3.627
10772SOL     OW33214   5.442   5.378   3.719
10772SOL    HW133215   5.502   5.301   3.699
10772SOL    HW233216   5.456   5.450   3.650
10773SOL     OW33217   4.972   5.331   3.626
10773SOL    HW133218   4.955   5.424   3.660
10773SOL    HW233219   5.062   5.301   3.657
10774SOL     OW33220   1.381   0.961   3.636
10774SOL    HW133221   1.310   0.962   3.565
10774SOL    HW233222   1.433   1.046   3.633
10775SOL     OW33223   0.563   3.949   2.067
10775SOL    HW133224   0.494   3.943   1.996
10775SOL    HW233225   0.524   3.994   2.148
10776SOL     OW33226   1.799   0.165   6.842
10776SOL    HW133227   1.891   0.163   6.802
10776SOL    HW233228   1.740   0.102   6.792
10777SOL     OW33229   3.013   6.298   1.711
10777SOL    HW133230   3.112   6.302   1.704
10777SOL    HW233231   2.983   6.339   1.797
10778SOL     OW33232   5.789   6.049   3.292
10778SOL    HW133233   5.741   5.974   3.338
10778SOL    HW233234   5.806   6.024   3.197
10779SOL     OW33235   5.519   2.396   3.367
10779SOL    HW133236   5.567   2.327   3.313
10779SOL    HW233237   5.496   2.474   3.308
10780SOL     OW33238   0.798   1.066   3.248
10780SOL    HW133239   0.794   1.154   3.295
10780SOL    HW233240   0.705   1.036   3.227
10781SOL     OW33241   3.437   0.080   4.153
10781SOL    HW133242   3.429   0.166   4.102
10781SOL    HW233243   3.430   0.100   4.251
10782SOL     OW33244   6.634   5.547   3.992
10782SOL    HW133245   6.724   5.579   4.022
10782SOL    HW233246   6.585   5.621   3.946
10783SOL     OW33247   6.755   1.935   2.824
10783SOL    HW133248   6.773   2.011   2.762
10783SOL    HW233249   6.767   1.849   2.776
10784SOL     OW33250   2.394   1.114   4.349
10784SOL    HW133251   2.344   1.112   4.263
10784SOL    HW233252   2.448   1.198   4.355
10785SOL     OW33253   0.757   4.071   6.929
10785SOL    HW133254   0.722   4.124   6.852
10785SOL    HW233255   0.794   4.133   6.998
10786SOL     OW33256   0.508   5.379   2.858
10786SOL    HW133257   0.449   5.371   2.778
10786SOL    HW233258   0.452   5.400   2.939
10787SOL     OW33259   1.651   2.659   5.804
10787SOL    HW133260   1.739   2.695   5.835
10787SOL    HW233261   1.646   2.562   5.826
10788SOL     OW33262   6.225   4.159   6.615
10788SOL    HW133263   6.263   4.151   6.523
10788SOL    HW233264   6.187   4.251   6.628
10789SOL     OW33265   6.419   1.574   6.970
10789SOL    HW133266   6.484   1.538   0.013
10789SOL    HW233267   6.436   1.529   6.882
10790SOL     OW33268   6.563   6.703   2.839
10790SOL    HW133269   6.537   6.699   2.743
10790SOL    HW233270   6.636   6.770   2.851
10791SOL     OW33271   6.978   6.199   2.361
10791SOL    HW133272   6.916   6.245   2.297
10791SOL    HW233273   0.029   6.158   2.310
10792SOL     OW33274   3.507   4.064   5.124
10792SOL    HW133275   3.521   4.001   5.200
10792SOL    HW233276   3.413   4.057   5.091
10793SOL     OW33277   5.669   3.131   4.846
10793SOL    HW133278   5.634   3.083   4.926
10793SOL    HW233279   5.750   3.084   4.811
10794SOL     OW33280   3.551   3.349   3.697
10794SOL    HW133281   3.588   3.302   3.617
10794SOL    HW233282   3.461   3.311   3.719
10795SOL     OW33283   0.780   4.556   3.494
10795SOL    HW133284   0.770   4.481   3.560
10795SOL    HW233285   0.755   4.523   3.403
10796SOL     OW33286   1.630   5.911   4.835
10796SOL    HW133287   1.627   5.870   4.744
10796SOL    HW233288   1.566   5.988   4.839
10797SOL     OW33289   3.833   2.478   0.280
10797SOL    HW133290   3.922   2.463   0.239
10797SOL    HW233291   3.789   2.390   0.299
10798SOL     OW33292   0.224   1.962   0.515
10798SOL    HW133293   0.322   1.977   0.525
10798SOL    HW233294   0.200   1.961   0.418
10799SOL     OW33295   4.271   1.480   2.300
10799SOL    HW133296   4.172   1.492   2.310
10799SOL    HW233297   4.306   1.425   2.376
10800SOL     OW33298   1.638   6.772   1.196
10800SOL    HW133299   1.596   6.847   1.145
10800SOL    HW233300   1.571   6.700   1.211
10801SOL     OW33301   1.431   0.658   0.817
10801SOL    HW133302   1.381   0.594   0.759
10801SOL    HW233303   1.524   0.625   0.832
10802SOL     OW33304   6.374   6.860   3.842
10802SOL    HW133305   6.306   6.834   3.910
10802SOL    HW233306   6.388   6.959   3.844
10803SOL     OW33307   2.232   5.193   6.473
10803SOL    HW133308   2.266   5.108   6.432
10803SOL    HW233309   2.181   5.245   6.405
10804SOL     OW33310   7.022   3.573   4.360
10804SOL    HW133311   6.965   3.575   4.277
10804SOL    HW233312   0.049   3.658   4.366
10805SOL     OW33313   6.109   0.797   5.174
10805SOL    HW133314   6.142   0.888   5.200
10805SOL    HW233315   6.030   0.807   5.113
10806SOL     OW33316   2.059   4.404   6.498
10806SOL    HW133317   2.063   4.395   6.597
10806SOL    HW233318   2.152   4.414   6.462
10807SOL     OW33319   3.392   6.357   4.392
10807SOL    HW133320   3.489   6.367   4.414
10807SOL    HW233321   3.376   6.386   4.297
10808SOL     OW33322   0.757   2.232   6.243
10808SOL    HW133323   0.817   2.310   6.224
10808SOL    HW233324   0.709   2.247   6.329
10809SOL     OW33325   2.296   5.841   4.484
10809SOL    HW133326   2.297   5.773   4.558
10809SOL    HW233327   2.210   5.836   4.434
10810SOL     OW33328   0.273   0.479   4.214
10810SOL    HW133329   0.223   0.530   4.284
10810SOL    HW233330   0.314   0.543   4.149
10811SOL     OW33331   4.971   4.943   5.025
10811SOL    HW133332   4.977   5.005   4.947
10811SOL    HW233333   4.878   4.943   5.060
10812SOL     OW33334   6.272   2.505   6.923
10812SOL    HW133335   6.315   2.430   6.873
10812SOL    HW233336   6.342   2.573   6.947
10813SOL     OW33337   0.761   4.324   6.161
10813SOL    HW133338   0.698   4.369   6.224
10813SOL    HW233339   0.847   4.375   6.158
10814SOL     OW33340   2.549   0.740   1.243
10814SOL    HW133341   2.604   0.657   1.254
10814SOL    HW233342   2.452   0.714   1.238
10815SOL     OW33343   5.270   1.033   4.730
10815SOL    HW133344   5.225   1.008   4.644
10815SOL    HW233345   5.329   0.958   4.760
10816SOL     OW33346   4.012   3.126   3.809
10816SOL    HW133347   3.927   3.154   3.852
10816SOL    HW233348   3.997   3.109   3.712
10817SOL     OW33349   2.416   6.555   3.460
10817SOL    HW133350   2.337   6.612   3.485
10817SOL    HW233351   2.387   6.485   3.395
10818SOL     OW33352   4.236   5.017   6.228
10818SOL    HW133353   4.259   5.081   6.155
10818SOL    HW233354   4.220   5.067   6.313
10819SOL     OW33355   6.772   5.925   5.994
10819SOL    HW133356   6.819   5.852   6.043
10819SOL    HW233357   6.836   5.970   5.931
10820SOL     OW33358   2.404   4.271   6.191
10820SOL    HW133359   2.327   4.277   6.127
10820SOL    HW233360   2.450   4.183   6.180
10821SOL     OW33361   4.772   5.668   3.145
10821SOL    HW133362   4.827   5.597   3.101
10821SOL    HW233363   4.828   5.748   3.163
10822SOL     OW33364   5.279   2.388   2.250
10822SOL    HW133365   5.363   2.441   2.266
10822SOL    HW233366   5.303   2.297   2.214
10823SOL     OW33367   6.064   6.668   2.729
10823SOL    HW133368   6.079   6.569   2.725
10823SOL    HW233369   5.970   6.689   2.702
10824SOL     OW33370   0.792   2.551   4.025
10824SOL    HW133371   0.833   2.476   4.077
10824SOL    HW233372   0.855   2.629   4.024
10825SOL     OW33373   0.661   1.901   0.405
10825SOL    HW133374   0.721   1.845   0.462
10825SOL    HW233375   0.593   1.843   0.361
10826SOL     OW33376   0.517   2.467   3.356
10826SOL    HW133377   0.581   2.542   3.343
10826SOL    HW233378   0.430   2.489   3.311
10827SOL     OW33379   6.810   3.315   4.731
10827SOL    HW133380   6.816   3.298   4.829
10827SOL    HW233381   6.897   3.353   4.699
10828SOL     OW33382   6.455   4.996   5.328
10828SOL    HW133383   6.522   4.933   5.367
10828SOL    HW233384   6.472   5.006   5.230
10829SOL     OW33385   4.252   3.416   5.218
10829SOL    HW133386   4.169   3.463   5.186
10829SOL    HW233387   4.328   3.481   5.221
10830SOL     OW33388   4.584   1.601   3.847
10830SOL    HW133389   4.678   1.599   3.814
10830SOL    HW233390   4.582   1.637   3.940
10831SOL     OW33391   3.850   1.113   3.212
10831SOL    HW133392   3.756   1.135   3.184
10831SOL    HW233393   3.901   1.079   3.133
10832SOL     OW33394   6.736   3.514   0.591
10832SOL    HW133395   6.732   3.605   0.634
10832SOL    HW233396   6.767   3.524   0.497
10833SOL     OW33397   0.431   1.169   6.973
10833SOL    HW133398   0.357   1.109   7.003
10833SOL    HW233399   0.397   1.264   6.971
10834SOL     OW33400   6.928   6.507   1.193
10834SOL    HW133401   6.977   6.442   1.135
10834SOL    HW233402   6.925   6.596   1.147
10835SOL     OW33403   0.173   2.297   5.789
10835SOL    HW133404   0.104   2.231   5.761
10835SOL    HW233405   0.239   2.252   5.850
10836SOL     OW33406   0.132   1.312   4.266
10836SOL    HW133407   0.157   1.239   4.203
10836SOL    HW233408   0.215   1.345   4.312
10837SOL     OW33409   0.364   3.813   3.015
10837SOL    HW133410   0.372   3.740   2.947
10837SOL    HW233411   0.276   3.859   3.005
10838SOL     OW33412   0.116   5.576   2.746
10838SOL    HW133413   0.063   5.578   2.662
10838SOL    HW233414   0.083   5.502   2.805
10839SOL     OW33415   5.219   2.583   1.510
10839SOL    HW133416   5.127   2.583   1.549
10839SOL    HW233417   5.233   2.666   1.457
10840SOL     OW33418   3.249   0.529   1.201
10840SOL    HW133419   3.250   0.629   1.197
10840SOL    HW233420   3.202   0.499   1.284
10841SOL     OW33421   1.810   5.212   5.225
10841SOL    HW133422   1.765   5.141   5.280
10841SOL    HW233423   1.867   5.168   5.156
10842SOL     OW33424   5.383   4.737   0.462
10842SOL    HW133425   5.430   4.672   0.522
10842SOL    HW233426   5.290   4.752   0.496
10843SOL     OW33427   2.553   2.226   1.600
10843SOL    HW133428   2.527   2.321   1.584
10843SOL    HW233429   2.632   2.223   1.661
10844SOL     OW33430   1.629   5.339   4.815
10844SOL    HW133431   1.543   5.385   4.793
10844SOL    HW233432   1.702   5.407   4.822
10845SOL     OW33433   4.344   6.814   4.686
10845SOL    HW133434   4.314   6.782   4.776
10845SOL    HW233435   4.288   6.891   4.658
10846SOL     OW33436   5.247   0.779   6.918
10846SOL    HW133437   5.219   0.719   6.994
10846SOL    HW233438   5.337   0.816   6.937
10847SOL     OW33439   1.763   0.954   6.616
10847SOL    HW133440   1.831   0.897   6.568
10847SOL    HW233441   1.790   1.050   6.610
10848SOL     OW33442   1.542   4.892   2.117
10848SOL    HW133443   1.611   4.953   2.078
10848SOL    HW233444   1.568   4.797   2.102
10849SOL     OW33445   2.432   6.429   4.491
10849SOL    HW133446   2.341   6.456   4.521
10849SOL    HW233447   2.501   6.471   4.551
10850SOL     OW33448   3.418   5.225   0.270
10850SOL    HW133449   3.469   5.169   0.205
10850SOL    HW233450   3.481   5.267   0.335
10851SOL     OW33451   2.053   5.442   0.688
10851SOL    HW133452   2.004   5.525   0.714
10851SOL    HW233453   2.133   5.465   0.633
10852SOL     OW33454   2.236   1.652   1.874
10852SOL    HW133455   2.146   1.623   1.841
10852SOL    HW233456   2.231   1.670   1.972
10853SOL     OW33457   2.545   2.061   6.058
10853SOL    HW133458   2.559   2.043   6.155
10853SOL    HW233459   2.565   2.157   6.039
10854SOL     OW33460   3.634   6.135   5.259
10854SOL    HW133461   3.584   6.058   5.300
10854SOL    HW233462   3.600   6.221   5.297
10855SOL     OW33463   3.421   1.449   6.965
10855SOL    HW133464   3.444   1.358   6.997
10855SOL    HW233465   3.338   1.481   7.012
10856SOL     OW33466   0.246   1.335   0.265
10856SOL    HW133467   0.218   1.420   0.309
10856SOL    HW233468   0.320   1.292   0.318
10857SOL     OW33469   6.560   2.016   2.524
10857SOL    HW133470   6.493   2.022   2.598
10857SOL    HW233471   6.592   1.922   2.515
10858SOL     OW33472   2.249   6.196   2.019
10858SOL    HW133473   2.255   6.152   1.930
10858SOL    HW233474   2.290   6.137   2.089
10859SOL     OW33475   1.766   5.624   3.655
10859SOL    HW133476   1.781   5.529   3.684
10859SOL    HW233477   1.724   5.624   3.564
10860SOL     OW33478   0.450   3.000   3.257
10860SOL    HW133479   0.514   3.034   3.326
10860SOL    HW233480   0.401   2.920   3.294
10861SOL     OW33481   4.129   3.360   4.841
10861SOL    HW133482   4.211   3.306   4.822
10861SOL    HW233483   4.052   3.298   4.858
10862SOL     OW33484   1.230   0.847   4.633
10862SOL    HW133485   1.194   0.890   4.550
10862SOL    HW233486   1.289   0.770   4.607
10863SOL     OW33487   3.341   5.853   4.493
10863SOL    HW133488   3.318   5.926   4.558
10863SOL    HW233489   3.415   5.884   4.433
10864SOL     OW33490   3.626   5.865   2.949
10864SOL    HW133491   3.536   5.856   2.991
10864SOL    HW233492   3.618   5.860   2.850
10865SOL     OW33493   6.223   1.895   5.978
10865SOL    HW133494   6.229   1.796   5.973
10865SOL    HW233495   6.131   1.922   6.004
10866SOL     OW33496   5.602   5.083   0.945
10866SOL    HW133497   5.640   5.151   1.007
10866SOL    HW233498   5.518   5.118   0.904
10867SOL     OW33499   3.151   1.818   0.165
10867SOL    HW133500   3.059   1.857   0.174
10867SOL    HW233501   3.216   1.891   0.147
10868SOL     OW33502   2.640   2.440   2.553
10868SOL    HW133503   2.587   2.450   2.469
10868SOL    HW233504   2.705   2.365   2.543
10869NA      NA33505   6.427   2.111   5.592
10870NA      NA33506   4.340   4.580   5.295
10871NA      NA33507   2.521   3.618   1.514
10872NA      NA33508   4.902   3.735   5.224
10873NA      NA33509   4.141   2.375   5.351
10874NA      NA33510   3.716   4.796   1.731
10875NA      NA33511   6.656   5.793   5.030
10876NA      NA33512   3.680   4.102   4.921
10877NA      NA33513   4.540   6.835   7.021
10878NA      NA33514   3.982   0.017   5.156
10879NA      NA33515   0.103   5.053   2.943
10880NA      NA33516   2.630   0.441   2.849
10881NA      NA33517   3.707   4.093   1.012
10882NA      NA33518   3.411   3.503   2.989
   7.02512   7.02512   7.02512
