Generated by trjconv : CNT in water t= 333.00000
33518
    1C        C    1   2.848   2.773   4.748
    1C        C    2   2.900   2.716   4.867
    1C        C    3   2.840   2.770   4.982
    1C        C    4   2.850   2.776   4.260
    1C        C    5   2.902   2.730   4.383
    1C        C    6   2.846   2.771   4.506
    1C        C    7   3.018   2.645   4.626
    1C        C    8   2.901   2.723   4.627
    1C        C    9   3.081   2.605   4.745
    1C        C   10   3.011   2.630   4.866
    1C        C   11   3.182   2.482   4.978
    1C        C   12   3.063   2.557   4.974
    1C        C   13   2.848   2.773   3.774
    1C        C   14   2.900   2.723   3.896
    1C        C   15   2.848   2.774   4.016
    1C        C   16   3.016   2.643   4.138
    1C        C   17   2.901   2.725   4.138
    1C        C   18   3.078   2.608   4.260
    1C        C   19   3.018   2.649   4.381
    1C        C   20   3.209   2.555   4.502
    1C        C   21   3.079   2.611   4.503
    1C        C   22   3.276   2.535   4.624
    1C        C   23   3.207   2.540   4.748
    1C        C   24   3.413   2.478   4.863
    1C        C   25   3.270   2.492   4.866
    1C        C   26   3.489   2.477   4.981
    1C        C   27   2.853   2.769   3.285
    1C        C   28   2.905   2.723   3.408
    1C        C   29   2.853   2.772   3.530
    1C        C   30   3.021   2.647   3.651
    1C        C   31   2.907   2.729   3.653
    1C        C   32   3.078   2.605   3.774
    1C        C   33   3.012   2.637   3.894
    1C        C   34   3.207   2.550   4.016
    1C        C   35   3.076   2.604   4.016
    1C        C   36   3.273   2.524   4.138
    1C        C   37   3.206   2.548   4.259
    1C        C   38   3.415   2.503   4.380
    1C        C   39   3.277   2.531   4.381
    1C        C   40   3.487   2.496   4.502
    1C        C   41   3.414   2.504   4.623
    1C        C   42   3.629   2.485   4.745
    1C        C   43   3.487   2.486   4.742
    1C        C   44   3.708   2.484   4.862
    1C        C   45   3.628   2.473   4.977
    1C        C   46   2.842   2.754   2.793
    1C        C   47   2.901   2.715   2.915
    1C        C   48   2.850   2.763   3.038
    1C        C   49   3.015   2.634   3.163
    1C        C   50   2.903   2.721   3.162
    1C        C   51   3.077   2.598   3.285
    1C        C   52   3.018   2.639   3.406
    1C        C   53   3.208   2.546   3.528
    1C        C   54   3.080   2.607   3.529
    1C        C   55   3.274   2.519   3.650
    1C        C   56   3.204   2.540   3.771
    1C        C   57   3.411   2.498   3.894
    1C        C   58   3.272   2.522   3.894
    1C        C   59   3.483   2.494   4.016
    1C        C   60   3.412   2.498   4.138
    1C        C   61   3.627   2.494   4.258
    1C        C   62   3.485   2.491   4.258
    1C        C   63   3.698   2.510   4.379
    1C        C   64   3.628   2.501   4.501
    1C        C   65   3.834   2.540   4.619
    1C        C   66   3.699   2.498   4.623
    1C        C   67   3.904   2.562   4.739
    1C        C   68   3.843   2.525   4.862
    1C        C   69   4.055   2.576   4.975
    1C        C   70   3.923   2.530   4.977
    1C        C   71   2.830   2.740   2.307
    1C        C   72   2.885   2.693   2.428
    1C        C   73   2.838   2.749   2.549
    1C        C   74   3.010   2.623   2.673
    1C        C   75   2.892   2.702   2.671
    1C        C   76   3.072   2.591   2.795
    1C        C   77   3.014   2.630   2.918
    1C        C   78   3.205   2.547   3.037
    1C        C   79   3.072   2.594   3.041
    1C        C   80   3.272   2.527   3.160
    1C        C   81   3.208   2.544   3.284
    1C        C   82   3.415   2.496   3.403
    1C        C   83   3.276   2.522   3.406
    1C        C   84   3.483   2.489   3.527
    1C        C   85   3.412   2.493   3.649
    1C        C   86   3.622   2.500   3.769
    1C        C   87   3.482   2.489   3.772
    1C        C   88   3.693   2.512   3.890
    1C        C   89   3.624   2.502   4.014
    1C        C   90   3.831   2.548   4.134
    1C        C   91   3.695   2.512   4.136
    1C        C   92   3.902   2.570   4.255
    1C        C   93   3.835   2.543   4.376
    1C        C   94   4.028   2.632   4.497
    1C        C   95   3.903   2.565   4.498
    1C        C   96   4.091   2.666   4.619
    1C        C   97   4.033   2.621   4.740
    1C        C   98   4.188   2.764   4.860
    1C        C   99   4.102   2.649   4.861
    1C        C  100   4.218   2.835   4.976
    1C        C  101   2.826   2.730   2.066
    1C        C  102   2.993   2.595   2.187
    1C        C  103   2.878   2.681   2.187
    1C        C  104   3.064   2.574   2.309
    1C        C  105   3.002   2.613   2.430
    1C        C  106   3.197   2.526   2.548
    1C        C  107   3.068   2.583   2.551
    1C        C  108   3.268   2.516   2.670
    1C        C  109   3.200   2.533   2.793
    1C        C  110   3.408   2.488   2.914
    1C        C  111   3.271   2.519   2.915
    1C        C  112   3.480   2.485   3.036
    1C        C  113   3.410   2.498   3.158
    1C        C  114   3.624   2.502   3.278
    1C        C  115   3.482   2.494   3.279
    1C        C  116   3.691   2.510   3.402
    1C        C  117   3.624   2.502   3.526
    1C        C  118   3.831   2.548   3.644
    1C        C  119   3.695   2.511   3.648
    1C        C  120   3.895   2.574   3.767
    1C        C  121   3.828   2.553   3.890
    1C        C  122   4.023   2.637   4.009
    1C        C  123   3.896   2.575   4.012
    1C        C  124   4.087   2.672   4.130
    1C        C  125   4.028   2.633   4.253
    1C        C  126   4.195   2.763   4.375
    1C        C  127   4.086   2.672   4.376
    1C        C  128   4.243   2.816   4.497
    1C        C  129   4.195   2.762   4.618
    1C        C  130   4.326   2.932   4.737
    1C        C  131   4.238   2.820   4.739
    1C        C  132   4.358   3.000   4.857
    1C        C  133   4.290   2.954   4.971
    1C        C  134   3.172   2.471   2.081
    1C        C  135   3.038   2.511   2.081
    1C        C  136   3.260   2.482   2.189
    1C        C  137   3.194   2.517   2.309
    1C        C  138   3.405   2.474   2.428
    1C        C  139   3.265   2.493   2.428
    1C        C  140   3.479   2.470   2.549
    1C        C  141   3.406   2.486   2.669
    1C        C  142   3.619   2.496   2.790
    1C        C  143   3.478   2.486   2.791
    1C        C  144   3.690   2.507   2.911
    1C        C  145   3.620   2.497   3.034
    1C        C  146   3.830   2.539   3.155
    1C        C  147   3.692   2.511   3.155
    1C        C  148   3.895   2.570   3.277
    1C        C  149   3.828   2.544   3.398
    1C        C  150   4.022   2.631   3.520
    1C        C  151   3.896   2.566   3.520
    1C        C  152   4.081   2.670   3.642
    1C        C  153   4.021   2.638   3.766
    1C        C  154   4.192   2.766   3.886
    1C        C  155   4.081   2.679   3.887
    1C        C  156   4.247   2.811   4.008
    1C        C  157   4.198   2.759   4.129
    1C        C  158   4.336   2.919   4.252
    1C        C  159   4.245   2.811   4.252
    1C        C  160   4.379   2.980   4.372
    1C        C  161   4.330   2.927   4.494
    1C        C  162   4.436   3.113   4.614
    1C        C  163   4.367   2.989   4.615
    1C        C  164   4.467   3.181   4.733
    1C        C  165   4.436   3.117   4.855
    1C        C  166   4.516   3.316   4.967
    1C        C  167   4.484   3.181   4.971
    1C        C  168   3.473   2.439   2.071
    1C        C  169   3.399   2.458   2.189
    1C        C  170   3.618   2.461   2.307
    1C        C  171   3.476   2.460   2.307
    1C        C  172   3.692   2.485   2.426
    1C        C  173   3.620   2.478   2.547
    1C        C  174   3.826   2.537   2.664
    1C        C  175   3.690   2.497   2.668
    1C        C  176   3.890   2.563   2.786
    1C        C  177   3.827   2.544   2.911
    1C        C  178   4.021   2.630   3.031
    1C        C  179   3.896   2.565   3.032
    1C        C  180   4.081   2.668   3.153
    1C        C  181   4.022   2.633   3.276
    1C        C  182   4.196   2.752   3.396
    1C        C  183   4.085   2.665   3.398
    1C        C  184   4.247   2.803   3.518
    1C        C  185   4.193   2.757   3.640
    1C        C  186   4.343   2.909   3.763
    1C        C  187   4.245   2.807   3.761
    1C        C  188   4.383   2.971   3.884
    1C        C  189   4.340   2.917   4.007
    1C        C  190   4.451   3.097   4.127
    1C        C  191   4.379   2.975   4.130
    1C        C  192   4.476   3.166   4.248
    1C        C  193   4.445   3.105   4.371
    1C        C  194   4.502   3.313   4.489
    1C        C  195   4.467   3.176   4.491
    1C        C  196   4.518   3.386   4.609
    1C        C  197   4.509   3.317   4.731
    1C        C  198   4.555   3.533   4.851
    1C        C  199   4.532   3.391   4.850
    1C        C  200   4.583   3.617   4.963
    1C        C  201   3.612   2.422   2.072
    1C        C  202   3.825   2.509   2.180
    1C        C  203   3.691   2.461   2.185
    1C        C  204   3.896   2.542   2.299
    1C        C  205   3.826   2.527   2.420
    1C        C  206   4.021   2.616   2.541
    1C        C  207   3.891   2.561   2.541
    1C        C  208   4.079   2.656   2.664
    1C        C  209   4.016   2.628   2.787
    1C        C  210   4.192   2.751   2.905
    1C        C  211   4.079   2.666   2.908
    1C        C  212   4.249   2.796   3.027
    1C        C  213   4.196   2.751   3.150
    1C        C  214   4.332   2.912   3.272
    1C        C  215   4.243   2.802   3.273
    1C        C  216   4.370   2.971   3.394
    1C        C  217   4.336   2.913   3.519
    1C        C  218   4.435   3.099   3.638
    1C        C  219   4.380   2.968   3.641
    1C        C  220   4.463   3.164   3.760
    1C        C  221   4.445   3.098   3.884
    1C        C  222   4.505   3.302   4.004
    1C        C  223   4.476   3.164   4.005
    1C        C  224   4.518   3.376   4.124
    1C        C  225   4.505   3.305   4.246
    1C        C  226   4.520   3.521   4.368
    1C        C  227   4.513   3.380   4.365
    1C        C  228   4.521   3.597   4.486
    1C        C  229   4.529   3.527   4.608
    1C        C  230   4.498   3.739   4.725
    1C        C  231   4.533   3.601   4.728
    1C        C  232   4.490   3.815   4.844
    1C        C  233   4.533   3.748   4.960
    1C        C  234   4.017   2.610   2.063
    1C        C  235   3.899   2.537   2.064
    1C        C  236   4.086   2.650   2.179
    1C        C  237   4.025   2.603   2.297
    1C        C  238   4.198   2.730   2.419
    1C        C  239   4.083   2.646   2.418
    1C        C  240   4.252   2.780   2.540
    1C        C  241   4.191   2.743   2.662
    1C        C  242   4.339   2.900   2.782
    1C        C  243   4.242   2.797   2.781
    1C        C  244   4.377   2.961   2.904
    1C        C  245   4.341   2.903   3.027
    1C        C  246   4.440   3.092   3.145
    1C        C  247   4.376   2.966   3.149
    1C        C  248   4.465   3.157   3.268
    1C        C  249   4.434   3.096   3.392
    1C        C  250   4.494   3.299   3.512
    1C        C  251   4.459   3.163   3.515
    1C        C  252   4.508   3.370   3.634
    1C        C  253   4.501   3.300   3.757
    1C        C  254   4.518   3.509   3.877
    1C        C  255   4.518   3.368   3.880
    1C        C  256   4.506   3.581   3.998
    1C        C  257   4.514   3.517   4.124
    1C        C  258   4.493   3.730   4.242
    1C        C  259   4.516   3.590   4.245
    1C        C  260   4.471   3.804   4.360
    1C        C  261   4.487   3.734   4.481
    1C        C  262   4.420   3.936   4.600
    1C        C  263   4.472   3.805   4.603
    1C        C  264   4.398   4.006   4.721
    1C        C  265   4.435   3.945   4.843
    1C        C  266   4.315   4.130   4.956
    1C        C  267   4.393   4.014   4.957
    1C        C  268   4.263   2.775   2.058
    1C        C  269   4.198   2.736   2.176
    1C        C  270   4.348   2.885   2.297
    1C        C  271   4.252   2.780   2.298
    1C        C  272   4.385   2.946   2.419
    1C        C  273   4.344   2.887   2.540
    1C        C  274   4.444   3.081   2.657
    1C        C  275   4.381   2.954   2.659
    1C        C  276   4.467   3.150   2.778
    1C        C  277   4.443   3.086   2.902
    1C        C  278   4.511   3.290   3.022
    1C        C  279   4.472   3.154   3.023
    1C        C  280   4.518   3.360   3.144
    1C        C  281   4.503   3.293   3.268
    1C        C  282   4.514   3.507   3.390
    1C        C  283   4.510   3.366   3.389
    1C        C  284   4.513   3.581   3.510
    1C        C  285   4.516   3.511   3.633
    1C        C  286   4.483   3.719   3.753
    1C        C  287   4.511   3.580   3.756
    1C        C  288   4.468   3.788   3.875
    1C        C  289   4.488   3.721   3.998
    1C        C  290   4.428   3.928   4.115
    1C        C  291   4.475   3.795   4.118
    1C        C  292   4.399   3.996   4.235
    1C        C  293   4.423   3.937   4.361
    1C        C  294   4.322   4.128   4.476
    1C        C  295   4.392   4.006   4.480
    1C        C  296   4.279   4.186   4.598
    1C        C  297   4.321   4.126   4.719
    1C        C  298   4.198   4.312   4.836
    1C        C  299   4.278   4.193   4.836
    1C        C  300   4.168   4.404   4.942
    1C        C  301   4.355   2.880   2.062
    1C        C  302   4.473   3.065   2.173
    1C        C  303   4.405   2.940   2.178
    1C        C  304   4.486   3.137   2.295
    1C        C  305   4.451   3.071   2.415
    1C        C  306   4.508   3.280   2.534
    1C        C  307   4.474   3.143   2.534
    1C        C  308   4.519   3.353   2.654
    1C        C  309   4.505   3.286   2.778
    1C        C  310   4.523   3.499   2.899
    1C        C  311   4.521   3.358   2.898
    1C        C  312   4.519   3.571   3.021
    1C        C  313   4.524   3.501   3.144
    1C        C  314   4.481   3.711   3.264
    1C        C  315   4.514   3.573   3.265
    1C        C  316   4.467   3.786   3.383
    1C        C  317   4.488   3.720   3.506
    1C        C  318   4.418   3.918   3.627
    1C        C  319   4.465   3.785   3.630
    1C        C  320   4.385   3.982   3.749
    1C        C  321   4.417   3.920   3.872
    1C        C  322   4.317   4.108   3.988
    1C        C  323   4.394   3.990   3.992
    1C        C  324   4.278   4.168   4.110
    1C        C  325   4.325   4.117   4.233
    1C        C  326   4.182   4.281   4.352
    1C        C  327   4.281   4.180   4.352
    1C        C  328   4.134   4.339   4.471
    1C        C  329   4.186   4.292   4.594
    1C        C  330   4.027   4.438   4.710
    1C        C  331   4.141   4.354   4.713
    1C        C  332   3.971   4.491   4.828
    1C        C  333   4.050   4.479   4.943
    1C        C  334   4.559   3.267   2.063
    1C        C  335   4.531   3.129   2.059
    1C        C  336   4.536   3.349   2.174
    1C        C  337   4.514   3.277   2.294
    1C        C  338   4.524   3.493   2.411
    1C        C  339   4.520   3.351   2.413
    1C        C  340   4.511   3.565   2.531
    1C        C  341   4.518   3.495   2.654
    1C        C  342   4.495   3.707   2.775
    1C        C  343   4.514   3.567   2.775
    1C        C  344   4.476   3.778   2.896
    1C        C  345   4.490   3.709   3.018
    1C        C  346   4.420   3.910   3.134
    1C        C  347   4.463   3.776   3.140
    1C        C  348   4.390   3.976   3.256
    1C        C  349   4.419   3.919   3.382
    1C        C  350   4.320   4.104   3.499
    1C        C  351   4.393   3.984   3.505
    1C        C  352   4.275   4.163   3.620
    1C        C  353   4.315   4.104   3.742
    1C        C  354   4.179   4.266   3.865
    1C        C  355   4.275   4.162   3.865
    1C        C  356   4.126   4.317   3.985
    1C        C  357   4.176   4.265   4.107
    1C        C  358   4.010   4.400   4.230
    1C        C  359   4.125   4.318   4.228
    1C        C  360   3.950   4.446   4.349
    1C        C  361   4.020   4.422   4.470
    1C        C  362   3.826   4.515   4.589
    1C        C  363   3.956   4.461   4.589
    1C        C  364   3.762   4.546   4.711
    1C        C  365   3.838   4.539   4.829
    1C        C  366   3.628   4.587   4.946
    1C        C  367   3.766   4.573   4.945
    1C        C  368   4.511   3.561   2.052
    1C        C  369   4.525   3.490   2.172
    1C        C  370   4.503   3.707   2.289
    1C        C  371   4.518   3.566   2.290
    1C        C  372   4.484   3.779   2.409
    1C        C  373   4.495   3.705   2.529
    1C        C  374   4.421   3.903   2.649
    1C        C  375   4.476   3.773   2.652
    1C        C  376   4.391   3.972   2.768
    1C        C  377   4.424   3.910   2.891
    1C        C  378   4.319   4.095   3.014
    1C        C  379   4.393   3.975   3.012
    1C        C  380   4.270   4.153   3.134
    1C        C  381   4.311   4.093   3.255
    1C        C  382   4.173   4.255   3.376
    1C        C  383   4.274   4.155   3.376
    1C        C  384   4.120   4.307   3.496
    1C        C  385   4.176   4.264   3.619
    1C        C  386   4.007   4.388   3.742
    1C        C  387   4.124   4.309   3.742
    1C        C  388   3.946   4.427   3.863
    1C        C  389   4.008   4.395   3.986
    1C        C  390   3.816   4.485   4.106
    1C        C  391   3.947   4.433   4.108
    1C        C  392   3.749   4.518   4.226
    1C        C  393   3.821   4.503   4.346
    1C        C  394   3.616   4.556   4.474
    1C        C  395   3.755   4.532   4.468
    1C        C  396   3.544   4.566   4.595
    1C        C  397   3.621   4.558   4.713
    1C        C  398   3.408   4.545   4.838
    1C        C  399   3.548   4.567   4.833
    1C        C  400   3.339   4.508   4.954
    1C        C  401   4.503   3.700   2.054
    1C        C  402   4.456   3.916   2.165
    1C        C  403   4.492   3.780   2.169
    1C        C  404   4.413   3.977   2.284
    1C        C  405   4.437   3.912   2.407
    1C        C  406   4.326   4.094   2.527
    1C        C  407   4.402   3.975   2.529
    1C        C  408   4.279   4.150   2.648
    1C        C  409   4.316   4.092   2.771
    1C        C  410   4.180   4.255   2.888
    1C        C  411   4.277   4.153   2.892
    1C        C  412   4.125   4.305   3.008
    1C        C  413   4.169   4.252   3.131
    1C        C  414   3.999   4.376   3.253
    1C        C  415   4.118   4.300   3.254
    1C        C  416   3.940   4.416   3.375
    1C        C  417   4.004   4.387   3.498
    1C        C  418   3.812   4.475   3.619
    1C        C  419   3.943   4.423   3.620
    1C        C  420   3.746   4.504   3.741
    1C        C  421   3.816   4.483   3.862
    1C        C  422   3.609   4.530   3.986
    1C        C  423   3.748   4.502   3.983
    1C        C  424   3.538   4.537   4.108
    1C        C  425   3.610   4.542   4.230
    1C        C  426   3.401   4.547   4.356
    1C        C  427   3.542   4.554   4.353
    1C        C  428   3.330   4.545   4.478
    1C        C  429   3.404   4.551   4.598
    1C        C  430   3.192   4.516   4.720
    1C        C  431   3.332   4.542   4.720
    1C        C  432   3.123   4.491   4.842
    1C        C  433   3.201   4.492   4.959
    1C        C  434   4.386   4.124   2.050
    1C        C  435   4.454   4.002   2.053
    1C        C  436   4.302   4.160   2.160
    1C        C  437   4.333   4.095   2.283
    1C        C  438   4.183   4.248   2.400
    1C        C  439   4.286   4.151   2.404
    1C        C  440   4.128   4.295   2.521
    1C        C  441   4.185   4.256   2.644
    1C        C  442   4.005   4.373   2.764
    1C        C  443   4.126   4.300   2.765
    1C        C  444   3.942   4.411   2.884
    1C        C  445   4.005   4.379   3.006
    1C        C  446   3.814   4.471   3.129
    1C        C  447   3.942   4.410   3.129
    1C        C  448   3.746   4.496   3.250
    1C        C  449   3.813   4.478   3.373
    1C        C  450   3.609   4.531   3.497
    1C        C  451   3.747   4.500   3.496
    1C        C  452   3.538   4.539   3.619
    1C        C  453   3.608   4.533   3.742
    1C        C  454   3.398   4.544   3.865
    1C        C  455   3.539   4.544   3.864
    1C        C  456   3.329   4.534   3.988
    1C        C  457   3.397   4.538   4.112
    1C        C  458   3.192   4.498   4.235
    1C        C  459   3.330   4.527   4.236
    1C        C  460   3.126   4.481   4.358
    1C        C  461   3.192   4.512   4.479
    1C        C  462   2.994   4.433   4.600
    1C        C  463   3.122   4.492   4.600
    1C        C  464   2.927   4.403   4.721
    1C        C  465   2.989   4.442   4.843
    1C        C  466   2.801   4.334   4.958
    1C        C  467   2.904   4.429   4.958
    1C        C  468   4.121   4.279   2.041
    1C        C  469   4.188   4.246   2.160
    1C        C  470   4.003   4.365   2.277
    1C        C  471   4.127   4.294   2.279
    1C        C  472   3.941   4.399   2.399
    1C        C  473   4.010   4.373   2.520
    1C        C  474   3.815   4.464   2.641
    1C        C  475   3.945   4.407   2.641
    1C        C  476   3.746   4.488   2.762
    1C        C  477   3.811   4.465   2.885
    1C        C  478   3.607   4.521   3.007
    1C        C  479   3.744   4.487   3.007
    1C        C  480   3.536   4.533   3.129
    1C        C  481   3.607   4.519   3.251
    1C        C  482   3.398   4.529   3.378
    1C        C  483   3.539   4.530   3.374
    1C        C  484   3.326   4.530   3.499
    1C        C  485   3.397   4.537   3.621
    1C        C  486   3.190   4.498   3.744
    1C        C  487   3.327   4.534   3.744
    1C        C  488   3.124   4.476   3.867
    1C        C  489   3.191   4.504   3.988
    1C        C  490   3.002   4.410   4.115
    1C        C  491   3.125   4.479   4.111
    1C        C  492   2.938   4.379   4.237
    1C        C  493   2.999   4.418   4.359
    1C        C  494   2.827   4.295   4.483
    1C        C  495   2.937   4.384   4.481
    1C        C  496   2.770   4.253   4.605
    1C        C  497   2.818   4.311   4.724
    1C        C  498   2.665   4.160   4.844
    1C        C  499   2.754   4.270   4.843
    1C        C  500   2.589   4.117   4.953
    1C        C  501   4.005   4.356   2.039
    1C        C  502   3.812   4.459   2.155
    1C        C  503   3.940   4.399   2.156
    1C        C  504   3.741   4.474   2.276
    1C        C  505   3.810   4.452   2.397
    1C        C  506   3.608   4.507   2.518
    1C        C  507   3.747   4.482   2.519
    1C        C  508   3.537   4.518   2.640
    1C        C  509   3.607   4.516   2.762
    1C        C  510   3.396   4.524   2.887
    1C        C  511   3.538   4.528   2.884
    1C        C  512   3.322   4.519   3.007
    1C        C  513   3.395   4.525   3.128
    1C        C  514   3.195   4.487   3.254
    1C        C  515   3.331   4.524   3.254
    1C        C  516   3.127   4.462   3.375
    1C        C  517   3.189   4.494   3.498
    1C        C  518   3.001   4.404   3.623
    1C        C  519   3.124   4.473   3.622
    1C        C  520   2.942   4.369   3.747
    1C        C  521   2.999   4.410   3.869
    1C        C  522   2.832   4.283   3.994
    1C        C  523   2.943   4.370   3.993
    1C        C  524   2.786   4.234   4.118
    1C        C  525   2.828   4.291   4.241
    1C        C  526   2.694   4.126   4.362
    1C        C  527   2.779   4.238   4.363
    1C        C  528   2.651   4.073   4.487
    1C        C  529   2.684   4.141   4.606
    1C        C  530   2.577   3.958   4.729
    1C        C  531   2.634   4.088   4.727
    1C        C  532   2.535   3.900   4.852
    1C        C  533   2.523   3.993   4.960
    1C        C  534   3.617   4.560   2.041
    1C        C  535   3.747   4.507   2.040
    1C        C  536   3.534   4.532   2.153
    1C        C  537   3.601   4.501   2.274
    1C        C  538   3.393   4.516   2.403
    1C        C  539   3.534   4.516   2.398
    1C        C  540   3.322   4.511   2.525
    1C        C  541   3.396   4.514   2.645
    1C        C  542   3.187   4.476   2.767
    1C        C  543   3.324   4.512   2.767
    1C        C  544   3.120   4.455   2.889
    1C        C  545   3.186   4.479   3.012
    1C        C  546   2.995   4.398   3.135
    1C        C  547   3.120   4.463   3.136
    1C        C  548   2.935   4.363   3.258
    1C        C  549   2.998   4.404   3.378
    1C        C  550   2.829   4.282   3.506
    1C        C  551   2.938   4.370   3.501
    1C        C  552   2.776   4.234   3.628
    1C        C  553   2.829   4.284   3.749
    1C        C  554   2.703   4.116   3.877
    1C        C  555   2.782   4.233   3.872
    1C        C  556   2.660   4.058   3.999
    1C        C  557   2.697   4.125   4.118
    1C        C  558   2.593   3.940   4.245
    1C        C  559   2.659   4.065   4.240
    1C        C  560   2.563   3.879   4.369
    1C        C  561   2.586   3.948   4.490
    1C        C  562   2.525   3.745   4.614
    1C        C  563   2.557   3.882   4.612
    1C        C  564   2.507   3.679   4.738
    1C        C  565   2.512   3.758   4.856
    1C        C  566   2.529   3.546   4.979
    1C        C  567   2.518   3.685   4.975
    1C        C  568   3.329   4.459   2.044
    1C        C  569   3.393   4.513   2.157
    1C        C  570   3.185   4.475   2.279
    1C        C  571   3.323   4.508   2.280
    1C        C  572   3.116   4.459   2.402
    1C        C  573   3.184   4.480   2.524
    1C        C  574   2.988   4.397   2.646
    1C        C  575   3.118   4.453   2.646
    1C        C  576   2.925   4.364   2.769
    1C        C  577   2.992   4.395   2.889
    1C        C  578   2.825   4.270   3.017
    1C        C  579   2.935   4.357   3.013
    1C        C  580   2.776   4.221   3.140
    1C        C  581   2.826   4.273   3.262
    1C        C  582   2.691   4.114   3.383
    1C        C  583   2.782   4.223   3.386
    1C        C  584   2.660   4.056   3.508
    1C        C  585   2.700   4.114   3.630
    1C        C  586   2.597   3.933   3.754
    1C        C  587   2.665   4.056   3.754
    1C        C  588   2.568   3.871   3.878
    1C        C  589   2.595   3.933   4.002
    1C        C  590   2.528   3.734   4.124
    1C        C  591   2.568   3.870   4.125
    1C        C  592   2.524   3.668   4.249
    1C        C  593   2.531   3.741   4.370
    1C        C  594   2.512   3.532   4.495
    1C        C  595   2.519   3.673   4.493
    1C        C  596   2.513   3.466   4.620
    1C        C  597   2.506   3.537   4.742
    1C        C  598   2.533   3.327   4.863
    1C        C  599   2.521   3.468   4.864
    1C        C  600   2.526   3.247   4.977
    1C        C  601   3.193   4.435   2.041
    1C        C  602   2.982   4.392   2.158
    1C        C  603   3.118   4.438   2.159
    1C        C  604   2.923   4.363   2.284
    1C        C  605   2.988   4.399   2.404
    1C        C  606   2.818   4.270   2.529
    1C        C  607   2.926   4.361   2.525
    1C        C  608   2.767   4.221   2.651
    1C        C  609   2.815   4.276   2.772
    1C        C  610   2.684   4.111   2.893
    1C        C  611   2.770   4.222   2.895
    1C        C  612   2.653   4.051   3.017
    1C        C  613   2.690   4.109   3.140
    1C        C  614   2.590   3.926   3.266
    1C        C  615   2.646   4.056   3.263
    1C        C  616   2.565   3.862   3.390
    1C        C  617   2.599   3.928   3.510
    1C        C  618   2.529   3.730   3.636
    1C        C  619   2.574   3.864   3.633
    1C        C  620   2.514   3.662   3.760
    1C        C  621   2.529   3.735   3.880
    1C        C  622   2.506   3.523   4.008
    1C        C  623   2.516   3.664   4.002
    1C        C  624   2.513   3.455   4.131
    1C        C  625   2.512   3.528   4.253
    1C        C  626   2.543   3.319   4.379
    1C        C  627   2.514   3.457   4.375
    1C        C  628   2.560   3.254   4.503
    1C        C  629   2.538   3.327   4.622
    1C        C  630   2.601   3.121   4.745
    1C        C  631   2.558   3.257   4.743
    1C        C  632   2.619   3.051   4.867
    1C        C  633   2.561   3.111   4.983
    1C        C  634   2.781   4.309   2.055
    1C        C  635   2.896   4.388   2.043
    1C        C  636   2.745   4.237   2.169
    1C        C  637   2.807   4.281   2.288
    1C        C  638   2.675   4.111   2.408
    1C        C  639   2.761   4.224   2.409
    1C        C  640   2.634   4.053   2.530
    1C        C  641   2.676   4.112   2.651
    1C        C  642   2.584   3.920   2.773
    1C        C  643   2.639   4.051   2.773
    1C        C  644   2.564   3.858   2.898
    1C        C  645   2.588   3.925   3.020
    1C        C  646   2.524   3.725   3.147
    1C        C  647   2.568   3.860   3.144
    1C        C  648   2.509   3.655   3.269
    1C        C  649   2.529   3.725   3.390
    1C        C  650   2.503   3.519   3.519
    1C        C  651   2.517   3.659   3.514
    1C        C  652   2.502   3.448   3.642
    1C        C  653   2.507   3.521   3.762
    1C        C  654   2.523   3.312   3.887
    1C        C  655   2.508   3.452   3.886
    1C        C  656   2.543   3.245   4.010
    1C        C  657   2.538   3.316   4.132
    1C        C  658   2.604   3.117   4.256
    1C        C  659   2.556   3.250   4.256
    1C        C  660   2.636   3.055   4.379
    1C        C  661   2.610   3.122   4.501
    1C        C  662   2.716   2.941   4.625
    1C        C  663   2.635   3.056   4.624
    1C        C  664   2.756   2.881   4.747
    1C        C  665   2.697   2.931   4.866
    1C        C  666   2.743   2.869   4.983
    1C        C  667   2.679   4.031   2.051
    1C        C  668   2.686   4.109   2.167
    1C        C  669   2.585   3.917   2.289
    1C        C  670   2.645   4.046   2.287
    1C        C  671   2.550   3.853   2.410
    1C        C  672   2.577   3.924   2.529
    1C        C  673   2.521   3.719   2.656
    1C        C  674   2.556   3.856   2.651
    1C        C  675   2.515   3.651   2.780
    1C        C  676   2.527   3.722   2.902
    1C        C  677   2.513   3.512   3.029
    1C        C  678   2.515   3.654   3.026
    1C        C  679   2.510   3.442   3.152
    1C        C  680   2.504   3.514   3.273
    1C        C  681   2.536   3.309   3.399
    1C        C  682   2.508   3.447   3.398
    1C        C  683   2.550   3.243   3.523
    1C        C  684   2.528   3.309   3.646
    1C        C  685   2.594   3.108   3.769
    1C        C  686   2.536   3.237   3.767
    1C        C  687   2.621   3.044   3.892
    1C        C  688   2.585   3.110   4.012
    1C        C  689   2.712   2.938   4.138
    1C        C  690   2.627   3.051   4.133
    1C        C  691   2.760   2.884   4.259
    1C        C  692   2.715   2.938   4.382
    1C        C  693   2.755   2.879   4.504
    1C        C  694   2.631   3.899   2.057
    1C        C  695   2.527   3.708   2.173
    1C        C  696   2.575   3.840   2.171
    1C        C  697   2.506   3.642   2.296
    1C        C  698   2.516   3.716   2.416
    1C        C  699   2.495   3.504   2.541
    1C        C  700   2.501   3.645   2.537
    1C        C  701   2.511   3.436   2.664
    1C        C  702   2.512   3.510   2.784
    1C        C  703   2.543   3.302   2.909
    1C        C  704   2.519   3.441   2.907
    1C        C  705   2.554   3.234   3.033
    1C        C  706   2.532   3.303   3.154
    1C        C  707   2.599   3.104   3.280
    1C        C  708   2.549   3.236   3.278
    1C        C  709   2.634   3.046   3.405
    1C        C  710   2.606   3.113   3.526
    1C        C  711   2.712   2.930   3.647
    1C        C  712   2.632   3.046   3.648
    1C        C  713   2.751   2.876   3.772
    1C        C  714   2.708   2.933   3.894
    1C        C  715   2.751   2.877   4.017
    1C        C  716   2.451   3.502   2.064
    1C        C  717   2.496   3.634   2.057
    1C        C  718   2.470   3.423   2.182
    1C        C  719   2.480   3.502   2.299
    1C        C  720   2.521   3.293   2.424
    1C        C  721   2.489   3.431   2.421
    1C        C  722   2.544   3.224   2.545
    1C        C  723   2.536   3.297   2.666
    1C        C  724   2.604   3.097   2.789
    1C        C  725   2.554   3.229   2.789
    1C        C  726   2.635   3.038   2.914
    1C        C  727   2.604   3.102   3.035
    1C        C  728   2.705   2.919   3.159
    1C        C  729   2.628   3.038   3.159
    1C        C  730   2.750   2.866   3.282
    1C        C  731   2.712   2.929   3.402
    1C        C  732   2.754   2.873   3.525
    1C        C  733   2.491   3.199   2.070
    1C        C  734   2.496   3.282   2.183
    1C        C  735   2.585   3.086   2.301
    1C        C  736   2.532   3.218   2.305
    1C        C  737   2.622   3.025   2.423
    1C        C  738   2.596   3.093   2.544
    1C        C  739   2.701   2.911   2.668
    1C        C  740   2.623   3.029   2.667
    1C        C  741   2.745   2.857   2.791
    1C        C  742   2.709   2.917   2.913
    1C        C  743   2.750   2.864   3.037
    1C        C  744   2.544   3.071   2.070
    1C        C  745   2.686   2.897   2.181
    1C        C  746   2.607   3.014   2.182
    1C        C  747   2.737   2.848   2.303
    1C        C  748   2.690   2.901   2.425
    1C        C  749   2.738   2.848   2.546
    1C        C  750   2.739   2.839   2.065
    1C        C  751   3.646   2.318   1.971
    1C        O  752   3.667   2.198   2.004
    1C        O  753   3.683   2.329   1.836
    1C        C  754   4.568   3.054   1.937
    1C        O  755   4.500   3.067   1.832
    1C        O  756   4.707   3.047   1.923
    1C        C  757   4.427   4.219   1.944
    1C        O  758   4.540   4.273   1.950
    1C        O  759   4.393   4.172   1.817
    1C        C  760   3.587   4.650   1.927
    1C        O  761   3.600   4.775   1.928
    1C        O  762   3.554   4.602   1.799
    1C        C  763   2.882   4.514   1.967
    1C        O  764   2.931   4.526   1.851
    1C        O  765   2.860   4.640   2.024
    1C        C  766   2.327   3.485   1.984
    1C        O  767   2.319   3.468   1.860
    1C        O  768   2.199   3.511   2.034
    1C        C  769   4.690   3.595   5.063
    1C        O  770   4.667   3.574   5.185
    1C        O  771   4.815   3.657   5.052
    1C        C  772   4.265   4.469   5.031
    1C        O  773   4.236   4.485   5.153
    1C        O  774   4.337   4.583   4.992
    1C        C  775   4.149   2.523   5.076
    1C        O  776   4.246   2.447   5.050
    1C        O  777   4.136   2.545   5.213
    1C        C  778   2.880   4.545   5.046
    1C        O  779   2.825   4.653   5.009
    1C        O  780   2.913   4.545   5.182
    1C        C  781   2.475   3.033   5.075
    1C        O  782   2.360   2.991   5.046
    1C        O  783   2.511   3.000   5.205
    1C        C  784   2.439   3.978   5.080
    1C        O  785   2.321   4.020   5.068
    1C        O  786   2.498   3.986   5.207
    1C        C  787   2.942   2.420   2.013
    1C        O  788   2.925   2.444   1.890
    1C        O  789   2.923   2.287   2.048
    1C        C  790   3.166   2.352   5.047
    1C        O  791   3.074   2.280   5.002
    1C        O  792   3.157   2.343   5.186
    1C        H  793   4.257   3.025   5.044
    1C        H  794   4.199   2.789   5.071
    1C        H  795   4.510   3.119   5.054
    1C        H  796   4.544   3.358   5.062
    1C        H  797   4.498   3.786   5.053
    1C        H  798   4.440   3.984   5.048
    1C        H  799   4.252   4.148   5.040
    1C        H  800   4.031   4.552   5.020
    1C        H  801   3.813   4.609   5.034
    1C        H  802   3.592   4.658   5.018
    1C        H  803   3.399   4.474   5.037
    1C        H  804   3.158   4.535   5.047
    1C        H  805   3.898   2.458   5.052
    1C        H  806   3.672   2.419   5.058
    1C        H  807   3.022   2.582   5.070
    1C        H  808   3.439   2.497   5.073
    1C        H  809   2.867   2.734   5.080
    1C        H  810   2.669   2.851   5.058
    1C        H  811   2.506   3.298   5.069
    1C        H  812   2.551   3.505   5.076
    1C        H  813   2.533   3.734   5.069
    1C        H  814   2.541   4.194   5.010
    1C        H  815   2.755   4.310   5.052
    1C        H  816   2.722   2.885   1.971
    1C        H  817   2.834   2.669   1.978
    1C        H  818   3.205   2.404   2.004
    1C        H  819   3.434   2.482   1.981
    1C        H  820   3.857   2.518   1.968
    1C        H  821   4.076   2.610   1.973
    1C        H  822   4.273   2.700   1.982
    1C        H  823   4.348   2.947   1.979
    1C        H  824   4.631   3.299   1.991
    1C        H  825   4.469   3.514   1.965
    1C        H  826   4.549   3.747   1.970
    1C        H  827   3.793   4.501   1.944
    1C        H  828   3.951   4.369   1.948
    1C        H  829   4.146   4.222   1.954
    1C        H  830   4.534   3.996   1.982
    1C        H  831   2.682   3.833   1.990
    1C        H  832   2.748   4.048   1.971
    1C        H  833   2.701   4.330   1.987
    1C        H  834   3.390   4.427   1.962
    1C        H  835   3.147   4.420   1.946
    1C        H  836   2.522   3.004   1.989
    1C        H  837   2.401   3.212   2.013
    1C        H  838   2.552   3.657   1.969
    2V3OU   H29  839   2.806   3.552   3.469
    2V3OU   C27  840   2.792   3.502   3.569
    2V3OU   H27  841   2.739   3.573   3.637
    2V3OU   H28  842   2.737   3.405   3.562
    2V3OU   O11  843   2.917   3.471   3.631
    2V3OU   C15  844   2.930   3.393   3.744
    2V3OU   C13  845   3.056   3.367   3.802
    2V3OU   C14  846   3.080   3.264   3.894
    2V3OU   C16  847   2.982   3.180   3.945
    2V3OU    H6  848   2.994   3.100   4.019
    2V3OU   C12  849   3.214   3.229   3.945
    2V3OU    O2  850   3.241   3.121   4.001
    2V3OU   C10  851   3.326   3.311   3.895
    2V3OU    C8  852   3.457   3.272   3.923
    2V3OU   O10  853   3.484   3.149   3.975
    2V3OU   H26  854   3.398   3.113   4.003
    2V3OU    C6  855   3.565   3.350   3.873
    2V3OU    C5  856   3.536   3.464   3.799
    2V3OU    C4  857   3.701   3.288   3.872
    2V3OU    H4  858   3.717   3.227   3.966
    2V3OU    H5  859   3.707   3.217   3.784
    2V3OU    C2  860   3.813   3.392   3.864
    2V3OU    O6  861   3.809   3.466   3.987
    2V3OU   H21  862   3.760   3.544   3.955
    2V3OU    C3  863   3.779   3.492   3.754
    2V3OU    H2  864   3.861   3.568   3.754
    2V3OU    H3  865   3.784   3.443   3.653
    2V3OU   C25  866   3.945   3.318   3.847
    2V3OU    O7  867   3.996   3.296   3.737
    2V3OU   C26  868   4.033   3.286   3.966
    2V3OU   H22  869   4.067   3.379   4.019
    2V3OU   H23  870   4.119   3.221   3.936
    2V3OU    O8  871   3.964   3.205   4.058
    2V3OU   H24  872   3.923   3.262   4.125
    2V3OU    C1  873   3.644   3.562   3.765
    2V3OU    H1  874   3.623   3.617   3.668
    2V3OU    O3  875   3.654   3.654   3.874
    2V3OU   C19  876   3.612   3.791   3.867
    2V3OU    H9  877   3.517   3.805   3.808
    2V3OU    O4  878   3.710   3.851   3.785
    2V3OU   C20  879   3.839   3.872   3.844
    2V3OU   H10  880   3.901   3.777   3.848
    2V3OU   C24  881   3.610   3.851   4.008
    2V3OU   H16  882   3.538   3.789   4.067
    2V3OU   H17  883   3.564   3.951   3.985
    2V3OU   C23  884   3.745   3.870   4.076
    2V3OU   H15  885   3.789   3.766   4.089
    2V3OU    N1  886   3.738   3.960   4.190
    2V3OU   H19  887   3.808   3.928   4.253
    2V3OU   H20  888   3.653   3.932   4.235
    2V3OU   C21  889   3.843   3.943   3.979
    2V3OU   H11  890   3.948   3.931   4.020
    2V3OU    O5  891   3.822   4.083   3.975
    2V3OU   H18  892   3.793   4.100   4.066
    2V3OU   C22  893   3.914   3.950   3.737
    2V3OU   H12  894   3.862   4.048   3.719
    2V3OU   H13  895   3.901   3.897   3.638
    2V3OU   H14  896   4.022   3.963   3.763
    2V3OU   C11  897   3.160   3.469   3.782
    2V3OU    O1  898   3.127   3.588   3.763
    2V3OU    C9  899   3.298   3.428   3.821
    2V3OU    C7  900   3.402   3.508   3.775
    2V3OU    O9  901   3.378   3.611   3.686
    2V3OU   H25  902   3.284   3.628   3.698
    2V3OU   C17  903   2.832   3.316   3.809
    2V3OU    H7  904   2.733   3.348   3.775
    2V3OU   C18  905   2.854   3.213   3.900
    2V3OU    H8  906   2.789   3.170   3.977
    3SOL     OW  907   2.936   4.186   5.552
    3SOL    HW1  908   2.967   4.263   5.608
    3SOL    HW2  909   2.936   4.212   5.456
    4SOL     OW  910   6.307   6.805   6.597
    4SOL    HW1  911   6.212   6.774   6.602
    4SOL    HW2  912   6.311   6.903   6.613
    5SOL     OW  913   4.945   2.241   2.521
    5SOL    HW1  914   4.890   2.205   2.596
    5SOL    HW2  915   4.961   2.339   2.535
    6SOL     OW  916   4.751   2.145   2.722
    6SOL    HW1  917   4.724   2.055   2.688
    6SOL    HW2  918   4.669   2.203   2.730
    7SOL     OW  919   1.131   4.017   4.052
    7SOL    HW1  920   1.034   3.996   4.053
    7SOL    HW2  921   1.173   3.987   4.138
    8SOL     OW  922   2.936   2.242   5.523
    8SOL    HW1  923   2.952   2.159   5.576
    8SOL    HW2  924   2.953   2.224   5.426
    9SOL     OW  925   6.130   2.072   6.333
    9SOL    HW1  926   6.207   2.098   6.275
    9SOL    HW2  927   6.099   2.152   6.385
   10SOL     OW  928   2.725   4.724   4.435
   10SOL    HW1  929   2.673   4.672   4.367
   10SOL    HW2  930   2.737   4.668   4.517
   11SOL     OW  931   1.649   1.026   6.587
   11SOL    HW1  932   1.738   0.981   6.593
   11SOL    HW2  933   1.583   0.965   6.545
   12SOL     OW  934   2.920   4.835   3.954
   12SOL    HW1  935   2.865   4.803   3.876
   12SOL    HW2  936   3.017   4.838   3.927
   13SOL     OW  937   3.980   6.369   3.207
   13SOL    HW1  938   4.045   6.420   3.150
   13SOL    HW2  939   3.972   6.275   3.174
   14SOL     OW  940   4.224   3.609   6.502
   14SOL    HW1  941   4.183   3.676   6.440
   14SOL    HW2  942   4.323   3.622   6.504
   15SOL     OW  943   0.819   6.743   6.508
   15SOL    HW1  944   0.723   6.770   6.513
   15SOL    HW2  945   0.826   6.646   6.484
   16SOL     OW  946   5.796   2.665   6.344
   16SOL    HW1  947   5.851   2.742   6.375
   16SOL    HW2  948   5.709   2.663   6.394
   17SOL     OW  949   5.098   0.387   6.501
   17SOL    HW1  950   5.072   0.476   6.538
   17SOL    HW2  951   5.016   0.330   6.489
   18SOL     OW  952   3.711   1.004   4.754
   18SOL    HW1  953   3.640   1.075   4.757
   18SOL    HW2  954   3.800   1.046   4.735
   19SOL     OW  955   0.974   2.509   1.883
   19SOL    HW1  956   0.909   2.543   1.815
   19SOL    HW2  957   0.959   2.556   1.970
   20SOL     OW  958   5.119   2.102   5.164
   20SOL    HW1  959   5.199   2.076   5.110
   20SOL    HW2  960   5.056   2.025   5.171
   21SOL     OW  961   2.481   0.532   3.509
   21SOL    HW1  962   2.411   0.600   3.489
   21SOL    HW2  963   2.567   0.578   3.532
   22SOL     OW  964   1.123   6.525   6.739
   22SOL    HW1  965   1.057   6.514   6.665
   22SOL    HW2  966   1.171   6.439   6.754
   23SOL     OW  967   3.905   5.386   2.387
   23SOL    HW1  968   3.947   5.319   2.449
   23SOL    HW2  969   3.958   5.392   2.303
   24SOL     OW  970   3.423   0.363   2.687
   24SOL    HW1  971   3.496   0.320   2.634
   24SOL    HW2  972   3.440   0.348   2.785
   25SOL     OW  973   1.956   0.018   4.026
   25SOL    HW1  974   1.918   6.953   3.989
   25SOL    HW2  975   1.949   0.090   3.956
   26SOL     OW  976   0.181   2.117   6.944
   26SOL    HW1  977   0.135   2.103   0.011
   26SOL    HW2  978   0.196   2.215   6.930
   27SOL     OW  979   1.857   1.395   1.797
   27SOL    HW1  980   1.936   1.455   1.783
   27SOL    HW2  981   1.865   1.351   1.886
   28SOL     OW  982   0.267   1.064   4.661
   28SOL    HW1  983   0.194   1.015   4.613
   28SOL    HW2  984   0.355   1.022   4.638
   29SOL     OW  985   6.946   0.687   1.032
   29SOL    HW1  986   6.931   0.599   0.989
   29SOL    HW2  987   6.938   0.677   1.131
   30SOL     OW  988   3.876   0.313   5.087
   30SOL    HW1  989   3.802   0.258   5.049
   30SOL    HW2  990   3.938   0.253   5.139
   31SOL     OW  991   0.539   2.318   5.605
   31SOL    HW1  992   0.619   2.376   5.595
   31SOL    HW2  993   0.543   2.244   5.538
   32SOL     OW  994   1.412   1.461   2.130
   32SOL    HW1  995   1.337   1.453   2.064
   32SOL    HW2  996   1.486   1.515   2.090
   33SOL     OW  997   1.027   4.759   5.235
   33SOL    HW1  998   0.953   4.695   5.217
   33SOL    HW2  999   1.065   4.742   5.326
   34SOL     OW 1000   2.341   5.778   4.890
   34SOL    HW1 1001   2.422   5.719   4.896
   34SOL    HW2 1002   2.292   5.758   4.805
   35SOL     OW 1003   4.399   2.134   5.430
   35SOL    HW1 1004   4.318   2.109   5.378
   35SOL    HW2 1005   4.375   2.151   5.525
   36SOL     OW 1006   4.952   1.288   3.765
   36SOL    HW1 1007   4.887   1.345   3.715
   36SOL    HW2 1008   5.044   1.325   3.753
   37SOL     OW 1009   1.945   1.565   4.826
   37SOL    HW1 1010   2.024   1.614   4.789
   37SOL    HW2 1011   1.953   1.560   4.926
   38SOL     OW 1012   2.161   3.723   1.685
   38SOL    HW1 1013   2.098   3.688   1.755
   38SOL    HW2 1014   2.254   3.727   1.722
   39SOL     OW 1015   6.292   4.706   6.179
   39SOL    HW1 1016   6.349   4.678   6.256
   39SOL    HW2 1017   6.319   4.655   6.097
   40SOL     OW 1018   3.636   1.847   0.019
   40SOL    HW1 1019   3.651   1.784   6.963
   40SOL    HW2 1020   3.584   1.927   7.007
   41SOL     OW 1021   6.498   3.424   2.706
   41SOL    HW1 1022   6.538   3.342   2.747
   41SOL    HW2 1023   6.402   3.431   2.732
   42SOL     OW 1024   3.323   5.861   4.658
   42SOL    HW1 1025   3.369   5.802   4.591
   42SOL    HW2 1026   3.286   5.804   4.732
   43SOL     OW 1027   4.029   0.218   5.663
   43SOL    HW1 1028   3.939   0.188   5.631
   43SOL    HW2 1029   4.030   0.218   5.763
   44SOL     OW 1030   5.871   2.390   5.133
   44SOL    HW1 1031   5.868   2.414   5.036
   44SOL    HW2 1032   5.788   2.340   5.157
   45SOL     OW 1033   4.134   5.261   1.521
   45SOL    HW1 1034   4.215   5.203   1.528
   45SOL    HW2 1035   4.113   5.277   1.424
   46SOL     OW 1036   1.097   2.372   4.040
   46SOL    HW1 1037   1.014   2.416   4.076
   46SOL    HW2 1038   1.121   2.414   3.952
   47SOL     OW 1039   4.322   3.786   1.648
   47SOL    HW1 1040   4.272   3.739   1.576
   47SOL    HW2 1041   4.260   3.810   1.723
   48SOL     OW 1042   6.788   2.625   6.285
   48SOL    HW1 1043   6.794   2.631   6.185
   48SOL    HW2 1044   6.880   2.613   6.323
   49SOL     OW 1045   5.265   2.252   1.606
   49SOL    HW1 1046   5.318   2.330   1.641
   49SOL    HW2 1047   5.327   2.187   1.562
   50SOL     OW 1048   6.162   1.487   5.521
   50SOL    HW1 1049   6.226   1.412   5.507
   50SOL    HW2 1050   6.068   1.454   5.506
   51SOL     OW 1051   1.988   6.294   2.817
   51SOL    HW1 1052   2.002   6.238   2.736
   51SOL    HW2 1053   2.003   6.390   2.794
   52SOL     OW 1054   5.334   2.841   1.792
   52SOL    HW1 1055   5.329   2.788   1.707
   52SOL    HW2 1056   5.326   2.780   1.870
   53SOL     OW 1057   5.575   0.529   3.339
   53SOL    HW1 1058   5.569   0.608   3.400
   53SOL    HW2 1059   5.646   0.467   3.373
   54SOL     OW 1060   5.288   0.115   0.284
   54SOL    HW1 1061   5.245   0.144   0.369
   54SOL    HW2 1062   5.219   0.108   0.212
   55SOL     OW 1063   1.943   2.036   5.234
   55SOL    HW1 1064   1.966   2.111   5.171
   55SOL    HW2 1065   1.980   2.057   5.324
   56SOL     OW 1066   1.207   1.779   1.006
   56SOL    HW1 1067   1.220   1.710   0.935
   56SOL    HW2 1068   1.262   1.860   0.986
   57SOL     OW 1069   3.206   1.204   0.493
   57SOL    HW1 1070   3.188   1.134   0.424
   57SOL    HW2 1071   3.305   1.212   0.506
   58SOL     OW 1072   0.614   6.455   5.607
   58SOL    HW1 1073   0.612   6.538   5.662
   58SOL    HW2 1074   0.633   6.376   5.665
   59SOL     OW 1075   6.470   3.956   6.253
   59SOL    HW1 1076   6.422   3.960   6.166
   59SOL    HW2 1077   6.509   3.864   6.266
   60SOL     OW 1078   5.174   2.358   3.648
   60SOL    HW1 1079   5.183   2.295   3.725
   60SOL    HW2 1080   5.088   2.408   3.656
   61SOL     OW 1081   0.038   0.941   4.573
   61SOL    HW1 1082   6.962   0.918   4.570
   61SOL    HW2 1083   0.081   0.915   4.487
   62SOL     OW 1084   1.838   1.173   1.623
   62SOL    HW1 1085   1.926   1.137   1.593
   62SOL    HW2 1086   1.852   1.238   1.698
   63SOL     OW 1087   4.020   0.272   4.011
   63SOL    HW1 1088   4.087   0.223   3.954
   63SOL    HW2 1089   4.063   0.352   4.051
   64SOL     OW 1090   0.541   3.374   6.490
   64SOL    HW1 1091   0.580   3.320   6.415
   64SOL    HW2 1092   0.610   3.387   6.561
   65SOL     OW 1093   1.317   6.204   5.771
   65SOL    HW1 1094   1.243   6.258   5.731
   65SOL    HW2 1095   1.400   6.259   5.774
   66SOL     OW 1096   3.392   6.969   3.254
   66SOL    HW1 1097   3.385   6.944   3.351
   66SOL    HW2 1098   3.389   0.048   3.246
   67SOL     OW 1099   0.309   3.376   6.164
   67SOL    HW1 1100   0.361   3.323   6.231
   67SOL    HW2 1101   0.328   3.474   6.176
   68SOL     OW 1102   0.225   1.800   6.219
   68SOL    HW1 1103   0.164   1.834   6.291
   68SOL    HW2 1104   0.287   1.732   6.257
   69SOL     OW 1105   1.742   2.678   5.456
   69SOL    HW1 1106   1.783   2.683   5.365
   69SOL    HW2 1107   1.660   2.735   5.458
   70SOL     OW 1108   5.403   5.294   4.950
   70SOL    HW1 1109   5.377   5.213   4.898
   70SOL    HW2 1110   5.401   5.374   4.890
   71SOL     OW 1111   4.486   1.690   3.015
   71SOL    HW1 1112   4.435   1.776   3.019
   71SOL    HW2 1113   4.506   1.667   2.920
   72SOL     OW 1114   0.298   1.081   3.370
   72SOL    HW1 1115   0.200   1.102   3.366
   72SOL    HW2 1116   0.336   1.079   3.278
   73SOL     OW 1117   2.937   0.471   1.277
   73SOL    HW1 1118   2.983   0.412   1.211
   73SOL    HW2 1119   2.851   0.504   1.237
   74SOL     OW 1120   2.511   1.289   6.468
   74SOL    HW1 1121   2.578   1.270   6.539
   74SOL    HW2 1122   2.542   1.365   6.412
   75SOL     OW 1123   3.829   1.548   1.588
   75SOL    HW1 1124   3.832   1.613   1.511
   75SOL    HW2 1125   3.753   1.573   1.649
   76SOL     OW 1126   2.134   3.687   6.112
   76SOL    HW1 1127   2.063   3.637   6.161
   76SOL    HW2 1128   2.096   3.725   6.027
   77SOL     OW 1129   1.691   5.777   3.111
   77SOL    HW1 1130   1.708   5.872   3.137
   77SOL    HW2 1131   1.648   5.729   3.187
   78SOL     OW 1132   4.234   1.324   1.377
   78SOL    HW1 1133   4.251   1.400   1.315
   78SOL    HW2 1134   4.255   1.353   1.471
   79SOL     OW 1135   2.525   5.763   1.621
   79SOL    HW1 1136   2.461   5.828   1.580
   79SOL    HW2 1137   2.504   5.752   1.718
   80SOL     OW 1138   4.228   1.742   4.538
   80SOL    HW1 1139   4.268   1.712   4.624
   80SOL    HW2 1140   4.256   1.680   4.465
   81SOL     OW 1141   2.158   6.816   1.281
   81SOL    HW1 1142   2.081   6.876   1.260
   81SOL    HW2 1143   2.212   6.855   1.355
   82SOL     OW 1144   6.839   6.119   1.407
   82SOL    HW1 1145   6.918   6.058   1.407
   82SOL    HW2 1146   6.866   6.210   1.438
   83SOL     OW 1147   0.651   1.721   6.172
   83SOL    HW1 1148   0.746   1.717   6.203
   83SOL    HW2 1149   0.607   1.802   6.210
   84SOL     OW 1150   6.439   4.452   3.545
   84SOL    HW1 1151   6.517   4.498   3.588
   84SOL    HW2 1152   6.470   4.397   3.468
   85SOL     OW 1153   1.481   0.533   3.554
   85SOL    HW1 1154   1.549   0.567   3.489
   85SOL    HW2 1155   1.445   0.445   3.522
   86SOL     OW 1156   6.666   1.124   6.639
   86SOL    HW1 1157   6.756   1.138   6.680
   86SOL    HW2 1158   6.607   1.202   6.661
   87SOL     OW 1159   3.785   3.650   0.977
   87SOL    HW1 1160   3.704   3.647   0.918
   87SOL    HW2 1161   3.767   3.713   1.053
   88SOL     OW 1162   3.050   1.913   6.470
   88SOL    HW1 1163   3.031   1.926   6.373
   88SOL    HW2 1164   3.130   1.967   6.496
   89SOL     OW 1165   3.322   3.717   0.670
   89SOL    HW1 1166   3.223   3.707   0.662
   89SOL    HW2 1167   3.365   3.689   0.585
   90SOL     OW 1168   4.741   4.700   2.395
   90SOL    HW1 1169   4.746   4.603   2.373
   90SOL    HW2 1170   4.679   4.746   2.332
   91SOL     OW 1171   5.988   4.677   6.078
   91SOL    HW1 1172   5.985   4.621   5.994
   91SOL    HW2 1173   6.015   4.619   6.155
   92SOL     OW 1174   4.994   4.242   0.932
   92SOL    HW1 1175   5.058   4.281   0.998
   92SOL    HW2 1176   5.040   4.173   0.876
   93SOL     OW 1177   3.172   3.775   6.979
   93SOL    HW1 1178   3.075   3.760   6.997
   93SOL    HW2 1179   3.214   3.689   6.951
   94SOL     OW 1180   2.316   5.938   0.856
   94SOL    HW1 1181   2.237   5.937   0.918
   94SOL    HW2 1182   2.286   5.956   0.763
   95SOL     OW 1183   1.646   0.943   3.014
   95SOL    HW1 1184   1.654   0.991   3.101
   95SOL    HW2 1185   1.634   0.845   3.031
   96SOL     OW 1186   5.136   5.985   6.902
   96SOL    HW1 1187   5.099   6.026   6.819
   96SOL    HW2 1188   5.097   5.894   6.915
   97SOL     OW 1189   2.102   4.122   4.989
   97SOL    HW1 1190   2.105   4.118   4.889
   97SOL    HW2 1191   2.192   4.097   5.025
   98SOL     OW 1192   1.027   1.859   0.780
   98SOL    HW1 1193   0.977   1.834   0.697
   98SOL    HW2 1194   1.026   1.783   0.844
   99SOL     OW 1195   3.512   3.858   2.634
   99SOL    HW1 1196   3.505   3.948   2.677
   99SOL    HW2 1197   3.462   3.859   2.547
  100SOL     OW 1198   6.873   0.422   4.365
  100SOL    HW1 1199   6.868   0.430   4.265
  100SOL    HW2 1200   6.834   0.334   4.393
  101SOL     OW 1201   0.587   5.717   2.448
  101SOL    HW1 1202   0.506   5.671   2.413
  101SOL    HW2 1203   0.561   5.781   2.520
  102SOL     OW 1204   3.258   5.571   2.616
  102SOL    HW1 1205   3.261   5.519   2.701
  102SOL    HW2 1206   3.237   5.509   2.540
  103SOL     OW 1207   1.657   1.907   2.468
  103SOL    HW1 1208   1.753   1.922   2.446
  103SOL    HW2 1209   1.638   1.809   2.467
  104SOL     OW 1210   1.555   4.862   1.895
  104SOL    HW1 1211   1.631   4.804   1.924
  104SOL    HW2 1212   1.570   4.956   1.925
  105SOL     OW 1213   5.196   1.457   5.772
  105SOL    HW1 1214   5.240   1.520   5.836
  105SOL    HW2 1215   5.247   1.456   5.686
  106SOL     OW 1216   4.602   5.423   2.031
  106SOL    HW1 1217   4.658   5.452   2.108
  106SOL    HW2 1218   4.513   5.391   2.064
  107SOL     OW 1219   6.380   0.506   6.624
  107SOL    HW1 1220   6.384   0.498   6.724
  107SOL    HW2 1221   6.360   0.601   6.599
  108SOL     OW 1222   3.577   6.876   5.442
  108SOL    HW1 1223   3.634   6.919   5.372
  108SOL    HW2 1224   3.516   6.944   5.481
  109SOL     OW 1225   2.822   0.573   2.683
  109SOL    HW1 1226   2.738   0.520   2.676
  109SOL    HW2 1227   2.799   0.669   2.704
  110SOL     OW 1228   2.294   5.173   4.835
  110SOL    HW1 1229   2.196   5.184   4.815
  110SOL    HW2 1230   2.330   5.097   4.780
  111SOL     OW 1231   1.187   1.285   2.659
  111SOL    HW1 1232   1.212   1.201   2.610
  111SOL    HW2 1233   1.225   1.364   2.612
  112SOL     OW 1234   5.021   6.820   6.945
  112SOL    HW1 1235   5.091   6.841   6.877
  112SOL    HW2 1236   5.040   6.730   6.986
  113SOL     OW 1237   0.096   6.263   2.464
  113SOL    HW1 1238   0.090   6.348   2.411
  113SOL    HW2 1239   0.029   6.266   2.538
  114SOL     OW 1240   1.528   5.664   1.929
  114SOL    HW1 1241   1.524   5.758   1.897
  114SOL    HW2 1242   1.622   5.640   1.952
  115SOL     OW 1243   5.981   0.746   3.305
  115SOL    HW1 1244   6.045   0.797   3.361
  115SOL    HW2 1245   6.025   0.721   3.218
  116SOL     OW 1246   0.170   6.320   1.307
  116SOL    HW1 1247   0.175   6.418   1.286
  116SOL    HW2 1248   0.203   6.268   1.229
  117SOL     OW 1249   2.192   0.602   0.304
  117SOL    HW1 1250   2.138   0.600   0.219
  117SOL    HW2 1251   2.283   0.566   0.286
  118SOL     OW 1252   1.770   2.011   3.122
  118SOL    HW1 1253   1.852   2.014   3.064
  118SOL    HW2 1254   1.694   1.973   3.070
  119SOL     OW 1255   0.335   6.834   6.533
  119SOL    HW1 1256   0.342   6.745   6.489
  119SOL    HW2 1257   0.426   6.863   6.563
  120SOL     OW 1258   4.826   0.309   4.571
  120SOL    HW1 1259   4.825   0.261   4.484
  120SOL    HW2 1260   4.745   0.284   4.624
  121SOL     OW 1261   1.717   4.173   0.262
  121SOL    HW1 1262   1.641   4.138   0.316
  121SOL    HW2 1263   1.680   4.223   0.183
  122SOL     OW 1264   1.540   3.530   0.120
  122SOL    HW1 1265   1.546   3.567   0.028
  122SOL    HW2 1266   1.479   3.587   0.176
  123SOL     OW 1267   1.152   1.199   2.055
  123SOL    HW1 1268   1.108   1.203   2.144
  123SOL    HW2 1269   1.187   1.290   2.031
  124SOL     OW 1270   3.159   2.105   0.737
  124SOL    HW1 1271   3.206   2.090   0.824
  124SOL    HW2 1272   3.065   2.071   0.744
  125SOL     OW 1273   3.219   2.413   0.348
  125SOL    HW1 1274   3.137   2.469   0.362
  125SOL    HW2 1275   3.251   2.424   0.254
  126SOL     OW 1276   3.578   3.218   3.316
  126SOL    HW1 1277   3.644   3.205   3.242
  126SOL    HW2 1278   3.625   3.207   3.404
  127SOL     OW 1279   6.526   6.191   5.661
  127SOL    HW1 1280   6.566   6.223   5.576
  127SOL    HW2 1281   6.586   6.214   5.738
  128SOL     OW 1282   5.298   3.005   2.066
  128SOL    HW1 1283   5.359   2.926   2.064
  128SOL    HW2 1284   5.239   3.003   1.985
  129SOL     OW 1285   3.017   4.259   0.851
  129SOL    HW1 1286   3.009   4.181   0.790
  129SOL    HW2 1287   3.112   4.291   0.852
  130SOL     OW 1288   6.468   0.653   4.687
  130SOL    HW1 1289   6.435   0.727   4.746
  130SOL    HW2 1290   6.475   0.686   4.593
  131SOL     OW 1291   6.090   0.977   4.720
  131SOL    HW1 1292   6.132   1.055   4.767
  131SOL    HW2 1293   6.057   0.911   4.787
  132SOL     OW 1294   3.495   2.943   1.572
  132SOL    HW1 1295   3.410   2.991   1.548
  132SOL    HW2 1296   3.507   2.865   1.511
  133SOL     OW 1297   5.312   1.515   3.351
  133SOL    HW1 1298   5.229   1.461   3.365
  133SOL    HW2 1299   5.287   1.612   3.340
  134SOL     OW 1300   0.863   0.497   2.676
  134SOL    HW1 1301   0.810   0.549   2.609
  134SOL    HW2 1302   0.834   0.401   2.675
  135SOL     OW 1303   5.248   3.192   4.007
  135SOL    HW1 1304   5.329   3.147   3.969
  135SOL    HW2 1305   5.166   3.158   3.961
  136SOL     OW 1306   2.437   6.624   4.337
  136SOL    HW1 1307   2.427   6.723   4.339
  136SOL    HW2 1308   2.380   6.583   4.408
  137SOL     OW 1309   4.596   0.992   4.330
  137SOL    HW1 1310   4.597   1.045   4.415
  137SOL    HW2 1311   4.671   1.022   4.271
  138SOL     OW 1312   0.884   4.720   3.394
  138SOL    HW1 1313   0.863   4.713   3.296
  138SOL    HW2 1314   0.806   4.761   3.442
  139SOL     OW 1315   2.748   5.610   6.291
  139SOL    HW1 1316   2.714   5.632   6.382
  139SOL    HW2 1317   2.750   5.510   6.279
  140SOL     OW 1318   1.926   6.774   2.839
  140SOL    HW1 1319   1.944   6.872   2.830
  140SOL    HW2 1320   1.838   6.761   2.885
  141SOL     OW 1321   6.741   3.130   6.036
  141SOL    HW1 1322   6.772   3.150   5.944
  141SOL    HW2 1323   6.659   3.073   6.032
  142SOL     OW 1324   2.012   3.648   1.477
  142SOL    HW1 1325   1.971   3.559   1.501
  142SOL    HW2 1326   2.095   3.662   1.531
  143SOL     OW 1327   5.637   5.562   1.003
  143SOL    HW1 1328   5.632   5.589   0.907
  143SOL    HW2 1329   5.706   5.619   1.049
  144SOL     OW 1330   2.548   4.613   4.702
  144SOL    HW1 1331   2.639   4.652   4.720
  144SOL    HW2 1332   2.494   4.617   4.786
  145SOL     OW 1333   1.355   5.421   1.888
  145SOL    HW1 1334   1.418   5.499   1.888
  145SOL    HW2 1335   1.266   5.451   1.923
  146SOL     OW 1336   4.992   0.945   5.711
  146SOL    HW1 1337   5.015   0.882   5.638
  146SOL    HW2 1338   5.030   1.035   5.691
  147SOL     OW 1339   4.994   1.344   5.307
  147SOL    HW1 1340   4.981   1.291   5.391
  147SOL    HW2 1341   4.915   1.331   5.247
  148SOL     OW 1342   1.172   5.705   1.346
  148SOL    HW1 1343   1.078   5.703   1.378
  148SOL    HW2 1344   1.232   5.734   1.420
  149SOL     OW 1345   3.165   1.974   4.794
  149SOL    HW1 1346   3.237   1.905   4.782
  149SOL    HW2 1347   3.200   2.064   4.770
  150SOL     OW 1348   4.423   0.425   6.200
  150SOL    HW1 1349   4.405   0.522   6.220
  150SOL    HW2 1350   4.430   0.375   6.286
  151SOL     OW 1351   3.821   0.885   1.799
  151SOL    HW1 1352   3.910   0.882   1.753
  151SOL    HW2 1353   3.831   0.932   1.887
  152SOL     OW 1354   6.471   1.531   0.377
  152SOL    HW1 1355   6.565   1.565   0.376
  152SOL    HW2 1356   6.423   1.570   0.455
  153SOL     OW 1357   2.325   0.360   3.664
  153SOL    HW1 1358   2.345   0.404   3.752
  153SOL    HW2 1359   2.376   0.404   3.591
  154SOL     OW 1360   6.798   2.715   0.539
  154SOL    HW1 1361   6.844   2.712   0.450
  154SOL    HW2 1362   6.711   2.667   0.534
  155SOL     OW 1363   1.034   6.800   2.107
  155SOL    HW1 1364   1.123   6.796   2.153
  155SOL    HW2 1365   0.996   6.892   2.116
  156SOL     OW 1366   5.912   1.214   0.031
  156SOL    HW1 1367   5.974   1.268   0.087
  156SOL    HW2 1368   5.826   1.199   0.080
  157SOL     OW 1369   5.883   2.586   0.210
  157SOL    HW1 1370   5.904   2.683   0.203
  157SOL    HW2 1371   5.938   2.535   0.144
  158SOL     OW 1372   1.597   2.386   1.313
  158SOL    HW1 1373   1.554   2.476   1.318
  158SOL    HW2 1374   1.533   2.317   1.346
  159SOL     OW 1375   4.326   4.954   1.329
  159SOL    HW1 1376   4.419   4.985   1.346
  159SOL    HW2 1377   4.298   4.981   1.237
  160SOL     OW 1378   6.453   0.061   1.375
  160SOL    HW1 1379   6.507   6.999   1.357
  160SOL    HW2 1380   6.502   0.141   1.340
  161SOL     OW 1381   1.582   6.999   2.196
  161SOL    HW1 1382   1.662   7.010   2.137
  161SOL    HW2 1383   1.507   0.035   2.160
  162SOL     OW 1384   2.827   0.112   0.037
  162SOL    HW1 1385   2.877   0.029   0.063
  162SOL    HW2 1386   2.882   0.192   0.062
  163SOL     OW 1387   0.399   4.919   3.023
  163SOL    HW1 1388   0.488   4.933   2.978
  163SOL    HW2 1389   0.411   4.860   3.102
  164SOL     OW 1390   0.859   2.417   3.033
  164SOL    HW1 1391   0.830   2.418   3.129
  164SOL    HW2 1392   0.872   2.511   3.001
  165SOL     OW 1393   5.894   5.602   1.142
  165SOL    HW1 1394   5.924   5.507   1.134
  165SOL    HW2 1395   5.952   5.660   1.085
  166SOL     OW 1396   6.633   3.640   1.931
  166SOL    HW1 1397   6.584   3.676   1.852
  166SOL    HW2 1398   6.584   3.666   2.015
  167SOL     OW 1399   5.779   1.620   6.298
  167SOL    HW1 1400   5.853   1.602   6.363
  167SOL    HW2 1401   5.817   1.624   6.205
  168SOL     OW 1402   4.076   2.165   1.627
  168SOL    HW1 1403   4.110   2.172   1.533
  168SOL    HW2 1404   3.989   2.216   1.634
  169SOL     OW 1405   6.116   3.178   6.926
  169SOL    HW1 1406   6.182   3.244   6.889
  169SOL    HW2 1407   6.116   3.183   0.005
  170SOL     OW 1408   0.038   5.603   2.935
  170SOL    HW1 1409   0.020   5.701   2.933
  170SOL    HW2 1410   0.041   5.572   3.030
  171SOL     OW 1411   1.683   3.517   6.756
  171SOL    HW1 1412   1.596   3.559   6.732
  171SOL    HW2 1413   1.750   3.536   6.684
  172SOL     OW 1414   6.737   2.423   2.114
  172SOL    HW1 1415   6.680   2.502   2.136
  172SOL    HW2 1416   6.703   2.343   2.162
  173SOL     OW 1417   5.887   1.310   4.641
  173SOL    HW1 1418   5.850   1.305   4.548
  173SOL    HW2 1419   5.974   1.360   4.639
  174SOL     OW 1420   5.139   5.253   4.754
  174SOL    HW1 1421   5.143   5.215   4.846
  174SOL    HW2 1422   5.062   5.317   4.748
  175SOL     OW 1423   3.299   0.720   2.045
  175SOL    HW1 1424   3.389   0.675   2.049
  175SOL    HW2 1425   3.287   0.763   1.956
  176SOL     OW 1426   5.245   4.345   3.322
  176SOL    HW1 1427   5.191   4.421   3.286
  176SOL    HW2 1428   5.324   4.328   3.263
  177SOL     OW 1429   5.131   2.348   5.030
  177SOL    HW1 1430   5.212   2.406   5.038
  177SOL    HW2 1431   5.140   2.270   5.091
  178SOL     OW 1432   3.306   4.920   4.696
  178SOL    HW1 1433   3.387   4.862   4.689
  178SOL    HW2 1434   3.312   4.976   4.780
  179SOL     OW 1435   4.749   6.670   6.480
  179SOL    HW1 1436   4.672   6.658   6.417
  179SOL    HW2 1437   4.725   6.634   6.569
  180SOL     OW 1438   2.425   6.764   0.406
  180SOL    HW1 1439   2.349   6.713   0.367
  180SOL    HW2 1440   2.405   6.862   0.404
  181SOL     OW 1441   3.626   2.908   5.809
  181SOL    HW1 1442   3.627   3.006   5.790
  181SOL    HW2 1443   3.531   2.875   5.808
  182SOL     OW 1444   5.262   2.874   6.853
  182SOL    HW1 1445   5.199   2.807   6.814
  182SOL    HW2 1446   5.277   2.948   6.787
  183SOL     OW 1447   4.034   2.216   3.883
  183SOL    HW1 1448   4.130   2.218   3.855
  183SOL    HW2 1449   3.979   2.177   3.809
  184SOL     OW 1450   0.456   6.489   3.870
  184SOL    HW1 1451   0.365   6.528   3.855
  184SOL    HW2 1452   0.503   6.541   3.941
  185SOL     OW 1453   1.058   1.555   3.729
  185SOL    HW1 1454   0.991   1.598   3.668
  185SOL    HW2 1455   1.013   1.484   3.784
  186SOL     OW 1456   5.809   6.894   4.553
  186SOL    HW1 1457   5.847   6.810   4.592
  186SOL    HW2 1458   5.741   6.932   4.617
  187SOL     OW 1459   4.805   6.215   2.412
  187SOL    HW1 1460   4.820   6.231   2.314
  187SOL    HW2 1461   4.750   6.132   2.423
  188SOL     OW 1462   1.029   3.015   3.501
  188SOL    HW1 1463   1.044   3.114   3.502
  188SOL    HW2 1464   1.076   2.974   3.579
  189SOL     OW 1465   0.588   4.526   6.544
  189SOL    HW1 1466   0.611   4.611   6.592
  189SOL    HW2 1467   0.508   4.541   6.487
  190SOL     OW 1468   6.241   4.975   0.021
  190SOL    HW1 1469   6.272   5.061   7.002
  190SOL    HW2 1470   6.141   4.973   0.023
  191SOL     OW 1471   6.766   1.463   5.728
  191SOL    HW1 1472   6.846   1.510   5.766
  191SOL    HW2 1473   6.726   1.518   5.655
  192SOL     OW 1474   0.104   4.988   1.786
  192SOL    HW1 1475   0.008   5.007   1.764
  192SOL    HW2 1476   0.159   4.993   1.702
  193SOL     OW 1477   4.879   4.308   5.398
  193SOL    HW1 1478   4.952   4.256   5.441
  193SOL    HW2 1479   4.803   4.246   5.377
  194SOL     OW 1480   3.900   0.141   2.760
  194SOL    HW1 1481   3.907   0.123   2.858
  194SOL    HW2 1482   3.920   0.057   2.709
  195SOL     OW 1483   1.889   0.765   3.454
  195SOL    HW1 1484   1.985   0.748   3.474
  195SOL    HW2 1485   1.869   0.863   3.462
  196SOL     OW 1486   3.591   6.487   0.376
  196SOL    HW1 1487   3.556   6.580   0.371
  196SOL    HW2 1488   3.562   6.444   0.461
  197SOL     OW 1489   3.021   6.117   6.903
  197SOL    HW1 1490   3.052   6.198   6.953
  197SOL    HW2 1491   3.045   6.127   6.806
  198SOL     OW 1492   4.755   6.730   1.265
  198SOL    HW1 1493   4.784   6.815   1.310
  198SOL    HW2 1494   4.660   6.740   1.235
  199SOL     OW 1495   6.759   1.085   2.791
  199SOL    HW1 1496   6.838   1.049   2.742
  199SOL    HW2 1497   6.684   1.019   2.787
  200SOL     OW 1498   0.999   4.043   2.617
  200SOL    HW1 1499   0.994   4.077   2.711
  200SOL    HW2 1500   0.963   3.950   2.613
  201SOL     OW 1501   3.270   6.614   5.882
  201SOL    HW1 1502   3.307   6.522   5.897
  201SOL    HW2 1503   3.185   6.607   5.830
  202SOL     OW 1504   4.697   0.582   5.225
  202SOL    HW1 1505   4.730   0.564   5.132
  202SOL    HW2 1506   4.740   0.664   5.261
  203SOL     OW 1507   4.792   2.513   4.764
  203SOL    HW1 1508   4.820   2.503   4.860
  203SOL    HW2 1509   4.871   2.539   4.708
  204SOL     OW 1510   0.762   0.057   6.472
  204SOL    HW1 1511   0.818   0.030   6.393
  204SOL    HW2 1512   0.734   0.153   6.462
  205SOL     OW 1513   1.066   1.341   1.746
  205SOL    HW1 1514   1.035   1.246   1.752
  205SOL    HW2 1515   1.142   1.348   1.682
  206SOL     OW 1516   0.459   4.736   2.314
  206SOL    HW1 1517   0.437   4.647   2.273
  206SOL    HW2 1518   0.531   4.780   2.261
  207SOL     OW 1519   3.604   0.694   5.301
  207SOL    HW1 1520   3.678   0.633   5.271
  207SOL    HW2 1521   3.520   0.641   5.313
  208SOL     OW 1522   5.015   3.462   6.009
  208SOL    HW1 1523   4.990   3.369   5.982
  208SOL    HW2 1524   5.054   3.510   5.930
  209SOL     OW 1525   1.285   5.691   6.024
  209SOL    HW1 1526   1.198   5.740   6.026
  209SOL    HW2 1527   1.275   5.608   5.968
  210SOL     OW 1528   4.230   1.970   2.779
  210SOL    HW1 1529   4.216   2.045   2.715
  210SOL    HW2 1530   4.165   1.896   2.758
  211SOL     OW 1531   0.956   6.180   3.678
  211SOL    HW1 1532   0.877   6.216   3.629
  211SOL    HW2 1533   0.925   6.131   3.760
  212SOL     OW 1534   2.145   4.058   1.949
  212SOL    HW1 1535   2.217   4.100   2.005
  212SOL    HW2 1536   2.164   4.074   1.852
  213SOL     OW 1537   4.566   0.879   6.743
  213SOL    HW1 1538   4.587   0.958   6.800
  213SOL    HW2 1539   4.595   0.898   6.649
  214SOL     OW 1540   2.662   5.826   2.785
  214SOL    HW1 1541   2.762   5.833   2.782
  214SOL    HW2 1542   2.635   5.733   2.762
  215SOL     OW 1543   3.120   3.845   1.808
  215SOL    HW1 1544   3.170   3.798   1.736
  215SOL    HW2 1545   3.056   3.910   1.768
  216SOL     OW 1546   1.489   6.538   4.807
  216SOL    HW1 1547   1.520   6.615   4.863
  216SOL    HW2 1548   1.563   6.470   4.801
  217SOL     OW 1549   1.895   2.645   5.232
  217SOL    HW1 1550   1.934   2.701   5.158
  217SOL    HW2 1551   1.969   2.609   5.288
  218SOL     OW 1552   1.392   2.568   5.275
  218SOL    HW1 1553   1.316   2.622   5.311
  218SOL    HW2 1554   1.376   2.549   5.178
  219SOL     OW 1555   3.608   5.269   5.983
  219SOL    HW1 1556   3.688   5.253   6.041
  219SOL    HW2 1557   3.628   5.344   5.920
  220SOL     OW 1558   3.455   5.719   6.965
  220SOL    HW1 1559   3.549   5.745   6.984
  220SOL    HW2 1560   3.414   5.785   6.902
  221SOL     OW 1561   6.560   4.081   2.472
  221SOL    HW1 1562   6.623   4.036   2.408
  221SOL    HW2 1563   6.466   4.054   2.450
  222SOL     OW 1564   2.143   4.725   5.716
  222SOL    HW1 1565   2.156   4.681   5.805
  222SOL    HW2 1566   2.177   4.819   5.720
  223SOL     OW 1567   0.160   3.978   0.712
  223SOL    HW1 1568   0.248   4.022   0.693
  223SOL    HW2 1569   0.118   3.948   0.627
  224SOL     OW 1570   2.445   2.628   3.895
  224SOL    HW1 1571   2.433   2.637   3.994
  224SOL    HW2 1572   2.365   2.663   3.848
  225SOL     OW 1573   5.349   1.625   5.937
  225SOL    HW1 1574   5.376   1.718   5.962
  225SOL    HW2 1575   5.420   1.561   5.968
  226SOL     OW 1576   0.440   6.771   7.013
  226SOL    HW1 1577   0.482   6.710   6.945
  226SOL    HW2 1578   0.387   6.841   6.966
  227SOL     OW 1579   1.138   4.723   2.220
  227SOL    HW1 1580   1.073   4.782   2.270
  227SOL    HW2 1581   1.220   4.710   2.274
  228SOL     OW 1582   2.848   6.788   3.685
  228SOL    HW1 1583   2.903   6.747   3.758
  228SOL    HW2 1584   2.865   6.738   3.600
  229SOL     OW 1585   6.087   5.612   0.446
  229SOL    HW1 1586   6.149   5.539   0.418
  229SOL    HW2 1587   6.116   5.699   0.406
  230SOL     OW 1588   3.430   4.903   3.691
  230SOL    HW1 1589   3.493   4.919   3.615
  230SOL    HW2 1590   3.483   4.888   3.775
  231SOL     OW 1591   6.021   2.591   5.991
  231SOL    HW1 1592   5.923   2.605   5.974
  231SOL    HW2 1593   6.041   2.611   6.087
  232SOL     OW 1594   0.830   4.342   6.351
  232SOL    HW1 1595   0.805   4.437   6.331
  232SOL    HW2 1596   0.755   4.297   6.400
  233SOL     OW 1597   2.580   1.381   4.428
  233SOL    HW1 1598   2.675   1.353   4.415
  233SOL    HW2 1599   2.530   1.370   4.343
  234SOL     OW 1600   2.813   5.994   5.039
  234SOL    HW1 1601   2.805   5.902   5.001
  234SOL    HW2 1602   2.794   6.061   4.966
  235SOL     OW 1603   3.270   2.945   2.863
  235SOL    HW1 1604   3.237   2.859   2.900
  235SOL    HW2 1605   3.193   3.001   2.833
  236SOL     OW 1606   5.881   2.888   6.487
  236SOL    HW1 1607   5.921   2.867   6.576
  236SOL    HW2 1608   5.830   2.974   6.493
  237SOL     OW 1609   0.065   6.949   0.386
  237SOL    HW1 1610   0.075   6.888   0.308
  237SOL    HW2 1611   0.152   6.953   0.437
  238SOL     OW 1612   6.582   3.062   0.269
  238SOL    HW1 1613   6.523   3.081   0.348
  238SOL    HW2 1614   6.572   2.966   0.243
  239SOL     OW 1615   6.552   4.577   0.238
  239SOL    HW1 1616   6.646   4.585   0.207
  239SOL    HW2 1617   6.504   4.663   0.222
  240SOL     OW 1618   0.451   3.137   5.039
  240SOL    HW1 1619   0.510   3.078   5.094
  240SOL    HW2 1620   0.388   3.186   5.098
  241SOL     OW 1621   0.670   1.045   3.571
  241SOL    HW1 1622   0.573   1.058   3.592
  241SOL    HW2 1623   0.683   0.954   3.532
  242SOL     OW 1624   1.921   2.725   5.639
  242SOL    HW1 1625   1.879   2.737   5.729
  242SOL    HW2 1626   1.850   2.712   5.571
  243SOL     OW 1627   4.826   0.300   5.385
  243SOL    HW1 1628   4.824   0.264   5.292
  243SOL    HW2 1629   4.876   0.238   5.445
  244SOL     OW 1630   4.790   2.960   4.056
  244SOL    HW1 1631   4.726   3.008   4.117
  244SOL    HW2 1632   4.743   2.883   4.012
  245SOL     OW 1633   6.657   2.800   4.675
  245SOL    HW1 1634   6.580   2.828   4.617
  245SOL    HW2 1635   6.696   2.881   4.720
  246SOL     OW 1636   5.518   3.366   3.337
  246SOL    HW1 1637   5.589   3.333   3.276
  246SOL    HW2 1638   5.451   3.294   3.352
  247SOL     OW 1639   2.590   1.729   2.849
  247SOL    HW1 1640   2.619   1.636   2.872
  247SOL    HW2 1641   2.547   1.770   2.929
  248SOL     OW 1642   4.573   2.576   3.665
  248SOL    HW1 1643   4.551   2.545   3.572
  248SOL    HW2 1644   4.654   2.634   3.662
  249SOL     OW 1645   3.656   0.153   4.968
  249SOL    HW1 1646   3.584   0.154   5.037
  249SOL    HW2 1647   3.618   0.178   4.879
  250SOL     OW 1648   4.989   1.919   5.433
  250SOL    HW1 1649   4.970   1.911   5.335
  250SOL    HW2 1650   5.019   2.012   5.454
  251SOL     OW 1651   4.092   4.326   6.359
  251SOL    HW1 1652   4.081   4.294   6.265
  251SOL    HW2 1653   4.150   4.408   6.358
  252SOL     OW 1654   0.132   1.491   5.947
  252SOL    HW1 1655   0.062   1.497   6.019
  252SOL    HW2 1656   0.099   1.430   5.875
  253SOL     OW 1657   2.617   4.533   0.313
  253SOL    HW1 1658   2.592   4.613   0.258
  253SOL    HW2 1659   2.692   4.484   0.268
  254SOL     OW 1660   6.965   2.800   3.840
  254SOL    HW1 1661   7.010   2.787   3.929
  254SOL    HW2 1662   6.910   2.883   3.843
  255SOL     OW 1663   2.620   2.225   3.663
  255SOL    HW1 1664   2.693   2.221   3.731
  255SOL    HW2 1665   2.647   2.287   3.589
  256SOL     OW 1666   6.308   4.720   6.878
  256SOL    HW1 1667   6.259   4.791   6.930
  256SOL    HW2 1668   6.246   4.643   6.861
  257SOL     OW 1669   3.529   5.113   5.792
  257SOL    HW1 1670   3.539   5.172   5.872
  257SOL    HW2 1671   3.435   5.117   5.759
  258SOL     OW 1672   5.091   3.823   4.889
  258SOL    HW1 1673   5.018   3.874   4.934
  258SOL    HW2 1674   5.053   3.740   4.847
  259SOL     OW 1675   1.957   2.510   2.311
  259SOL    HW1 1676   1.887   2.438   2.308
  259SOL    HW2 1677   1.922   2.589   2.361
  260SOL     OW 1678   4.564   0.362   0.886
  260SOL    HW1 1679   4.555   0.339   0.983
  260SOL    HW2 1680   4.480   0.338   0.838
  261SOL     OW 1681   0.377   3.572   1.221
  261SOL    HW1 1682   0.406   3.560   1.126
  261SOL    HW2 1683   0.309   3.503   1.245
  262SOL     OW 1684   0.675   3.857   2.187
  262SOL    HW1 1685   0.724   3.771   2.192
  262SOL    HW2 1686   0.613   3.856   2.109
  263SOL     OW 1687   0.273   1.786   4.414
  263SOL    HW1 1688   0.347   1.835   4.461
  263SOL    HW2 1689   0.191   1.844   4.412
  264SOL     OW 1690   6.294   4.102   6.041
  264SOL    HW1 1691   6.262   4.197   6.041
  264SOL    HW2 1692   6.342   4.084   5.956
  265SOL     OW 1693   5.211   3.959   3.345
  265SOL    HW1 1694   5.274   3.919   3.412
  265SOL    HW2 1695   5.262   4.011   3.277
  266SOL     OW 1696   3.648   2.503   6.652
  266SOL    HW1 1697   3.587   2.572   6.614
  266SOL    HW2 1698   3.706   2.466   6.579
  267SOL     OW 1699   0.454   2.878   0.320
  267SOL    HW1 1700   0.509   2.949   0.275
  267SOL    HW2 1701   0.503   2.791   0.316
  268SOL     OW 1702   4.878   5.538   5.302
  268SOL    HW1 1703   4.942   5.500   5.235
  268SOL    HW2 1704   4.800   5.477   5.312
  269SOL     OW 1705   1.708   1.941   0.130
  269SOL    HW1 1706   1.731   1.847   0.106
  269SOL    HW2 1707   1.611   1.948   0.150
  270SOL     OW 1708   6.068   0.893   1.898
  270SOL    HW1 1709   6.166   0.902   1.911
  270SOL    HW2 1710   6.048   0.812   1.843
  271SOL     OW 1711   2.352   1.916   0.908
  271SOL    HW1 1712   2.295   1.953   0.834
  271SOL    HW2 1713   2.375   1.821   0.887
  272SOL     OW 1714   3.365   5.359   4.193
  272SOL    HW1 1715   3.304   5.412   4.134
  272SOL    HW2 1716   3.383   5.270   4.151
  273SOL     OW 1717   1.381   5.376   5.667
  273SOL    HW1 1718   1.302   5.424   5.705
  273SOL    HW2 1719   1.464   5.428   5.687
  274SOL     OW 1720   5.389   2.523   3.604
  274SOL    HW1 1721   5.310   2.463   3.613
  274SOL    HW2 1722   5.404   2.545   3.507
  275SOL     OW 1723   1.147   5.789   6.434
  275SOL    HW1 1724   1.217   5.841   6.386
  275SOL    HW2 1725   1.177   5.770   6.528
  276SOL     OW 1726   6.381   5.549   4.333
  276SOL    HW1 1727   6.379   5.639   4.288
  276SOL    HW2 1728   6.448   5.491   4.287
  277SOL     OW 1729   3.233   1.107   6.128
  277SOL    HW1 1730   3.251   1.137   6.034
  277SOL    HW2 1731   3.309   1.050   6.159
  278SOL     OW 1732   5.958   3.491   2.122
  278SOL    HW1 1733   5.957   3.491   2.222
  278SOL    HW2 1734   5.872   3.452   2.088
  279SOL     OW 1735   6.081   3.429   3.880
  279SOL    HW1 1736   6.165   3.375   3.869
  279SOL    HW2 1737   6.030   3.396   3.960
  280SOL     OW 1738   4.546   0.000   3.838
  280SOL    HW1 1739   4.585   6.968   3.913
  280SOL    HW2 1740   4.505   6.959   3.771
  281SOL     OW 1741   3.035   5.025   3.712
  281SOL    HW1 1742   2.967   5.092   3.741
  281SOL    HW2 1743   3.060   4.967   3.789
  282SOL     OW 1744   3.548   2.489   5.731
  282SOL    HW1 1745   3.645   2.485   5.709
  282SOL    HW2 1746   3.527   2.421   5.801
  283SOL     OW 1747   5.899   0.374   5.491
  283SOL    HW1 1748   5.957   0.404   5.567
  283SOL    HW2 1749   5.956   0.330   5.421
  284SOL     OW 1750   1.237   4.288   4.449
  284SOL    HW1 1751   1.323   4.315   4.406
  284SOL    HW2 1752   1.227   4.335   4.537
  285SOL     OW 1753   5.649   6.208   0.390
  285SOL    HW1 1754   5.728   6.227   0.332
  285SOL    HW2 1755   5.567   6.200   0.334
  286SOL     OW 1756   4.056   4.780   5.543
  286SOL    HW1 1757   3.971   4.729   5.541
  286SOL    HW2 1758   4.054   4.845   5.618
  287SOL     OW 1759   1.766   5.580   6.921
  287SOL    HW1 1760   1.817   5.502   6.957
  287SOL    HW2 1761   1.673   5.551   6.899
  288SOL     OW 1762   4.169   1.020   0.876
  288SOL    HW1 1763   4.171   0.940   0.936
  288SOL    HW2 1764   4.148   1.102   0.930
  289SOL     OW 1765   1.484   5.041   6.048
  289SOL    HW1 1766   1.443   5.062   5.960
  289SOL    HW2 1767   1.531   5.121   6.084
  290SOL     OW 1768   4.510   0.768   3.703
  290SOL    HW1 1769   4.416   0.743   3.680
  290SOL    HW2 1770   4.523   0.866   3.690
  291SOL     OW 1771   4.496   1.175   3.909
  291SOL    HW1 1772   4.515   1.267   3.941
  291SOL    HW2 1773   4.468   1.117   3.986
  292SOL     OW 1774   4.598   1.016   3.383
  292SOL    HW1 1775   4.573   1.098   3.333
  292SOL    HW2 1776   4.594   1.034   3.481
  293SOL     OW 1777   4.595   6.154   1.451
  293SOL    HW1 1778   4.630   6.193   1.366
  293SOL    HW2 1779   4.495   6.164   1.452
  294SOL     OW 1780   6.533   5.787   6.194
  294SOL    HW1 1781   6.441   5.819   6.218
  294SOL    HW2 1782   6.574   5.850   6.128
  295SOL     OW 1783   2.039   2.413   5.413
  295SOL    HW1 1784   2.087   2.464   5.485
  295SOL    HW2 1785   2.097   2.339   5.380
  296SOL     OW 1786   6.621   2.337   1.379
  296SOL    HW1 1787   6.633   2.376   1.471
  296SOL    HW2 1788   6.700   2.362   1.322
  297SOL     OW 1789   4.091   4.820   3.572
  297SOL    HW1 1790   4.062   4.904   3.618
  297SOL    HW2 1791   4.142   4.763   3.637
  298SOL     OW 1792   4.023   0.356   0.101
  298SOL    HW1 1793   3.983   0.425   0.161
  298SOL    HW2 1794   3.975   0.357   0.013
  299SOL     OW 1795   3.871   1.811   0.668
  299SOL    HW1 1796   3.952   1.752   0.666
  299SOL    HW2 1797   3.792   1.761   0.635
  300SOL     OW 1798   3.840   0.776   2.760
  300SOL    HW1 1799   3.861   0.805   2.853
  300SOL    HW2 1800   3.743   0.790   2.742
  301SOL     OW 1801   4.813   1.019   1.337
  301SOL    HW1 1802   4.737   1.011   1.272
  301SOL    HW2 1803   4.889   1.067   1.293
  302SOL     OW 1804   0.986   1.138   2.299
  302SOL    HW1 1805   0.931   1.142   2.215
  302SOL    HW2 1806   0.948   1.068   2.360
  303SOL     OW 1807   6.623   5.897   1.531
  303SOL    HW1 1808   6.676   5.971   1.574
  303SOL    HW2 1809   6.553   5.865   1.594
  304SOL     OW 1810   2.255   6.088   6.228
  304SOL    HW1 1811   2.291   6.181   6.220
  304SOL    HW2 1812   2.244   6.065   6.324
  305SOL     OW 1813   1.353   3.120   0.871
  305SOL    HW1 1814   1.394   3.122   0.962
  305SOL    HW2 1815   1.384   3.038   0.823
  306SOL     OW 1816   0.475   1.472   2.903
  306SOL    HW1 1817   0.555   1.525   2.877
  306SOL    HW2 1818   0.445   1.500   2.995
  307SOL     OW 1819   3.662   4.103   0.131
  307SOL    HW1 1820   3.607   4.037   0.182
  307SOL    HW2 1821   3.744   4.126   0.183
  308SOL     OW 1822   5.899   2.936   4.083
  308SOL    HW1 1823   5.868   3.000   4.013
  308SOL    HW2 1824   5.915   2.985   4.168
  309SOL     OW 1825   1.360   6.478   0.483
  309SOL    HW1 1826   1.288   6.444   0.423
  309SOL    HW2 1827   1.324   6.548   0.543
  310SOL     OW 1828   5.262   6.754   4.035
  310SOL    HW1 1829   5.359   6.737   4.053
  310SOL    HW2 1830   5.229   6.826   4.096
  311SOL     OW 1831   2.356   4.796   2.684
  311SOL    HW1 1832   2.447   4.831   2.661
  311SOL    HW2 1833   2.336   4.819   2.780
  312SOL     OW 1834   3.945   2.130   4.255
  312SOL    HW1 1835   3.891   2.114   4.337
  312SOL    HW2 1836   3.886   2.130   4.175
  313SOL     OW 1837   2.928   3.697   2.873
  313SOL    HW1 1838   2.871   3.779   2.878
  313SOL    HW2 1839   3.022   3.720   2.897
  314SOL     OW 1840   1.854   4.700   4.806
  314SOL    HW1 1841   1.886   4.793   4.790
  314SOL    HW2 1842   1.928   4.646   4.848
  315SOL     OW 1843   0.426   2.274   3.816
  315SOL    HW1 1844   0.414   2.186   3.862
  315SOL    HW2 1845   0.520   2.283   3.784
  316SOL     OW 1846   3.929   1.150   4.695
  316SOL    HW1 1847   3.907   1.200   4.612
  316SOL    HW2 1848   3.988   1.207   4.753
  317SOL     OW 1849   1.007   1.559   1.589
  317SOL    HW1 1850   0.920   1.531   1.548
  317SOL    HW2 1851   1.056   1.479   1.622
  318SOL     OW 1852   6.262   0.732   6.471
  318SOL    HW1 1853   6.328   0.804   6.488
  318SOL    HW2 1854   6.235   0.732   6.374
  319SOL     OW 1855   6.971   2.515   3.656
  319SOL    HW1 1856   6.962   2.595   3.714
  319SOL    HW2 1857   6.936   2.434   3.704
  320SOL     OW 1858   6.333   3.369   6.836
  320SOL    HW1 1859   6.300   3.447   6.889
  320SOL    HW2 1860   6.303   3.377   6.741
  321SOL     OW 1861   4.016   2.170   0.181
  321SOL    HW1 1862   3.968   2.100   0.129
  321SOL    HW2 1863   3.966   2.189   0.266
  322SOL     OW 1864   3.703   2.901   4.403
  322SOL    HW1 1865   3.617   2.863   4.437
  322SOL    HW2 1866   3.772   2.898   4.476
  323SOL     OW 1867   1.141   2.346   5.109
  323SOL    HW1 1868   1.138   2.308   5.017
  323SOL    HW2 1869   1.199   2.427   5.110
  324SOL     OW 1870   2.465   0.054   3.515
  324SOL    HW1 1871   2.491   0.058   3.611
  324SOL    HW2 1872   2.451   0.147   3.480
  325SOL     OW 1873   0.870   3.852   3.026
  325SOL    HW1 1874   0.952   3.828   2.974
  325SOL    HW2 1875   0.856   3.786   3.099
  326SOL     OW 1876   1.088   4.272   6.415
  326SOL    HW1 1877   1.156   4.325   6.364
  326SOL    HW2 1878   0.996   4.301   6.389
  327SOL     OW 1879   2.349   4.515   2.978
  327SOL    HW1 1880   2.396   4.516   3.067
  327SOL    HW2 1881   2.402   4.569   2.912
  328SOL     OW 1882   2.217   4.703   1.539
  328SOL    HW1 1883   2.263   4.695   1.627
  328SOL    HW2 1884   2.262   4.644   1.472
  329SOL     OW 1885   2.608   3.683   5.718
  329SOL    HW1 1886   2.533   3.743   5.692
  329SOL    HW2 1887   2.572   3.592   5.739
  330SOL     OW 1888   3.407   6.014   0.262
  330SOL    HW1 1889   3.496   6.000   0.305
  330SOL    HW2 1890   3.343   5.945   0.294
  331SOL     OW 1891   5.448   5.434   1.175
  331SOL    HW1 1892   5.382   5.506   1.155
  331SOL    HW2 1893   5.527   5.444   1.114
  332SOL     OW 1894   6.013   2.270   4.772
  332SOL    HW1 1895   6.064   2.303   4.693
  332SOL    HW2 1896   5.972   2.181   4.751
  333SOL     OW 1897   3.848   0.597   5.177
  333SOL    HW1 1898   3.871   0.509   5.135
  333SOL    HW2 1899   3.808   0.657   5.107
  334SOL     OW 1900   3.290   1.971   0.385
  334SOL    HW1 1901   3.207   2.027   0.382
  334SOL    HW2 1902   3.367   2.025   0.352
  335SOL     OW 1903   3.674   0.487   6.812
  335SOL    HW1 1904   3.616   0.536   6.877
  335SOL    HW2 1905   3.756   0.541   6.792
  336SOL     OW 1906   2.652   0.620   3.207
  336SOL    HW1 1907   2.693   0.654   3.122
  336SOL    HW2 1908   2.698   0.535   3.234
  337SOL     OW 1909   0.569   3.195   5.799
  337SOL    HW1 1910   0.493   3.204   5.863
  337SOL    HW2 1911   0.604   3.101   5.801
  338SOL     OW 1912   3.090   2.615   1.583
  338SOL    HW1 1913   3.016   2.666   1.540
  338SOL    HW2 1914   3.061   2.521   1.600
  339SOL     OW 1915   4.803   5.245   4.866
  339SOL    HW1 1916   4.813   5.149   4.889
  339SOL    HW2 1917   4.823   5.259   4.769
  340SOL     OW 1918   4.869   2.956   4.418
  340SOL    HW1 1919   4.950   3.014   4.429
  340SOL    HW2 1920   4.816   2.957   4.502
  341SOL     OW 1921   5.374   7.009   5.002
  341SOL    HW1 1922   5.284   6.980   5.034
  341SOL    HW2 1923   5.420   6.934   4.956
  342SOL     OW 1924   4.863   3.283   0.366
  342SOL    HW1 1925   4.857   3.348   0.290
  342SOL    HW2 1926   4.856   3.190   0.330
  343SOL     OW 1927   0.143   6.561   2.592
  343SOL    HW1 1928   0.094   6.647   2.574
  343SOL    HW2 1929   0.200   6.539   2.513
  344SOL     OW 1930   0.569   2.984   2.015
  344SOL    HW1 1931   0.641   3.034   1.967
  344SOL    HW2 1932   0.516   2.930   1.949
  345SOL     OW 1933   6.186   2.413   4.305
  345SOL    HW1 1934   6.234   2.472   4.370
  345SOL    HW2 1935   6.208   2.442   4.211
  346SOL     OW 1936   1.922   0.576   2.504
  346SOL    HW1 1937   1.994   0.543   2.442
  346SOL    HW2 1938   1.959   0.582   2.597
  347SOL     OW 1939   3.103   5.521   0.557
  347SOL    HW1 1940   3.067   5.615   0.550
  347SOL    HW2 1941   3.122   5.486   0.465
  348SOL     OW 1942   5.156   4.362   2.973
  348SOL    HW1 1943   5.230   4.411   3.020
  348SOL    HW2 1944   5.163   4.380   2.874
  349SOL     OW 1945   6.937   4.869   1.990
  349SOL    HW1 1946   6.966   4.933   2.061
  349SOL    HW2 1947   6.985   4.891   1.905
  350SOL     OW 1948   2.429   3.035   1.187
  350SOL    HW1 1949   2.422   3.119   1.241
  350SOL    HW2 1950   2.371   2.964   1.228
  351SOL     OW 1951   1.964   3.464   0.640
  351SOL    HW1 1952   2.036   3.521   0.681
  351SOL    HW2 1953   1.986   3.447   0.544
  352SOL     OW 1954   3.641   6.946   3.761
  352SOL    HW1 1955   3.707   6.883   3.720
  352SOL    HW2 1956   3.683   6.991   3.840
  353SOL     OW 1957   2.921   0.262   6.635
  353SOL    HW1 1958   2.859   0.184   6.631
  353SOL    HW2 1959   2.906   0.312   6.720
  354SOL     OW 1960   4.345   2.118   1.451
  354SOL    HW1 1961   4.322   2.078   1.363
  354SOL    HW2 1962   4.435   2.086   1.481
  355SOL     OW 1963   1.619   4.122   2.653
  355SOL    HW1 1964   1.529   4.162   2.670
  355SOL    HW2 1965   1.689   4.177   2.699
  356SOL     OW 1966   2.735   0.789   5.600
  356SOL    HW1 1967   2.661   0.827   5.545
  356SOL    HW2 1968   2.699   0.714   5.656
  357SOL     OW 1969   6.422   5.740   5.335
  357SOL    HW1 1970   6.441   5.775   5.243
  357SOL    HW2 1971   6.456   5.805   5.403
  358SOL     OW 1972   4.995   6.678   1.104
  358SOL    HW1 1973   4.965   6.703   1.196
  358SOL    HW2 1974   4.924   6.705   1.038
  359SOL     OW 1975   3.365   1.497   2.214
  359SOL    HW1 1976   3.277   1.526   2.176
  359SOL    HW2 1977   3.384   1.549   2.297
  360SOL     OW 1978   1.665   3.676   4.837
  360SOL    HW1 1979   1.704   3.767   4.848
  360SOL    HW2 1980   1.707   3.631   4.759
  361SOL     OW 1981   6.416   6.542   3.018
  361SOL    HW1 1982   6.418   6.638   2.990
  361SOL    HW2 1983   6.498   6.496   2.984
  362SOL     OW 1984   3.332   2.650   1.722
  362SOL    HW1 1985   3.243   2.652   1.675
  362SOL    HW2 1986   3.376   2.562   1.705
  363SOL     OW 1987   5.803   4.491   3.202
  363SOL    HW1 1988   5.859   4.409   3.208
  363SOL    HW2 1989   5.721   4.472   3.148
  364SOL     OW 1990   0.424   5.322   6.664
  364SOL    HW1 1991   0.468   5.328   6.754
  364SOL    HW2 1992   0.371   5.237   6.660
  365SOL     OW 1993   4.800   0.440   1.175
  365SOL    HW1 1994   4.711   0.395   1.166
  365SOL    HW2 1995   4.814   0.467   1.270
  366SOL     OW 1996   5.901   1.963   6.680
  366SOL    HW1 1997   5.964   2.021   6.629
  366SOL    HW2 1998   5.829   1.931   6.619
  367SOL     OW 1999   5.929   2.230   0.064
  367SOL    HW1 2000   5.980   2.311   0.034
  367SOL    HW2 2001   5.842   2.225   0.015
  368SOL     OW 2002   0.292   2.614   5.571
  368SOL    HW1 2003   0.391   2.598   5.569
  368SOL    HW2 2004   0.249   2.560   5.498
  369SOL     OW 2005   5.707   5.436   2.536
  369SOL    HW1 2006   5.732   5.350   2.582
  369SOL    HW2 2007   5.622   5.471   2.575
  370SOL     OW 2008   0.985   2.038   4.480
  370SOL    HW1 2009   1.001   1.962   4.543
  370SOL    HW2 2010   1.053   2.110   4.496
  371SOL     OW 2011   1.871   4.543   6.640
  371SOL    HW1 2012   1.927   4.597   6.577
  371SOL    HW2 2013   1.797   4.601   6.676
  372SOL     OW 2014   2.150   6.791   5.793
  372SOL    HW1 2015   2.155   6.716   5.859
  372SOL    HW2 2016   2.105   6.759   5.710
  373SOL     OW 2017   5.720   6.200   5.104
  373SOL    HW1 2018   5.694   6.152   5.020
  373SOL    HW2 2019   5.786   6.145   5.154
  374SOL     OW 2020   2.530   2.181   3.321
  374SOL    HW1 2021   2.551   2.120   3.397
  374SOL    HW2 2022   2.612   2.194   3.265
  375SOL     OW 2023   0.864   3.897   4.128
  375SOL    HW1 2024   0.785   3.850   4.090
  375SOL    HW2 2025   0.924   3.830   4.173
  376SOL     OW 2026   1.285   1.357   5.249
  376SOL    HW1 2027   1.211   1.424   5.245
  376SOL    HW2 2028   1.274   1.300   5.331
  377SOL     OW 2029   1.430   2.047   0.198
  377SOL    HW1 2030   1.387   2.087   0.278
  377SOL    HW2 2031   1.376   2.069   0.117
  378SOL     OW 2032   4.075   1.878   0.366
  378SOL    HW1 2033   3.976   1.888   0.353
  378SOL    HW2 2034   4.115   1.836   0.285
  379SOL     OW 2035   5.076   2.586   0.764
  379SOL    HW1 2036   5.175   2.574   0.774
  379SOL    HW2 2037   5.055   2.628   0.676
  380SOL     OW 2038   2.727   1.351   0.781
  380SOL    HW1 2039   2.756   1.311   0.694
  380SOL    HW2 2040   2.801   1.409   0.817
  381SOL     OW 2041   1.473   3.799   3.852
  381SOL    HW1 2042   1.382   3.840   3.852
  381SOL    HW2 2043   1.490   3.755   3.764
  382SOL     OW 2044   6.014   0.786   0.107
  382SOL    HW1 2045   6.052   0.864   0.056
  382SOL    HW2 2046   5.914   0.786   0.096
  383SOL     OW 2047   3.550   3.162   6.488
  383SOL    HW1 2048   3.581   3.074   6.523
  383SOL    HW2 2049   3.495   3.209   6.557
  384SOL     OW 2050   6.355   5.526   4.617
  384SOL    HW1 2051   6.352   5.522   4.517
  384SOL    HW2 2052   6.409   5.605   4.646
  385SOL     OW 2053   3.066   4.818   5.090
  385SOL    HW1 2054   3.098   4.754   5.160
  385SOL    HW2 2055   3.001   4.771   5.030
  386SOL     OW 2056   3.005   5.865   4.226
  386SOL    HW1 2057   3.105   5.870   4.231
  386SOL    HW2 2058   2.972   5.926   4.155
  387SOL     OW 2059   0.875   5.843   2.559
  387SOL    HW1 2060   0.869   5.769   2.626
  387SOL    HW2 2061   0.830   5.816   2.475
  388SOL     OW 2062   1.757   1.829   6.167
  388SOL    HW1 2063   1.757   1.811   6.265
  388SOL    HW2 2064   1.822   1.901   6.145
  389SOL     OW 2065   3.849   3.473   2.082
  389SOL    HW1 2066   3.792   3.400   2.044
  389SOL    HW2 2067   3.932   3.483   2.027
  390SOL     OW 2068   2.639   1.149   2.685
  390SOL    HW1 2069   2.651   1.166   2.587
  390SOL    HW2 2070   2.679   1.060   2.708
  391SOL     OW 2071   2.446   1.794   6.301
  391SOL    HW1 2072   2.525   1.739   6.328
  391SOL    HW2 2073   2.475   1.887   6.281
  392SOL     OW 2074   2.062   4.920   1.074
  392SOL    HW1 2075   2.026   4.949   0.985
  392SOL    HW2 2076   2.016   4.971   1.146
  393SOL     OW 2077   1.106   4.102   6.634
  393SOL    HW1 2078   1.042   4.129   6.705
  393SOL    HW2 2079   1.084   4.151   6.549
  394SOL     OW 2080   6.790   1.246   6.990
  394SOL    HW1 2081   6.709   1.222   0.023
  394SOL    HW2 2082   6.779   1.338   6.952
  395SOL     OW 2083   4.870   3.814   2.847
  395SOL    HW1 2084   4.897   3.891   2.789
  395SOL    HW2 2085   4.790   3.840   2.901
  396SOL     OW 2086   3.592   4.200   1.946
  396SOL    HW1 2087   3.672   4.149   1.977
  396SOL    HW2 2088   3.617   4.294   1.925
  397SOL     OW 2089   4.714   2.135   5.621
  397SOL    HW1 2090   4.787   2.202   5.637
  397SOL    HW2 2091   4.625   2.178   5.637
  398SOL     OW 2092   0.684   6.455   2.283
  398SOL    HW1 2093   0.681   6.472   2.382
  398SOL    HW2 2094   0.685   6.356   2.267
  399SOL     OW 2095   5.512   6.392   2.599
  399SOL    HW1 2096   5.462   6.472   2.566
  399SOL    HW2 2097   5.452   6.335   2.655
  400SOL     OW 2098   6.363   6.792   5.854
  400SOL    HW1 2099   6.270   6.823   5.834
  400SOL    HW2 2100   6.428   6.846   5.801
  401SOL     OW 2101   4.984   0.574   5.318
  401SOL    HW1 2102   4.909   0.512   5.340
  401SOL    HW2 2103   5.011   0.561   5.222
  402SOL     OW 2104   5.737   0.294   3.429
  402SOL    HW1 2105   5.659   0.253   3.477
  402SOL    HW2 2106   5.784   0.357   3.490
  403SOL     OW 2107   4.229   1.942   4.162
  403SOL    HW1 2108   4.293   1.963   4.236
  403SOL    HW2 2109   4.150   2.004   4.168
  404SOL     OW 2110   1.318   5.598   4.569
  404SOL    HW1 2111   1.251   5.600   4.494
  404SOL    HW2 2112   1.271   5.615   4.656
  405SOL     OW 2113   1.678   3.410   1.922
  405SOL    HW1 2114   1.616   3.372   1.990
  405SOL    HW2 2115   1.753   3.458   1.968
  406SOL     OW 2116   1.322   4.403   4.683
  406SOL    HW1 2117   1.300   4.348   4.763
  406SOL    HW2 2118   1.335   4.498   4.710
  407SOL     OW 2119   1.499   0.895   3.655
  407SOL    HW1 2120   1.400   0.894   3.666
  407SOL    HW2 2121   1.536   0.979   3.694
  408SOL     OW 2122   1.371   2.494   3.051
  408SOL    HW1 2123   1.314   2.433   3.106
  408SOL    HW2 2124   1.421   2.441   2.983
  409SOL     OW 2125   6.831   2.497   1.248
  409SOL    HW1 2126   6.816   2.575   1.187
  409SOL    HW2 2127   6.900   2.520   1.316
  410SOL     OW 2128   1.452   1.158   1.585
  410SOL    HW1 2129   1.382   1.088   1.574
  410SOL    HW2 2130   1.510   1.134   1.664
  411SOL     OW 2131   5.250   0.499   0.722
  411SOL    HW1 2132   5.206   0.442   0.791
  411SOL    HW2 2133   5.251   0.594   0.753
  412SOL     OW 2134   4.486   6.439   3.542
  412SOL    HW1 2135   4.566   6.475   3.591
  412SOL    HW2 2136   4.509   6.351   3.501
  413SOL     OW 2137   5.043   4.858   1.783
  413SOL    HW1 2138   4.956   4.849   1.831
  413SOL    HW2 2139   5.119   4.842   1.847
  414SOL     OW 2140   3.493   5.303   3.544
  414SOL    HW1 2141   3.486   5.262   3.635
  414SOL    HW2 2142   3.496   5.403   3.553
  415SOL     OW 2143   1.361   5.709   6.677
  415SOL    HW1 2144   1.306   5.633   6.642
  415SOL    HW2 2145   1.434   5.731   6.611
  416SOL     OW 2146   5.053   6.223   4.639
  416SOL    HW1 2147   5.145   6.233   4.602
  416SOL    HW2 2148   5.011   6.313   4.649
  417SOL     OW 2149   3.133   4.957   0.118
  417SOL    HW1 2150   3.170   4.984   0.030
  417SOL    HW2 2151   3.181   4.876   0.151
  418SOL     OW 2152   3.947   6.202   0.769
  418SOL    HW1 2153   4.007   6.206   0.689
  418SOL    HW2 2154   4.003   6.193   0.852
  419SOL     OW 2155   1.575   0.632   1.120
  419SOL    HW1 2156   1.511   0.696   1.162
  419SOL    HW2 2157   1.612   0.672   1.036
  420SOL     OW 2158   5.842   1.436   6.846
  420SOL    HW1 2159   5.767   1.396   6.793
  420SOL    HW2 2160   5.842   1.397   6.939
  421SOL     OW 2161   0.121   4.303   6.263
  421SOL    HW1 2162   0.126   4.320   6.361
  421SOL    HW2 2163   0.199   4.248   6.234
  422SOL     OW 2164   5.573   3.669   0.760
  422SOL    HW1 2165   5.583   3.571   0.777
  422SOL    HW2 2166   5.603   3.690   0.667
  423SOL     OW 2167   0.870   2.121   6.953
  423SOL    HW1 2168   0.829   2.093   0.019
  423SOL    HW2 2169   0.953   2.068   6.936
  424SOL     OW 2170   1.969   4.267   1.051
  424SOL    HW1 2171   2.056   4.316   1.053
  424SOL    HW2 2172   1.919   4.284   1.136
  425SOL     OW 2173   5.905   1.308   2.757
  425SOL    HW1 2174   5.857   1.221   2.760
  425SOL    HW2 2175   5.991   1.301   2.808
  426SOL     OW 2176   4.374   1.657   4.147
  426SOL    HW1 2177   4.344   1.752   4.161
  426SOL    HW2 2178   4.448   1.636   4.211
  427SOL     OW 2179   4.746   5.902   3.253
  427SOL    HW1 2180   4.749   5.910   3.153
  427SOL    HW2 2181   4.680   5.832   3.278
  428SOL     OW 2182   4.683   0.405   4.280
  428SOL    HW1 2183   4.620   0.402   4.358
  428SOL    HW2 2184   4.714   0.499   4.267
  429SOL     OW 2185   1.471   3.251   1.444
  429SOL    HW1 2186   1.543   3.196   1.401
  429SOL    HW2 2187   1.405   3.278   1.374
  430SOL     OW 2188   6.867   0.088   5.386
  430SOL    HW1 2189   6.952   0.078   5.438
  430SOL    HW2 2190   6.789   0.076   5.447
  431SOL     OW 2191   3.488   6.860   0.702
  431SOL    HW1 2192   3.517   6.824   0.613
  431SOL    HW2 2193   3.459   6.784   0.760
  432SOL     OW 2194   6.591   1.384   0.752
  432SOL    HW1 2195   6.658   1.401   0.680
  432SOL    HW2 2196   6.588   1.462   0.814
  433SOL     OW 2197   2.506   6.174   5.198
  433SOL    HW1 2198   2.521   6.084   5.240
  433SOL    HW2 2199   2.588   6.201   5.147
  434SOL     OW 2200   3.512   5.750   2.878
  434SOL    HW1 2201   3.441   5.772   2.945
  434SOL    HW2 2202   3.591   5.809   2.894
  435SOL     OW 2203   5.278   2.546   6.266
  435SOL    HW1 2204   5.190   2.589   6.247
  435SOL    HW2 2205   5.279   2.510   6.359
  436SOL     OW 2206   3.096   6.237   1.493
  436SOL    HW1 2207   3.007   6.215   1.454
  436SOL    HW2 2208   3.116   6.175   1.570
  437SOL     OW 2209   1.094   0.843   0.479
  437SOL    HW1 2210   1.120   0.911   0.410
  437SOL    HW2 2211   1.166   0.836   0.548
  438SOL     OW 2212   1.949   4.054   2.826
  438SOL    HW1 2213   1.920   4.006   2.744
  438SOL    HW2 2214   2.046   4.079   2.817
  439SOL     OW 2215   5.692   4.798   2.974
  439SOL    HW1 2216   5.640   4.838   3.049
  439SOL    HW2 2217   5.784   4.775   3.005
  440SOL     OW 2218   1.973   0.979   5.178
  440SOL    HW1 2219   1.926   1.064   5.153
  440SOL    HW2 2220   1.911   0.921   5.231
  441SOL     OW 2221   0.837   2.692   4.513
  441SOL    HW1 2222   0.773   2.697   4.590
  441SOL    HW2 2223   0.931   2.690   4.547
  442SOL     OW 2224   3.520   4.852   5.837
  442SOL    HW1 2225   3.602   4.808   5.873
  442SOL    HW2 2226   3.538   4.950   5.823
  443SOL     OW 2227   6.011   3.920   4.489
  443SOL    HW1 2228   6.094   3.899   4.541
  443SOL    HW2 2229   6.029   3.906   4.392
  444SOL     OW 2230   4.842   1.237   5.595
  444SOL    HW1 2231   4.878   1.263   5.685
  444SOL    HW2 2232   4.794   1.314   5.554
  445SOL     OW 2233   0.879   5.534   2.716
  445SOL    HW1 2234   0.857   5.483   2.799
  445SOL    HW2 2235   0.978   5.547   2.710
  446SOL     OW 2236   3.793   5.064   3.654
  446SOL    HW1 2237   3.763   5.082   3.747
  446SOL    HW2 2238   3.885   5.102   3.641
  447SOL     OW 2239   0.318   2.703   6.247
  447SOL    HW1 2240   0.279   2.765   6.315
  447SOL    HW2 2241   0.254   2.628   6.231
  448SOL     OW 2242   1.706   0.562   3.404
  448SOL    HW1 2243   1.773   0.635   3.417
  448SOL    HW2 2244   1.749   0.474   3.424
  449SOL     OW 2245   3.934   1.329   4.279
  449SOL    HW1 2246   3.943   1.429   4.283
  449SOL    HW2 2247   3.898   1.296   4.366
  450SOL     OW 2248   1.309   5.818   3.860
  450SOL    HW1 2249   1.238   5.864   3.912
  450SOL    HW2 2250   1.300   5.842   3.763
  451SOL     OW 2251   1.464   2.182   3.696
  451SOL    HW1 2252   1.412   2.171   3.780
  451SOL    HW2 2253   1.479   2.279   3.679
  452SOL     OW 2254   6.180   6.115   0.966
  452SOL    HW1 2255   6.208   6.111   0.870
  452SOL    HW2 2256   6.255   6.086   1.025
  453SOL     OW 2257   3.580   1.222   5.463
  453SOL    HW1 2258   3.511   1.278   5.509
  453SOL    HW2 2259   3.624   1.275   5.391
  454SOL     OW 2260   0.024   4.641   6.520
  454SOL    HW1 2261   0.004   4.668   6.614
  454SOL    HW2 2262   6.993   4.698   6.457
  455SOL     OW 2263   6.168   2.580   3.533
  455SOL    HW1 2264   6.248   2.619   3.488
  455SOL    HW2 2265   6.156   2.485   3.504
  456SOL     OW 2266   5.950   6.357   4.208
  456SOL    HW1 2267   5.864   6.307   4.203
  456SOL    HW2 2268   5.936   6.441   4.261
  457SOL     OW 2269   1.433   2.449   4.415
  457SOL    HW1 2270   1.353   2.400   4.380
  457SOL    HW2 2271   1.476   2.396   4.488
  458SOL     OW 2272   4.060   5.615   3.768
  458SOL    HW1 2273   4.012   5.687   3.819
  458SOL    HW2 2274   4.048   5.632   3.670
  459SOL     OW 2275   2.144   6.508   5.281
  459SOL    HW1 2276   2.064   6.493   5.222
  459SOL    HW2 2277   2.166   6.424   5.329
  460SOL     OW 2278   1.663   6.571   3.837
  460SOL    HW1 2279   1.671   6.541   3.742
  460SOL    HW2 2280   1.569   6.599   3.855
  461SOL     OW 2281   6.597   6.831   5.993
  461SOL    HW1 2282   6.667   6.768   6.025
  461SOL    HW2 2283   6.509   6.806   6.034
  462SOL     OW 2284   3.663   2.911   6.571
  462SOL    HW1 2285   3.749   2.869   6.540
  462SOL    HW2 2286   3.671   2.936   6.668
  463SOL     OW 2287   5.694   6.009   3.536
  463SOL    HW1 2288   5.640   5.970   3.610
  463SOL    HW2 2289   5.733   6.097   3.565
  464SOL     OW 2290   2.829   1.563   4.829
  464SOL    HW1 2291   2.750   1.518   4.787
  464SOL    HW2 2292   2.822   1.662   4.817
  465SOL     OW 2293   0.795   3.157   6.529
  465SOL    HW1 2294   0.889   3.190   6.522
  465SOL    HW2 2295   0.756   3.149   6.437
  466SOL     OW 2296   0.926   6.107   2.608
  466SOL    HW1 2297   0.905   6.010   2.591
  466SOL    HW2 2298   1.002   6.114   2.671
  467SOL     OW 2299   2.305   1.344   0.721
  467SOL    HW1 2300   2.213   1.328   0.755
  467SOL    HW2 2301   2.369   1.353   0.798
  468SOL     OW 2302   3.430   0.472   6.115
  468SOL    HW1 2303   3.408   0.479   6.018
  468SOL    HW2 2304   3.496   0.398   6.129
  469SOL     OW 2305   3.053   3.264   6.948
  469SOL    HW1 2306   3.122   3.306   6.890
  469SOL    HW2 2307   3.011   3.187   6.900
  470SOL     OW 2308   4.271   0.422   1.829
  470SOL    HW1 2309   4.234   0.454   1.741
  470SOL    HW2 2310   4.197   0.395   1.889
  471SOL     OW 2311   1.896   2.378   3.822
  471SOL    HW1 2312   1.933   2.455   3.874
  471SOL    HW2 2313   1.959   2.354   3.749
  472SOL     OW 2314   5.039   3.162   6.278
  472SOL    HW1 2315   5.130   3.160   6.236
  472SOL    HW2 2316   4.969   3.161   6.207
  473SOL     OW 2317   1.277   3.405   3.225
  473SOL    HW1 2318   1.219   3.384   3.146
  473SOL    HW2 2319   1.302   3.320   3.271
  474SOL     OW 2320   4.929   5.886   4.216
  474SOL    HW1 2321   4.880   5.973   4.218
  474SOL    HW2 2322   4.950   5.858   4.310
  475SOL     OW 2323   5.652   1.165   6.168
  475SOL    HW1 2324   5.658   1.265   6.171
  475SOL    HW2 2325   5.740   1.125   6.194
  476SOL     OW 2326   0.210   3.604   3.537
  476SOL    HW1 2327   0.272   3.639   3.468
  476SOL    HW2 2328   0.170   3.680   3.588
  477SOL     OW 2329   1.655   5.861   3.599
  477SOL    HW1 2330   1.751   5.847   3.574
  477SOL    HW2 2331   1.608   5.907   3.524
  478SOL     OW 2332   3.393   5.850   2.018
  478SOL    HW1 2333   3.477   5.892   2.051
  478SOL    HW2 2334   3.325   5.850   2.092
  479SOL     OW 2335   4.433   1.959   5.835
  479SOL    HW1 2336   4.478   1.870   5.848
  479SOL    HW2 2337   4.373   1.954   5.755
  480SOL     OW 2338   2.549   0.676   6.821
  480SOL    HW1 2339   2.492   0.665   6.739
  480SOL    HW2 2340   2.494   0.715   6.895
  481SOL     OW 2341   2.241   6.767   1.008
  481SOL    HW1 2342   2.167   6.814   0.960
  481SOL    HW2 2343   2.230   6.779   1.107
  482SOL     OW 2344   4.184   5.257   2.521
  482SOL    HW1 2345   4.213   5.165   2.549
  482SOL    HW2 2346   4.257   5.323   2.542
  483SOL     OW 2347   0.095   1.606   2.372
  483SOL    HW1 2348   0.161   1.531   2.369
  483SOL    HW2 2349   0.088   1.641   2.466
  484SOL     OW 2350   2.128   3.546   4.316
  484SOL    HW1 2351   2.121   3.614   4.244
  484SOL    HW2 2352   2.036   3.515   4.342
  485SOL     OW 2353   3.577   5.479   2.967
  485SOL    HW1 2354   3.522   5.550   3.011
  485SOL    HW2 2355   3.602   5.409   3.034
  486SOL     OW 2356   6.519   1.176   0.032
  486SOL    HW1 2357   6.503   1.216   0.123
  486SOL    HW2 2358   6.433   1.174   7.002
  487SOL     OW 2359   0.583   0.884   2.283
  487SOL    HW1 2360   0.649   0.935   2.338
  487SOL    HW2 2361   0.501   0.866   2.338
  488SOL     OW 2362   1.136   1.797   1.509
  488SOL    HW1 2363   1.107   1.705   1.533
  488SOL    HW2 2364   1.057   1.849   1.477
  489SOL     OW 2365   3.652   6.187   5.870
  489SOL    HW1 2366   3.607   6.237   5.944
  489SOL    HW2 2367   3.751   6.190   5.883
  490SOL     OW 2368   6.669   6.411   2.916
  490SOL    HW1 2369   6.658   6.447   2.823
  490SOL    HW2 2370   6.744   6.345   2.918
  491SOL     OW 2371   1.070   3.113   2.778
  491SOL    HW1 2372   1.098   3.081   2.687
  491SOL    HW2 2373   1.122   3.064   2.848
  492SOL     OW 2374   1.740   0.618   5.453
  492SOL    HW1 2375   1.648   0.654   5.438
  492SOL    HW2 2376   1.740   0.520   5.432
  493SOL     OW 2377   5.082   6.052   5.579
  493SOL    HW1 2378   5.163   6.002   5.610
  493SOL    HW2 2379   5.067   6.131   5.638
  494SOL     OW 2380   0.564   6.341   6.348
  494SOL    HW1 2381   0.546   6.261   6.291
  494SOL    HW2 2382   0.525   6.422   6.305
  495SOL     OW 2383   4.671   6.149   3.616
  495SOL    HW1 2384   4.723   6.064   3.625
  495SOL    HW2 2385   4.576   6.127   3.595
  496SOL     OW 2386   5.143   3.025   1.821
  496SOL    HW1 2387   5.059   3.015   1.768
  496SOL    HW2 2388   5.217   2.975   1.776
  497SOL     OW 2389   2.711   0.809   4.544
  497SOL    HW1 2390   2.646   0.844   4.477
  497SOL    HW2 2391   2.804   0.821   4.510
  498SOL     OW 2392   1.314   3.933   1.657
  498SOL    HW1 2393   1.392   3.951   1.597
  498SOL    HW2 2394   1.305   3.834   1.671
  499SOL     OW 2395   1.773   5.999   4.542
  499SOL    HW1 2396   1.794   5.934   4.470
  499SOL    HW2 2397   1.764   5.951   4.630
  500SOL     OW 2398   0.137   3.183   5.139
  500SOL    HW1 2399   0.047   3.208   5.103
  500SOL    HW2 2400   0.175   3.262   5.188
  501SOL     OW 2401   3.374   5.847   0.836
  501SOL    HW1 2402   3.463   5.801   0.836
  501SOL    HW2 2403   3.304   5.783   0.804
  502SOL     OW 2404   0.519   3.922   6.951
  502SOL    HW1 2405   0.584   3.905   6.877
  502SOL    HW2 2406   0.426   3.902   6.920
  503SOL     OW 2407   0.471   5.786   6.979
  503SOL    HW1 2408   0.410   5.799   6.901
  503SOL    HW2 2409   0.556   5.743   6.948
  504SOL     OW 2410   1.529   5.110   2.127
  504SOL    HW1 2411   1.565   5.073   2.212
  504SOL    HW2 2412   1.437   5.074   2.110
  505SOL     OW 2413   3.041   5.763   5.435
  505SOL    HW1 2414   3.035   5.731   5.341
  505SOL    HW2 2415   3.123   5.725   5.478
  506SOL     OW 2416   2.874   5.015   4.148
  506SOL    HW1 2417   2.782   5.049   4.127
  506SOL    HW2 2418   2.897   4.939   4.087
  507SOL     OW 2419   2.889   6.686   3.152
  507SOL    HW1 2420   2.885   6.786   3.142
  507SOL    HW2 2421   2.955   6.649   3.088
  508SOL     OW 2422   0.130   3.783   2.458
  508SOL    HW1 2423   0.186   3.864   2.439
  508SOL    HW2 2424   0.179   3.701   2.431
  509SOL     OW 2425   3.299   1.751   1.295
  509SOL    HW1 2426   3.311   1.822   1.225
  509SOL    HW2 2427   3.312   1.661   1.253
  510SOL     OW 2428   6.512   4.577   6.784
  510SOL    HW1 2429   6.461   4.643   6.839
  510SOL    HW2 2430   6.451   4.504   6.754
  511SOL     OW 2431   0.942   1.729   5.705
  511SOL    HW1 2432   1.039   1.737   5.681
  511SOL    HW2 2433   0.904   1.820   5.722
  512SOL     OW 2434   6.828   3.215   0.262
  512SOL    HW1 2435   6.902   3.193   0.326
  512SOL    HW2 2436   6.753   3.150   0.275
  513SOL     OW 2437   5.678   6.860   3.273
  513SOL    HW1 2438   5.688   6.787   3.206
  513SOL    HW2 2439   5.665   6.821   3.364
  514SOL     OW 2440   0.001   2.166   3.736
  514SOL    HW1 2441   6.995   2.090   3.796
  514SOL    HW2 2442   6.957   2.241   3.747
  515SOL     OW 2443   1.131   0.485   6.307
  515SOL    HW1 2444   1.098   0.539   6.229
  515SOL    HW2 2445   1.205   0.426   6.277
  516SOL     OW 2446   2.572   4.626   2.033
  516SOL    HW1 2447   2.516   4.614   2.115
  516SOL    HW2 2448   2.668   4.613   2.057
  517SOL     OW 2449   4.580   5.884   1.468
  517SOL    HW1 2450   4.642   5.841   1.402
  517SOL    HW2 2451   4.603   5.981   1.477
  518SOL     OW 2452   2.943   2.235   3.374
  518SOL    HW1 2453   3.043   2.235   3.375
  518SOL    HW2 2454   2.911   2.192   3.290
  519SOL     OW 2455   0.369   0.123   4.728
  519SOL    HW1 2456   0.452   0.073   4.752
  519SOL    HW2 2457   0.391   0.218   4.707
  520SOL     OW 2458   5.826   4.373   0.885
  520SOL    HW1 2459   5.900   4.315   0.919
  520SOL    HW2 2460   5.857   4.424   0.805
  521SOL     OW 2461   6.567   5.199   4.904
  521SOL    HW1 2462   6.514   5.133   4.958
  521SOL    HW2 2463   6.635   5.150   4.850
  522SOL     OW 2464   3.788   3.225   4.446
  522SOL    HW1 2465   3.853   3.151   4.430
  522SOL    HW2 2466   3.717   3.224   4.376
  523SOL     OW 2467   0.494   5.810   1.650
  523SOL    HW1 2468   0.466   5.903   1.627
  523SOL    HW2 2469   0.426   5.769   1.711
  524SOL     OW 2470   0.700   1.961   2.176
  524SOL    HW1 2471   0.651   2.038   2.218
  524SOL    HW2 2472   0.794   1.988   2.155
  525SOL     OW 2473   1.934   3.540   5.425
  525SOL    HW1 2474   2.001   3.552   5.352
  525SOL    HW2 2475   1.978   3.554   5.514
  526SOL     OW 2476   4.129   6.514   3.780
  526SOL    HW1 2477   4.042   6.547   3.743
  526SOL    HW2 2478   4.113   6.434   3.837
  527SOL     OW 2479   5.924   2.588   6.841
  527SOL    HW1 2480   5.868   2.658   6.886
  527SOL    HW2 2481   5.868   2.508   6.822
  528SOL     OW 2482   0.882   2.430   3.633
  528SOL    HW1 2483   0.970   2.401   3.669
  528SOL    HW2 2484   0.859   2.521   3.667
  529SOL     OW 2485   1.602   6.931   4.631
  529SOL    HW1 2486   1.564   6.981   4.554
  529SOL    HW2 2487   1.550   6.846   4.645
  530SOL     OW 2488   3.565   3.156   4.299
  530SOL    HW1 2489   3.564   3.198   4.208
  530SOL    HW2 2490   3.613   3.068   4.294
  531SOL     OW 2491   0.443   1.671   3.443
  531SOL    HW1 2492   0.538   1.681   3.413
  531SOL    HW2 2493   0.425   1.575   3.465
  532SOL     OW 2494   0.996   2.792   6.775
  532SOL    HW1 2495   1.027   2.882   6.742
  532SOL    HW2 2496   0.956   2.803   6.866
  533SOL     OW 2497   3.831   6.328   4.098
  533SOL    HW1 2498   3.757   6.285   4.148
  533SOL    HW2 2499   3.905   6.353   4.161
  534SOL     OW 2500   5.360   6.611   2.541
  534SOL    HW1 2501   5.275   6.590   2.590
  534SOL    HW2 2502   5.341   6.677   2.468
  535SOL     OW 2503   0.598   3.793   4.509
  535SOL    HW1 2504   0.562   3.845   4.431
  535SOL    HW2 2505   0.620   3.700   4.480
  536SOL     OW 2506   6.688   5.191   1.791
  536SOL    HW1 2507   6.595   5.171   1.758
  536SOL    HW2 2508   6.686   5.203   1.890
  537SOL     OW 2509   3.015   6.200   4.468
  537SOL    HW1 2510   2.929   6.155   4.492
  537SOL    HW2 2511   3.034   6.274   4.532
  538SOL     OW 2512   1.367   4.523   3.334
  538SOL    HW1 2513   1.404   4.601   3.384
  538SOL    HW2 2514   1.442   4.468   3.297
  539SOL     OW 2515   1.674   5.918   1.146
  539SOL    HW1 2516   1.582   5.938   1.181
  539SOL    HW2 2517   1.692   5.820   1.155
  540SOL     OW 2518   1.033   0.849   3.088
  540SOL    HW1 2519   0.987   0.938   3.082
  540SOL    HW2 2520   1.097   0.850   3.164
  541SOL     OW 2521   5.418   5.892   4.069
  541SOL    HW1 2522   5.481   5.817   4.051
  541SOL    HW2 2523   5.450   5.944   4.148
  542SOL     OW 2524   5.913   6.399   6.986
  542SOL    HW1 2525   5.845   6.471   6.997
  542SOL    HW2 2526   5.898   6.352   6.899
  543SOL     OW 2527   1.688   4.153   5.420
  543SOL    HW1 2528   1.623   4.078   5.435
  543SOL    HW2 2529   1.642   4.240   5.433
  544SOL     OW 2530   3.344   4.134   0.274
  544SOL    HW1 2531   3.350   4.034   0.267
  544SOL    HW2 2532   3.248   4.162   0.267
  545SOL     OW 2533   2.648   1.455   1.965
  545SOL    HW1 2534   2.641   1.552   1.987
  545SOL    HW2 2535   2.626   1.441   1.869
  546SOL     OW 2536   2.169   3.271   0.404
  546SOL    HW1 2537   2.114   3.355   0.410
  546SOL    HW2 2538   2.238   3.272   0.476
  547SOL     OW 2539   3.236   0.999   0.315
  547SOL    HW1 2540   3.199   1.018   0.224
  547SOL    HW2 2541   3.285   0.912   0.313
  548SOL     OW 2542   3.316   3.255   2.787
  548SOL    HW1 2543   3.230   3.295   2.757
  548SOL    HW2 2544   3.298   3.174   2.843
  549SOL     OW 2545   5.249   2.983   0.972
  549SOL    HW1 2546   5.171   2.941   1.018
  549SOL    HW2 2547   5.232   2.986   0.873
  550SOL     OW 2548   6.847   5.039   3.648
  550SOL    HW1 2549   6.810   5.023   3.740
  550SOL    HW2 2550   6.944   5.061   3.654
  551SOL     OW 2551   0.685   0.370   2.104
  551SOL    HW1 2552   0.618   0.442   2.120
  551SOL    HW2 2553   0.673   0.298   2.173
  552SOL     OW 2554   5.189   4.448   0.227
  552SOL    HW1 2555   5.106   4.446   0.282
  552SOL    HW2 2556   5.250   4.519   0.261
  553SOL     OW 2557   2.327   6.565   2.320
  553SOL    HW1 2558   2.392   6.551   2.246
  553SOL    HW2 2559   2.253   6.625   2.289
  554SOL     OW 2560   5.475   0.402   6.023
  554SOL    HW1 2561   5.465   0.358   5.934
  554SOL    HW2 2562   5.448   0.337   6.095
  555SOL     OW 2563   1.820   5.383   3.184
  555SOL    HW1 2564   1.735   5.352   3.142
  555SOL    HW2 2565   1.802   5.409   3.279
  556SOL     OW 2566   4.675   2.600   3.223
  556SOL    HW1 2567   4.772   2.587   3.206
  556SOL    HW2 2568   4.624   2.592   3.137
  557SOL     OW 2569   0.282   5.251   0.581
  557SOL    HW1 2570   0.185   5.252   0.557
  557SOL    HW2 2571   0.331   5.187   0.523
  558SOL     OW 2572   2.963   3.255   4.270
  558SOL    HW1 2573   2.930   3.338   4.314
  558SOL    HW2 2574   3.002   3.194   4.339
  559SOL     OW 2575   6.779   5.853   6.975
  559SOL    HW1 2576   6.859   5.847   0.014
  559SOL    HW2 2577   6.707   5.791   7.008
  560SOL     OW 2578   4.592   4.533   6.731
  560SOL    HW1 2579   4.617   4.450   6.782
  560SOL    HW2 2580   4.654   4.545   6.654
  561SOL     OW 2581   6.786   1.286   0.330
  561SOL    HW1 2582   6.816   1.287   0.426
  561SOL    HW2 2583   6.845   1.347   0.277
  562SOL     OW 2584   4.969   0.719   5.960
  562SOL    HW1 2585   5.049   0.681   5.914
  562SOL    HW2 2586   4.999   0.775   6.038
  563SOL     OW 2587   2.175   0.585   3.337
  563SOL    HW1 2588   2.205   0.604   3.243
  563SOL    HW2 2589   2.170   0.671   3.388
  564SOL     OW 2590   1.899   2.141   6.431
  564SOL    HW1 2591   1.953   2.199   6.492
  564SOL    HW2 2592   1.908   2.174   6.337
  565SOL     OW 2593   3.743   3.052   5.436
  565SOL    HW1 2594   3.807   3.065   5.512
  565SOL    HW2 2595   3.778   2.981   5.375
  566SOL     OW 2596   6.293   5.106   4.124
  566SOL    HW1 2597   6.365   5.091   4.192
  566SOL    HW2 2598   6.204   5.112   4.170
  567SOL     OW 2599   3.567   2.947   1.825
  567SOL    HW1 2600   3.525   2.910   1.743
  567SOL    HW2 2601   3.572   3.047   1.818
  568SOL     OW 2602   4.509   1.628   6.881
  568SOL    HW1 2603   4.578   1.556   6.879
  568SOL    HW2 2604   4.549   1.712   6.918
  569SOL     OW 2605   1.547   2.736   6.838
  569SOL    HW1 2606   1.546   2.637   6.852
  569SOL    HW2 2607   1.534   2.756   6.741
  570SOL     OW 2608   3.088   6.348   0.002
  570SOL    HW1 2609   3.123   6.441   7.012
  570SOL    HW2 2610   3.061   6.333   0.097
  571SOL     OW 2611   3.232   0.534   2.849
  571SOL    HW1 2612   3.259   0.490   2.763
  571SOL    HW2 2613   3.306   0.526   2.916
  572SOL     OW 2614   3.205   4.904   5.494
  572SOL    HW1 2615   3.121   4.861   5.527
  572SOL    HW2 2616   3.279   4.837   5.496
  573SOL     OW 2617   5.196   1.831   5.616
  573SOL    HW1 2618   5.141   1.808   5.536
  573SOL    HW2 2619   5.224   1.927   5.609
  574SOL     OW 2620   3.311   2.134   4.143
  574SOL    HW1 2621   3.397   2.183   4.134
  574SOL    HW2 2622   3.323   2.040   4.112
  575SOL     OW 2623   5.362   3.972   1.070
  575SOL    HW1 2624   5.395   3.880   1.048
  575SOL    HW2 2625   5.278   3.990   1.020
  576SOL     OW 2626   1.118   2.326   3.132
  576SOL    HW1 2627   1.121   2.226   3.131
  576SOL    HW2 2628   1.033   2.358   3.091
  577SOL     OW 2629   1.605   1.591   2.528
  577SOL    HW1 2630   1.565   1.550   2.446
  577SOL    HW2 2631   1.544   1.575   2.606
  578SOL     OW 2632   6.482   5.240   3.074
  578SOL    HW1 2633   6.395   5.216   3.117
  578SOL    HW2 2634   6.490   5.340   3.068
  579SOL     OW 2635   1.735   2.754   2.161
  579SOL    HW1 2636   1.753   2.849   2.135
  579SOL    HW2 2637   1.722   2.748   2.260
  580SOL     OW 2638   6.738   5.037   6.807
  580SOL    HW1 2639   6.740   4.976   6.886
  580SOL    HW2 2640   6.734   5.132   6.838
  581SOL     OW 2641   3.044   3.073   2.806
  581SOL    HW1 2642   3.008   3.115   2.722
  581SOL    HW2 2643   3.011   3.123   2.885
  582SOL     OW 2644   5.141   6.570   2.092
  582SOL    HW1 2645   5.074   6.643   2.081
  582SOL    HW2 2646   5.114   6.511   2.168
  583SOL     OW 2647   3.245   5.107   5.699
  583SOL    HW1 2648   3.192   5.115   5.784
  583SOL    HW2 2649   3.189   5.065   5.628
  584SOL     OW 2650   2.394   3.766   6.445
  584SOL    HW1 2651   2.316   3.704   6.455
  584SOL    HW2 2652   2.431   3.759   6.352
  585SOL     OW 2653   5.467   2.914   5.918
  585SOL    HW1 2654   5.526   2.915   5.837
  585SOL    HW2 2655   5.487   2.832   5.972
  586SOL     OW 2656   3.826   1.722   6.294
  586SOL    HW1 2657   3.800   1.705   6.390
  586SOL    HW2 2658   3.918   1.686   6.278
  587SOL     OW 2659   3.446   1.013   5.618
  587SOL    HW1 2660   3.507   1.084   5.582
  587SOL    HW2 2661   3.477   0.924   5.586
  588SOL     OW 2662   2.458   4.696   0.977
  588SOL    HW1 2663   2.519   4.685   0.898
  588SOL    HW2 2664   2.417   4.608   0.999
  589SOL     OW 2665   3.208   5.257   1.414
  589SOL    HW1 2666   3.215   5.267   1.513
  589SOL    HW2 2667   3.112   5.249   1.387
  590SOL     OW 2668   5.195   3.057   2.415
  590SOL    HW1 2669   5.121   3.115   2.450
  590SOL    HW2 2670   5.272   3.115   2.387
  591SOL     OW 2671   3.724   5.611   3.379
  591SOL    HW1 2672   3.784   5.670   3.325
  591SOL    HW2 2673   3.752   5.516   3.367
  592SOL     OW 2674   3.202   0.444   2.125
  592SOL    HW1 2675   3.104   0.436   2.139
  592SOL    HW2 2676   3.225   0.538   2.099
  593SOL     OW 2677   4.429   2.431   3.051
  593SOL    HW1 2678   4.363   2.382   2.994
  593SOL    HW2 2679   4.480   2.496   2.994
  594SOL     OW 2680   5.592   2.341   6.924
  594SOL    HW1 2681   5.631   2.349   7.015
  594SOL    HW2 2682   5.493   2.354   6.928
  595SOL     OW 2683   6.039   0.214   3.959
  595SOL    HW1 2684   5.984   0.158   4.021
  595SOL    HW2 2685   5.995   0.217   3.870
  596SOL     OW 2686   1.805   4.538   3.254
  596SOL    HW1 2687   1.847   4.540   3.345
  596SOL    HW2 2688   1.729   4.473   3.254
  597SOL     OW 2689   4.177   6.645   6.688
  597SOL    HW1 2690   4.192   6.548   6.704
  597SOL    HW2 2691   4.154   6.690   6.775
  598SOL     OW 2692   3.040   3.984   5.819
  598SOL    HW1 2693   2.945   3.954   5.814
  598SOL    HW2 2694   3.082   3.977   5.729
  599SOL     OW 2695   2.023   6.545   2.732
  599SOL    HW1 2696   1.962   6.613   2.773
  599SOL    HW2 2697   2.118   6.564   2.758
  600SOL     OW 2698   0.976   1.156   0.408
  600SOL    HW1 2699   1.044   1.115   0.347
  600SOL    HW2 2700   1.015   1.236   0.453
  601SOL     OW 2701   2.909   6.250   3.869
  601SOL    HW1 2702   2.968   6.324   3.837
  601SOL    HW2 2703   2.826   6.289   3.910
  602SOL     OW 2704   2.069   2.922   5.972
  602SOL    HW1 2705   2.164   2.955   5.978
  602SOL    HW2 2706   2.050   2.892   5.879
  603SOL     OW 2707   3.813   1.860   4.068
  603SOL    HW1 2708   3.722   1.866   4.107
  603SOL    HW2 2709   3.825   1.772   4.023
  604SOL     OW 2710   0.575   3.453   1.828
  604SOL    HW1 2711   0.608   3.498   1.744
  604SOL    HW2 2712   0.489   3.407   1.809
  605SOL     OW 2713   6.610   6.401   2.653
  605SOL    HW1 2714   6.531   6.356   2.611
  605SOL    HW2 2715   6.676   6.426   2.581
  606SOL     OW 2716   5.096   0.608   6.727
  606SOL    HW1 2717   5.080   0.706   6.739
  606SOL    HW2 2718   5.017   0.557   6.761
  607SOL     OW 2719   5.795   0.898   5.475
  607SOL    HW1 2720   5.803   0.800   5.493
  607SOL    HW2 2721   5.812   0.949   5.559
  608SOL     OW 2722   3.411   6.178   6.693
  608SOL    HW1 2723   3.338   6.129   6.646
  608SOL    HW2 2724   3.387   6.187   6.790
  609SOL     OW 2725   4.101   3.350   3.476
  609SOL    HW1 2726   4.073   3.284   3.406
  609SOL    HW2 2727   4.071   3.318   3.566
  610SOL     OW 2728   4.890   3.219   2.360
  610SOL    HW1 2729   4.900   3.315   2.333
  610SOL    HW2 2730   4.890   3.162   2.278
  611SOL     OW 2731   2.998   0.343   6.922
  611SOL    HW1 2732   3.058   0.395   6.861
  611SOL    HW2 2733   2.964   0.404   6.994
  612SOL     OW 2734   3.722   6.519   6.036
  612SOL    HW1 2735   3.777   6.528   6.119
  612SOL    HW2 2736   3.778   6.542   5.956
  613SOL     OW 2737   3.915   6.672   5.882
  613SOL    HW1 2738   3.995   6.701   5.935
  613SOL    HW2 2739   3.867   6.753   5.849
  614SOL     OW 2740   4.582   4.526   1.467
  614SOL    HW1 2741   4.558   4.476   1.551
  614SOL    HW2 2742   4.645   4.471   1.413
  615SOL     OW 2743   0.349   2.004   1.037
  615SOL    HW1 2744   0.335   2.101   1.058
  615SOL    HW2 2745   0.283   1.975   0.967
  616SOL     OW 2746   0.239   2.263   3.625
  616SOL    HW1 2747   0.156   2.239   3.675
  616SOL    HW2 2748   0.316   2.267   3.689
  617SOL     OW 2749   6.610   3.407   6.311
  617SOL    HW1 2750   6.688   3.372   6.259
  617SOL    HW2 2751   6.639   3.433   6.403
  618SOL     OW 2752   6.877   3.191   6.511
  618SOL    HW1 2753   6.819   3.273   6.510
  618SOL    HW2 2754   6.957   3.207   6.569
  619SOL     OW 2755   4.620   0.259   6.820
  619SOL    HW1 2756   4.677   0.179   6.839
  619SOL    HW2 2757   4.551   0.235   6.752
  620SOL     OW 2758   5.053   2.522   2.000
  620SOL    HW1 2759   5.143   2.552   2.031
  620SOL    HW2 2760   4.982   2.570   2.052
  621SOL     OW 2761   2.381   6.753   5.579
  621SOL    HW1 2762   2.373   6.653   5.578
  621SOL    HW2 2763   2.290   6.793   5.586
  622SOL     OW 2764   1.024   1.594   4.627
  622SOL    HW1 2765   1.026   1.495   4.631
  622SOL    HW2 2766   1.076   1.632   4.705
  623SOL     OW 2767   1.102   6.155   5.937
  623SOL    HW1 2768   1.121   6.165   6.035
  623SOL    HW2 2769   1.182   6.183   5.885
  624SOL     OW 2770   0.296   1.675   1.060
  624SOL    HW1 2771   0.264   1.748   1.000
  624SOL    HW2 2772   0.234   1.666   1.138
  625SOL     OW 2773   1.996   2.250   1.660
  625SOL    HW1 2774   1.948   2.282   1.578
  625SOL    HW2 2775   2.095   2.262   1.647
  626SOL     OW 2776   0.846   5.904   2.902
  626SOL    HW1 2777   0.826   5.931   2.807
  626SOL    HW2 2778   0.810   5.973   2.964
  627SOL     OW 2779   6.606   6.285   0.622
  627SOL    HW1 2780   6.643   6.363   0.573
  627SOL    HW2 2781   6.650   6.277   0.711
  628SOL     OW 2782   5.302   5.859   5.433
  628SOL    HW1 2783   5.350   5.904   5.358
  628SOL    HW2 2784   5.321   5.909   5.518
  629SOL     OW 2785   0.644   0.328   6.487
  629SOL    HW1 2786   0.591   0.326   6.572
  629SOL    HW2 2787   0.722   0.389   6.498
  630SOL     OW 2788   0.524   1.440   0.293
  630SOL    HW1 2789   0.485   1.463   0.204
  630SOL    HW2 2790   0.613   1.396   0.281
  631SOL     OW 2791   3.924   1.086   5.582
  631SOL    HW1 2792   3.887   1.130   5.501
  631SOL    HW2 2793   3.854   1.081   5.653
  632SOL     OW 2794   4.286   1.932   1.273
  632SOL    HW1 2795   4.312   1.849   1.323
  632SOL    HW2 2796   4.335   1.936   1.186
  633SOL     OW 2797   2.843   3.748   6.463
  633SOL    HW1 2798   2.914   3.710   6.404
  633SOL    HW2 2799   2.863   3.844   6.482
  634SOL     OW 2800   3.561   4.053   2.929
  634SOL    HW1 2801   3.625   4.092   2.863
  634SOL    HW2 2802   3.550   3.955   2.911
  635SOL     OW 2803   4.735   5.942   0.951
  635SOL    HW1 2804   4.735   5.923   0.853
  635SOL    HW2 2805   4.818   5.905   0.993
  636SOL     OW 2806   3.593   6.836   0.181
  636SOL    HW1 2807   3.636   6.878   0.101
  636SOL    HW2 2808   3.518   6.777   0.151
  637SOL     OW 2809   6.925   2.972   3.472
  637SOL    HW1 2810   6.849   3.015   3.423
  637SOL    HW2 2811   6.892   2.891   3.521
  638SOL     OW 2812   5.698   3.301   3.154
  638SOL    HW1 2813   5.661   3.322   3.064
  638SOL    HW2 2814   5.760   3.222   3.147
  639SOL     OW 2815   5.025   3.641   2.451
  639SOL    HW1 2816   4.965   3.587   2.392
  639SOL    HW2 2817   5.106   3.670   2.399
  640SOL     OW 2818   0.052   5.180   4.103
  640SOL    HW1 2819   0.099   5.117   4.041
  640SOL    HW2 2820   0.116   5.249   4.136
  641SOL     OW 2821   0.781   4.509   5.000
  641SOL    HW1 2822   0.698   4.546   4.959
  641SOL    HW2 2823   0.802   4.558   5.084
  642SOL     OW 2824   7.004   3.439   4.238
  642SOL    HW1 2825   0.022   3.471   4.325
  642SOL    HW2 2826   0.041   3.368   4.200
  643SOL     OW 2827   6.307   0.368   6.173
  643SOL    HW1 2828   6.242   0.432   6.131
  643SOL    HW2 2829   6.387   0.359   6.114
  644SOL     OW 2830   1.660   6.902   4.253
  644SOL    HW1 2831   1.722   6.839   4.299
  644SOL    HW2 2832   1.669   6.891   4.154
  645SOL     OW 2833   4.206   6.902   5.131
  645SOL    HW1 2834   4.305   6.913   5.134
  645SOL    HW2 2835   4.163   6.959   5.201
  646SOL     OW 2836   2.779   0.509   4.450
  646SOL    HW1 2837   2.683   0.481   4.461
  646SOL    HW2 2838   2.821   0.521   4.540
  647SOL     OW 2839   4.818   1.617   4.706
  647SOL    HW1 2840   4.730   1.588   4.743
  647SOL    HW2 2841   4.844   1.705   4.746
  648SOL     OW 2842   0.420   3.853   4.044
  648SOL    HW1 2843   0.339   3.796   4.029
  648SOL    HW2 2844   0.497   3.795   4.072
  649SOL     OW 2845   1.883   4.011   1.302
  649SOL    HW1 2846   1.880   4.110   1.290
  649SOL    HW2 2847   1.953   3.988   1.369
  650SOL     OW 2848   6.084   4.229   0.911
  650SOL    HW1 2849   6.145   4.224   0.832
  650SOL    HW2 2850   6.138   4.230   0.995
  651SOL     OW 2851   1.507   6.837   6.013
  651SOL    HW1 2852   1.408   6.828   6.007
  651SOL    HW2 2853   1.547   6.750   6.038
  652SOL     OW 2854   5.151   0.122   3.928
  652SOL    HW1 2855   5.185   0.064   4.002
  652SOL    HW2 2856   5.214   0.118   3.850
  653SOL     OW 2857   1.153   6.045   0.114
  653SOL    HW1 2858   1.214   6.123   0.103
  653SOL    HW2 2859   1.074   6.072   0.170
  654SOL     OW 2860   0.755   6.087   0.443
  654SOL    HW1 2861   0.671   6.096   0.390
  654SOL    HW2 2862   0.743   6.133   0.531
  655SOL     OW 2863   0.023   6.082   1.038
  655SOL    HW1 2864   0.029   6.013   1.110
  655SOL    HW2 2865   6.949   6.113   1.029
  656SOL     OW 2866   2.585   5.737   0.885
  656SOL    HW1 2867   2.596   5.821   0.832
  656SOL    HW2 2868   2.612   5.659   0.829
  657SOL     OW 2869   2.688   3.540   1.091
  657SOL    HW1 2870   2.761   3.488   1.047
  657SOL    HW2 2871   2.657   3.492   1.173
  658SOL     OW 2872   1.607   3.935   6.658
  658SOL    HW1 2873   1.570   3.915   6.748
  658SOL    HW2 2874   1.572   3.868   6.592
  659SOL     OW 2875   2.135   6.111   4.554
  659SOL    HW1 2876   2.102   6.204   4.562
  659SOL    HW2 2877   2.128   6.064   4.642
  660SOL     OW 2878   6.159   4.168   2.559
  660SOL    HW1 2879   6.123   4.256   2.530
  660SOL    HW2 2880   6.199   4.177   2.651
  661SOL     OW 2881   4.993   3.417   3.622
  661SOL    HW1 2882   5.001   3.501   3.676
  661SOL    HW2 2883   5.003   3.439   3.525
  662SOL     OW 2884   4.102   6.998   5.382
  662SOL    HW1 2885   4.012   6.978   5.421
  662SOL    HW2 2886   4.092   0.051   5.315
  663SOL     OW 2887   1.395   3.754   0.181
  663SOL    HW1 2888   1.397   3.841   0.132
  663SOL    HW2 2889   1.307   3.709   0.166
  664SOL     OW 2890   0.878   5.331   6.657
  664SOL    HW1 2891   0.891   5.429   6.638
  664SOL    HW2 2892   0.834   5.287   6.579
  665SOL     OW 2893   4.577   5.163   0.970
  665SOL    HW1 2894   4.555   5.066   0.964
  665SOL    HW2 2895   4.492   5.216   0.972
  666SOL     OW 2896   4.626   1.953   2.438
  666SOL    HW1 2897   4.701   2.009   2.402
  666SOL    HW2 2898   4.648   1.856   2.426
  667SOL     OW 2899   6.529   4.310   3.800
  667SOL    HW1 2900   6.616   4.353   3.776
  667SOL    HW2 2901   6.461   4.329   3.729
  668SOL     OW 2902   5.263   6.208   0.049
  668SOL    HW1 2903   5.229   6.120   0.017
  668SOL    HW2 2904   5.195   6.279   0.029
  669SOL     OW 2905   3.767   6.161   3.037
  669SOL    HW1 2906   3.772   6.261   3.033
  669SOL    HW2 2907   3.858   6.124   3.055
  670SOL     OW 2908   2.698   3.002   1.711
  670SOL    HW1 2909   2.790   2.964   1.722
  670SOL    HW2 2910   2.700   3.077   1.645
  671SOL     OW 2911   2.656   5.709   6.967
  671SOL    HW1 2912   2.723   5.644   7.004
  671SOL    HW2 2913   2.607   5.668   6.891
  672SOL     OW 2914   0.527   4.936   1.780
  672SOL    HW1 2915   0.626   4.923   1.778
  672SOL    HW2 2916   0.482   4.850   1.757
  673SOL     OW 2917   6.597   0.284   1.263
  673SOL    HW1 2918   6.641   0.273   1.352
  673SOL    HW2 2919   6.667   0.291   1.192
  674SOL     OW 2920   6.902   3.750   4.797
  674SOL    HW1 2921   6.887   3.790   4.707
  674SOL    HW2 2922   6.909   3.823   4.865
  675SOL     OW 2923   0.230   0.784   4.935
  675SOL    HW1 2924   0.187   0.722   5.001
  675SOL    HW2 2925   0.211   0.878   4.961
  676SOL     OW 2926   4.116   5.576   2.578
  676SOL    HW1 2927   4.150   5.641   2.511
  676SOL    HW2 2928   4.184   5.563   2.650
  677SOL     OW 2929   6.329   1.662   6.405
  677SOL    HW1 2930   6.285   1.686   6.318
  677SOL    HW2 2931   6.417   1.619   6.387
  678SOL     OW 2932   1.110   1.569   5.223
  678SOL    HW1 2933   1.011   1.564   5.209
  678SOL    HW2 2934   1.146   1.652   5.181
  679SOL     OW 2935   5.006   1.478   4.175
  679SOL    HW1 2936   4.927   1.446   4.227
  679SOL    HW2 2937   4.979   1.555   4.117
  680SOL     OW 2938   5.423   5.305   6.304
  680SOL    HW1 2939   5.483   5.385   6.303
  680SOL    HW2 2940   5.330   5.333   6.280
  681SOL     OW 2941   5.618   6.616   1.464
  681SOL    HW1 2942   5.537   6.562   1.486
  681SOL    HW2 2943   5.642   6.603   1.368
  682SOL     OW 2944   2.232   6.620   0.269
  682SOL    HW1 2945   2.149   6.662   0.232
  682SOL    HW2 2946   2.241   6.527   0.233
  683SOL     OW 2947   3.540   2.083   6.864
  683SOL    HW1 2948   3.486   2.156   6.822
  683SOL    HW2 2949   3.600   2.041   6.796
  684SOL     OW 2950   6.088   1.127   6.668
  684SOL    HW1 2951   6.088   1.027   6.666
  684SOL    HW2 2952   6.091   1.163   6.574
  685SOL     OW 2953   4.535   0.667   4.551
  685SOL    HW1 2954   4.601   0.668   4.475
  685SOL    HW2 2955   4.584   0.682   4.637
  686SOL     OW 2956   6.206   2.828   3.191
  686SOL    HW1 2957   6.254   2.786   3.268
  686SOL    HW2 2958   6.174   2.757   3.128
  687SOL     OW 2959   0.229   3.236   4.741
  687SOL    HW1 2960   0.320   3.205   4.716
  687SOL    HW2 2961   0.166   3.158   4.743
  688SOL     OW 2962   1.419   2.771   6.581
  688SOL    HW1 2963   1.429   2.870   6.569
  688SOL    HW2 2964   1.376   2.732   6.500
  689SOL     OW 2965   0.293   4.609   6.482
  689SOL    HW1 2966   0.204   4.655   6.477
  689SOL    HW2 2967   0.294   4.532   6.417
  690SOL     OW 2968   0.822   4.064   3.917
  690SOL    HW1 2969   0.847   3.993   3.982
  690SOL    HW2 2970   0.842   4.154   3.955
  691SOL     OW 2971   2.353   0.458   6.404
  691SOL    HW1 2972   2.267   0.457   6.353
  691SOL    HW2 2973   2.421   0.514   6.356
  692SOL     OW 2974   3.660   6.346   3.221
  692SOL    HW1 2975   3.730   6.402   3.176
  692SOL    HW2 2976   3.688   6.328   3.315
  693SOL     OW 2977   6.183   1.077   3.258
  693SOL    HW1 2978   6.237   1.006   3.213
  693SOL    HW2 2979   6.129   1.037   3.332
  694SOL     OW 2980   3.492   6.457   2.670
  694SOL    HW1 2981   3.559   6.397   2.625
  694SOL    HW2 2982   3.408   6.458   2.617
  695SOL     OW 2983   4.409   4.977   5.459
  695SOL    HW1 2984   4.364   4.893   5.429
  695SOL    HW2 2985   4.434   5.031   5.379
  696SOL     OW 2986   2.879   5.197   2.413
  696SOL    HW1 2987   2.969   5.164   2.443
  696SOL    HW2 2988   2.843   5.134   2.344
  697SOL     OW 2989   1.958   3.077   4.905
  697SOL    HW1 2990   2.035   3.080   4.968
  697SOL    HW2 2991   1.980   3.131   4.823
  698SOL     OW 2992   5.954   0.215   6.823
  698SOL    HW1 2993   5.942   0.162   6.907
  698SOL    HW2 2994   5.977   0.309   6.846
  699SOL     OW 2995   1.228   4.492   6.998
  699SOL    HW1 2996   1.285   4.440   0.041
  699SOL    HW2 2997   1.135   4.498   0.014
  700SOL     OW 2998   2.936   1.780   3.649
  700SOL    HW1 2999   3.027   1.759   3.684
  700SOL    HW2 3000   2.883   1.695   3.643
  701SOL     OW 3001   6.035   3.833   5.316
  701SOL    HW1 3002   6.103   3.853   5.386
  701SOL    HW2 3003   6.069   3.761   5.256
  702SOL     OW 3004   6.567   6.425   6.232
  702SOL    HW1 3005   6.502   6.429   6.156
  702SOL    HW2 3006   6.518   6.399   6.316
  703SOL     OW 3007   3.753   3.657   6.310
  703SOL    HW1 3008   3.671   3.714   6.316
  703SOL    HW2 3009   3.738   3.572   6.361
  704SOL     OW 3010   1.333   1.252   6.059
  704SOL    HW1 3011   1.238   1.283   6.064
  704SOL    HW2 3012   1.389   1.324   6.017
  705SOL     OW 3013   5.859   6.589   3.335
  705SOL    HW1 3014   5.838   6.613   3.240
  705SOL    HW2 3015   5.939   6.641   3.365
  706SOL     OW 3016   3.891   1.825   4.504
  706SOL    HW1 3017   3.961   1.818   4.575
  706SOL    HW2 3018   3.868   1.921   4.488
  707SOL     OW 3019   4.675   0.321   2.692
  707SOL    HW1 3020   4.680   0.379   2.774
  707SOL    HW2 3021   4.755   0.337   2.635
  708SOL     OW 3022   3.941   0.982   1.459
  708SOL    HW1 3023   3.843   0.964   1.454
  708SOL    HW2 3024   3.990   0.921   1.397
  709SOL     OW 3025   1.164   5.428   0.291
  709SOL    HW1 3026   1.137   5.348   0.344
  709SOL    HW2 3027   1.204   5.497   0.352
  710SOL     OW 3028   4.162   3.502   2.558
  710SOL    HW1 3029   4.123   3.558   2.631
  710SOL    HW2 3030   4.217   3.558   2.497
  711SOL     OW 3031   0.158   2.502   6.033
  711SOL    HW1 3032   0.088   2.523   6.101
  711SOL    HW2 3033   0.174   2.403   6.031
  712SOL     OW 3034   3.187   4.400   1.174
  712SOL    HW1 3035   3.220   4.433   1.263
  712SOL    HW2 3036   3.123   4.325   1.188
  713SOL     OW 3037   3.262   2.664   6.936
  713SOL    HW1 3038   3.359   2.645   6.917
  713SOL    HW2 3039   3.237   2.752   6.894
  714SOL     OW 3040   6.145   4.698   4.553
  714SOL    HW1 3041   6.135   4.777   4.492
  714SOL    HW2 3042   6.057   4.654   4.565
  715SOL     OW 3043   5.705   5.839   0.386
  715SOL    HW1 3044   5.729   5.741   0.390
  715SOL    HW2 3045   5.716   5.880   0.477
  716SOL     OW 3046   1.265   6.865   0.834
  716SOL    HW1 3047   1.265   6.852   0.933
  716SOL    HW2 3048   1.231   6.957   0.812
  717SOL     OW 3049   5.701   4.666   6.091
  717SOL    HW1 3050   5.646   4.612   6.027
  717SOL    HW2 3051   5.797   4.667   6.061
  718SOL     OW 3052   4.719   2.290   5.970
  718SOL    HW1 3053   4.749   2.204   6.011
  718SOL    HW2 3054   4.731   2.364   6.035
  719SOL     OW 3055   6.886   2.088   1.376
  719SOL    HW1 3056   6.819   2.024   1.339
  719SOL    HW2 3057   6.962   2.097   1.312
  720SOL     OW 3058   3.512   0.529   6.528
  720SOL    HW1 3059   3.572   0.542   6.606
  720SOL    HW2 3060   3.519   0.434   6.495
  721SOL     OW 3061   2.314   0.566   4.334
  721SOL    HW1 3062   2.221   0.551   4.367
  721SOL    HW2 3063   2.377   0.567   4.411
  722SOL     OW 3064   2.733   0.100   4.367
  722SOL    HW1 3065   2.803   0.139   4.306
  722SOL    HW2 3066   2.734   0.150   4.454
  723SOL     OW 3067   2.073   3.524   3.177
  723SOL    HW1 3068   2.126   3.570   3.105
  723SOL    HW2 3069   1.978   3.555   3.173
  724SOL     OW 3070   1.257   2.868   4.741
  724SOL    HW1 3071   1.223   2.961   4.726
  724SOL    HW2 3072   1.257   2.847   4.839
  725SOL     OW 3073   3.524   6.008   0.660
  725SOL    HW1 3074   3.609   5.988   0.710
  725SOL    HW2 3075   3.447   5.967   0.709
  726SOL     OW 3076   4.620   4.521   0.533
  726SOL    HW1 3077   4.647   4.430   0.565
  726SOL    HW2 3078   4.525   4.538   0.560
  727SOL     OW 3079   5.340   5.516   5.880
  727SOL    HW1 3080   5.307   5.456   5.807
  727SOL    HW2 3081   5.275   5.516   5.956
  728SOL     OW 3082   6.612   3.854   5.014
  728SOL    HW1 3083   6.641   3.927   5.076
  728SOL    HW2 3084   6.660   3.770   5.037
  729SOL     OW 3085   1.110   1.827   0.313
  729SOL    HW1 3086   1.111   1.746   0.371
  729SOL    HW2 3087   1.083   1.801   0.220
  730SOL     OW 3088   5.821   1.818   2.615
  730SOL    HW1 3089   5.802   1.871   2.533
  730SOL    HW2 3090   5.857   1.728   2.589
  731SOL     OW 3091   5.445   4.017   5.647
  731SOL    HW1 3092   5.420   3.940   5.706
  731SOL    HW2 3093   5.542   4.037   5.658
  732SOL     OW 3094   0.812   3.030   1.063
  732SOL    HW1 3095   0.852   3.008   1.152
  732SOL    HW2 3096   0.806   3.129   1.053
  733SOL     OW 3097   5.598   5.835   5.439
  733SOL    HW1 3098   5.634   5.754   5.393
  733SOL    HW2 3099   5.512   5.812   5.485
  734SOL     OW 3100   6.824   4.414   2.443
  734SOL    HW1 3101   6.749   4.351   2.464
  734SOL    HW2 3102   6.794   4.508   2.460
  735SOL     OW 3103   3.867   2.744   0.549
  735SOL    HW1 3104   3.926   2.733   0.629
  735SOL    HW2 3105   3.923   2.756   0.467
  736SOL     OW 3106   0.450   0.143   2.878
  736SOL    HW1 3107   0.481   0.229   2.918
  736SOL    HW2 3108   0.522   0.106   2.819
  737SOL     OW 3109   4.943   2.447   5.835
  737SOL    HW1 3110   4.912   2.390   5.911
  737SOL    HW2 3111   4.922   2.401   5.749
  738SOL     OW 3112   1.837   3.912   2.238
  738SOL    HW1 3113   1.789   3.870   2.161
  738SOL    HW2 3114   1.934   3.885   2.234
  739SOL     OW 3115   3.897   0.239   4.337
  739SOL    HW1 3116   3.831   0.184   4.387
  739SOL    HW2 3117   3.959   0.178   4.287
  740SOL     OW 3118   4.776   0.529   0.758
  740SOL    HW1 3119   4.750   0.457   0.823
  740SOL    HW2 3120   4.711   0.605   0.765
  741SOL     OW 3121   2.193   6.636   3.435
  741SOL    HW1 3122   2.094   6.636   3.446
  741SOL    HW2 3123   2.218   6.699   3.361
  742SOL     OW 3124   2.155   6.350   1.732
  742SOL    HW1 3125   2.105   6.416   1.677
  742SOL    HW2 3126   2.249   6.344   1.701
  743SOL     OW 3127   0.760   4.504   4.618
  743SOL    HW1 3128   0.745   4.563   4.698
  743SOL    HW2 3129   0.742   4.409   4.643
  744SOL     OW 3130   5.639   0.169   6.839
  744SOL    HW1 3131   5.636   0.163   6.739
  744SOL    HW2 3132   5.733   0.186   6.868
  745SOL     OW 3133   0.919   5.025   4.567
  745SOL    HW1 3134   0.948   5.043   4.661
  745SOL    HW2 3135   0.829   4.981   4.568
  746SOL     OW 3136   0.339   5.122   6.373
  746SOL    HW1 3137   0.415   5.126   6.308
  746SOL    HW2 3138   0.253   5.115   6.323
  747SOL     OW 3139   3.829   6.812   4.796
  747SOL    HW1 3140   3.744   6.773   4.832
  747SOL    HW2 3141   3.886   6.739   4.759
  748SOL     OW 3142   3.655   5.149   2.330
  748SOL    HW1 3143   3.614   5.071   2.284
  748SOL    HW2 3144   3.716   5.117   2.403
  749SOL     OW 3145   6.285   4.524   5.295
  749SOL    HW1 3146   6.329   4.473   5.369
  749SOL    HW2 3147   6.185   4.515   5.304
  750SOL     OW 3148   2.117   2.395   0.767
  750SOL    HW1 3149   2.106   2.487   0.803
  750SOL    HW2 3150   2.032   2.343   0.782
  751SOL     OW 3151   4.030   2.437   6.461
  751SOL    HW1 3152   4.034   2.512   6.395
  751SOL    HW2 3153   4.109   2.378   6.450
  752SOL     OW 3154   3.452   1.598   2.450
  752SOL    HW1 3155   3.508   1.516   2.457
  752SOL    HW2 3156   3.404   1.613   2.537
  753SOL     OW 3157   1.833   3.472   4.674
  753SOL    HW1 3158   1.843   3.539   4.601
  753SOL    HW2 3159   1.805   3.384   4.636
  754SOL     OW 3160   5.657   2.893   5.711
  754SOL    HW1 3161   5.725   2.872   5.781
  754SOL    HW2 3162   5.669   2.831   5.633
  755SOL     OW 3163   1.709   4.526   5.702
  755SOL    HW1 3164   1.644   4.488   5.636
  755SOL    HW2 3165   1.771   4.590   5.655
  756SOL     OW 3166   3.562   0.481   1.308
  756SOL    HW1 3167   3.477   0.477   1.256
  756SOL    HW2 3168   3.635   0.438   1.255
  757SOL     OW 3169   0.741   0.062   3.864
  757SOL    HW1 3170   0.826   0.079   3.914
  757SOL    HW2 3171   0.701   0.149   3.836
  758SOL     OW 3172   3.904   0.235   2.233
  758SOL    HW1 3173   3.861   0.185   2.158
  758SOL    HW2 3174   3.927   0.327   2.202
  759SOL     OW 3175   0.978   1.038   0.951
  759SOL    HW1 3176   0.997   1.066   0.857
  759SOL    HW2 3177   0.906   0.968   0.951
  760SOL     OW 3178   5.137   0.517   5.832
  760SOL    HW1 3179   5.131   0.532   5.734
  760SOL    HW2 3180   5.136   0.419   5.851
  761SOL     OW 3181   5.432   3.103   5.423
  761SOL    HW1 3182   5.360   3.153   5.471
  761SOL    HW2 3183   5.457   3.021   5.475
  762SOL     OW 3184   2.845   0.726   4.884
  762SOL    HW1 3185   2.886   0.815   4.906
  762SOL    HW2 3186   2.839   0.717   4.785
  763SOL     OW 3187   4.090   4.600   6.748
  763SOL    HW1 3188   4.036   4.617   6.665
  763SOL    HW2 3189   4.171   4.546   6.724
  764SOL     OW 3190   4.871   1.207   4.298
  764SOL    HW1 3191   4.875   1.165   4.207
  764SOL    HW2 3192   4.956   1.187   4.348
  765SOL     OW 3193   1.379   6.292   1.382
  765SOL    HW1 3194   1.449   6.244   1.330
  765SOL    HW2 3195   1.301   6.231   1.398
  766SOL     OW 3196   2.095   4.009   6.811
  766SOL    HW1 3197   2.007   4.036   6.773
  766SOL    HW2 3198   2.136   4.087   6.858
  767SOL     OW 3199   6.003   6.132   2.204
  767SOL    HW1 3200   5.993   6.111   2.302
  767SOL    HW2 3201   6.041   6.224   2.194
  768SOL     OW 3202   1.985   6.465   1.565
  768SOL    HW1 3203   1.888   6.444   1.565
  768SOL    HW2 3204   2.028   6.424   1.484
  769SOL     OW 3205   2.957   0.517   4.236
  769SOL    HW1 3206   2.925   0.577   4.163
  769SOL    HW2 3207   2.893   0.519   4.312
  770SOL     OW 3208   2.090   3.734   2.992
  770SOL    HW1 3209   2.049   3.825   3.002
  770SOL    HW2 3210   2.027   3.674   2.942
  771SOL     OW 3211   2.083   5.544   2.468
  771SOL    HW1 3212   2.012   5.605   2.431
  771SOL    HW2 3213   2.111   5.578   2.558
  772SOL     OW 3214   5.351   4.875   0.840
  772SOL    HW1 3215   5.409   4.796   0.823
  772SOL    HW2 3216   5.290   4.855   0.917
  773SOL     OW 3217   0.515   3.927   4.286
  773SOL    HW1 3218   0.483   3.907   4.194
  773SOL    HW2 3219   0.438   3.953   4.344
  774SOL     OW 3220   1.682   1.716   1.514
  774SOL    HW1 3221   1.729   1.631   1.491
  774SOL    HW2 3222   1.651   1.761   1.430
  775SOL     OW 3223   0.628   2.356   2.471
  775SOL    HW1 3224   0.533   2.382   2.488
  775SOL    HW2 3225   0.684   2.438   2.457
  776SOL     OW 3226   0.744   6.840   6.026
  776SOL    HW1 3227   0.810   6.821   5.953
  776SOL    HW2 3228   0.715   6.935   6.021
  777SOL     OW 3229   3.062   5.098   1.212
  777SOL    HW1 3230   3.115   5.142   1.140
  777SOL    HW2 3231   3.028   5.168   1.275
  778SOL     OW 3232   2.902   1.061   3.219
  778SOL    HW1 3233   2.848   1.096   3.142
  778SOL    HW2 3234   2.980   1.121   3.234
  779SOL     OW 3235   0.622   2.637   2.600
  779SOL    HW1 3236   0.658   2.731   2.597
  779SOL    HW2 3237   0.568   2.625   2.683
  780SOL     OW 3238   6.037   3.869   3.482
  780SOL    HW1 3239   6.125   3.837   3.517
  780SOL    HW2 3240   6.032   3.851   3.383
  781SOL     OW 3241   5.722   0.813   0.225
  781SOL    HW1 3242   5.722   0.722   0.266
  781SOL    HW2 3243   5.632   0.855   0.238
  782SOL     OW 3244   1.437   4.212   6.887
  782SOL    HW1 3245   1.533   4.184   6.897
  782SOL    HW2 3246   1.420   4.238   6.792
  783SOL     OW 3247   4.014   5.089   1.172
  783SOL    HW1 3248   4.027   5.064   1.268
  783SOL    HW2 3249   3.919   5.073   1.146
  784SOL     OW 3250   5.134   6.679   0.348
  784SOL    HW1 3251   5.171   6.586   0.353
  784SOL    HW2 3252   5.127   6.717   0.440
  785SOL     OW 3253   0.530   2.853   2.825
  785SOL    HW1 3254   0.474   2.832   2.905
  785SOL    HW2 3255   0.498   2.800   2.747
  786SOL     OW 3256   1.077   0.897   1.167
  786SOL    HW1 3257   1.038   0.947   1.090
  786SOL    HW2 3258   1.143   0.830   1.134
  787SOL     OW 3259   3.323   0.227   6.746
  787SOL    HW1 3260   3.369   0.184   6.669
  787SOL    HW2 3261   3.243   0.173   6.772
  788SOL     OW 3262   3.724   3.322   5.328
  788SOL    HW1 3263   3.752   3.304   5.234
  788SOL    HW2 3264   3.697   3.236   5.372
  789SOL     OW 3265   5.613   3.970   0.635
  789SOL    HW1 3266   5.523   3.959   0.594
  789SOL    HW2 3267   5.620   4.061   0.676
  790SOL     OW 3268   1.863   1.374   4.196
  790SOL    HW1 3269   1.953   1.365   4.152
  790SOL    HW2 3270   1.847   1.294   4.255
  791SOL     OW 3271   3.439   5.276   3.846
  791SOL    HW1 3272   3.340   5.264   3.838
  791SOL    HW2 3273   3.473   5.222   3.922
  792SOL     OW 3274   0.833   0.326   1.663
  792SOL    HW1 3275   0.790   0.300   1.749
  792SOL    HW2 3276   0.804   0.262   1.591
  793SOL     OW 3277   4.833   5.662   4.105
  793SOL    HW1 3278   4.772   5.689   4.030
  793SOL    HW2 3279   4.861   5.744   4.155
  794SOL     OW 3280   3.216   3.535   5.113
  794SOL    HW1 3281   3.163   3.451   5.105
  794SOL    HW2 3282   3.308   3.514   5.146
  795SOL     OW 3283   3.618   6.141   4.526
  795SOL    HW1 3284   3.540   6.119   4.585
  795SOL    HW2 3285   3.589   6.135   4.430
  796SOL     OW 3286   1.251   1.665   6.069
  796SOL    HW1 3287   1.332   1.721   6.087
  796SOL    HW2 3288   1.175   1.725   6.040
  797SOL     OW 3289   5.102   2.543   1.505
  797SOL    HW1 3290   5.076   2.628   1.552
  797SOL    HW2 3291   5.087   2.465   1.566
  798SOL     OW 3292   4.608   0.461   2.184
  798SOL    HW1 3293   4.554   0.393   2.233
  798SOL    HW2 3294   4.698   0.468   2.227
  799SOL     OW 3295   6.091   0.818   5.617
  799SOL    HW1 3296   6.179   0.802   5.661
  799SOL    HW2 3297   6.024   0.752   5.650
  800SOL     OW 3298   5.262   1.878   2.731
  800SOL    HW1 3299   5.346   1.837   2.767
  800SOL    HW2 3300   5.283   1.969   2.695
  801SOL     OW 3301   1.586   3.374   4.442
  801SOL    HW1 3302   1.683   3.356   4.431
  801SOL    HW2 3303   1.572   3.472   4.457
  802SOL     OW 3304   4.582   0.932   0.609
  802SOL    HW1 3305   4.486   0.917   0.632
  802SOL    HW2 3306   4.589   0.959   0.513
  803SOL     OW 3307   6.819   6.724   5.227
  803SOL    HW1 3308   6.885   6.685   5.292
  803SOL    HW2 3309   6.833   6.681   5.137
  804SOL     OW 3310   5.457   5.676   6.828
  804SOL    HW1 3311   5.362   5.655   6.805
  804SOL    HW2 3312   5.490   5.750   6.769
  805SOL     OW 3313   3.143   1.371   5.551
  805SOL    HW1 3314   3.086   1.428   5.491
  805SOL    HW2 3315   3.084   1.311   5.605
  806SOL     OW 3316   5.420   1.258   3.669
  806SOL    HW1 3317   5.505   1.230   3.623
  806SOL    HW2 3318   5.344   1.201   3.637
  807SOL     OW 3319   0.378   2.180   5.035
  807SOL    HW1 3320   0.323   2.228   4.966
  807SOL    HW2 3321   0.459   2.234   5.057
  808SOL     OW 3322   4.656   3.001   5.974
  808SOL    HW1 3323   4.730   3.043   6.026
  808SOL    HW2 3324   4.578   2.983   6.035
  809SOL     OW 3325   0.074   5.466   2.058
  809SOL    HW1 3326   0.073   5.550   2.003
  809SOL    HW2 3327   0.165   5.453   2.096
  810SOL     OW 3328   3.307   2.998   0.989
  810SOL    HW1 3329   3.342   2.910   1.022
  810SOL    HW2 3330   3.338   3.012   0.895
  811SOL     OW 3331   3.827   5.663   5.281
  811SOL    HW1 3332   3.870   5.573   5.288
  811SOL    HW2 3333   3.820   5.689   5.185
  812SOL     OW 3334   0.433   1.490   1.684
  812SOL    HW1 3335   0.405   1.567   1.741
  812SOL    HW2 3336   0.525   1.461   1.711
  813SOL     OW 3337   3.321   6.027   5.382
  813SOL    HW1 3338   3.309   5.949   5.321
  813SOL    HW2 3339   3.301   6.112   5.332
  814SOL     OW 3340   5.830   6.543   2.522
  814SOL    HW1 3341   5.810   6.466   2.583
  814SOL    HW2 3342   5.748   6.597   2.508
  815SOL     OW 3343   0.412   4.312   3.101
  815SOL    HW1 3344   0.312   4.304   3.100
  815SOL    HW2 3345   0.447   4.303   3.008
  816SOL     OW 3346   5.879   6.584   0.289
  816SOL    HW1 3347   5.887   6.566   0.191
  816SOL    HW2 3348   5.900   6.680   0.308
  817SOL     OW 3349   1.897   3.394   1.612
  817SOL    HW1 3350   1.809   3.347   1.620
  817SOL    HW2 3351   1.953   3.371   1.691
  818SOL     OW 3352   6.165   2.403   1.736
  818SOL    HW1 3353   6.174   2.453   1.649
  818SOL    HW2 3354   6.114   2.319   1.721
  819SOL     OW 3355   5.893   2.763   2.933
  819SOL    HW1 3356   5.955   2.841   2.925
  819SOL    HW2 3357   5.842   2.770   3.018
  820SOL     OW 3358   2.972   3.070   5.605
  820SOL    HW1 3359   2.926   2.982   5.616
  820SOL    HW2 3360   3.033   3.066   5.525
  821SOL     OW 3361   1.166   4.040   0.641
  821SOL    HW1 3362   1.220   3.973   0.691
  821SOL    HW2 3363   1.078   3.999   0.615
  822SOL     OW 3364   1.782   4.207   4.820
  822SOL    HW1 3365   1.869   4.193   4.771
  822SOL    HW2 3366   1.718   4.256   4.761
  823SOL     OW 3367   5.287   4.467   6.444
  823SOL    HW1 3368   5.384   4.443   6.437
  823SOL    HW2 3369   5.232   4.384   6.449
  824SOL     OW 3370   5.540   1.131   5.124
  824SOL    HW1 3371   5.578   1.186   5.049
  824SOL    HW2 3372   5.477   1.187   5.177
  825SOL     OW 3373   1.272   4.326   1.359
  825SOL    HW1 3374   1.294   4.404   1.301
  825SOL    HW2 3375   1.184   4.288   1.331
  826SOL     OW 3376   5.419   3.071   5.130
  826SOL    HW1 3377   5.461   2.998   5.077
  826SOL    HW2 3378   5.439   3.059   5.227
  827SOL     OW 3379   3.701   4.216   5.866
  827SOL    HW1 3380   3.640   4.140   5.842
  827SOL    HW2 3381   3.730   4.263   5.782
  828SOL     OW 3382   5.139   6.257   6.211
  828SOL    HW1 3383   5.104   6.217   6.126
  828SOL    HW2 3384   5.136   6.357   6.205
  829SOL     OW 3385   3.020   3.175   3.287
  829SOL    HW1 3386   3.000   3.131   3.375
  829SOL    HW2 3387   3.070   3.260   3.303
  830SOL     OW 3388   4.475   4.157   6.739
  830SOL    HW1 3389   4.552   4.205   6.781
  830SOL    HW2 3390   4.457   4.196   6.648
  831SOL     OW 3391   5.500   1.075   6.621
  831SOL    HW1 3392   5.483   0.989   6.669
  831SOL    HW2 3393   5.506   1.058   6.522
  832SOL     OW 3394   2.889   0.701   1.992
  832SOL    HW1 3395   2.961   0.743   2.046
  832SOL    HW2 3396   2.890   0.602   2.006
  833SOL     OW 3397   0.255   3.881   5.651
  833SOL    HW1 3398   0.326   3.923   5.595
  833SOL    HW2 3399   0.279   3.890   5.748
  834SOL     OW 3400   3.143   3.927   1.075
  834SOL    HW1 3401   3.076   3.913   1.002
  834SOL    HW2 3402   3.155   3.843   1.126
  835SOL     OW 3403   3.489   0.331   4.856
  835SOL    HW1 3404   3.459   0.366   4.945
  835SOL    HW2 3405   3.410   0.326   4.794
  836SOL     OW 3406   3.924   6.461   6.955
  836SOL    HW1 3407   3.872   6.533   6.908
  836SOL    HW2 3408   3.864   6.416   0.001
  837SOL     OW 3409   5.449   6.682   0.366
  837SOL    HW1 3410   5.418   6.656   0.275
  837SOL    HW2 3411   5.422   6.611   0.432
  838SOL     OW 3412   1.945   0.486   4.665
  838SOL    HW1 3413   1.999   0.442   4.738
  838SOL    HW2 3414   1.915   0.576   4.696
  839SOL     OW 3415   2.630   2.349   2.091
  839SOL    HW1 3416   2.573   2.353   2.010
  839SOL    HW2 3417   2.726   2.351   2.064
  840SOL     OW 3418   6.036   6.767   6.668
  840SOL    HW1 3419   6.039   6.714   6.752
  840SOL    HW2 3420   5.974   6.845   6.679
  841SOL     OW 3421   4.673   4.716   7.002
  841SOL    HW1 3422   4.624   4.774   0.046
  841SOL    HW2 3423   4.607   4.669   6.943
  842SOL     OW 3424   3.905   6.268   4.925
  842SOL    HW1 3425   3.807   6.276   4.904
  842SOL    HW2 3426   3.918   6.201   4.997
  843SOL     OW 3427   1.895   1.567   0.610
  843SOL    HW1 3428   1.964   1.507   0.651
  843SOL    HW2 3429   1.874   1.642   0.672
  844SOL     OW 3430   6.071   0.546   0.982
  844SOL    HW1 3431   6.029   0.607   0.915
  844SOL    HW2 3432   6.162   0.581   1.007
  845SOL     OW 3433   5.591   4.398   5.229
  845SOL    HW1 3434   5.572   4.305   5.261
  845SOL    HW2 3435   5.621   4.396   5.134
  846SOL     OW 3436   2.414   1.834   0.114
  846SOL    HW1 3437   2.455   1.767   0.176
  846SOL    HW2 3438   2.359   1.787   0.045
  847SOL     OW 3439   1.194   3.525   1.042
  847SOL    HW1 3440   1.120   3.549   0.980
  847SOL    HW2 3441   1.177   3.566   1.131
  848SOL     OW 3442   5.898   0.678   6.375
  848SOL    HW1 3443   5.869   0.659   6.469
  848SOL    HW2 3444   5.826   0.649   6.311
  849SOL     OW 3445   0.719   4.788   5.987
  849SOL    HW1 3446   0.686   4.768   5.894
  849SOL    HW2 3447   0.641   4.812   6.045
  850SOL     OW 3448   5.590   1.043   4.145
  850SOL    HW1 3449   5.560   1.138   4.131
  850SOL    HW2 3450   5.619   1.004   4.058
  851SOL     OW 3451   0.726   1.477   2.244
  851SOL    HW1 3452   0.675   1.431   2.171
  851SOL    HW2 3453   0.721   1.423   2.328
  852SOL     OW 3454   1.317   2.394   0.131
  852SOL    HW1 3455   1.228   2.353   0.109
  852SOL    HW2 3456   1.387   2.355   0.071
  853SOL     OW 3457   1.824   4.197   2.209
  853SOL    HW1 3458   1.780   4.112   2.237
  853SOL    HW2 3459   1.824   4.203   2.109
  854SOL     OW 3460   4.406   6.268   1.880
  854SOL    HW1 3461   4.439   6.180   1.846
  854SOL    HW2 3462   4.367   6.321   1.805
  855SOL     OW 3463   0.417   0.343   1.728
  855SOL    HW1 3464   0.417   0.357   1.827
  855SOL    HW2 3465   0.404   0.431   1.683
  856SOL     OW 3466   1.361   1.756   4.985
  856SOL    HW1 3467   1.347   1.657   4.985
  856SOL    HW2 3468   1.282   1.801   5.027
  857SOL     OW 3469   5.990   4.668   2.354
  857SOL    HW1 3470   5.964   4.632   2.265
  857SOL    HW2 3471   6.072   4.725   2.344
  858SOL     OW 3472   2.819   3.948   1.137
  858SOL    HW1 3473   2.770   3.989   1.214
  858SOL    HW2 3474   2.859   3.861   1.166
  859SOL     OW 3475   4.869   5.805   6.262
  859SOL    HW1 3476   4.958   5.827   6.222
  859SOL    HW2 3477   4.816   5.751   6.197
  860SOL     OW 3478   4.312   3.954   0.877
  860SOL    HW1 3479   4.248   4.025   0.848
  860SOL    HW2 3480   4.331   3.964   0.975
  861SOL     OW 3481   2.833   0.226   3.954
  861SOL    HW1 3482   2.801   0.138   3.918
  861SOL    HW2 3483   2.909   0.259   3.897
  862SOL     OW 3484   0.391   4.174   5.915
  862SOL    HW1 3485   0.460   4.199   5.983
  862SOL    HW2 3486   0.415   4.215   5.827
  863SOL     OW 3487   0.376   0.191   0.300
  863SOL    HW1 3488   0.338   0.180   0.392
  863SOL    HW2 3489   0.306   0.170   0.232
  864SOL     OW 3490   4.291   5.166   3.557
  864SOL    HW1 3491   4.332   5.142   3.469
  864SOL    HW2 3492   4.321   5.101   3.627
  865SOL     OW 3493   1.871   6.041   6.226
  865SOL    HW1 3494   1.799   6.108   6.212
  865SOL    HW2 3495   1.894   6.036   6.323
  866SOL     OW 3496   1.639   2.097   2.023
  866SOL    HW1 3497   1.598   2.066   1.938
  866SOL    HW2 3498   1.704   2.171   2.004
  867SOL     OW 3499   3.805   3.027   0.502
  867SOL    HW1 3500   3.802   2.927   0.508
  867SOL    HW2 3501   3.808   3.066   0.594
  868SOL     OW 3502   5.962   0.112   0.790
  868SOL    HW1 3503   6.020   0.182   0.831
  868SOL    HW2 3504   5.997   0.021   0.814
  869SOL     OW 3505   6.419   5.664   2.823
  869SOL    HW1 3506   6.328   5.679   2.863
  869SOL    HW2 3507   6.445   5.744   2.769
  870SOL     OW 3508   4.975   3.271   0.839
  870SOL    HW1 3509   5.025   3.196   0.880
  870SOL    HW2 3510   4.944   3.334   0.910
  871SOL     OW 3511   5.115   3.880   2.956
  871SOL    HW1 3512   5.080   3.876   3.050
  871SOL    HW2 3513   5.055   3.828   2.896
  872SOL     OW 3514   5.708   4.371   3.762
  872SOL    HW1 3515   5.650   4.332   3.834
  872SOL    HW2 3516   5.796   4.396   3.801
  873SOL     OW 3517   5.677   6.747   4.174
  873SOL    HW1 3518   5.769   6.738   4.211
  873SOL    HW2 3519   5.612   6.763   4.248
  874SOL     OW 3520   1.016   4.785   5.749
  874SOL    HW1 3521   0.962   4.804   5.667
  874SOL    HW2 3522   0.994   4.851   5.821
  875SOL     OW 3523   3.658   2.599   0.633
  875SOL    HW1 3524   3.729   2.668   0.616
  875SOL    HW2 3525   3.667   2.566   0.727
  876SOL     OW 3526   0.806   5.708   3.128
  876SOL    HW1 3527   0.815   5.608   3.130
  876SOL    HW2 3528   0.862   5.745   3.054
  877SOL     OW 3529   4.156   3.592   0.031
  877SOL    HW1 3530   4.164   3.604   6.953
  877SOL    HW2 3531   4.080   3.647   0.065
  878SOL     OW 3532   4.192   5.994   5.587
  878SOL    HW1 3533   4.279   6.028   5.622
  878SOL    HW2 3534   4.190   5.895   5.591
  879SOL     OW 3535   3.123   2.135   1.978
  879SOL    HW1 3536   3.068   2.053   1.965
  879SOL    HW2 3537   3.070   2.203   2.028
  880SOL     OW 3538   3.114   3.748   5.589
  880SOL    HW1 3539   3.016   3.729   5.578
  880SOL    HW2 3540   3.147   3.801   5.511
  881SOL     OW 3541   4.572   4.478   5.251
  881SOL    HW1 3542   4.621   4.498   5.336
  881SOL    HW2 3543   4.560   4.380   5.242
  882SOL     OW 3544   1.520   1.599   4.071
  882SOL    HW1 3545   1.431   1.578   4.031
  882SOL    HW2 3546   1.538   1.697   4.062
  883SOL     OW 3547   4.877   5.305   6.227
  883SOL    HW1 3548   4.905   5.261   6.141
  883SOL    HW2 3549   4.790   5.265   6.258
  884SOL     OW 3550   0.052   3.830   0.419
  884SOL    HW1 3551   0.069   3.901   0.351
  884SOL    HW2 3552   7.009   3.763   0.382
  885SOL     OW 3553   5.279   6.310   6.733
  885SOL    HW1 3554   5.353   6.253   6.697
  885SOL    HW2 3555   5.207   6.252   6.771
  886SOL     OW 3556   3.432   0.283   0.891
  886SOL    HW1 3557   3.510   0.324   0.845
  886SOL    HW2 3558   3.356   0.274   0.826
  887SOL     OW 3559   4.171   0.098   4.277
  887SOL    HW1 3560   4.217   0.187   4.281
  887SOL    HW2 3561   4.234   0.027   4.310
  888SOL     OW 3562   5.998   6.111   3.036
  888SOL    HW1 3563   5.940   6.146   2.963
  888SOL    HW2 3564   5.981   6.163   3.120
  889SOL     OW 3565   1.559   6.318   5.464
  889SOL    HW1 3566   1.606   6.284   5.383
  889SOL    HW2 3567   1.611   6.293   5.546
  890SOL     OW 3568   2.147   4.809   2.134
  890SOL    HW1 3569   2.080   4.744   2.168
  890SOL    HW2 3570   2.106   4.900   2.130
  891SOL     OW 3571   6.825   4.097   1.499
  891SOL    HW1 3572   6.806   4.017   1.556
  891SOL    HW2 3573   6.760   4.102   1.424
  892SOL     OW 3574   4.114   3.569   6.782
  892SOL    HW1 3575   4.046   3.634   6.817
  892SOL    HW2 3576   4.136   3.593   6.687
  893SOL     OW 3577   2.088   0.960   2.572
  893SOL    HW1 3578   2.182   0.935   2.597
  893SOL    HW2 3579   2.091   1.023   2.494
  894SOL     OW 3580   1.183   2.455   3.790
  894SOL    HW1 3581   1.193   2.399   3.708
  894SOL    HW2 3582   1.237   2.538   3.780
  895SOL     OW 3583   1.198   5.557   4.800
  895SOL    HW1 3584   1.125   5.559   4.869
  895SOL    HW2 3585   1.277   5.508   4.836
  896SOL     OW 3586   5.335   6.994   2.086
  896SOL    HW1 3587   5.276   6.976   2.007
  896SOL    HW2 3588   5.302   6.942   2.165
  897SOL     OW 3589   5.238   0.930   0.462
  897SOL    HW1 3590   5.307   0.880   0.515
  897SOL    HW2 3591   5.278   0.960   0.376
  898SOL     OW 3592   4.280   5.515   2.849
  898SOL    HW1 3593   4.234   5.574   2.916
  898SOL    HW2 3594   4.276   5.420   2.880
  899SOL     OW 3595   7.014   4.850   0.135
  899SOL    HW1 3596   7.011   4.876   0.039
  899SOL    HW2 3597   0.028   4.926   0.190
  900SOL     OW 3598   4.869   6.277   1.388
  900SOL    HW1 3599   4.954   6.310   1.348
  900SOL    HW2 3600   4.850   6.328   1.472
  901SOL     OW 3601   0.785   1.129   5.568
  901SOL    HW1 3602   0.816   1.097   5.658
  901SOL    HW2 3603   0.832   1.214   5.545
  902SOL     OW 3604   0.526   2.283   6.593
  902SOL    HW1 3605   0.445   2.335   6.564
  902SOL    HW2 3606   0.593   2.346   6.633
  903SOL     OW 3607   6.591   3.716   6.301
  903SOL    HW1 3608   6.575   3.671   6.214
  903SOL    HW2 3609   6.675   3.679   6.342
  904SOL     OW 3610   1.345   2.663   3.741
  904SOL    HW1 3611   1.412   2.589   3.745
  904SOL    HW2 3612   1.391   2.750   3.724
  905SOL     OW 3613   4.510   3.323   6.042
  905SOL    HW1 3614   4.582   3.385   6.010
  905SOL    HW2 3615   4.430   3.377   6.069
  906SOL     OW 3616   0.793   3.777   5.690
  906SOL    HW1 3617   0.755   3.819   5.773
  906SOL    HW2 3618   0.820   3.849   5.627
  907SOL     OW 3619   5.827   3.076   3.181
  907SOL    HW1 3620   5.916   3.064   3.137
  907SOL    HW2 3621   5.777   2.990   3.180
  908SOL     OW 3622   1.974   6.400   3.455
  908SOL    HW1 3623   1.910   6.323   3.445
  908SOL    HW2 3624   1.923   6.483   3.476
  909SOL     OW 3625   2.332   6.535   1.918
  909SOL    HW1 3626   2.243   6.492   1.932
  909SOL    HW2 3627   2.367   6.512   1.827
  910SOL     OW 3628   2.596   0.234   0.768
  910SOL    HW1 3629   2.579   0.137   0.784
  910SOL    HW2 3630   2.535   0.267   0.696
  911SOL     OW 3631   0.053   5.831   1.169
  911SOL    HW1 3632   0.033   5.793   1.079
  911SOL    HW2 3633   7.004   5.801   1.234
  912SOL     OW 3634   6.544   1.033   4.610
  912SOL    HW1 3635   6.497   1.084   4.538
  912SOL    HW2 3636   6.479   1.012   4.684
  913SOL     OW 3637   2.271   0.346   3.094
  913SOL    HW1 3638   2.217   0.353   3.010
  913SOL    HW2 3639   2.336   0.422   3.099
  914SOL     OW 3640   2.798   5.738   4.967
  914SOL    HW1 3641   2.862   5.713   4.894
  914SOL    HW2 3642   2.704   5.721   4.935
  915SOL     OW 3643   1.477   3.128   0.151
  915SOL    HW1 3644   1.507   3.194   0.083
  915SOL    HW2 3645   1.527   3.143   0.236
  916SOL     OW 3646   1.691   2.732   1.728
  916SOL    HW1 3647   1.607   2.699   1.773
  916SOL    HW2 3648   1.750   2.654   1.707
  917SOL     OW 3649   5.197   0.438   1.746
  917SOL    HW1 3650   5.249   0.391   1.675
  917SOL    HW2 3651   5.247   0.433   1.832
  918SOL     OW 3652   2.581   6.455   6.647
  918SOL    HW1 3653   2.508   6.483   6.710
  918SOL    HW2 3654   2.648   6.399   6.696
  919SOL     OW 3655   6.694   5.943   2.228
  919SOL    HW1 3656   6.784   5.975   2.257
  919SOL    HW2 3657   6.649   6.013   2.172
  920SOL     OW 3658   1.450   6.355   3.340
  920SOL    HW1 3659   1.513   6.423   3.303
  920SOL    HW2 3660   1.408   6.391   3.423
  921SOL     OW 3661   4.628   4.299   3.795
  921SOL    HW1 3662   4.597   4.219   3.745
  921SOL    HW2 3663   4.621   4.380   3.737
  922SOL     OW 3664   3.372   2.817   6.084
  922SOL    HW1 3665   3.463   2.841   6.118
  922SOL    HW2 3666   3.304   2.836   6.154
  923SOL     OW 3667   3.059   4.613   6.387
  923SOL    HW1 3668   3.083   4.607   6.484
  923SOL    HW2 3669   3.067   4.707   6.356
  924SOL     OW 3670   6.313   2.596   2.093
  924SOL    HW1 3671   6.308   2.672   2.029
  924SOL    HW2 3672   6.244   2.527   2.069
  925SOL     OW 3673   6.969   1.935   5.814
  925SOL    HW1 3674   6.994   1.939   5.718
  925SOL    HW2 3675   0.008   1.870   5.862
  926SOL     OW 3676   6.098   1.006   6.978
  926SOL    HW1 3677   6.019   1.059   7.006
  926SOL    HW2 3678   6.174   1.068   6.958
  927SOL     OW 3679   5.317   4.601   3.420
  927SOL    HW1 3680   5.284   4.508   3.439
  927SOL    HW2 3681   5.412   4.595   3.387
  928SOL     OW 3682   1.809   0.340   0.456
  928SOL    HW1 3683   1.833   0.250   0.493
  928SOL    HW2 3684   1.714   0.338   0.423
  929SOL     OW 3685   0.676   1.273   0.758
  929SOL    HW1 3686   0.673   1.370   0.737
  929SOL    HW2 3687   0.604   1.225   0.707
  930SOL     OW 3688   5.601   5.891   4.845
  930SOL    HW1 3689   5.639   5.982   4.829
  930SOL    HW2 3690   5.583   5.879   4.942
  931SOL     OW 3691   5.806   3.703   2.571
  931SOL    HW1 3692   5.812   3.788   2.520
  931SOL    HW2 3693   5.826   3.720   2.668
  932SOL     OW 3694   2.624   6.956   2.159
  932SOL    HW1 3695   2.665   6.926   2.072
  932SOL    HW2 3696   2.539   7.004   2.140
  933SOL     OW 3697   0.495   5.926   2.632
  933SOL    HW1 3698   0.525   5.992   2.701
  933SOL    HW2 3699   0.395   5.919   2.634
  934SOL     OW 3700   1.672   0.943   5.044
  934SOL    HW1 3701   1.731   0.870   5.011
  934SOL    HW2 3702   1.595   0.903   5.095
  935SOL     OW 3703   4.916   3.464   5.491
  935SOL    HW1 3704   5.010   3.439   5.514
  935SOL    HW2 3705   4.916   3.538   5.424
  936SOL     OW 3706   1.260   0.969   6.032
  936SOL    HW1 3707   1.322   0.892   6.050
  936SOL    HW2 3708   1.286   1.047   6.089
  937SOL     OW 3709   4.537   1.657   4.739
  937SOL    HW1 3710   4.443   1.674   4.769
  937SOL    HW2 3711   4.600   1.705   4.800
  938SOL     OW 3712   0.633   5.294   6.504
  938SOL    HW1 3713   0.653   5.385   6.467
  938SOL    HW2 3714   0.554   5.298   6.564
  939SOL     OW 3715   4.439   1.487   5.208
  939SOL    HW1 3716   4.530   1.511   5.173
  939SOL    HW2 3717   4.439   1.393   5.242
  940SOL     OW 3718   0.582   3.301   2.547
  940SOL    HW1 3719   0.595   3.218   2.600
  940SOL    HW2 3720   0.490   3.301   2.507
  941SOL     OW 3721   6.612   0.736   4.121
  941SOL    HW1 3722   6.543   0.675   4.158
  941SOL    HW2 3723   6.603   0.739   4.021
  942SOL     OW 3724   4.856   0.542   4.115
  942SOL    HW1 3725   4.903   0.470   4.066
  942SOL    HW2 3726   4.845   0.622   4.056
  943SOL     OW 3727   1.235   3.288   3.867
  943SOL    HW1 3728   1.262   3.355   3.797
  943SOL    HW2 3729   1.185   3.335   3.940
  944SOL     OW 3730   6.283   3.640   5.920
  944SOL    HW1 3731   6.371   3.613   5.960
  944SOL    HW2 3732   6.243   3.562   5.873
  945SOL     OW 3733   6.516   4.116   5.837
  945SOL    HW1 3734   6.565   4.153   5.915
  945SOL    HW2 3735   6.574   4.050   5.788
  946SOL     OW 3736   4.944   2.704   5.728
  946SOL    HW1 3737   4.936   2.616   5.774
  946SOL    HW2 3738   5.032   2.709   5.680
  947SOL     OW 3739   3.370   3.184   4.479
  947SOL    HW1 3740   3.401   3.133   4.559
  947SOL    HW2 3741   3.433   3.167   4.403
  948SOL     OW 3742   4.113   0.459   0.592
  948SOL    HW1 3743   4.057   0.483   0.513
  948SOL    HW2 3744   4.056   0.458   0.674
  949SOL     OW 3745   0.321   6.231   6.144
  949SOL    HW1 3746   0.262   6.169   6.093
  949SOL    HW2 3747   0.407   6.185   6.165
  950SOL     OW 3748   4.113   5.015   1.893
  950SOL    HW1 3749   4.124   4.970   1.981
  950SOL    HW2 3750   4.158   4.961   1.822
  951SOL     OW 3751   1.825   1.008   2.418
  951SOL    HW1 3752   1.769   1.028   2.338
  951SOL    HW2 3753   1.807   0.915   2.449
  952SOL     OW 3754   5.917   2.019   2.320
  952SOL    HW1 3755   5.874   1.960   2.252
  952SOL    HW2 3756   5.877   2.111   2.314
  953SOL     OW 3757   5.003   6.289   5.075
  953SOL    HW1 3758   5.044   6.290   5.166
  953SOL    HW2 3759   5.007   6.381   5.035
  954SOL     OW 3760   5.049   5.667   0.493
  954SOL    HW1 3761   4.971   5.637   0.438
  954SOL    HW2 3762   5.087   5.751   0.454
  955SOL     OW 3763   0.018   4.882   3.444
  955SOL    HW1 3764   6.964   4.938   3.409
  955SOL    HW2 3765   0.016   4.882   3.544
  956SOL     OW 3766   0.732   2.138   2.620
  956SOL    HW1 3767   0.732   2.172   2.715
  956SOL    HW2 3768   0.672   2.196   2.564
  957SOL     OW 3769   1.133   4.803   4.777
  957SOL    HW1 3770   1.141   4.811   4.877
  957SOL    HW2 3771   1.037   4.806   4.751
  958SOL     OW 3772   4.535   2.475   2.123
  958SOL    HW1 3773   4.445   2.510   2.099
  958SOL    HW2 3774   4.598   2.491   2.047
  959SOL     OW 3775   2.811   4.895   3.224
  959SOL    HW1 3776   2.869   4.867   3.301
  959SOL    HW2 3777   2.716   4.901   3.255
  960SOL     OW 3778   6.888   5.665   3.574
  960SOL    HW1 3779   6.899   5.724   3.494
  960SOL    HW2 3780   6.876   5.570   3.543
  961SOL     OW 3781   5.161   0.224   3.317
  961SOL    HW1 3782   5.205   0.309   3.285
  961SOL    HW2 3783   5.067   0.245   3.345
  962SOL     OW 3784   1.513   1.175   4.110
  962SOL    HW1 3785   1.452   1.125   4.047
  962SOL    HW2 3786   1.538   1.263   4.070
  963SOL     OW 3787   6.207   1.716   6.149
  963SOL    HW1 3788   6.145   1.714   6.070
  963SOL    HW2 3789   6.274   1.790   6.137
  964SOL     OW 3790   6.304   4.219   0.695
  964SOL    HW1 3791   6.314   4.200   0.597
  964SOL    HW2 3792   6.346   4.307   0.717
  965SOL     OW 3793   5.267   1.776   1.177
  965SOL    HW1 3794   5.175   1.783   1.139
  965SOL    HW2 3795   5.281   1.849   1.244
  966SOL     OW 3796   5.783   2.312   2.316
  966SOL    HW1 3797   5.760   2.274   2.226
  966SOL    HW2 3798   5.823   2.403   2.305
  967SOL     OW 3799   2.460   4.992   1.512
  967SOL    HW1 3800   2.429   5.030   1.425
  967SOL    HW2 3801   2.502   5.064   1.567
  968SOL     OW 3802   4.006   2.175   2.717
  968SOL    HW1 3803   3.939   2.189   2.789
  968SOL    HW2 3804   3.960   2.144   2.633
  969SOL     OW 3805   3.644   6.063   6.601
  969SOL    HW1 3806   3.720   6.086   6.661
  969SOL    HW2 3807   3.560   6.105   6.636
  970SOL     OW 3808   4.785   1.174   4.914
  970SOL    HW1 3809   4.741   1.110   4.977
  970SOL    HW2 3810   4.793   1.131   4.824
  971SOL     OW 3811   0.263   1.950   2.979
  971SOL    HW1 3812   0.205   2.012   2.926
  971SOL    HW2 3813   0.359   1.970   2.958
  972SOL     OW 3814   5.622   4.207   1.541
  972SOL    HW1 3815   5.664   4.127   1.582
  972SOL    HW2 3816   5.523   4.197   1.541
  973SOL     OW 3817   6.958   4.361   0.190
  973SOL    HW1 3818   6.879   4.301   0.206
  973SOL    HW2 3819   6.998   4.340   0.101
  974SOL     OW 3820   5.228   0.212   2.080
  974SOL    HW1 3821   5.163   0.224   2.156
  974SOL    HW2 3822   5.270   0.121   2.087
  975SOL     OW 3823   2.015   5.770   6.168
  975SOL    HW1 3824   1.982   5.864   6.178
  975SOL    HW2 3825   1.972   5.729   6.088
  976SOL     OW 3826   6.655   3.201   2.434
  976SOL    HW1 3827   6.572   3.153   2.462
  976SOL    HW2 3828   6.735   3.145   2.454
  977SOL     OW 3829   1.844   0.751   3.717
  977SOL    HW1 3830   1.854   0.737   3.618
  977SOL    HW2 3831   1.919   0.704   3.764
  978SOL     OW 3832   4.381   4.362   5.765
  978SOL    HW1 3833   4.443   4.297   5.720
  978SOL    HW2 3834   4.289   4.351   5.727
  979SOL     OW 3835   6.745   1.823   1.048
  979SOL    HW1 3836   6.711   1.907   1.089
  979SOL    HW2 3837   6.841   1.810   1.073
  980SOL     OW 3838   3.785   2.125   4.028
  980SOL    HW1 3839   3.780   2.026   4.023
  980SOL    HW2 3840   3.865   2.157   3.978
  981SOL     OW 3841   1.628   1.578   5.360
  981SOL    HW1 3842   1.663   1.624   5.278
  981SOL    HW2 3843   1.699   1.578   5.431
  982SOL     OW 3844   2.815   1.827   3.314
  982SOL    HW1 3845   2.902   1.872   3.295
  982SOL    HW2 3846   2.758   1.887   3.371
  983SOL     OW 3847   5.401   2.087   3.726
  983SOL    HW1 3848   5.341   2.127   3.796
  983SOL    HW2 3849   5.347   2.065   3.645
  984SOL     OW 3850   3.008   1.342   3.823
  984SOL    HW1 3851   3.004   1.400   3.741
  984SOL    HW2 3852   3.100   1.303   3.831
  985SOL     OW 3853   4.852   5.081   6.429
  985SOL    HW1 3854   4.825   4.991   6.464
  985SOL    HW2 3855   4.930   5.071   6.368
  986SOL     OW 3856   5.328   3.901   0.439
  986SOL    HW1 3857   5.307   3.807   0.468
  986SOL    HW2 3858   5.248   3.959   0.456
  987SOL     OW 3859   4.481   6.916   1.977
  987SOL    HW1 3860   4.572   6.926   1.938
  987SOL    HW2 3861   4.419   6.983   1.937
  988SOL     OW 3862   3.736   2.916   2.728
  988SOL    HW1 3863   3.673   2.941   2.802
  988SOL    HW2 3864   3.684   2.887   2.648
  989SOL     OW 3865   6.049   1.306   5.864
  989SOL    HW1 3866   6.139   1.342   5.886
  989SOL    HW2 3867   6.019   1.343   5.776
  990SOL     OW 3868   4.329   0.987   2.250
  990SOL    HW1 3869   4.283   0.910   2.292
  990SOL    HW2 3870   4.314   0.986   2.151
  991SOL     OW 3871   1.568   2.293   5.235
  991SOL    HW1 3872   1.500   2.365   5.238
  991SOL    HW2 3873   1.652   2.324   5.281
  992SOL     OW 3874   0.276   3.103   1.789
  992SOL    HW1 3875   0.201   3.132   1.848
  992SOL    HW2 3876   0.302   3.009   1.811
  993SOL     OW 3877   1.155   4.777   1.742
  993SOL    HW1 3878   1.107   4.734   1.819
  993SOL    HW2 3879   1.160   4.712   1.665
  994SOL     OW 3880   3.138   3.937   2.643
  994SOL    HW1 3881   3.146   4.012   2.578
  994SOL    HW2 3882   3.073   3.869   2.607
  995SOL     OW 3883   3.625   2.587   6.226
  995SOL    HW1 3884   3.677   2.574   6.141
  995SOL    HW2 3885   3.651   2.517   6.292
  996SOL     OW 3886   1.752   4.557   4.359
  996SOL    HW1 3887   1.768   4.516   4.269
  996SOL    HW2 3888   1.813   4.514   4.425
  997SOL     OW 3889   0.402   0.755   2.643
  997SOL    HW1 3890   0.349   0.671   2.639
  997SOL    HW2 3891   0.362   0.822   2.580
  998SOL     OW 3892   3.920   6.177   4.605
  998SOL    HW1 3893   3.943   6.263   4.650
  998SOL    HW2 3894   3.822   6.176   4.583
  999SOL     OW 3895   5.344   5.035   2.118
  999SOL    HW1 3896   5.330   5.132   2.098
  999SOL    HW2 3897   5.294   4.980   2.052
 1000SOL     OW 3898   0.928   0.810   1.668
 1000SOL    HW1 3899   0.958   0.793   1.574
 1000SOL    HW2 3900   0.837   0.772   1.681
 1001SOL     OW 3901   5.689   0.049   0.787
 1001SOL    HW1 3902   5.677   0.120   0.856
 1001SOL    HW2 3903   5.787   0.040   0.766
 1002SOL     OW 3904   6.335   2.123   6.993
 1002SOL    HW1 3905   6.325   2.174   0.058
 1002SOL    HW2 3906   6.369   2.031   7.013
 1003SOL     OW 3907   2.022   6.167   1.899
 1003SOL    HW1 3908   2.050   6.174   1.995
 1003SOL    HW2 3909   2.037   6.255   1.853
 1004SOL     OW 3910   0.499   0.070   1.512
 1004SOL    HW1 3911   0.466   0.145   1.570
 1004SOL    HW2 3912   0.421   0.026   1.468
 1005SOL     OW 3913   0.563   2.034   3.032
 1005SOL    HW1 3914   0.544   1.937   3.045
 1005SOL    HW2 3915   0.612   2.070   3.112
 1006SOL     OW 3916   1.474   5.096   0.771
 1006SOL    HW1 3917   1.477   5.129   0.866
 1006SOL    HW2 3918   1.379   5.090   0.742
 1007SOL     OW 3919   5.583   6.800   4.432
 1007SOL    HW1 3920   5.515   6.868   4.404
 1007SOL    HW2 3921   5.664   6.846   4.468
 1008SOL     OW 3922   2.146   3.120   5.081
 1008SOL    HW1 3923   2.158   3.213   5.117
 1008SOL    HW2 3924   2.234   3.071   5.086
 1009SOL     OW 3925   0.052   6.025   4.599
 1009SOL    HW1 3926   0.087   5.932   4.606
 1009SOL    HW2 3927   0.037   6.048   4.503
 1010SOL     OW 3928   4.006   2.172   6.038
 1010SOL    HW1 3929   4.090   2.128   6.069
 1010SOL    HW2 3930   3.949   2.196   6.116
 1011SOL     OW 3931   2.491   5.242   2.324
 1011SOL    HW1 3932   2.561   5.257   2.394
 1011SOL    HW2 3933   2.508   5.156   2.277
 1012SOL     OW 3934   6.485   0.323   0.443
 1012SOL    HW1 3935   6.491   0.295   0.347
 1012SOL    HW2 3936   6.534   0.410   0.454
 1013SOL     OW 3937   1.096   1.504   5.754
 1013SOL    HW1 3938   1.039   1.586   5.747
 1013SOL    HW2 3939   1.192   1.530   5.750
 1014SOL     OW 3940   4.969   5.935   6.626
 1014SOL    HW1 3941   4.924   5.860   6.674
 1014SOL    HW2 3942   4.959   6.020   6.677
 1015SOL     OW 3943   2.344   6.469   5.094
 1015SOL    HW1 3944   2.271   6.451   5.160
 1015SOL    HW2 3945   2.362   6.386   5.040
 1016SOL     OW 3946   3.599   3.604   0.187
 1016SOL    HW1 3947   3.520   3.586   0.245
 1016SOL    HW2 3948   3.665   3.530   0.195
 1017SOL     OW 3949   4.447   2.547   0.867
 1017SOL    HW1 3950   4.459   2.591   0.778
 1017SOL    HW2 3951   4.376   2.595   0.919
 1018SOL     OW 3952   1.323   3.173   4.316
 1018SOL    HW1 3953   1.271   3.107   4.261
 1018SOL    HW2 3954   1.394   3.125   4.368
 1019SOL     OW 3955   0.719   0.326   6.933
 1019SOL    HW1 3956   0.644   0.311   6.868
 1019SOL    HW2 3957   0.786   0.252   6.923
 1020SOL     OW 3958   1.079   6.729   1.279
 1020SOL    HW1 3959   1.149   6.797   1.258
 1020SOL    HW2 3960   1.123   6.643   1.307
 1021SOL     OW 3961   5.695   0.997   1.334
 1021SOL    HW1 3962   5.619   0.951   1.288
 1021SOL    HW2 3963   5.699   0.967   1.429
 1022SOL     OW 3964   3.838   4.294   6.093
 1022SOL    HW1 3965   3.767   4.280   6.025
 1022SOL    HW2 3966   3.921   4.327   6.048
 1023SOL     OW 3967   0.878   0.031   1.904
 1023SOL    HW1 3968   0.853   6.956   1.890
 1023SOL    HW2 3969   0.908   0.045   1.998
 1024SOL     OW 3970   6.431   3.445   4.463
 1024SOL    HW1 3971   6.383   3.487   4.387
 1024SOL    HW2 3972   6.529   3.463   4.455
 1025SOL     OW 3973   2.946   3.280   0.399
 1025SOL    HW1 3974   2.889   3.215   0.350
 1025SOL    HW2 3975   3.034   3.238   0.420
 1026SOL     OW 3976   2.317   2.732   1.536
 1026SOL    HW1 3977   2.281   2.794   1.606
 1026SOL    HW2 3978   2.403   2.693   1.568
 1027SOL     OW 3979   2.847   6.219   0.745
 1027SOL    HW1 3980   2.779   6.292   0.754
 1027SOL    HW2 3981   2.803   6.131   0.760
 1028SOL     OW 3982   3.689   6.241   0.274
 1028SOL    HW1 3983   3.701   6.209   0.180
 1028SOL    HW2 3984   3.632   6.324   0.274
 1029SOL     OW 3985   1.761   0.485   0.218
 1029SOL    HW1 3986   1.797   0.417   0.282
 1029SOL    HW2 3987   1.668   0.510   0.244
 1030SOL     OW 3988   3.325   3.412   1.565
 1030SOL    HW1 3989   3.379   3.467   1.502
 1030SOL    HW2 3990   3.376   3.400   1.650
 1031SOL     OW 3991   4.846   5.256   0.973
 1031SOL    HW1 3992   4.906   5.190   0.927
 1031SOL    HW2 3993   4.752   5.225   0.968
 1032SOL     OW 3994   2.238   1.886   4.991
 1032SOL    HW1 3995   2.169   1.944   4.948
 1032SOL    HW2 3996   2.203   1.852   5.078
 1033SOL     OW 3997   1.599   6.207   1.246
 1033SOL    HW1 3998   1.565   6.193   1.153
 1033SOL    HW2 3999   1.658   6.287   1.247
 1034SOL     OW 4000   0.517   5.554   4.852
 1034SOL    HW1 4001   0.554   5.561   4.945
 1034SOL    HW2 4002   0.437   5.614   4.844
 1035SOL     OW 4003   1.235   1.333   3.301
 1035SOL    HW1 4004   1.218   1.332   3.400
 1035SOL    HW2 4005   1.283   1.418   3.277
 1036SOL     OW 4006   2.677   0.915   2.153
 1036SOL    HW1 4007   2.577   0.911   2.162
 1036SOL    HW2 4008   2.703   0.997   2.102
 1037SOL     OW 4009   1.971   0.837   1.116
 1037SOL    HW1 4010   1.899   0.899   1.085
 1037SOL    HW2 4011   2.014   0.875   1.198
 1038SOL     OW 4012   1.457   0.028   5.379
 1038SOL    HW1 4013   1.381   0.066   5.327
 1038SOL    HW2 4014   1.450   0.059   5.474
 1039SOL     OW 4015   2.970   2.736   5.963
 1039SOL    HW1 4016   3.006   2.644   5.950
 1039SOL    HW2 4017   3.042   2.796   5.998
 1040SOL     OW 4018   4.906   3.117   2.106
 1040SOL    HW1 4019   4.973   3.043   2.096
 1040SOL    HW2 4020   4.829   3.101   2.044
 1041SOL     OW 4021   6.638   0.033   4.361
 1041SOL    HW1 4022   6.735   0.015   4.345
 1041SOL    HW2 4023   6.627   0.079   4.449
 1042SOL     OW 4024   3.831   4.883   2.302
 1042SOL    HW1 4025   3.802   4.887   2.397
 1042SOL    HW2 4026   3.758   4.917   2.243
 1043SOL     OW 4027   3.843   1.388   4.906
 1043SOL    HW1 4028   3.833   1.410   4.809
 1043SOL    HW2 4029   3.778   1.441   4.959
 1044SOL     OW 4030   5.199   4.784   2.330
 1044SOL    HW1 4031   5.250   4.870   2.326
 1044SOL    HW2 4032   5.218   4.730   2.247
 1045SOL     OW 4033   3.398   5.806   2.571
 1045SOL    HW1 4034   3.329   5.879   2.579
 1045SOL    HW2 4035   3.357   5.719   2.597
 1046SOL     OW 4036   1.265   6.695   0.621
 1046SOL    HW1 4037   1.264   6.744   0.708
 1046SOL    HW2 4038   1.310   6.752   0.552
 1047SOL     OW 4039   1.310   6.578   2.191
 1047SOL    HW1 4040   1.324   6.634   2.272
 1047SOL    HW2 4041   1.243   6.506   2.211
 1048SOL     OW 4042   4.679   6.095   5.300
 1048SOL    HW1 4043   4.657   6.191   5.314
 1048SOL    HW2 4044   4.612   6.038   5.346
 1049SOL     OW 4045   6.530   5.128   3.938
 1049SOL    HW1 4046   6.544   5.188   3.859
 1049SOL    HW2 4047   6.444   5.151   3.982
 1050SOL     OW 4048   3.918   5.467   0.959
 1050SOL    HW1 4049   3.954   5.379   0.929
 1050SOL    HW2 4050   3.937   5.479   1.057
 1051SOL     OW 4051   2.660   5.238   1.384
 1051SOL    HW1 4052   2.576   5.272   1.425
 1051SOL    HW2 4053   2.641   5.205   1.291
 1052SOL     OW 4054   3.541   0.263   4.219
 1052SOL    HW1 4055   3.594   0.339   4.258
 1052SOL    HW2 4056   3.530   0.192   4.288
 1053SOL     OW 4057   4.981   5.572   3.702
 1053SOL    HW1 4058   4.991   5.492   3.643
 1053SOL    HW2 4059   5.005   5.548   3.796
 1054SOL     OW 4060   2.249   3.869   5.327
 1054SOL    HW1 4061   2.282   3.776   5.313
 1054SOL    HW2 4062   2.292   3.929   5.259
 1055SOL     OW 4063   5.328   6.459   4.210
 1055SOL    HW1 4064   5.290   6.369   4.227
 1055SOL    HW2 4065   5.419   6.465   4.253
 1056SOL     OW 4066   1.738   4.895   5.984
 1056SOL    HW1 4067   1.664   4.919   6.047
 1056SOL    HW2 4068   1.703   4.833   5.914
 1057SOL     OW 4069   3.572   3.192   2.689
 1057SOL    HW1 4070   3.594   3.155   2.598
 1057SOL    HW2 4071   3.476   3.219   2.692
 1058SOL     OW 4072   5.098   1.673   1.853
 1058SOL    HW1 4073   5.172   1.740   1.846
 1058SOL    HW2 4074   5.067   1.648   1.761
 1059SOL     OW 4075   2.522   0.177   1.881
 1059SOL    HW1 4076   2.536   0.082   1.852
 1059SOL    HW2 4077   2.444   0.182   1.942
 1060SOL     OW 4078   0.066   3.936   4.311
 1060SOL    HW1 4079   0.010   3.880   4.250
 1060SOL    HW2 4080   0.115   3.876   4.375
 1061SOL     OW 4081   5.279   3.554   1.804
 1061SOL    HW1 4082   5.271   3.455   1.801
 1061SOL    HW2 4083   5.188   3.595   1.811
 1062SOL     OW 4084   5.874   4.736   5.421
 1062SOL    HW1 4085   5.819   4.653   5.410
 1062SOL    HW2 4086   5.922   4.755   5.336
 1063SOL     OW 4087   1.553   4.628   1.517
 1063SOL    HW1 4088   1.530   4.722   1.543
 1063SOL    HW2 4089   1.483   4.566   1.551
 1064SOL     OW 4090   1.432   4.029   2.135
 1064SOL    HW1 4091   1.337   4.035   2.107
 1064SOL    HW2 4092   1.492   4.055   2.059
 1065SOL     OW 4093   5.024   0.341   3.989
 1065SOL    HW1 4094   5.029   0.407   3.914
 1065SOL    HW2 4095   5.052   0.251   3.957
 1066SOL     OW 4096   5.341   0.389   3.983
 1066SOL    HW1 4097   5.333   0.481   4.023
 1066SOL    HW2 4098   5.275   0.328   4.027
 1067SOL     OW 4099   1.139   3.372   0.128
 1067SOL    HW1 4100   1.086   3.342   0.207
 1067SOL    HW2 4101   1.161   3.468   0.137
 1068SOL     OW 4102   4.895   5.038   3.142
 1068SOL    HW1 4103   4.891   5.097   3.061
 1068SOL    HW2 4104   4.817   4.976   3.142
 1069SOL     OW 4105   5.119   4.834   0.978
 1069SOL    HW1 4106   5.038   4.786   0.944
 1069SOL    HW2 4107   5.156   4.786   1.057
 1070SOL     OW 4108   0.953   1.096   1.670
 1070SOL    HW1 4109   0.949   0.997   1.680
 1070SOL    HW2 4110   0.861   1.133   1.665
 1071SOL     OW 4111   2.457   6.691   3.927
 1071SOL    HW1 4112   2.514   6.670   3.848
 1071SOL    HW2 4113   2.375   6.740   3.897
 1072SOL     OW 4114   1.733   6.454   1.220
 1072SOL    HW1 4115   1.683   6.540   1.215
 1072SOL    HW2 4116   1.830   6.470   1.205
 1073SOL     OW 4117   3.717   6.307   2.548
 1073SOL    HW1 4118   3.780   6.267   2.614
 1073SOL    HW2 4119   3.762   6.381   2.498
 1074SOL     OW 4120   3.122   5.154   0.299
 1074SOL    HW1 4121   3.040   5.137   0.353
 1074SOL    HW2 4122   3.148   5.070   0.251
 1075SOL     OW 4123   4.353   6.659   3.813
 1075SOL    HW1 4124   4.279   6.592   3.805
 1075SOL    HW2 4125   4.315   6.750   3.828
 1076SOL     OW 4126   6.935   4.307   5.379
 1076SOL    HW1 4127   6.966   4.213   5.371
 1076SOL    HW2 4128   6.915   4.327   5.475
 1077SOL     OW 4129   5.776   0.508   0.744
 1077SOL    HW1 4130   5.751   0.459   0.828
 1077SOL    HW2 4131   5.744   0.456   0.665
 1078SOL     OW 4132   0.902   1.374   2.473
 1078SOL    HW1 4133   0.976   1.440   2.461
 1078SOL    HW2 4134   0.910   1.303   2.403
 1079SOL     OW 4135   1.849   5.757   2.639
 1079SOL    HW1 4136   1.790   5.825   2.597
 1079SOL    HW2 4137   1.863   5.779   2.736
 1080SOL     OW 4138   2.063   4.716   3.530
 1080SOL    HW1 4139   2.036   4.786   3.463
 1080SOL    HW2 4140   2.060   4.755   3.622
 1081SOL     OW 4141   6.995   6.611   5.876
 1081SOL    HW1 4142   6.970   6.669   5.799
 1081SOL    HW2 4143   6.929   6.536   5.885
 1082SOL     OW 4144   3.671   1.640   6.505
 1082SOL    HW1 4145   3.626   1.562   6.464
 1082SOL    HW2 4146   3.738   1.609   6.573
 1083SOL     OW 4147   3.991   4.268   1.422
 1083SOL    HW1 4148   4.014   4.171   1.431
 1083SOL    HW2 4149   3.926   4.281   1.347
 1084SOL     OW 4150   6.710   6.028   1.041
 1084SOL    HW1 4151   6.658   6.016   1.126
 1084SOL    HW2 4152   6.696   5.949   0.982
 1085SOL     OW 4153   1.204   4.273   3.953
 1085SOL    HW1 4154   1.171   4.179   3.956
 1085SOL    HW2 4155   1.133   4.334   3.988
 1086SOL     OW 4156   6.949   6.007   2.244
 1086SOL    HW1 4157   0.015   5.967   2.214
 1086SOL    HW2 4158   6.967   6.084   2.306
 1087SOL     OW 4159   6.245   3.643   5.525
 1087SOL    HW1 4160   6.197   3.608   5.605
 1087SOL    HW2 4161   6.212   3.597   5.442
 1088SOL     OW 4162   5.899   4.742   3.760
 1088SOL    HW1 4163   5.947   4.720   3.845
 1088SOL    HW2 4164   5.806   4.707   3.765
 1089SOL     OW 4165   1.257   7.007   4.338
 1089SOL    HW1 4166   1.349   0.018   4.361
 1089SOL    HW2 4167   1.210   0.057   4.284
 1090SOL     OW 4168   2.285   1.631   3.683
 1090SOL    HW1 4169   2.220   1.683   3.628
 1090SOL    HW2 4170   2.258   1.534   3.683
 1091SOL     OW 4171   2.464   2.629   5.397
 1091SOL    HW1 4172   2.437   2.712   5.445
 1091SOL    HW2 4173   2.400   2.611   5.322
 1092SOL     OW 4174   2.139   3.830   0.351
 1092SOL    HW1 4175   2.089   3.869   0.428
 1092SOL    HW2 4176   2.182   3.903   0.299
 1093SOL     OW 4177   1.877   1.997   2.116
 1093SOL    HW1 4178   1.778   1.998   2.101
 1093SOL    HW2 4179   1.921   2.053   2.046
 1094SOL     OW 4180   1.177   6.189   3.501
 1094SOL    HW1 4181   1.234   6.107   3.509
 1094SOL    HW2 4182   1.100   6.183   3.564
 1095SOL     OW 4183   0.273   2.453   5.780
 1095SOL    HW1 4184   0.230   2.491   5.861
 1095SOL    HW2 4185   0.278   2.524   5.709
 1096SOL     OW 4186   3.256   4.660   1.729
 1096SOL    HW1 4187   3.353   4.651   1.752
 1096SOL    HW2 4188   3.218   4.570   1.709
 1097SOL     OW 4189   1.869   3.830   4.034
 1097SOL    HW1 4190   1.860   3.897   4.108
 1097SOL    HW2 4191   1.834   3.869   3.949
 1098SOL     OW 4192   5.239   3.268   1.043
 1098SOL    HW1 4193   5.244   3.286   0.945
 1098SOL    HW2 4194   5.252   3.170   1.060
 1099SOL     OW 4195   3.790   1.692   5.409
 1099SOL    HW1 4196   3.788   1.715   5.506
 1099SOL    HW2 4197   3.884   1.690   5.377
 1100SOL     OW 4198   2.869   1.579   6.632
 1100SOL    HW1 4199   2.948   1.559   6.689
 1100SOL    HW2 4200   2.868   1.516   6.554
 1101SOL     OW 4201   6.306   2.247   0.196
 1101SOL    HW1 4202   6.223   2.239   0.251
 1101SOL    HW2 4203   6.382   2.205   0.245
 1102SOL     OW 4204   0.418   6.086   4.092
 1102SOL    HW1 4205   0.348   6.014   4.094
 1102SOL    HW2 4206   0.439   6.115   4.186
 1103SOL     OW 4207   3.169   1.509   0.607
 1103SOL    HW1 4208   3.175   1.497   0.508
 1103SOL    HW2 4209   3.170   1.606   0.629
 1104SOL     OW 4210   2.149   3.567   5.254
 1104SOL    HW1 4211   2.174   3.524   5.167
 1104SOL    HW2 4212   2.231   3.603   5.298
 1105SOL     OW 4213   5.966   3.527   4.714
 1105SOL    HW1 4214   5.961   3.532   4.614
 1105SOL    HW2 4215   6.012   3.442   4.741
 1106SOL     OW 4216   0.413   2.158   0.429
 1106SOL    HW1 4217   0.451   2.225   0.366
 1106SOL    HW2 4218   0.428   2.188   0.523
 1107SOL     OW 4219   1.765   0.468   6.428
 1107SOL    HW1 4220   1.705   0.548   6.421
 1107SOL    HW2 4221   1.779   0.446   6.525
 1108SOL     OW 4222   3.093   0.593   5.880
 1108SOL    HW1 4223   3.182   0.639   5.871
 1108SOL    HW2 4224   3.049   0.589   5.790
 1109SOL     OW 4225   4.001   6.513   5.014
 1109SOL    HW1 4226   3.924   6.561   5.055
 1109SOL    HW2 4227   3.969   6.429   4.971
 1110SOL     OW 4228   2.884   1.511   2.762
 1110SOL    HW1 4229   2.791   1.522   2.795
 1110SOL    HW2 4230   2.948   1.549   2.829
 1111SOL     OW 4231   4.833   5.081   0.180
 1111SOL    HW1 4232   4.849   5.164   0.234
 1111SOL    HW2 4233   4.887   5.085   0.096
 1112SOL     OW 4234   6.533   0.798   2.269
 1112SOL    HW1 4235   6.484   0.822   2.186
 1112SOL    HW2 4236   6.520   0.869   2.338
 1113SOL     OW 4237   0.444   3.718   3.112
 1113SOL    HW1 4238   0.385   3.794   3.085
 1113SOL    HW2 4239   0.461   3.721   3.211
 1114SOL     OW 4240   4.585   1.575   6.482
 1114SOL    HW1 4241   4.515   1.505   6.468
 1114SOL    HW2 4242   4.660   1.537   6.536
 1115SOL     OW 4243   4.201   2.928   6.953
 1115SOL    HW1 4244   4.168   2.964   6.865
 1115SOL    HW2 4245   4.224   2.831   6.943
 1116SOL     OW 4246   5.358   5.999   5.211
 1116SOL    HW1 4247   5.328   6.081   5.162
 1116SOL    HW2 4248   5.450   5.974   5.182
 1117SOL     OW 4249   1.800   2.748   1.342
 1117SOL    HW1 4250   1.838   2.674   1.397
 1117SOL    HW2 4251   1.874   2.809   1.313
 1118SOL     OW 4252   2.286   4.338   1.662
 1118SOL    HW1 4253   2.245   4.322   1.751
 1118SOL    HW2 4254   2.359   4.407   1.671
 1119SOL     OW 4255   4.704   4.783   1.263
 1119SOL    HW1 4256   4.634   4.720   1.231
 1119SOL    HW2 4257   4.773   4.733   1.316
 1120SOL     OW 4258   5.483   0.071   5.333
 1120SOL    HW1 4259   5.509   0.104   5.423
 1120SOL    HW2 4260   5.561   0.026   5.290
 1121SOL     OW 4261   5.520   4.869   2.780
 1121SOL    HW1 4262   5.555   4.831   2.695
 1121SOL    HW2 4263   5.572   4.833   2.857
 1122SOL     OW 4264   4.556   3.034   6.516
 1122SOL    HW1 4265   4.575   3.113   6.458
 1122SOL    HW2 4266   4.495   3.061   6.590
 1123SOL     OW 4267   5.506   1.810   2.858
 1123SOL    HW1 4268   5.601   1.843   2.857
 1123SOL    HW2 4269   5.501   1.725   2.911
 1124SOL     OW 4270   6.046   4.203   5.140
 1124SOL    HW1 4271   5.966   4.153   5.172
 1124SOL    HW2 4272   6.072   4.169   5.049
 1125SOL     OW 4273   3.299   1.674   5.149
 1125SOL    HW1 4274   3.386   1.651   5.191
 1125SOL    HW2 4275   3.306   1.664   5.049
 1126SOL     OW 4276   5.309   6.789   0.782
 1126SOL    HW1 4277   5.285   6.720   0.850
 1126SOL    HW2 4278   5.404   6.778   0.755
 1127SOL     OW 4279   4.956   5.506   5.572
 1127SOL    HW1 4280   5.017   5.550   5.505
 1127SOL    HW2 4281   4.868   5.552   5.572
 1128SOL     OW 4282   5.396   2.243   5.163
 1128SOL    HW1 4283   5.400   2.330   5.212
 1128SOL    HW2 4284   5.351   2.257   5.074
 1129SOL     OW 4285   3.650   0.302   6.628
 1129SOL    HW1 4286   3.653   0.361   6.709
 1129SOL    HW2 4287   3.743   0.287   6.595
 1130SOL     OW 4288   2.003   4.623   1.075
 1130SOL    HW1 4289   2.047   4.623   0.985
 1130SOL    HW2 4290   2.001   4.717   1.110
 1131SOL     OW 4291   0.545   6.367   5.885
 1131SOL    HW1 4292   0.461   6.405   5.924
 1131SOL    HW2 4293   0.617   6.370   5.954
 1132SOL     OW 4294   5.145   0.286   0.845
 1132SOL    HW1 4295   5.173   0.191   0.847
 1132SOL    HW2 4296   5.094   0.309   0.927
 1133SOL     OW 4297   0.798   1.397   0.968
 1133SOL    HW1 4298   0.850   1.342   1.033
 1133SOL    HW2 4299   0.754   1.337   0.900
 1134SOL     OW 4300   4.662   1.322   1.633
 1134SOL    HW1 4301   4.659   1.414   1.671
 1134SOL    HW2 4302   4.586   1.310   1.569
 1135SOL     OW 4303   2.173   1.283   2.555
 1135SOL    HW1 4304   2.137   1.353   2.493
 1135SOL    HW2 4305   2.257   1.244   2.518
 1136SOL     OW 4306   3.536   5.368   4.877
 1136SOL    HW1 4307   3.544   5.465   4.855
 1136SOL    HW2 4308   3.537   5.315   4.793
 1137SOL     OW 4309   1.560   1.599   6.523
 1137SOL    HW1 4310   1.536   1.564   6.614
 1137SOL    HW2 4311   1.508   1.682   6.504
 1138SOL     OW 4312   0.458   1.330   6.417
 1138SOL    HW1 4313   0.485   1.421   6.386
 1138SOL    HW2 4314   0.374   1.337   6.472
 1139SOL     OW 4315   3.173   5.700   1.120
 1139SOL    HW1 4316   3.185   5.792   1.157
 1139SOL    HW2 4317   3.218   5.633   1.179
 1140SOL     OW 4318   3.280   1.074   2.115
 1140SOL    HW1 4319   3.376   1.092   2.137
 1140SOL    HW2 4320   3.256   1.121   2.030
 1141SOL     OW 4321   6.839   6.396   6.748
 1141SOL    HW1 4322   6.878   6.346   6.825
 1141SOL    HW2 4323   6.880   6.488   6.744
 1142SOL     OW 4324   3.636   0.604   4.101
 1142SOL    HW1 4325   3.691   0.522   4.119
 1142SOL    HW2 4326   3.565   0.612   4.171
 1143SOL     OW 4327   2.079   3.126   2.087
 1143SOL    HW1 4328   2.091   3.212   2.137
 1143SOL    HW2 4329   2.134   3.127   2.004
 1144SOL     OW 4330   6.483   4.443   5.470
 1144SOL    HW1 4331   6.583   4.449   5.464
 1144SOL    HW2 4332   6.455   4.438   5.565
 1145SOL     OW 4333   0.207   4.415   2.356
 1145SOL    HW1 4334   0.153   4.496   2.333
 1145SOL    HW2 4335   0.253   4.429   2.444
 1146SOL     OW 4336   6.344   0.441   1.584
 1146SOL    HW1 4337   6.326   0.477   1.493
 1146SOL    HW2 4338   6.310   0.347   1.590
 1147SOL     OW 4339   1.400   4.698   0.863
 1147SOL    HW1 4340   1.351   4.739   0.786
 1147SOL    HW2 4341   1.498   4.718   0.855
 1148SOL     OW 4342   4.617   6.971   6.619
 1148SOL    HW1 4343   4.657   6.971   6.711
 1148SOL    HW2 4344   4.653   6.893   6.568
 1149SOL     OW 4345   6.547   4.181   3.009
 1149SOL    HW1 4346   6.640   4.206   2.981
 1149SOL    HW2 4347   6.546   4.085   3.037
 1150SOL     OW 4348   2.798   4.410   0.928
 1150SOL    HW1 4349   2.814   4.422   1.026
 1150SOL    HW2 4350   2.875   4.362   0.887
 1151SOL     OW 4351   4.892   5.291   6.864
 1151SOL    HW1 4352   4.941   5.204   6.873
 1151SOL    HW2 4353   4.794   5.273   6.867
 1152SOL     OW 4354   0.525   5.815   5.675
 1152SOL    HW1 4355   0.530   5.716   5.682
 1152SOL    HW2 4356   0.429   5.843   5.678
 1153SOL     OW 4357   2.327   6.944   2.435
 1153SOL    HW1 4358   2.320   6.913   2.340
 1153SOL    HW2 4359   2.305   6.868   2.497
 1154SOL     OW 4360   0.593   4.162   1.859
 1154SOL    HW1 4361   0.607   4.170   1.958
 1154SOL    HW2 4362   0.510   4.111   1.841
 1155SOL     OW 4363   2.870   5.063   0.094
 1155SOL    HW1 4364   2.953   5.031   0.139
 1155SOL    HW2 4365   2.884   5.156   0.060
 1156SOL     OW 4366   1.891   0.797   5.004
 1156SOL    HW1 4367   1.943   0.712   5.001
 1156SOL    HW2 4368   1.954   0.874   5.015
 1157SOL     OW 4369   6.678   0.930   5.235
 1157SOL    HW1 4370   6.718   1.005   5.183
 1157SOL    HW2 4371   6.615   0.966   5.303
 1158SOL     OW 4372   0.251   5.824   5.645
 1158SOL    HW1 4373   0.210   5.734   5.663
 1158SOL    HW2 4374   0.201   5.894   5.696
 1159SOL     OW 4375   4.899   0.120   3.423
 1159SOL    HW1 4376   4.829   0.130   3.494
 1159SOL    HW2 4377   4.964   0.048   3.449
 1160SOL     OW 4378   3.739   3.124   1.566
 1160SOL    HW1 4379   3.665   3.067   1.602
 1160SOL    HW2 4380   3.748   3.108   1.468
 1161SOL     OW 4381   5.008   0.512   6.172
 1161SOL    HW1 4382   4.993   0.527   6.074
 1161SOL    HW2 4383   5.105   0.524   6.193
 1162SOL     OW 4384   3.141   2.194   6.964
 1162SOL    HW1 4385   3.089   2.121   6.920
 1162SOL    HW2 4386   3.198   2.155   0.015
 1163SOL     OW 4387   6.591   3.376   1.864
 1163SOL    HW1 4388   6.625   3.470   1.872
 1163SOL    HW2 4389   6.581   3.336   1.955
 1164SOL     OW 4390   5.356   2.198   4.234
 1164SOL    HW1 4391   5.304   2.237   4.309
 1164SOL    HW2 4392   5.454   2.214   4.249
 1165SOL     OW 4393   1.939   4.387   4.487
 1165SOL    HW1 4394   2.033   4.392   4.453
 1165SOL    HW2 4395   1.926   4.302   4.538
 1166SOL     OW 4396   3.847   0.374   0.710
 1166SOL    HW1 4397   3.754   0.408   0.714
 1166SOL    HW2 4398   3.849   0.289   0.657
 1167SOL     OW 4399   3.886   6.606   6.510
 1167SOL    HW1 4400   3.950   6.530   6.499
 1167SOL    HW2 4401   3.897   6.671   6.435
 1168SOL     OW 4402   6.576   1.361   3.564
 1168SOL    HW1 4403   6.505   1.425   3.532
 1168SOL    HW2 4404   6.662   1.411   3.577
 1169SOL     OW 4405   5.817   3.217   6.283
 1169SOL    HW1 4406   5.743   3.167   6.237
 1169SOL    HW2 4407   5.793   3.314   6.286
 1170SOL     OW 4408   5.336   0.842   1.960
 1170SOL    HW1 4409   5.323   0.771   2.029
 1170SOL    HW2 4410   5.279   0.921   1.983
 1171SOL     OW 4411   2.858   6.637   6.925
 1171SOL    HW1 4412   2.886   6.609   6.833
 1171SOL    HW2 4413   2.821   6.557   6.974
 1172SOL     OW 4414   3.148   3.925   2.075
 1172SOL    HW1 4415   3.086   3.862   2.123
 1172SOL    HW2 4416   3.147   3.905   1.977
 1173SOL     OW 4417   3.397   0.069   5.592
 1173SOL    HW1 4418   3.325   0.019   5.640
 1173SOL    HW2 4419   3.360   0.155   5.558
 1174SOL     OW 4420   3.059   4.357   0.264
 1174SOL    HW1 4421   2.960   4.362   0.257
 1174SOL    HW2 4422   3.084   4.323   0.355
 1175SOL     OW 4423   4.332   3.132   6.698
 1175SOL    HW1 4424   4.303   3.179   6.781
 1175SOL    HW2 4425   4.317   3.033   6.709
 1176SOL     OW 4426   5.657   4.413   1.335
 1176SOL    HW1 4427   5.683   4.328   1.288
 1176SOL    HW2 4428   5.631   4.392   1.429
 1177SOL     OW 4429   6.821   1.957   6.291
 1177SOL    HW1 4430   6.850   1.874   6.338
 1177SOL    HW2 4431   6.755   2.007   6.349
 1178SOL     OW 4432   3.940   3.135   1.050
 1178SOL    HW1 4433   3.881   3.146   1.130
 1178SOL    HW2 4434   3.999   3.216   1.041
 1179SOL     OW 4435   3.130   5.430   0.285
 1179SOL    HW1 4436   3.166   5.473   0.201
 1179SOL    HW2 4437   3.128   5.331   0.273
 1180SOL     OW 4438   2.158   6.453   3.946
 1180SOL    HW1 4439   2.203   6.373   3.987
 1180SOL    HW2 4440   2.227   6.512   3.904
 1181SOL     OW 4441   6.588   2.842   5.013
 1181SOL    HW1 4442   6.590   2.747   4.984
 1181SOL    HW2 4443   6.639   2.899   4.949
 1182SOL     OW 4444   2.385   5.351   3.635
 1182SOL    HW1 4445   2.362   5.438   3.679
 1182SOL    HW2 4446   2.412   5.285   3.704
 1183SOL     OW 4447   3.844   6.362   1.571
 1183SOL    HW1 4448   3.754   6.360   1.529
 1183SOL    HW2 4449   3.882   6.454   1.566
 1184SOL     OW 4450   4.331   1.065   5.891
 1184SOL    HW1 4451   4.423   1.102   5.880
 1184SOL    HW2 4452   4.269   1.110   5.828
 1185SOL     OW 4453   1.784   6.766   1.065
 1185SOL    HW1 4454   1.864   6.705   1.064
 1185SOL    HW2 4455   1.717   6.734   0.998
 1186SOL     OW 4456   6.299   5.918   6.250
 1186SOL    HW1 4457   6.345   5.983   6.311
 1186SOL    HW2 4458   6.229   5.965   6.197
 1187SOL     OW 4459   5.328   6.742   5.750
 1187SOL    HW1 4460   5.383   6.679   5.804
 1187SOL    HW2 4461   5.239   6.755   5.794
 1188SOL     OW 4462   3.383   5.868   6.728
 1188SOL    HW1 4463   3.367   5.796   6.660
 1188SOL    HW2 4464   3.455   5.930   6.695
 1189SOL     OW 4465   5.947   0.975   2.142
 1189SOL    HW1 4466   5.992   1.057   2.176
 1189SOL    HW2 4467   5.998   0.940   2.063
 1190SOL     OW 4468   3.794   4.991   4.299
 1190SOL    HW1 4469   3.834   5.083   4.307
 1190SOL    HW2 4470   3.696   4.996   4.317
 1191SOL     OW 4471   3.755   6.411   4.639
 1191SOL    HW1 4472   3.805   6.494   4.617
 1191SOL    HW2 4473   3.676   6.403   4.578
 1192SOL     OW 4474   5.294   6.184   3.209
 1192SOL    HW1 4475   5.379   6.227   3.239
 1192SOL    HW2 4476   5.256   6.235   3.132
 1193SOL     OW 4477   0.119   0.122   5.523
 1193SOL    HW1 4478   0.087   0.199   5.467
 1193SOL    HW2 4479   0.217   0.109   5.510
 1194SOL     OW 4480   6.556   1.775   0.690
 1194SOL    HW1 4481   6.636   1.744   0.639
 1194SOL    HW2 4482   6.557   1.735   0.781
 1195SOL     OW 4483   5.976   3.354   1.129
 1195SOL    HW1 4484   5.979   3.436   1.073
 1195SOL    HW2 4485   6.062   3.344   1.179
 1196SOL     OW 4486   6.505   4.852   1.752
 1196SOL    HW1 4487   6.430   4.799   1.712
 1196SOL    HW2 4488   6.593   4.810   1.727
 1197SOL     OW 4489   3.995   6.588   4.716
 1197SOL    HW1 4490   4.006   6.555   4.809
 1197SOL    HW2 4491   4.038   6.524   4.652
 1198SOL     OW 4492   1.666   2.921   2.667
 1198SOL    HW1 4493   1.744   2.859   2.676
 1198SOL    HW2 4494   1.590   2.887   2.721
 1199SOL     OW 4495   3.765   3.596   3.304
 1199SOL    HW1 4496   3.817   3.678   3.328
 1199SOL    HW2 4497   3.810   3.548   3.229
 1200SOL     OW 4498   3.690   4.147   4.831
 1200SOL    HW1 4499   3.659   4.072   4.773
 1200SOL    HW2 4500   3.721   4.222   4.773
 1201SOL     OW 4501   6.766   1.185   4.659
 1201SOL    HW1 4502   6.669   1.159   4.658
 1201SOL    HW2 4503   6.821   1.107   4.630
 1202SOL     OW 4504   6.022   1.034   5.957
 1202SOL    HW1 4505   6.010   1.039   6.056
 1202SOL    HW2 4506   6.039   1.125   5.921
 1203SOL     OW 4507   6.781   6.822   1.047
 1203SOL    HW1 4508   6.714   6.830   1.121
 1203SOL    HW2 4509   6.741   6.767   0.973
 1204SOL     OW 4510   4.533   1.834   1.714
 1204SOL    HW1 4511   4.575   1.866   1.798
 1204SOL    HW2 4512   4.457   1.772   1.735
 1205SOL     OW 4513   4.572   3.354   6.738
 1205SOL    HW1 4514   4.580   3.451   6.759
 1205SOL    HW2 4515   4.475   3.330   6.725
 1206SOL     OW 4516   1.080   2.452   4.713
 1206SOL    HW1 4517   1.067   2.524   4.780
 1206SOL    HW2 4518   1.080   2.363   4.759
 1207SOL     OW 4519   0.669   6.915   6.882
 1207SOL    HW1 4520   0.718   6.834   6.914
 1207SOL    HW2 4521   0.600   6.940   6.950
 1208SOL     OW 4522   3.367   3.760   2.032
 1208SOL    HW1 4523   3.293   3.815   2.071
 1208SOL    HW2 4524   3.362   3.666   2.067
 1209SOL     OW 4525   5.767   0.382   4.173
 1209SOL    HW1 4526   5.718   0.295   4.163
 1209SOL    HW2 4527   5.703   0.454   4.199
 1210SOL     OW 4528   4.181   0.205   3.735
 1210SOL    HW1 4529   4.225   0.286   3.698
 1210SOL    HW2 4530   4.087   0.200   3.701
 1211SOL     OW 4531   1.319   3.461   3.683
 1211SOL    HW1 4532   1.388   3.480   3.613
 1211SOL    HW2 4533   1.297   3.545   3.732
 1212SOL     OW 4534   0.083   1.273   5.780
 1212SOL    HW1 4535   0.010   1.295   5.714
 1212SOL    HW2 4536   0.064   1.185   5.822
 1213SOL     OW 4537   5.776   2.794   3.188
 1213SOL    HW1 4538   5.823   2.747   3.262
 1213SOL    HW2 4539   5.683   2.759   3.179
 1214SOL     OW 4540   0.387   2.902   6.057
 1214SOL    HW1 4541   0.340   2.836   6.115
 1214SOL    HW2 4542   0.486   2.894   6.069
 1215SOL     OW 4543   2.123   5.385   2.004
 1215SOL    HW1 4544   2.133   5.334   1.918
 1215SOL    HW2 4545   2.072   5.329   2.070
 1216SOL     OW 4546   0.114   0.761   0.173
 1216SOL    HW1 4547   0.075   0.801   0.090
 1216SOL    HW2 4548   0.208   0.793   0.185
 1217SOL     OW 4549   3.491   5.304   1.199
 1217SOL    HW1 4550   3.414   5.249   1.168
 1217SOL    HW2 4551   3.561   5.308   1.127
 1218SOL     OW 4552   0.932   4.011   5.568
 1218SOL    HW1 4553   0.938   4.010   5.469
 1218SOL    HW2 4554   0.986   4.087   5.605
 1219SOL     OW 4555   4.976   5.352   1.854
 1219SOL    HW1 4556   4.951   5.396   1.940
 1219SOL    HW2 4557   4.971   5.419   1.779
 1220SOL     OW 4558   6.804   4.250   2.931
 1220SOL    HW1 4559   6.865   4.199   2.992
 1220SOL    HW2 4560   6.858   4.300   2.863
 1221SOL     OW 4561   5.644   3.847   6.217
 1221SOL    HW1 4562   5.646   3.812   6.124
 1221SOL    HW2 4563   5.727   3.901   6.235
 1222SOL     OW 4564   0.764   0.561   0.054
 1222SOL    HW1 4565   0.706   0.622   0.109
 1222SOL    HW2 4566   0.706   0.495   0.007
 1223SOL     OW 4567   3.835   1.407   0.525
 1223SOL    HW1 4568   3.928   1.400   0.559
 1223SOL    HW2 4569   3.836   1.435   0.429
 1224SOL     OW 4570   2.922   5.626   0.186
 1224SOL    HW1 4571   2.957   5.613   0.093
 1224SOL    HW2 4572   2.965   5.560   0.247
 1225SOL     OW 4573   3.708   2.045   0.637
 1225SOL    HW1 4574   3.736   1.951   0.654
 1225SOL    HW2 4575   3.616   2.060   0.674
 1226SOL     OW 4576   4.880   6.231   0.690
 1226SOL    HW1 4577   4.803   6.241   0.753
 1226SOL    HW2 4578   4.945   6.164   0.728
 1227SOL     OW 4579   5.302   5.163   6.987
 1227SOL    HW1 4580   5.349   5.249   7.006
 1227SOL    HW2 4581   5.337   5.125   6.901
 1228SOL     OW 4582   3.523   2.832   0.557
 1228SOL    HW1 4583   3.470   2.824   0.473
 1228SOL    HW2 4584   3.564   2.743   0.580
 1229SOL     OW 4585   2.059   5.911   0.990
 1229SOL    HW1 4586   2.028   6.006   1.001
 1229SOL    HW2 4587   2.009   5.868   0.915
 1230SOL     OW 4588   5.540   5.422   2.747
 1230SOL    HW1 4589   5.482   5.411   2.828
 1230SOL    HW2 4590   5.576   5.333   2.720
 1231SOL     OW 4591   1.212   1.744   5.660
 1231SOL    HW1 4592   1.276   1.797   5.715
 1231SOL    HW2 4593   1.258   1.712   5.577
 1232SOL     OW 4594   5.764   1.399   5.236
 1232SOL    HW1 4595   5.665   1.390   5.223
 1232SOL    HW2 4596   5.798   1.475   5.179
 1233SOL     OW 4597   0.340   5.785   4.819
 1233SOL    HW1 4598   0.276   5.777   4.743
 1233SOL    HW2 4599   0.290   5.811   4.902
 1234SOL     OW 4600   6.372   2.397   5.147
 1234SOL    HW1 4601   6.365   2.301   5.122
 1234SOL    HW2 4602   6.281   2.434   5.165
 1235SOL     OW 4603   6.140   4.597   1.066
 1235SOL    HW1 4604   6.155   4.658   1.144
 1235SOL    HW2 4605   6.065   4.633   1.011
 1236SOL     OW 4606   4.184   1.272   2.359
 1236SOL    HW1 4607   4.141   1.183   2.344
 1236SOL    HW2 4608   4.136   1.320   2.433
 1237SOL     OW 4609   1.478   5.383   5.120
 1237SOL    HW1 4610   1.437   5.330   5.194
 1237SOL    HW2 4611   1.555   5.332   5.081
 1238SOL     OW 4612   0.925   0.270   4.767
 1238SOL    HW1 4613   0.999   0.338   4.772
 1238SOL    HW2 4614   0.837   0.318   4.764
 1239SOL     OW 4615   6.756   6.916   5.789
 1239SOL    HW1 4616   6.791   6.840   5.733
 1239SOL    HW2 4617   6.688   6.882   5.853
 1240SOL     OW 4618   6.101   5.305   2.151
 1240SOL    HW1 4619   6.031   5.323   2.219
 1240SOL    HW2 4620   6.140   5.214   2.167
 1241SOL     OW 4621   5.859   4.466   5.086
 1241SOL    HW1 4622   5.881   4.445   5.181
 1241SOL    HW2 4623   5.905   4.400   5.026
 1242SOL     OW 4624   2.237   3.550   0.642
 1242SOL    HW1 4625   2.304   3.565   0.716
 1242SOL    HW2 4626   2.199   3.638   0.613
 1243SOL     OW 4627   0.262   1.516   4.820
 1243SOL    HW1 4628   0.284   1.546   4.727
 1243SOL    HW2 4629   0.190   1.574   4.858
 1244SOL     OW 4630   5.086   6.494   4.914
 1244SOL    HW1 4631   5.155   6.564   4.894
 1244SOL    HW2 4632   5.049   6.459   4.828
 1245SOL     OW 4633   5.639   4.677   0.278
 1245SOL    HW1 4634   5.653   4.753   0.214
 1245SOL    HW2 4635   5.686   4.596   0.245
 1246SOL     OW 4636   3.297   1.235   2.388
 1246SOL    HW1 4637   3.336   1.255   2.478
 1246SOL    HW2 4638   3.370   1.228   2.320
 1247SOL     OW 4639   5.396   0.366   5.533
 1247SOL    HW1 4640   5.476   0.333   5.482
 1247SOL    HW2 4641   5.411   0.461   5.561
 1248SOL     OW 4642   1.023   6.366   4.051
 1248SOL    HW1 4643   0.964   6.293   4.084
 1248SOL    HW2 4644   0.967   6.443   4.021
 1249SOL     OW 4645   0.308   3.390   1.829
 1249SOL    HW1 4646   0.264   3.301   1.811
 1249SOL    HW2 4647   0.244   3.463   1.806
 1250SOL     OW 4648   6.146   4.174   3.618
 1250SOL    HW1 4649   6.240   4.149   3.640
 1250SOL    HW2 4650   6.106   4.106   3.557
 1251SOL     OW 4651   1.984   1.007   2.914
 1251SOL    HW1 4652   1.936   1.063   2.846
 1251SOL    HW2 4653   1.948   1.025   3.005
 1252SOL     OW 4654   3.924   4.610   6.528
 1252SOL    HW1 4655   3.843   4.646   6.574
 1252SOL    HW2 4656   3.914   4.511   6.517
 1253SOL     OW 4657   2.560   0.710   2.494
 1253SOL    HW1 4658   2.522   0.732   2.404
 1253SOL    HW2 4659   2.572   0.612   2.502
 1254SOL     OW 4660   0.163   2.526   4.085
 1254SOL    HW1 4661   0.071   2.485   4.079
 1254SOL    HW2 4662   0.156   2.625   4.073
 1255SOL     OW 4663   5.775   2.351   6.202
 1255SOL    HW1 4664   5.822   2.440   6.204
 1255SOL    HW2 4665   5.725   2.339   6.287
 1256SOL     OW 4666   0.221   6.210   3.541
 1256SOL    HW1 4667   0.247   6.114   3.552
 1256SOL    HW2 4668   0.241   6.240   3.448
 1257SOL     OW 4669   6.865   5.112   4.291
 1257SOL    HW1 4670   6.878   5.113   4.390
 1257SOL    HW2 4671   6.945   5.155   4.247
 1258SOL     OW 4672   2.124   4.989   2.827
 1258SOL    HW1 4673   2.043   4.949   2.868
 1258SOL    HW2 4674   2.120   4.978   2.728
 1259SOL     OW 4675   3.294   6.230   5.211
 1259SOL    HW1 4676   3.228   6.305   5.221
 1259SOL    HW2 4677   3.373   6.262   5.159
 1260SOL     OW 4678   2.857   1.497   1.084
 1260SOL    HW1 4679   2.903   1.503   0.996
 1260SOL    HW2 4680   2.758   1.506   1.071
 1261SOL     OW 4681   0.227   4.587   0.100
 1261SOL    HW1 4682   0.322   4.562   0.082
 1261SOL    HW2 4683   0.213   4.595   0.199
 1262SOL     OW 4684   5.172   5.729   1.429
 1262SOL    HW1 4685   5.085   5.741   1.477
 1262SOL    HW2 4686   5.243   5.704   1.495
 1263SOL     OW 4687   6.982   1.583   1.553
 1263SOL    HW1 4688   6.970   1.682   1.545
 1263SOL    HW2 4689   6.896   1.537   1.534
 1264SOL     OW 4690   0.062   3.874   1.429
 1264SOL    HW1 4691   0.068   3.909   1.523
 1264SOL    HW2 4692   0.045   3.951   1.367
 1265SOL     OW 4693   6.514   5.313   3.720
 1265SOL    HW1 4694   6.560   5.362   3.647
 1265SOL    HW2 4695   6.423   5.284   3.688
 1266SOL     OW 4696   1.021   1.179   3.993
 1266SOL    HW1 4697   0.970   1.246   3.939
 1266SOL    HW2 4698   0.983   1.088   3.977
 1267SOL     OW 4699   5.768   6.644   1.092
 1267SOL    HW1 4700   5.838   6.672   1.158
 1267SOL    HW2 4701   5.808   6.641   1.000
 1268SOL     OW 4702   4.467   2.169   0.324
 1268SOL    HW1 4703   4.534   2.175   0.399
 1268SOL    HW2 4704   4.431   2.076   0.320
 1269SOL     OW 4705   5.736   6.467   5.753
 1269SOL    HW1 4706   5.702   6.554   5.789
 1269SOL    HW2 4707   5.784   6.418   5.825
 1270SOL     OW 4708   2.143   3.300   4.423
 1270SOL    HW1 4709   2.174   3.242   4.348
 1270SOL    HW2 4710   2.169   3.395   4.404
 1271SOL     OW 4711   3.378   1.573   3.292
 1271SOL    HW1 4712   3.380   1.622   3.205
 1271SOL    HW2 4713   3.471   1.564   3.327
 1272SOL     OW 4714   5.798   5.589   0.482
 1272SOL    HW1 4715   5.898   5.603   0.481
 1272SOL    HW2 4716   5.768   5.574   0.576
 1273SOL     OW 4717   0.978   4.273   0.379
 1273SOL    HW1 4718   1.069   4.252   0.343
 1273SOL    HW2 4719   0.986   4.330   0.461
 1274SOL     OW 4720   6.448   2.748   1.526
 1274SOL    HW1 4721   6.437   2.692   1.608
 1274SOL    HW2 4722   6.367   2.740   1.468
 1275SOL     OW 4723   3.347   0.750   4.544
 1275SOL    HW1 4724   3.377   0.716   4.455
 1275SOL    HW2 4725   3.406   0.712   4.616
 1276SOL     OW 4726   6.923   0.748   4.755
 1276SOL    HW1 4727   6.976   0.829   4.730
 1276SOL    HW2 4728   6.953   0.670   4.700
 1277SOL     OW 4729   1.175   6.650   6.033
 1277SOL    HW1 4730   1.195   6.736   5.986
 1277SOL    HW2 4731   1.226   6.576   5.990
 1278SOL     OW 4732   1.107   0.396   5.294
 1278SOL    HW1 4733   1.184   0.398   5.357
 1278SOL    HW2 4734   1.129   0.446   5.211
 1279SOL     OW 4735   3.648   5.274   0.147
 1279SOL    HW1 4736   3.573   5.247   0.207
 1279SOL    HW2 4737   3.646   5.373   0.133
 1280SOL     OW 4738   3.505   6.153   3.776
 1280SOL    HW1 4739   3.421   6.176   3.825
 1280SOL    HW2 4740   3.484   6.085   3.705
 1281SOL     OW 4741   1.440   5.771   2.692
 1281SOL    HW1 4742   1.346   5.737   2.687
 1281SOL    HW2 4743   1.495   5.708   2.747
 1282SOL     OW 4744   0.707   1.197   6.495
 1282SOL    HW1 4745   0.717   1.191   6.594
 1282SOL    HW2 4746   0.629   1.255   6.472
 1283SOL     OW 4747   5.847   2.676   5.134
 1283SOL    HW1 4748   5.783   2.669   5.057
 1283SOL    HW2 4749   5.854   2.772   5.162
 1284SOL     OW 4750   4.489   1.705   2.101
 1284SOL    HW1 4751   4.515   1.790   2.147
 1284SOL    HW2 4752   4.491   1.630   2.167
 1285SOL     OW 4753   5.067   3.155   6.743
 1285SOL    HW1 4754   5.015   3.153   6.828
 1285SOL    HW2 4755   5.011   3.195   6.670
 1286SOL     OW 4756   5.039   3.365   2.063
 1286SOL    HW1 4757   5.139   3.359   2.066
 1286SOL    HW2 4758   4.999   3.280   2.097
 1287SOL     OW 4759   4.849   4.415   5.705
 1287SOL    HW1 4760   4.818   4.363   5.626
 1287SOL    HW2 4761   4.803   4.381   5.787
 1288SOL     OW 4762   5.530   3.424   0.857
 1288SOL    HW1 4763   5.514   3.440   0.955
 1288SOL    HW2 4764   5.443   3.399   0.813
 1289SOL     OW 4765   0.747   5.834   1.227
 1289SOL    HW1 4766   0.783   5.759   1.172
 1289SOL    HW2 4767   0.695   5.897   1.170
 1290SOL     OW 4768   1.041   0.449   6.707
 1290SOL    HW1 4769   0.980   0.502   6.766
 1290SOL    HW2 4770   1.081   0.374   6.760
 1291SOL     OW 4771   7.003   3.945   5.654
 1291SOL    HW1 4772   0.079   3.920   5.653
 1291SOL    HW2 4773   6.985   4.004   5.732
 1292SOL     OW 4774   6.904   6.295   2.654
 1292SOL    HW1 4775   6.884   6.250   2.741
 1292SOL    HW2 4776   6.863   6.386   2.653
 1293SOL     OW 4777   1.010   1.376   6.672
 1293SOL    HW1 4778   0.921   1.355   6.630
 1293SOL    HW2 4779   1.082   1.325   6.625
 1294SOL     OW 4780   1.521   3.877   6.891
 1294SOL    HW1 4781   1.464   3.924   6.959
 1294SOL    HW2 4782   1.497   3.780   6.888
 1295SOL     OW 4783   0.061   3.682   2.906
 1295SOL    HW1 4784   0.005   3.619   2.852
 1295SOL    HW2 4785   0.066   3.771   2.860
 1296SOL     OW 4786   3.568   0.478   5.597
 1296SOL    HW1 4787   3.586   0.471   5.499
 1296SOL    HW2 4788   3.644   0.437   5.647
 1297SOL     OW 4789   5.921   0.677   0.496
 1297SOL    HW1 4790   5.883   0.770   0.494
 1297SOL    HW2 4791   5.893   0.631   0.580
 1298SOL     OW 4792   6.899   4.710   2.750
 1298SOL    HW1 4793   6.937   4.799   2.775
 1298SOL    HW2 4794   6.869   4.662   2.832
 1299SOL     OW 4795   0.374   4.166   3.332
 1299SOL    HW1 4796   0.397   4.228   3.258
 1299SOL    HW2 4797   0.437   4.088   3.332
 1300SOL     OW 4798   3.630   3.811   1.994
 1300SOL    HW1 4799   3.659   3.737   1.934
 1300SOL    HW2 4800   3.539   3.791   2.030
 1301SOL     OW 4801   0.429   5.818   2.169
 1301SOL    HW1 4802   0.450   5.784   2.077
 1301SOL    HW2 4803   0.414   5.740   2.230
 1302SOL     OW 4804   3.693   0.078   5.255
 1302SOL    HW1 4805   3.745   0.039   5.179
 1302SOL    HW2 4806   3.602   0.106   5.223
 1303SOL     OW 4807   4.424   1.258   1.957
 1303SOL    HW1 4808   4.496   1.228   2.020
 1303SOL    HW2 4809   4.361   1.319   2.005
 1304SOL     OW 4810   1.348   1.025   6.676
 1304SOL    HW1 4811   1.297   0.951   6.634
 1304SOL    HW2 4812   1.315   1.113   6.641
 1305SOL     OW 4813   4.956   3.152   7.005
 1305SOL    HW1 4814   5.005   3.079   0.033
 1305SOL    HW2 4815   4.877   3.114   6.958
 1306SOL     OW 4816   0.799   4.420   5.578
 1306SOL    HW1 4817   0.761   4.350   5.639
 1306SOL    HW2 4818   0.815   4.379   5.488
 1307SOL     OW 4819   0.963   3.203   5.316
 1307SOL    HW1 4820   1.011   3.288   5.294
 1307SOL    HW2 4821   0.990   3.173   5.407
 1308SOL     OW 4822   4.467   5.756   5.320
 1308SOL    HW1 4823   4.508   5.824   5.380
 1308SOL    HW2 4824   4.536   5.723   5.256
 1309SOL     OW 4825   4.924   2.891   5.004
 1309SOL    HW1 4826   4.943   2.874   4.907
 1309SOL    HW2 4827   5.009   2.887   5.056
 1310SOL     OW 4828   0.210   3.961   5.161
 1310SOL    HW1 4829   0.294   3.985   5.209
 1310SOL    HW2 4830   0.231   3.934   5.068
 1311SOL     OW 4831   0.206   0.309   4.091
 1311SOL    HW1 4832   0.133   0.241   4.088
 1311SOL    HW2 4833   0.277   0.279   4.155
 1312SOL     OW 4834   0.928   0.414   6.461
 1312SOL    HW1 4835   1.010   0.417   6.403
 1312SOL    HW2 4836   0.953   0.437   6.555
 1313SOL     OW 4837   1.670   4.234   4.206
 1313SOL    HW1 4838   1.605   4.196   4.140
 1313SOL    HW2 4839   1.730   4.300   4.161
 1314SOL     OW 4840   4.016   1.572   5.832
 1314SOL    HW1 4841   3.975   1.494   5.880
 1314SOL    HW2 4842   4.038   1.545   5.738
 1315SOL     OW 4843   0.746   0.742   0.337
 1315SOL    HW1 4844   0.665   0.684   0.343
 1315SOL    HW2 4845   0.793   0.743   0.425
 1316SOL     OW 4846   2.089   6.603   4.450
 1316SOL    HW1 4847   2.075   6.524   4.510
 1316SOL    HW2 4848   2.119   6.572   4.360
 1317SOL     OW 4849   1.500   4.023   4.583
 1317SOL    HW1 4850   1.553   4.101   4.551
 1317SOL    HW2 4851   1.479   4.034   4.680
 1318SOL     OW 4852   0.705   0.862   0.709
 1318SOL    HW1 4853   0.759   0.807   0.646
 1318SOL    HW2 4854   0.701   0.957   0.677
 1319SOL     OW 4855   6.886   0.700   6.501
 1319SOL    HW1 4856   6.886   0.781   6.559
 1319SOL    HW2 4857   6.977   0.688   6.461
 1320SOL     OW 4858   5.329   3.825   0.748
 1320SOL    HW1 4859   5.257   3.760   0.724
 1320SOL    HW2 4860   5.417   3.776   0.754
 1321SOL     OW 4861   4.593   2.373   5.742
 1321SOL    HW1 4862   4.624   2.335   5.829
 1321SOL    HW2 4863   4.541   2.457   5.759
 1322SOL     OW 4864   4.235   0.446   4.122
 1322SOL    HW1 4865   4.259   0.388   4.199
 1322SOL    HW2 4866   4.304   0.436   4.050
 1323SOL     OW 4867   4.997   2.029   4.744
 1323SOL    HW1 4868   5.017   1.938   4.707
 1323SOL    HW2 4869   4.921   2.023   4.808
 1324SOL     OW 4870   0.887   2.856   0.096
 1324SOL    HW1 4871   0.861   2.922   0.026
 1324SOL    HW2 4872   0.980   2.875   0.126
 1325SOL     OW 4873   1.850   6.571   2.448
 1325SOL    HW1 4874   1.839   6.534   2.540
 1325SOL    HW2 4875   1.770   6.626   2.424
 1326SOL     OW 4876   4.767   2.972   4.666
 1326SOL    HW1 4877   4.827   2.905   4.709
 1326SOL    HW2 4878   4.681   2.978   4.717
 1327SOL     OW 4879   1.686   4.479   1.860
 1327SOL    HW1 4880   1.707   4.565   1.904
 1327SOL    HW2 4881   1.597   4.445   1.893
 1328SOL     OW 4882   1.518   2.930   1.068
 1328SOL    HW1 4883   1.518   2.954   1.165
 1328SOL    HW2 4884   1.429   2.892   1.044
 1329SOL     OW 4885   1.387   2.569   0.955
 1329SOL    HW1 4886   1.322   2.494   0.944
 1329SOL    HW2 4887   1.480   2.533   0.953
 1330SOL     OW 4888   6.716   1.224   1.406
 1330SOL    HW1 4889   6.802   1.184   1.373
 1330SOL    HW2 4890   6.733   1.316   1.440
 1331SOL     OW 4891   4.820   2.332   3.077
 1331SOL    HW1 4892   4.790   2.274   3.152
 1331SOL    HW2 4893   4.827   2.278   2.993
 1332SOL     OW 4894   2.927   6.952   0.254
 1332SOL    HW1 4895   2.833   6.931   0.281
 1332SOL    HW2 4896   2.965   6.874   0.204
 1333SOL     OW 4897   3.398   3.262   5.543
 1333SOL    HW1 4898   3.385   3.181   5.602
 1333SOL    HW2 4899   3.311   3.286   5.501
 1334SOL     OW 4900   6.498   2.251   4.476
 1334SOL    HW1 4901   6.460   2.240   4.567
 1334SOL    HW2 4902   6.525   2.347   4.462
 1335SOL     OW 4903   2.815   1.182   3.490
 1335SOL    HW1 4904   2.746   1.184   3.417
 1335SOL    HW2 4905   2.862   1.093   3.489
 1336SOL     OW 4906   2.067   1.228   6.119
 1336SOL    HW1 4907   2.031   1.233   6.212
 1336SOL    HW2 4908   2.053   1.137   6.082
 1337SOL     OW 4909   1.626   1.336   5.185
 1337SOL    HW1 4910   1.618   1.402   5.260
 1337SOL    HW2 4911   1.582   1.250   5.211
 1338SOL     OW 4912   5.215   2.831   6.098
 1338SOL    HW1 4913   5.286   2.763   6.082
 1338SOL    HW2 4914   5.139   2.789   6.148
 1339SOL     OW 4915   0.689   0.822   6.821
 1339SOL    HW1 4916   0.733   0.851   6.906
 1339SOL    HW2 4917   0.609   0.766   6.842
 1340SOL     OW 4918   0.589   1.901   1.921
 1340SOL    HW1 4919   0.616   1.985   1.872
 1340SOL    HW2 4920   0.640   1.894   2.006
 1341SOL     OW 4921   4.524   0.550   5.982
 1341SOL    HW1 4922   4.501   0.481   6.051
 1341SOL    HW2 4923   4.608   0.522   5.935
 1342SOL     OW 4924   1.699   4.780   6.399
 1342SOL    HW1 4925   1.743   4.751   6.484
 1342SOL    HW2 4926   1.617   4.726   6.383
 1343SOL     OW 4927   4.722   5.957   2.468
 1343SOL    HW1 4928   4.733   5.909   2.555
 1343SOL    HW2 4929   4.628   5.948   2.436
 1344SOL     OW 4930   6.832   4.885   4.110
 1344SOL    HW1 4931   6.906   4.819   4.100
 1344SOL    HW2 4932   6.859   4.957   4.174
 1345SOL     OW 4933   1.430   1.390   3.064
 1345SOL    HW1 4934   1.380   1.472   3.091
 1345SOL    HW2 4935   1.476   1.405   2.977
 1346SOL     OW 4936   0.531   6.742   4.000
 1346SOL    HW1 4937   0.541   6.835   3.963
 1346SOL    HW2 4938   0.557   6.741   4.096
 1347SOL     OW 4939   6.579   6.452   4.257
 1347SOL    HW1 4940   6.634   6.519   4.206
 1347SOL    HW2 4941   6.489   6.491   4.276
 1348SOL     OW 4942   5.269   5.008   2.823
 1348SOL    HW1 4943   5.361   4.978   2.798
 1348SOL    HW2 4944   5.261   5.107   2.809
 1349SOL     OW 4945   4.839   2.171   6.388
 1349SOL    HW1 4946   4.915   2.201   6.446
 1349SOL    HW2 4947   4.756   2.219   6.415
 1350SOL     OW 4948   5.118   4.227   6.445
 1350SOL    HW1 4949   5.172   4.209   6.362
 1350SOL    HW2 4950   5.110   4.143   6.498
 1351SOL     OW 4951   6.829   2.018   3.104
 1351SOL    HW1 4952   6.778   2.104   3.111
 1351SOL    HW2 4953   6.912   2.025   3.160
 1352SOL     OW 4954   6.686   0.206   2.940
 1352SOL    HW1 4955   6.644   0.234   2.854
 1352SOL    HW2 4956   6.683   0.283   3.005
 1353SOL     OW 4957   6.475   4.258   6.276
 1353SOL    HW1 4958   6.503   4.166   6.302
 1353SOL    HW2 4959   6.400   4.253   6.210
 1354SOL     OW 4960   0.531   1.936   0.333
 1354SOL    HW1 4961   0.472   1.999   0.383
 1354SOL    HW2 4962   0.483   1.904   0.251
 1355SOL     OW 4963   0.027   2.519   5.440
 1355SOL    HW1 4964   0.019   2.472   5.528
 1355SOL    HW2 4965   0.053   2.453   5.370
 1356SOL     OW 4966   3.029   3.115   3.571
 1356SOL    HW1 4967   3.019   3.147   3.665
 1356SOL    HW2 4968   3.120   3.076   3.558
 1357SOL     OW 4969   1.591   4.109   5.754
 1357SOL    HW1 4970   1.601   4.064   5.843
 1357SOL    HW2 4971   1.514   4.070   5.705
 1358SOL     OW 4972   4.038   1.342   5.998
 1358SOL    HW1 4973   4.050   1.259   6.054
 1358SOL    HW2 4974   4.124   1.393   5.996
 1359SOL     OW 4975   6.215   4.796   1.686
 1359SOL    HW1 4976   6.204   4.881   1.634
 1359SOL    HW2 4977   6.231   4.720   1.623
 1360SOL     OW 4978   4.068   3.921   1.237
 1360SOL    HW1 4979   4.109   3.969   1.315
 1360SOL    HW2 4980   4.138   3.900   1.170
 1361SOL     OW 4981   0.399   6.116   5.500
 1361SOL    HW1 4982   0.388   6.126   5.598
 1361SOL    HW2 4983   0.319   6.069   5.461
 1362SOL     OW 4984   2.958   3.758   4.299
 1362SOL    HW1 4985   2.959   3.804   4.387
 1362SOL    HW2 4986   2.957   3.826   4.226
 1363SOL     OW 4987   6.493   5.732   3.827
 1363SOL    HW1 4988   6.463   5.651   3.877
 1363SOL    HW2 4989   6.533   5.797   3.891
 1364SOL     OW 4990   6.974   2.431   0.445
 1364SOL    HW1 4991   0.027   2.399   0.505
 1364SOL    HW2 4992   6.925   2.506   0.489
 1365SOL     OW 4993   1.128   2.948   5.346
 1365SOL    HW1 4994   1.118   3.019   5.277
 1365SOL    HW2 4995   1.053   2.953   5.412
 1366SOL     OW 4996   0.812   4.440   0.788
 1366SOL    HW1 4997   0.794   4.361   0.847
 1366SOL    HW2 4998   0.726   4.486   0.766
 1367SOL     OW 4999   1.618   5.556   2.514
 1367SOL    HW1 5000   1.626   5.593   2.422
 1367SOL    HW2 5001   1.523   5.530   2.532
 1368SOL     OW 5002   0.147   6.659   3.333
 1368SOL    HW1 5003   0.051   6.645   3.309
 1368SOL    HW2 5004   0.161   6.754   3.361
 1369SOL     OW 5005   1.869   0.248   2.512
 1369SOL    HW1 5006   1.915   0.316   2.568
 1369SOL    HW2 5007   1.786   0.287   2.471
 1370SOL     OW 5008   4.656   1.703   3.266
 1370SOL    HW1 5009   4.605   1.683   3.182
 1370SOL    HW2 5010   4.754   1.691   3.251
 1371SOL     OW 5011   5.888   1.597   4.421
 1371SOL    HW1 5012   5.868   1.635   4.330
 1371SOL    HW2 5013   5.945   1.515   4.411
 1372SOL     OW 5014   1.207   2.471   0.639
 1372SOL    HW1 5015   1.136   2.488   0.707
 1372SOL    HW2 5016   1.186   2.522   0.556
 1373SOL     OW 5017   4.309   2.652   0.192
 1373SOL    HW1 5018   4.254   2.654   0.109
 1373SOL    HW2 5019   4.366   2.571   0.192
 1374SOL     OW 5020   4.274   1.978   0.893
 1374SOL    HW1 5021   4.181   1.992   0.861
 1374SOL    HW2 5022   4.327   1.931   0.822
 1375SOL     OW 5023   0.267   6.461   5.974
 1375SOL    HW1 5024   0.279   6.383   6.035
 1375SOL    HW2 5025   0.202   6.525   6.015
 1376SOL     OW 5026   4.530   4.840   5.164
 1376SOL    HW1 5027   4.622   4.832   5.204
 1376SOL    HW2 5028   4.502   4.935   5.165
 1377SOL     OW 5029   0.793   3.912   4.652
 1377SOL    HW1 5030   0.860   3.971   4.607
 1377SOL    HW2 5031   0.738   3.865   4.582
 1378SOL     OW 5032   5.695   2.020   4.522
 1378SOL    HW1 5033   5.688   1.923   4.547
 1378SOL    HW2 5034   5.776   2.059   4.565
 1379SOL     OW 5035   4.111   6.080   3.398
 1379SOL    HW1 5036   4.134   6.014   3.469
 1379SOL    HW2 5037   4.161   6.165   3.414
 1380SOL     OW 5038   0.699   0.098   3.392
 1380SOL    HW1 5039   0.692   0.069   3.297
 1380SOL    HW2 5040   0.733   0.192   3.397
 1381SOL     OW 5041   5.835   1.801   0.713
 1381SOL    HW1 5042   5.865   1.896   0.727
 1381SOL    HW2 5043   5.761   1.780   0.777
 1382SOL     OW 5044   5.979   3.610   1.046
 1382SOL    HW1 5045   6.054   3.676   1.043
 1382SOL    HW2 5046   5.893   3.658   1.027
 1383SOL     OW 5047   0.649   0.775   2.033
 1383SOL    HW1 5048   0.641   0.827   2.118
 1383SOL    HW2 5049   0.644   0.837   1.955
 1384SOL     OW 5050   4.545   0.583   1.679
 1384SOL    HW1 5051   4.516   0.674   1.711
 1384SOL    HW2 5052   4.585   0.532   1.755
 1385SOL     OW 5053   2.959   4.831   3.464
 1385SOL    HW1 5054   3.055   4.834   3.437
 1385SOL    HW2 5055   2.945   4.892   3.542
 1386SOL     OW 5056   3.101   1.096   4.225
 1386SOL    HW1 5057   3.107   1.140   4.315
 1386SOL    HW2 5058   3.187   1.108   4.176
 1387SOL     OW 5059   4.017   5.330   2.737
 1387SOL    HW1 5060   3.990   5.411   2.685
 1387SOL    HW2 5061   4.047   5.258   2.674
 1388SOL     OW 5062   0.216   0.549   2.591
 1388SOL    HW1 5063   0.208   0.472   2.655
 1388SOL    HW2 5064   0.129   0.560   2.542
 1389SOL     OW 5065   6.440   1.153   3.674
 1389SOL    HW1 5066   6.497   1.216   3.621
 1389SOL    HW2 5067   6.440   1.181   3.770
 1390SOL     OW 5068   6.545   2.534   6.058
 1390SOL    HW1 5069   6.481   2.611   6.061
 1390SOL    HW2 5070   6.639   2.569   6.050
 1391SOL     OW 5071   6.033   6.585   5.294
 1391SOL    HW1 5072   6.083   6.632   5.367
 1391SOL    HW2 5073   5.939   6.620   5.290
 1392SOL     OW 5074   5.870   6.418   5.530
 1392SOL    HW1 5075   5.814   6.428   5.613
 1392SOL    HW2 5076   5.958   6.376   5.554
 1393SOL     OW 5077   6.900   4.049   6.345
 1393SOL    HW1 5078   6.884   4.081   6.438
 1393SOL    HW2 5079   6.874   4.121   6.280
 1394SOL     OW 5080   3.942   5.268   5.737
 1394SOL    HW1 5081   3.861   5.327   5.734
 1394SOL    HW2 5082   4.010   5.303   5.673
 1395SOL     OW 5083   1.610   4.779   4.710
 1395SOL    HW1 5084   1.678   4.737   4.769
 1395SOL    HW2 5085   1.638   4.770   4.614
 1396SOL     OW 5086   0.232   1.594   5.189
 1396SOL    HW1 5087   0.303   1.646   5.142
 1396SOL    HW2 5088   0.252   1.496   5.184
 1397SOL     OW 5089   0.293   6.431   4.549
 1397SOL    HW1 5090   0.356   6.376   4.603
 1397SOL    HW2 5091   0.278   6.387   4.460
 1398SOL     OW 5092   2.901   0.964   6.453
 1398SOL    HW1 5093   2.939   0.978   6.362
 1398SOL    HW2 5094   2.873   1.051   6.492
 1399SOL     OW 5095   3.889   4.722   0.581
 1399SOL    HW1 5096   3.861   4.780   0.658
 1399SOL    HW2 5097   3.810   4.672   0.545
 1400SOL     OW 5098   0.388   1.719   4.187
 1400SOL    HW1 5099   0.330   1.754   4.260
 1400SOL    HW2 5100   0.456   1.656   4.226
 1401SOL     OW 5101   6.586   0.206   4.586
 1401SOL    HW1 5102   6.658   0.215   4.654
 1401SOL    HW2 5103   6.503   0.171   4.629
 1402SOL     OW 5104   5.376   3.681   6.633
 1402SOL    HW1 5105   5.291   3.632   6.653
 1402SOL    HW2 5106   5.393   3.680   6.535
 1403SOL     OW 5107   2.544   1.744   1.142
 1403SOL    HW1 5108   2.608   1.820   1.145
 1403SOL    HW2 5109   2.460   1.769   1.190
 1404SOL     OW 5110   6.355   0.056   6.604
 1404SOL    HW1 5111   6.448   0.078   6.634
 1404SOL    HW2 5112   6.336   0.102   6.518
 1405SOL     OW 5113   2.323   3.278   0.659
 1405SOL    HW1 5114   2.306   3.375   0.678
 1405SOL    HW2 5115   2.422   3.263   0.654
 1406SOL     OW 5116   0.855   6.157   0.908
 1406SOL    HW1 5117   0.868   6.059   0.891
 1406SOL    HW2 5118   0.773   6.171   0.963
 1407SOL     OW 5119   0.474   3.287   3.514
 1407SOL    HW1 5120   0.503   3.346   3.439
 1407SOL    HW2 5121   0.513   3.196   3.502
 1408SOL     OW 5122   5.137   1.614   5.371
 1408SOL    HW1 5123   5.215   1.659   5.327
 1408SOL    HW2 5124   5.118   1.528   5.324
 1409SOL     OW 5125   0.379   0.267   5.340
 1409SOL    HW1 5126   0.407   0.197   5.405
 1409SOL    HW2 5127   0.377   0.228   5.248
 1410SOL     OW 5128   1.665   4.723   6.678
 1410SOL    HW1 5129   1.582   4.706   6.625
 1410SOL    HW2 5130   1.664   4.816   6.715
 1411SOL     OW 5131   3.298   6.712   0.512
 1411SOL    HW1 5132   3.263   6.705   0.419
 1411SOL    HW2 5133   3.254   6.642   0.569
 1412SOL     OW 5134   0.797   2.778   0.939
 1412SOL    HW1 5135   0.801   2.861   0.993
 1412SOL    HW2 5136   0.751   2.706   0.990
 1413SOL     OW 5137   2.306   1.394   5.163
 1413SOL    HW1 5138   2.250   1.458   5.110
 1413SOL    HW2 5139   2.345   1.325   5.101
 1414SOL     OW 5140   2.224   1.870   1.915
 1414SOL    HW1 5141   2.281   1.952   1.927
 1414SOL    HW2 5142   2.184   1.845   2.003
 1415SOL     OW 5143   2.122   1.341   4.643
 1415SOL    HW1 5144   2.167   1.431   4.643
 1415SOL    HW2 5145   2.025   1.353   4.619
 1416SOL     OW 5146   4.361   5.621   4.436
 1416SOL    HW1 5147   4.354   5.575   4.524
 1416SOL    HW2 5148   4.352   5.720   4.449
 1417SOL     OW 5149   2.852   2.274   0.361
 1417SOL    HW1 5150   2.871   2.322   0.275
 1417SOL    HW2 5151   2.758   2.240   0.360
 1418SOL     OW 5152   3.211   3.655   2.347
 1418SOL    HW1 5153   3.270   3.734   2.364
 1418SOL    HW2 5154   3.235   3.581   2.409
 1419SOL     OW 5155   2.703   5.880   3.551
 1419SOL    HW1 5156   2.689   5.913   3.645
 1419SOL    HW2 5157   2.645   5.801   3.534
 1420SOL     OW 5158   2.359   6.227   2.017
 1420SOL    HW1 5159   2.355   6.143   1.963
 1420SOL    HW2 5160   2.446   6.230   2.067
 1421SOL     OW 5161   2.216   5.129   3.346
 1421SOL    HW1 5162   2.264   5.042   3.354
 1421SOL    HW2 5163   2.183   5.141   3.252
 1422SOL     OW 5164   1.378   4.207   6.586
 1422SOL    HW1 5165   1.443   4.168   6.521
 1422SOL    HW2 5166   1.309   4.138   6.609
 1423SOL     OW 5167   4.645   6.905   4.486
 1423SOL    HW1 5168   4.599   6.826   4.445
 1423SOL    HW2 5169   4.697   6.954   4.417
 1424SOL     OW 5170   6.680   3.910   6.858
 1424SOL    HW1 5171   6.723   3.998   6.876
 1424SOL    HW2 5172   6.588   3.925   6.820
 1425SOL     OW 5173   1.928   5.342   6.084
 1425SOL    HW1 5174   1.854   5.295   6.037
 1425SOL    HW2 5175   1.956   5.290   6.165
 1426SOL     OW 5176   2.945   3.075   6.773
 1426SOL    HW1 5177   2.922   3.119   6.686
 1426SOL    HW2 5178   2.890   2.992   6.784
 1427SOL     OW 5179   6.708   6.861   3.821
 1427SOL    HW1 5180   6.621   6.841   3.866
 1427SOL    HW2 5181   6.777   6.794   3.850
 1428SOL     OW 5182   0.643   1.993   6.827
 1428SOL    HW1 5183   0.652   1.905   6.874
 1428SOL    HW2 5184   0.734   2.027   6.802
 1429SOL     OW 5185   5.003   1.427   6.996
 1429SOL    HW1 5186   5.016   1.328   7.000
 1429SOL    HW2 5187   4.906   1.448   7.000
 1430SOL     OW 5188   1.778   5.282   3.951
 1430SOL    HW1 5189   1.710   5.308   3.883
 1430SOL    HW2 5190   1.803   5.361   4.006
 1431SOL     OW 5191   2.728   2.165   0.106
 1431SOL    HW1 5192   2.705   2.263   0.112
 1431SOL    HW2 5193   2.810   2.154   0.050
 1432SOL     OW 5194   2.835   1.620   1.560
 1432SOL    HW1 5195   2.904   1.636   1.489
 1432SOL    HW2 5196   2.853   1.532   1.605
 1433SOL     OW 5197   4.238   0.755   5.185
 1433SOL    HW1 5198   4.293   0.695   5.126
 1433SOL    HW2 5199   4.284   0.767   5.273
 1434SOL     OW 5200   1.754   0.128   5.620
 1434SOL    HW1 5201   1.813   0.064   5.668
 1434SOL    HW2 5202   1.658   0.101   5.632
 1435SOL     OW 5203   6.428   6.862   3.317
 1435SOL    HW1 5204   6.415   6.840   3.414
 1435SOL    HW2 5205   6.354   6.820   3.264
 1436SOL     OW 5206   4.955   3.475   6.780
 1436SOL    HW1 5207   4.999   3.562   6.758
 1436SOL    HW2 5208   4.925   3.476   6.875
 1437SOL     OW 5209   3.314   2.134   5.208
 1437SOL    HW1 5210   3.244   2.201   5.183
 1437SOL    HW2 5211   3.269   2.053   5.246
 1438SOL     OW 5212   2.769   6.838   1.925
 1438SOL    HW1 5213   2.760   6.744   1.957
 1438SOL    HW2 5214   2.847   6.845   1.863
 1439SOL     OW 5215   6.350   5.074   0.584
 1439SOL    HW1 5216   6.327   5.010   0.658
 1439SOL    HW2 5217   6.312   5.164   0.605
 1440SOL     OW 5218   3.228   3.161   6.525
 1440SOL    HW1 5219   3.250   3.064   6.517
 1440SOL    HW2 5220   3.159   3.186   6.457
 1441SOL     OW 5221   6.218   1.879   3.923
 1441SOL    HW1 5222   6.191   1.824   3.844
 1441SOL    HW2 5223   6.262   1.963   3.893
 1442SOL     OW 5224   0.020   5.434   6.803
 1442SOL    HW1 5225   6.970   5.503   6.789
 1442SOL    HW2 5226   0.103   5.461   6.754
 1443SOL     OW 5227   0.699   2.886   4.162
 1443SOL    HW1 5228   0.721   2.932   4.076
 1443SOL    HW2 5229   0.726   2.943   4.239
 1444SOL     OW 5230   4.459   5.698   0.744
 1444SOL    HW1 5231   4.460   5.598   0.742
 1444SOL    HW2 5232   4.416   5.732   0.660
 1445SOL     OW 5233   0.429   3.753   2.839
 1445SOL    HW1 5234   0.410   3.722   2.931
 1445SOL    HW2 5235   0.348   3.799   2.802
 1446SOL     OW 5236   4.969   2.746   0.518
 1446SOL    HW1 5237   4.929   2.833   0.547
 1446SOL    HW2 5238   4.896   2.678   0.506
 1447SOL     OW 5239   6.192   6.701   5.470
 1447SOL    HW1 5240   6.193   6.756   5.553
 1447SOL    HW2 5241   6.280   6.654   5.460
 1448SOL     OW 5242   0.132   2.172   5.949
 1448SOL    HW1 5243   0.060   2.218   6.001
 1448SOL    HW2 5244   0.095   2.090   5.906
 1449SOL     OW 5245   0.808   0.894   0.066
 1449SOL    HW1 5246   0.761   0.973   0.107
 1449SOL    HW2 5247   0.833   0.829   0.137
 1450SOL     OW 5248   0.612   2.374   1.210
 1450SOL    HW1 5249   0.672   2.348   1.286
 1450SOL    HW2 5250   0.610   2.300   1.142
 1451SOL     OW 5251   1.810   0.016   2.050
 1451SOL    HW1 5252   1.864   0.054   2.126
 1451SOL    HW2 5253   1.871   7.001   1.980
 1452SOL     OW 5254   4.968   0.855   4.355
 1452SOL    HW1 5255   5.010   0.910   4.427
 1452SOL    HW2 5256   5.005   0.762   4.357
 1453SOL     OW 5257   6.904   4.314   5.648
 1453SOL    HW1 5258   6.991   4.309   5.695
 1453SOL    HW2 5259   6.838   4.362   5.706
 1454SOL     OW 5260   0.382   3.467   2.113
 1454SOL    HW1 5261   0.393   3.368   2.120
 1454SOL    HW2 5262   0.371   3.493   2.017
 1455SOL     OW 5263   0.715   1.181   1.512
 1455SOL    HW1 5264   0.631   1.133   1.537
 1455SOL    HW2 5265   0.779   1.116   1.471
 1456SOL     OW 5266   6.790   6.393   5.259
 1456SOL    HW1 5267   6.755   6.417   5.169
 1456SOL    HW2 5268   6.873   6.444   5.278
 1457SOL     OW 5269   1.738   6.643   1.865
 1457SOL    HW1 5270   1.653   6.639   1.813
 1457SOL    HW2 5271   1.718   6.656   1.962
 1458SOL     OW 5272   5.631   5.682   3.304
 1458SOL    HW1 5273   5.663   5.617   3.236
 1458SOL    HW2 5274   5.628   5.638   3.394
 1459SOL     OW 5275   2.995   5.587   5.767
 1459SOL    HW1 5276   2.986   5.542   5.678
 1459SOL    HW2 5277   2.915   5.565   5.823
 1460SOL     OW 5278   0.803   5.995   5.080
 1460SOL    HW1 5279   0.857   5.940   5.016
 1460SOL    HW2 5280   0.823   5.966   5.173
 1461SOL     OW 5281   6.372   5.244   2.762
 1461SOL    HW1 5282   6.410   5.336   2.752
 1461SOL    HW2 5283   6.349   5.228   2.858
 1462SOL     OW 5284   1.539   0.169   6.960
 1462SOL    HW1 5285   1.518   0.072   6.947
 1462SOL    HW2 5286   1.555   0.212   6.871
 1463SOL     OW 5287   6.875   5.720   6.364
 1463SOL    HW1 5288   6.789   5.755   6.400
 1463SOL    HW2 5289   6.923   5.793   6.315
 1464SOL     OW 5290   0.257   7.017   1.380
 1464SOL    HW1 5291   0.216   0.037   1.298
 1464SOL    HW2 5292   0.312   6.937   1.353
 1465SOL     OW 5293   1.565   1.148   3.220
 1465SOL    HW1 5294   1.469   1.124   3.207
 1465SOL    HW2 5295   1.589   1.226   3.163
 1466SOL     OW 5296   1.529   1.933   2.194
 1466SOL    HW1 5297   1.553   2.009   2.133
 1466SOL    HW2 5298   1.598   1.925   2.266
 1467SOL     OW 5299   2.003   1.558   3.054
 1467SOL    HW1 5300   2.082   1.605   3.094
 1467SOL    HW2 5301   2.032   1.468   3.020
 1468SOL     OW 5302   4.295   6.306   2.186
 1468SOL    HW1 5303   4.379   6.339   2.230
 1468SOL    HW2 5304   4.296   6.333   2.090
 1469SOL     OW 5305   0.947   1.974   1.452
 1469SOL    HW1 5306   0.891   2.030   1.391
 1469SOL    HW2 5307   0.893   1.945   1.531
 1470SOL     OW 5308   1.098   1.777   2.705
 1470SOL    HW1 5309   1.060   1.858   2.660
 1470SOL    HW2 5310   1.048   1.759   2.789
 1471SOL     OW 5311   1.047   0.394   1.231
 1471SOL    HW1 5312   1.097   0.322   1.182
 1471SOL    HW2 5313   1.000   0.452   1.165
 1472SOL     OW 5314   3.661   5.679   5.997
 1472SOL    HW1 5315   3.640   5.777   5.989
 1472SOL    HW2 5316   3.750   5.668   6.042
 1473SOL     OW 5317   4.510   5.977   5.010
 1473SOL    HW1 5318   4.603   6.014   5.013
 1473SOL    HW2 5319   4.445   6.052   4.999
 1474SOL     OW 5320   5.372   5.372   2.239
 1474SOL    HW1 5321   5.437   5.296   2.243
 1474SOL    HW2 5322   5.419   5.457   2.265
 1475SOL     OW 5323   6.270   0.270   2.144
 1475SOL    HW1 5324   6.302   0.251   2.237
 1475SOL    HW2 5325   6.297   0.196   2.083
 1476SOL     OW 5326   2.798   0.736   1.279
 1476SOL    HW1 5327   2.710   0.764   1.318
 1476SOL    HW2 5328   2.871   0.791   1.320
 1477SOL     OW 5329   4.053   0.057   6.092
 1477SOL    HW1 5330   4.079   0.098   6.179
 1477SOL    HW2 5331   4.045   0.128   6.022
 1478SOL     OW 5332   6.126   5.772   6.467
 1478SOL    HW1 5333   6.096   5.677   6.460
 1478SOL    HW2 5334   6.224   5.778   6.451
 1479SOL     OW 5335   1.682   2.306   0.251
 1479SOL    HW1 5336   1.594   2.353   0.256
 1479SOL    HW2 5337   1.706   2.290   0.155
 1480SOL     OW 5338   3.082   0.759   5.150
 1480SOL    HW1 5339   3.035   0.842   5.121
 1480SOL    HW2 5340   3.125   0.775   5.239
 1481SOL     OW 5341   6.753   3.076   5.726
 1481SOL    HW1 5342   6.850   3.062   5.708
 1481SOL    HW2 5343   6.705   2.988   5.719
 1482SOL     OW 5344   4.581   2.023   1.513
 1482SOL    HW1 5345   4.649   2.002   1.443
 1482SOL    HW2 5346   4.561   1.940   1.565
 1483SOL     OW 5347   5.330   1.775   0.200
 1483SOL    HW1 5348   5.342   1.807   0.294
 1483SOL    HW2 5349   5.361   1.680   0.193
 1484SOL     OW 5350   5.508   4.202   4.646
 1484SOL    HW1 5351   5.571   4.146   4.700
 1484SOL    HW2 5352   5.455   4.260   4.708
 1485SOL     OW 5353   3.646   1.561   3.427
 1485SOL    HW1 5354   3.704   1.535   3.350
 1485SOL    HW2 5355   3.608   1.479   3.469
 1486SOL     OW 5356   5.361   1.515   2.443
 1486SOL    HW1 5357   5.272   1.509   2.490
 1486SOL    HW2 5358   5.426   1.562   2.502
 1487SOL     OW 5359   6.967   2.190   6.339
 1487SOL    HW1 5360   6.923   2.110   6.299
 1487SOL    HW2 5361   0.039   2.167   6.368
 1488SOL     OW 5362   4.872   1.051   3.728
 1488SOL    HW1 5363   4.878   1.058   3.629
 1488SOL    HW2 5364   4.912   1.133   3.770
 1489SOL     OW 5365   4.530   5.340   5.116
 1489SOL    HW1 5366   4.567   5.347   5.209
 1489SOL    HW2 5367   4.584   5.397   5.054
 1490SOL     OW 5368   0.862   3.201   2.420
 1490SOL    HW1 5369   0.873   3.110   2.379
 1490SOL    HW2 5370   0.774   3.240   2.391
 1491SOL     OW 5371   6.870   3.875   2.791
 1491SOL    HW1 5372   6.898   3.874   2.694
 1491SOL    HW2 5373   6.878   3.968   2.826
 1492SOL     OW 5374   6.016   0.736   2.623
 1492SOL    HW1 5375   5.974   0.810   2.570
 1492SOL    HW2 5376   6.075   0.681   2.564
 1493SOL     OW 5377   3.874   6.111   5.159
 1493SOL    HW1 5378   3.948   6.083   5.220
 1493SOL    HW2 5379   3.798   6.047   5.168
 1494SOL     OW 5380   5.058   2.207   6.715
 1494SOL    HW1 5381   5.091   2.252   6.797
 1494SOL    HW2 5382   5.018   2.118   6.739
 1495SOL     OW 5383   6.592   3.207   5.017
 1495SOL    HW1 5384   6.553   3.294   5.045
 1495SOL    HW2 5385   6.520   3.138   5.013
 1496SOL     OW 5386   0.455   1.696   1.487
 1496SOL    HW1 5387   0.390   1.757   1.533
 1496SOL    HW2 5388   0.457   1.608   1.534
 1497SOL     OW 5389   6.439   2.967   2.915
 1497SOL    HW1 5390   6.495   2.886   2.934
 1497SOL    HW2 5391   6.499   3.046   2.905
 1498SOL     OW 5392   2.275   4.990   6.946
 1498SOL    HW1 5393   2.314   5.081   6.960
 1498SOL    HW2 5394   2.182   4.998   6.909
 1499SOL     OW 5395   1.033   2.961   6.404
 1499SOL    HW1 5396   1.086   3.021   6.345
 1499SOL    HW2 5397   1.062   2.974   6.499
 1500SOL     OW 5398   6.877   0.047   0.048
 1500SOL    HW1 5399   6.870   0.055   0.148
 1500SOL    HW2 5400   6.797   0.088   0.006
 1501SOL     OW 5401   5.420   2.695   6.957
 1501SOL    HW1 5402   5.422   2.625   6.886
 1501SOL    HW2 5403   5.355   2.767   6.932
 1502SOL     OW 5404   4.222   0.074   0.297
 1502SOL    HW1 5405   4.217   7.009   0.349
 1502SOL    HW2 5406   4.304   0.125   0.324
 1503SOL     OW 5407   0.372   3.911   1.846
 1503SOL    HW1 5408   0.435   3.840   1.876
 1503SOL    HW2 5409   0.299   3.921   1.912
 1504SOL     OW 5410   0.838   0.371   5.532
 1504SOL    HW1 5411   0.816   0.463   5.499
 1504SOL    HW2 5412   0.835   0.307   5.455
 1505SOL     OW 5413   5.236   0.921   5.344
 1505SOL    HW1 5414   5.332   0.925   5.371
 1505SOL    HW2 5415   5.227   0.864   5.262
 1506SOL     OW 5416   0.526   6.608   0.710
 1506SOL    HW1 5417   0.585   6.664   0.769
 1506SOL    HW2 5418   0.551   6.512   0.721
 1507SOL     OW 5419   1.010   2.014   5.540
 1507SOL    HW1 5420   0.953   2.014   5.622
 1507SOL    HW2 5421   0.952   1.994   5.460
 1508SOL     OW 5422   6.963   1.317   1.810
 1508SOL    HW1 5423   6.953   1.414   1.832
 1508SOL    HW2 5424   6.892   1.290   1.746
 1509SOL     OW 5425   3.550   1.542   5.947
 1509SOL    HW1 5426   3.592   1.628   5.918
 1509SOL    HW2 5427   3.464   1.562   5.995
 1510SOL     OW 5428   4.714   2.261   4.599
 1510SOL    HW1 5429   4.762   2.317   4.667
 1510SOL    HW2 5430   4.760   2.269   4.511
 1511SOL     OW 5431   3.796   2.955   2.260
 1511SOL    HW1 5432   3.710   2.907   2.244
 1511SOL    HW2 5433   3.869   2.911   2.207
 1512SOL     OW 5434   7.020   5.751   1.601
 1512SOL    HW1 5435   6.964   5.680   1.644
 1512SOL    HW2 5436   0.096   5.730   1.614
 1513SOL     OW 5437   3.632   0.788   4.390
 1513SOL    HW1 5438   3.538   0.821   4.381
 1513SOL    HW2 5439   3.643   0.739   4.477
 1514SOL     OW 5440   4.386   2.198   5.687
 1514SOL    HW1 5441   4.382   2.148   5.773
 1514SOL    HW2 5442   4.435   2.284   5.700
 1515SOL     OW 5443   6.113   2.152   3.285
 1515SOL    HW1 5444   6.033   2.103   3.252
 1515SOL    HW2 5445   6.084   2.239   3.326
 1516SOL     OW 5446   6.852   6.528   0.199
 1516SOL    HW1 5447   6.783   6.463   0.168
 1516SOL    HW2 5448   6.842   6.614   0.150
 1517SOL     OW 5449   4.521   6.249   3.312
 1517SOL    HW1 5450   4.481   6.302   3.237
 1517SOL    HW2 5451   4.619   6.238   3.296
 1518SOL     OW 5452   1.428   2.740   0.083
 1518SOL    HW1 5453   1.459   2.738   7.009
 1518SOL    HW2 5454   1.462   2.660   0.131
 1519SOL     OW 5455   6.697   5.533   1.522
 1519SOL    HW1 5456   6.634   5.591   1.471
 1519SOL    HW2 5457   6.674   5.437   1.507
 1520SOL     OW 5458   0.342   4.110   2.139
 1520SOL    HW1 5459   0.289   4.159   2.070
 1520SOL    HW2 5460   0.424   4.163   2.161
 1521SOL     OW 5461   1.825   4.076   6.269
 1521SOL    HW1 5462   1.873   4.114   6.190
 1521SOL    HW2 5463   1.887   4.016   6.320
 1522SOL     OW 5464   6.421   6.283   5.190
 1522SOL    HW1 5465   6.444   6.335   5.108
 1522SOL    HW2 5466   6.399   6.189   5.164
 1523SOL     OW 5467   4.923   5.746   1.059
 1523SOL    HW1 5468   5.005   5.691   1.076
 1523SOL    HW2 5469   4.842   5.691   1.077
 1524SOL     OW 5470   2.414   2.119   1.928
 1524SOL    HW1 5471   2.430   2.152   2.022
 1524SOL    HW2 5472   2.451   2.185   1.863
 1525SOL     OW 5473   6.694   2.458   0.170
 1525SOL    HW1 5474   6.770   2.394   0.180
 1525SOL    HW2 5475   6.612   2.419   0.213
 1526SOL     OW 5476   6.235   6.976   6.292
 1526SOL    HW1 5477   6.140   6.985   6.321
 1526SOL    HW2 5478   6.290   0.028   6.332
 1527SOL     OW 5479   3.803   1.114   5.237
 1527SOL    HW1 5480   3.734   1.136   5.168
 1527SOL    HW2 5481   3.828   1.018   5.231
 1528SOL     OW 5482   4.743   5.589   2.251
 1528SOL    HW1 5483   4.762   5.683   2.224
 1528SOL    HW2 5484   4.716   5.586   2.347
 1529SOL     OW 5485   3.691   0.560   0.441
 1529SOL    HW1 5486   3.672   0.630   0.511
 1529SOL    HW2 5487   3.605   0.530   0.400
 1530SOL     OW 5488   3.546   1.563   2.011
 1530SOL    HW1 5489   3.522   1.512   2.094
 1530SOL    HW2 5490   3.474   1.629   1.991
 1531SOL     OW 5491   4.368   0.990   5.047
 1531SOL    HW1 5492   4.301   0.976   4.974
 1531SOL    HW2 5493   4.331   0.956   5.133
 1532SOL     OW 5494   2.409   3.432   6.144
 1532SOL    HW1 5495   2.314   3.432   6.115
 1532SOL    HW2 5496   2.439   3.525   6.164
 1533SOL     OW 5497   5.760   3.824   6.932
 1533SOL    HW1 5498   5.826   3.751   6.914
 1533SOL    HW2 5499   5.667   3.789   6.916
 1534SOL     OW 5500   2.360   4.451   6.456
 1534SOL    HW1 5501   2.340   4.447   6.554
 1534SOL    HW2 5502   2.289   4.402   6.405
 1535SOL     OW 5503   5.088   6.772   3.835
 1535SOL    HW1 5504   5.158   6.769   3.907
 1535SOL    HW2 5505   5.090   6.686   3.783
 1536SOL     OW 5506   3.989   4.546   5.256
 1536SOL    HW1 5507   4.079   4.537   5.213
 1536SOL    HW2 5508   3.936   4.463   5.240
 1537SOL     OW 5509   4.411   6.864   3.593
 1537SOL    HW1 5510   4.397   6.790   3.527
 1537SOL    HW2 5511   4.345   6.854   3.668
 1538SOL     OW 5512   4.102   5.433   6.146
 1538SOL    HW1 5513   4.182   5.416   6.203
 1538SOL    HW2 5514   4.115   5.390   6.057
 1539SOL     OW 5515   4.042   3.795   1.781
 1539SOL    HW1 5516   4.023   3.891   1.799
 1539SOL    HW2 5517   4.017   3.773   1.687
 1540SOL     OW 5518   1.379   5.763   6.272
 1540SOL    HW1 5519   1.355   5.729   6.181
 1540SOL    HW2 5520   1.476   5.786   6.275
 1541SOL     OW 5521   3.931   3.485   3.094
 1541SOL    HW1 5522   3.992   3.526   3.162
 1541SOL    HW2 5523   3.984   3.461   3.013
 1542SOL     OW 5524   5.916   6.071   2.480
 1542SOL    HW1 5525   5.895   5.990   2.535
 1542SOL    HW2 5526   5.835   6.128   2.474
 1543SOL     OW 5527   3.904   4.820   5.258
 1543SOL    HW1 5528   3.937   4.728   5.278
 1543SOL    HW2 5529   3.843   4.851   5.332
 1544SOL     OW 5530   3.449   3.422   3.012
 1544SOL    HW1 5531   3.411   3.371   2.935
 1544SOL    HW2 5532   3.534   3.467   2.984
 1545SOL     OW 5533   4.859   0.808   3.900
 1545SOL    HW1 5534   4.868   0.832   3.804
 1545SOL    HW2 5535   4.878   0.889   3.957
 1546SOL     OW 5536   3.889   6.060   6.110
 1546SOL    HW1 5537   3.897   5.989   6.040
 1546SOL    HW2 5538   3.921   6.147   6.072
 1547SOL     OW 5539   1.299   3.730   3.032
 1547SOL    HW1 5540   1.244   3.647   3.041
 1547SOL    HW2 5541   1.286   3.769   2.940
 1548SOL     OW 5542   4.875   3.784   5.774
 1548SOL    HW1 5543   4.881   3.685   5.786
 1548SOL    HW2 5544   4.779   3.810   5.760
 1549SOL     OW 5545   4.876   1.269   2.736
 1549SOL    HW1 5546   4.949   1.260   2.669
 1549SOL    HW2 5547   4.845   1.178   2.763
 1550SOL     OW 5548   3.120   4.089   6.935
 1550SOL    HW1 5549   3.206   4.058   6.974
 1550SOL    HW2 5550   3.088   4.171   6.984
 1551SOL     OW 5551   1.831   4.511   5.940
 1551SOL    HW1 5552   1.928   4.491   5.922
 1551SOL    HW2 5553   1.785   4.532   5.854
 1552SOL     OW 5554   0.200   6.069   6.551
 1552SOL    HW1 5555   0.220   6.138   6.620
 1552SOL    HW2 5556   0.281   6.055   6.494
 1553SOL     OW 5557   0.381   1.259   5.805
 1553SOL    HW1 5558   0.284   1.236   5.815
 1553SOL    HW2 5559   0.420   1.206   5.729
 1554SOL     OW 5560   4.547   1.348   2.858
 1554SOL    HW1 5561   4.565   1.446   2.851
 1554SOL    HW2 5562   4.591   1.313   2.940
 1555SOL     OW 5563   5.261   2.033   6.928
 1555SOL    HW1 5564   5.281   2.107   6.991
 1555SOL    HW2 5565   5.286   2.060   6.835
 1556SOL     OW 5566   3.069   0.952   1.023
 1556SOL    HW1 5567   3.120   0.974   1.106
 1556SOL    HW2 5568   3.028   0.862   1.033
 1557SOL     OW 5569   1.563   0.872   6.294
 1557SOL    HW1 5570   1.600   0.965   6.288
 1557SOL    HW2 5571   1.533   0.843   6.203
 1558SOL     OW 5572   5.177   0.556   4.884
 1558SOL    HW1 5573   5.203   0.493   4.957
 1558SOL    HW2 5574   5.136   0.505   4.809
 1559SOL     OW 5575   6.808   2.569   6.825
 1559SOL    HW1 5576   6.852   2.496   6.878
 1559SOL    HW2 5577   6.848   2.657   6.849
 1560SOL     OW 5578   2.033   1.495   5.693
 1560SOL    HW1 5579   2.101   1.503   5.620
 1560SOL    HW2 5580   2.064   1.544   5.774
 1561SOL     OW 5581   6.280   6.485   4.592
 1561SOL    HW1 5582   6.223   6.404   4.575
 1561SOL    HW2 5583   6.376   6.457   4.603
 1562SOL     OW 5584   4.029   5.703   2.820
 1562SOL    HW1 5585   4.022   5.629   2.753
 1562SOL    HW2 5586   4.070   5.669   2.904
 1563SOL     OW 5587   1.959   0.513   6.235
 1563SOL    HW1 5588   1.918   0.570   6.164
 1563SOL    HW2 5589   1.893   0.499   6.309
 1564SOL     OW 5590   1.226   3.024   2.980
 1564SOL    HW1 5591   1.300   3.089   2.996
 1564SOL    HW2 5592   1.207   2.974   3.065
 1565SOL     OW 5593   4.225   5.074   4.814
 1565SOL    HW1 5594   4.144   5.128   4.836
 1565SOL    HW2 5595   4.202   4.977   4.818
 1566SOL     OW 5596   5.288   5.186   3.561
 1566SOL    HW1 5597   5.224   5.183   3.637
 1566SOL    HW2 5598   5.267   5.113   3.496
 1567SOL     OW 5599   6.036   5.713   0.113
 1567SOL    HW1 5600   5.988   5.780   0.170
 1567SOL    HW2 5601   5.988   5.625   0.117
 1568SOL     OW 5602   1.686   5.611   1.435
 1568SOL    HW1 5603   1.745   5.687   1.463
 1568SOL    HW2 5604   1.675   5.548   1.512
 1569SOL     OW 5605   3.567   6.559   3.627
 1569SOL    HW1 5606   3.582   6.470   3.585
 1569SOL    HW2 5607   3.560   6.549   3.726
 1570SOL     OW 5608   1.914   6.574   0.837
 1570SOL    HW1 5609   1.830   6.520   0.837
 1570SOL    HW2 5610   1.983   6.530   0.780
 1571SOL     OW 5611   6.013   1.372   1.895
 1571SOL    HW1 5612   5.994   1.459   1.942
 1571SOL    HW2 5613   6.070   1.389   1.815
 1572SOL     OW 5614   0.602   6.905   0.514
 1572SOL    HW1 5615   0.666   6.874   0.443
 1572SOL    HW2 5616   0.653   6.933   0.595
 1573SOL     OW 5617   6.188   3.442   2.012
 1573SOL    HW1 5618   6.234   3.496   2.083
 1573SOL    HW2 5619   6.089   3.444   2.026
 1574SOL     OW 5620   0.074   0.915   2.786
 1574SOL    HW1 5621   0.166   0.940   2.754
 1574SOL    HW2 5622   0.082   0.865   2.872
 1575SOL     OW 5623   2.951   1.981   0.881
 1575SOL    HW1 5624   2.852   1.975   0.888
 1575SOL    HW2 5625   2.992   1.980   0.972
 1576SOL     OW 5626   1.091   0.671   3.366
 1576SOL    HW1 5627   1.118   0.575   3.362
 1576SOL    HW2 5628   1.171   0.729   3.348
 1577SOL     OW 5629   2.451   0.678   5.210
 1577SOL    HW1 5630   2.417   0.746   5.275
 1577SOL    HW2 5631   2.548   0.694   5.193
 1578SOL     OW 5632   5.866   2.633   5.665
 1578SOL    HW1 5633   5.937   2.639   5.735
 1578SOL    HW2 5634   5.901   2.671   5.579
 1579SOL     OW 5635   0.984   2.021   2.616
 1579SOL    HW1 5636   0.898   2.068   2.635
 1579SOL    HW2 5637   1.004   2.026   2.518
 1580SOL     OW 5638   3.194   4.053   4.092
 1580SOL    HW1 5639   3.275   4.104   4.062
 1580SOL    HW2 5640   3.187   4.058   4.192
 1581SOL     OW 5641   0.033   4.068   5.376
 1581SOL    HW1 5642   0.076   4.006   5.309
 1581SOL    HW2 5643   0.027   4.022   5.464
 1582SOL     OW 5644   1.931   0.097   4.304
 1582SOL    HW1 5645   1.895   0.054   4.386
 1582SOL    HW2 5646   1.917   0.037   4.225
 1583SOL     OW 5647   1.120   4.924   3.632
 1583SOL    HW1 5648   1.151   4.833   3.660
 1583SOL    HW2 5649   1.199   4.982   3.612
 1584SOL     OW 5650   1.615   6.169   6.202
 1584SOL    HW1 5651   1.620   6.265   6.230
 1584SOL    HW2 5652   1.540   6.124   6.251
 1585SOL     OW 5653   5.657   1.533   3.169
 1585SOL    HW1 5654   5.683   1.438   3.151
 1585SOL    HW2 5655   5.564   1.549   3.134
 1586SOL     OW 5656   3.576   4.923   2.158
 1586SOL    HW1 5657   3.606   4.855   2.091
 1586SOL    HW2 5658   3.479   4.910   2.178
 1587SOL     OW 5659   3.081   5.469   6.335
 1587SOL    HW1 5660   3.071   5.402   6.261
 1587SOL    HW2 5661   3.112   5.556   6.297
 1588SOL     OW 5662   4.177   0.931   3.035
 1588SOL    HW1 5663   4.255   0.919   2.974
 1588SOL    HW2 5664   4.193   1.010   3.094
 1589SOL     OW 5665   6.156   3.253   1.553
 1589SOL    HW1 5666   6.219   3.224   1.481
 1589SOL    HW2 5667   6.174   3.200   1.636
 1590SOL     OW 5668   3.981   6.099   5.720
 1590SOL    HW1 5669   4.059   6.054   5.676
 1590SOL    HW2 5670   3.903   6.037   5.721
 1591SOL     OW 5671   6.772   5.464   2.373
 1591SOL    HW1 5672   6.751   5.525   2.296
 1591SOL    HW2 5673   6.768   5.516   2.459
 1592SOL     OW 5674   2.287   4.418   6.717
 1592SOL    HW1 5675   2.206   4.360   6.715
 1592SOL    HW2 5676   2.369   4.362   6.726
 1593SOL     OW 5677   1.653   5.921   5.377
 1593SOL    HW1 5678   1.577   5.881   5.429
 1593SOL    HW2 5679   1.621   5.945   5.286
 1594SOL     OW 5680   0.296   6.337   2.154
 1594SOL    HW1 5681   0.207   6.373   2.124
 1594SOL    HW2 5682   0.281   6.261   2.218
 1595SOL     OW 5683   1.156   5.881   0.332
 1595SOL    HW1 5684   1.202   5.910   0.248
 1595SOL    HW2 5685   1.188   5.791   0.358
 1596SOL     OW 5686   0.422   2.428   4.055
 1596SOL    HW1 5687   0.339   2.484   4.065
 1596SOL    HW2 5688   0.420   2.381   3.967
 1597SOL     OW 5689   1.687   6.023   0.484
 1597SOL    HW1 5690   1.719   6.025   0.579
 1597SOL    HW2 5691   1.588   6.038   0.481
 1598SOL     OW 5692   0.753   3.846   6.091
 1598SOL    HW1 5693   0.753   3.914   6.017
 1598SOL    HW2 5694   0.737   3.892   6.178
 1599SOL     OW 5695   4.793   4.768   5.238
 1599SOL    HW1 5696   4.830   4.747   5.148
 1599SOL    HW2 5697   4.789   4.685   5.293
 1600SOL     OW 5698   4.254   1.517   3.822
 1600SOL    HW1 5699   4.248   1.476   3.913
 1600SOL    HW2 5700   4.254   1.617   3.831
 1601SOL     OW 5701   0.103   4.631   4.803
 1601SOL    HW1 5702   0.198   4.610   4.782
 1601SOL    HW2 5703   0.090   4.631   4.902
 1602SOL     OW 5704   3.536   5.114   3.137
 1602SOL    HW1 5705   3.575   5.200   3.168
 1602SOL    HW2 5706   3.465   5.085   3.201
 1603SOL     OW 5707   0.809   6.384   2.859
 1603SOL    HW1 5708   0.882   6.336   2.907
 1603SOL    HW2 5709   0.836   6.398   2.763
 1604SOL     OW 5710   5.581   4.993   1.598
 1604SOL    HW1 5711   5.484   5.008   1.615
 1604SOL    HW2 5712   5.602   5.014   1.502
 1605SOL     OW 5713   6.609   6.061   1.283
 1605SOL    HW1 5714   6.553   6.054   1.365
 1605SOL    HW2 5715   6.702   6.085   1.309
 1606SOL     OW 5716   3.143   0.645   4.692
 1606SOL    HW1 5717   3.203   0.674   4.617
 1606SOL    HW2 5718   3.177   0.682   4.778
 1607SOL     OW 5719   4.193   0.883   1.221
 1607SOL    HW1 5720   4.097   0.908   1.210
 1607SOL    HW2 5721   4.248   0.966   1.234
 1608SOL     OW 5722   1.118   0.474   3.656
 1608SOL    HW1 5723   1.113   0.503   3.560
 1608SOL    HW2 5724   1.142   0.378   3.661
 1609SOL     OW 5725   3.755   0.150   0.556
 1609SOL    HW1 5726   3.662   0.187   0.550
 1609SOL    HW2 5727   3.781   0.110   0.468
 1610SOL     OW 5728   6.039   4.419   0.054
 1610SOL    HW1 5729   5.967   4.395   7.010
 1610SOL    HW2 5730   6.108   4.474   0.008
 1611SOL     OW 5731   2.198   3.635   1.159
 1611SOL    HW1 5732   2.100   3.655   1.158
 1611SOL    HW2 5733   2.212   3.536   1.155
 1612SOL     OW 5734   2.796   0.442   5.691
 1612SOL    HW1 5735   2.763   0.509   5.758
 1612SOL    HW2 5736   2.725   0.426   5.622
 1613SOL     OW 5737   2.111   5.290   1.743
 1613SOL    HW1 5738   2.111   5.191   1.731
 1613SOL    HW2 5739   2.132   5.334   1.656
 1614SOL     OW 5740   5.976   3.370   0.136
 1614SOL    HW1 5741   5.974   3.426   0.053
 1614SOL    HW2 5742   5.900   3.304   0.133
 1615SOL     OW 5743   6.191   5.081   0.914
 1615SOL    HW1 5744   6.146   5.066   1.002
 1615SOL    HW2 5745   6.175   5.003   0.854
 1616SOL     OW 5746   3.008   0.982   4.949
 1616SOL    HW1 5747   2.994   1.014   4.856
 1616SOL    HW2 5748   3.024   1.060   5.010
 1617SOL     OW 5749   6.175   0.148   2.735
 1617SOL    HW1 5750   6.107   0.075   2.734
 1617SOL    HW2 5751   6.130   0.236   2.741
 1618SOL     OW 5752   1.797   4.227   1.894
 1618SOL    HW1 5753   1.756   4.315   1.870
 1618SOL    HW2 5754   1.725   4.161   1.915
 1619SOL     OW 5755   1.532   3.371   2.154
 1619SOL    HW1 5756   1.593   3.314   2.210
 1619SOL    HW2 5757   1.440   3.369   2.193
 1620SOL     OW 5758   2.735   4.783   1.807
 1620SOL    HW1 5759   2.806   4.757   1.742
 1620SOL    HW2 5760   2.755   4.742   1.896
 1621SOL     OW 5761   0.079   1.114   0.379
 1621SOL    HW1 5762   0.169   1.145   0.348
 1621SOL    HW2 5763   0.089   1.065   0.466
 1622SOL     OW 5764   0.125   2.959   4.960
 1622SOL    HW1 5765   0.122   3.035   5.025
 1622SOL    HW2 5766   0.202   2.972   4.897
 1623SOL     OW 5767   2.229   3.049   5.522
 1623SOL    HW1 5768   2.215   2.994   5.605
 1623SOL    HW2 5769   2.220   2.990   5.441
 1624SOL     OW 5770   2.814   0.305   4.893
 1624SOL    HW1 5771   2.834   0.226   4.951
 1624SOL    HW2 5772   2.728   0.347   4.923
 1625SOL     OW 5773   0.891   5.410   1.329
 1625SOL    HW1 5774   0.983   5.415   1.290
 1625SOL    HW2 5775   0.895   5.373   1.421
 1626SOL     OW 5776   4.395   1.990   6.719
 1626SOL    HW1 5777   4.375   1.949   6.808
 1626SOL    HW2 5778   4.483   1.956   6.685
 1627SOL     OW 5779   6.908   3.844   3.474
 1627SOL    HW1 5780   6.959   3.771   3.520
 1627SOL    HW2 5781   6.857   3.805   3.397
 1628SOL     OW 5782   4.723   4.438   0.246
 1628SOL    HW1 5783   4.649   4.375   0.269
 1628SOL    HW2 5784   4.759   4.416   0.156
 1629SOL     OW 5785   2.865   0.695   4.054
 1629SOL    HW1 5786   2.947   0.734   4.012
 1629SOL    HW2 5787   2.799   0.769   4.071
 1630SOL     OW 5788   1.775   5.155   5.930
 1630SOL    HW1 5789   1.777   5.055   5.917
 1630SOL    HW2 5790   1.737   5.198   5.849
 1631SOL     OW 5791   1.226   2.632   6.737
 1631SOL    HW1 5792   1.295   2.693   6.700
 1631SOL    HW2 5793   1.148   2.685   6.770
 1632SOL     OW 5794   0.370   1.930   6.893
 1632SOL    HW1 5795   0.297   1.994   6.917
 1632SOL    HW2 5796   0.439   1.978   6.839
 1633SOL     OW 5797   5.255   3.483   4.683
 1633SOL    HW1 5798   5.220   3.424   4.755
 1633SOL    HW2 5799   5.341   3.525   4.712
 1634SOL     OW 5800   4.544   5.357   5.709
 1634SOL    HW1 5801   4.524   5.352   5.806
 1634SOL    HW2 5802   4.611   5.286   5.685
 1635SOL     OW 5803   6.900   5.464   5.758
 1635SOL    HW1 5804   6.813   5.471   5.709
 1635SOL    HW2 5805   6.885   5.486   5.854
 1636SOL     OW 5806   3.097   4.420   1.668
 1636SOL    HW1 5807   3.051   4.465   1.746
 1636SOL    HW2 5808   3.148   4.340   1.701
 1637SOL     OW 5809   0.764   0.822   2.920
 1637SOL    HW1 5810   0.816   0.907   2.917
 1637SOL    HW2 5811   0.825   0.746   2.944
 1638SOL     OW 5812   0.844   4.329   3.241
 1638SOL    HW1 5813   0.792   4.412   3.258
 1638SOL    HW2 5814   0.917   4.321   3.309
 1639SOL     OW 5815   5.089   6.989   2.942
 1639SOL    HW1 5816   5.071   0.059   2.979
 1639SOL    HW2 5817   5.171   6.950   2.985
 1640SOL     OW 5818   5.721   0.900   0.529
 1640SOL    HW1 5819   5.763   0.990   0.540
 1640SOL    HW2 5820   5.670   0.877   0.612
 1641SOL     OW 5821   4.817   2.664   3.468
 1641SOL    HW1 5822   4.837   2.761   3.475
 1641SOL    HW2 5823   4.762   2.646   3.387
 1642SOL     OW 5824   5.782   3.425   6.599
 1642SOL    HW1 5825   5.794   3.510   6.547
 1642SOL    HW2 5826   5.687   3.395   6.592
 1643SOL     OW 5827   2.999   4.827   4.329
 1643SOL    HW1 5828   2.934   4.830   4.253
 1643SOL    HW2 5829   2.949   4.819   4.415
 1644SOL     OW 5830   0.005   3.257   0.701
 1644SOL    HW1 5831   6.961   3.258   0.777
 1644SOL    HW2 5832   0.096   3.281   0.734
 1645SOL     OW 5833   3.263   5.660   5.560
 1645SOL    HW1 5834   3.247   5.695   5.652
 1645SOL    HW2 5835   3.298   5.566   5.566
 1646SOL     OW 5836   3.003   5.764   0.517
 1646SOL    HW1 5837   2.923   5.769   0.457
 1646SOL    HW2 5838   3.032   5.857   0.541
 1647SOL     OW 5839   6.117   3.313   4.772
 1647SOL    HW1 5840   6.061   3.231   4.783
 1647SOL    HW2 5841   6.188   3.296   4.704
 1648SOL     OW 5842   5.527   5.181   1.088
 1648SOL    HW1 5843   5.619   5.217   1.075
 1648SOL    HW2 5844   5.481   5.233   1.160
 1649SOL     OW 5845   3.175   0.776   4.221
 1649SOL    HW1 5846   3.188   0.827   4.135
 1649SOL    HW2 5847   3.175   0.678   4.201
 1650SOL     OW 5848   2.003   6.205   5.787
 1650SOL    HW1 5849   2.046   6.168   5.869
 1650SOL    HW2 5850   2.050   6.289   5.761
 1651SOL     OW 5851   0.516   1.956   1.234
 1651SOL    HW1 5852   0.589   1.890   1.217
 1651SOL    HW2 5853   0.465   1.973   1.150
 1652SOL     OW 5854   1.004   3.749   2.603
 1652SOL    HW1 5855   0.968   3.690   2.531
 1652SOL    HW2 5856   0.928   3.795   2.649
 1653SOL     OW 5857   1.565   0.364   1.082
 1653SOL    HW1 5858   1.517   0.333   1.164
 1653SOL    HW2 5859   1.562   0.463   1.077
 1654SOL     OW 5860   6.801   3.606   1.059
 1654SOL    HW1 5861   6.744   3.648   1.129
 1654SOL    HW2 5862   6.893   3.645   1.063
 1655SOL     OW 5863   6.347   2.128   5.116
 1655SOL    HW1 5864   6.252   2.113   5.090
 1655SOL    HW2 5865   6.378   2.053   5.175
 1656SOL     OW 5866   2.455   4.529   1.761
 1656SOL    HW1 5867   2.434   4.488   1.850
 1656SOL    HW2 5868   2.435   4.627   1.763
 1657SOL     OW 5869   6.775   1.126   3.885
 1657SOL    HW1 5870   6.858   1.162   3.842
 1657SOL    HW2 5871   6.710   1.200   3.899
 1658SOL     OW 5872   1.413   0.008   1.478
 1658SOL    HW1 5873   1.316   0.030   1.464
 1658SOL    HW2 5874   1.433   0.005   1.576
 1659SOL     OW 5875   3.764   0.354   5.798
 1659SOL    HW1 5876   3.828   0.405   5.855
 1659SOL    HW2 5877   3.684   0.328   5.853
 1660SOL     OW 5878   1.461   5.398   4.252
 1660SOL    HW1 5879   1.399   5.462   4.297
 1660SOL    HW2 5880   1.459   5.310   4.301
 1661SOL     OW 5881   2.107   0.872   1.904
 1661SOL    HW1 5882   2.032   0.909   1.958
 1661SOL    HW2 5883   2.075   0.853   1.811
 1662SOL     OW 5884   6.717   0.276   4.094
 1662SOL    HW1 5885   6.652   0.240   4.161
 1662SOL    HW2 5886   6.678   0.268   4.002
 1663SOL     OW 5887   3.875   6.432   2.375
 1663SOL    HW1 5888   3.916   6.519   2.403
 1663SOL    HW2 5889   3.945   6.361   2.371
 1664SOL     OW 5890   1.807   6.634   4.687
 1664SOL    HW1 5891   1.746   6.671   4.757
 1664SOL    HW2 5892   1.902   6.636   4.721
 1665SOL     OW 5893   6.913   1.560   3.080
 1665SOL    HW1 5894   6.950   1.598   2.995
 1665SOL    HW2 5895   6.815   1.544   3.069
 1666SOL     OW 5896   5.563   2.643   0.166
 1666SOL    HW1 5897   5.502   2.671   0.092
 1666SOL    HW2 5898   5.614   2.561   0.139
 1667SOL     OW 5899   6.692   6.186   1.675
 1667SOL    HW1 5900   6.673   6.229   1.587
 1667SOL    HW2 5901   6.606   6.167   1.722
 1668SOL     OW 5902   5.406   6.284   6.008
 1668SOL    HW1 5903   5.436   6.247   5.920
 1668SOL    HW2 5904   5.323   6.338   5.995
 1669SOL     OW 5905   0.426   5.930   6.418
 1669SOL    HW1 5906   0.395   5.858   6.356
 1669SOL    HW2 5907   0.518   5.909   6.451
 1670SOL     OW 5908   0.350   3.894   5.901
 1670SOL    HW1 5909   0.388   3.987   5.893
 1670SOL    HW2 5910   0.421   3.832   5.935
 1671SOL     OW 5911   4.804   2.014   1.340
 1671SOL    HW1 5912   4.866   2.064   1.401
 1671SOL    HW2 5913   4.775   2.074   1.265
 1672SOL     OW 5914   1.772   3.078   0.941
 1672SOL    HW1 5915   1.727   3.018   0.875
 1672SOL    HW2 5916   1.726   3.070   1.030
 1673SOL     OW 5917   0.520   2.700   4.262
 1673SOL    HW1 5918   0.574   2.776   4.228
 1673SOL    HW2 5919   0.568   2.614   4.243
 1674SOL     OW 5920   0.274   4.006   2.374
 1674SOL    HW1 5921   0.315   4.029   2.285
 1674SOL    HW2 5922   0.342   4.019   2.446
 1675SOL     OW 5923   4.163   0.373   6.345
 1675SOL    HW1 5924   4.201   0.435   6.276
 1675SOL    HW2 5925   4.180   0.278   6.317
 1676SOL     OW 5926   2.022   2.072   1.894
 1676SOL    HW1 5927   2.017   2.127   1.811
 1676SOL    HW2 5928   2.112   2.030   1.901
 1677SOL     OW 5929   3.183   3.035   5.405
 1677SOL    HW1 5930   3.191   3.112   5.341
 1677SOL    HW2 5931   3.180   2.949   5.354
 1678SOL     OW 5932   4.559   4.505   4.426
 1678SOL    HW1 5933   4.536   4.523   4.521
 1678SOL    HW2 5934   4.521   4.577   4.368
 1679SOL     OW 5935   2.522   2.489   4.501
 1679SOL    HW1 5936   2.483   2.512   4.591
 1679SOL    HW2 5937   2.529   2.572   4.445
 1680SOL     OW 5938   0.100   3.651   4.664
 1680SOL    HW1 5939   0.020   3.697   4.701
 1680SOL    HW2 5940   0.109   3.561   4.706
 1681SOL     OW 5941   6.408   5.857   6.808
 1681SOL    HW1 5942   6.435   5.954   6.812
 1681SOL    HW2 5943   6.317   5.846   6.848
 1682SOL     OW 5944   0.736   1.235   4.781
 1682SOL    HW1 5945   0.725   1.136   4.779
 1682SOL    HW2 5946   0.807   1.262   4.715
 1683SOL     OW 5947   4.425   5.351   1.570
 1683SOL    HW1 5948   4.522   5.351   1.592
 1683SOL    HW2 5949   4.376   5.411   1.633
 1684SOL     OW 5950   1.403   6.073   2.686
 1684SOL    HW1 5951   1.480   6.124   2.648
 1684SOL    HW2 5952   1.431   5.978   2.703
 1685SOL     OW 5953   2.264   0.667   5.661
 1685SOL    HW1 5954   2.171   0.632   5.657
 1685SOL    HW2 5955   2.327   0.594   5.687
 1686SOL     OW 5956   2.587   5.421   4.714
 1686SOL    HW1 5957   2.522   5.414   4.639
 1686SOL    HW2 5958   2.680   5.419   4.679
 1687SOL     OW 5959   2.433   3.588   1.467
 1687SOL    HW1 5960   2.429   3.664   1.402
 1687SOL    HW2 5961   2.360   3.598   1.535
 1688SOL     OW 5962   2.078   2.241   4.517
 1688SOL    HW1 5963   2.133   2.255   4.599
 1688SOL    HW2 5964   2.012   2.168   4.533
 1689SOL     OW 5965   5.798   1.337   2.509
 1689SOL    HW1 5966   5.714   1.282   2.508
 1689SOL    HW2 5967   5.841   1.330   2.598
 1690SOL     OW 5968   1.686   3.030   3.853
 1690SOL    HW1 5969   1.705   3.124   3.824
 1690SOL    HW2 5970   1.687   3.024   3.952
 1691SOL     OW 5971   5.946   3.792   2.887
 1691SOL    HW1 5972   6.011   3.868   2.881
 1691SOL    HW2 5973   5.883   3.807   2.963
 1692SOL     OW 5974   6.013   6.942   1.616
 1692SOL    HW1 5975   5.979   6.849   1.599
 1692SOL    HW2 5976   6.019   6.992   1.530
 1693SOL     OW 5977   0.637   2.546   1.785
 1693SOL    HW1 5978   0.720   2.547   1.730
 1693SOL    HW2 5979   0.616   2.452   1.813
 1694SOL     OW 5980   5.350   0.538   3.135
 1694SOL    HW1 5981   5.411   0.572   3.207
 1694SOL    HW2 5982   5.378   0.446   3.108
 1695SOL     OW 5983   3.183   1.673   6.474
 1695SOL    HW1 5984   3.142   1.764   6.477
 1695SOL    HW2 5985   3.150   1.624   6.394
 1696SOL     OW 5986   4.726   4.324   0.934
 1696SOL    HW1 5987   4.818   4.294   0.913
 1696SOL    HW2 5988   4.664   4.246   0.935
 1697SOL     OW 5989   6.040   6.431   1.361
 1697SOL    HW1 5990   5.948   6.406   1.331
 1697SOL    HW2 5991   6.047   6.530   1.369
 1698SOL     OW 5992   4.242   0.820   6.895
 1698SOL    HW1 5993   4.281   0.786   6.809
 1698SOL    HW2 5994   4.174   0.755   6.928
 1699SOL     OW 5995   2.349   1.040   0.635
 1699SOL    HW1 5996   2.329   0.967   0.701
 1699SOL    HW2 5997   2.352   1.128   0.683
 1700SOL     OW 5998   5.622   2.129   2.951
 1700SOL    HW1 5999   5.663   2.052   2.902
 1700SOL    HW2 6000   5.694   2.184   2.993
 1701SOL     OW 6001   5.253   4.150   6.235
 1701SOL    HW1 6002   5.349   4.125   6.237
 1701SOL    HW2 6003   5.223   4.165   6.141
 1702SOL     OW 6004   0.036   2.716   0.152
 1702SOL    HW1 6005   0.099   2.651   0.194
 1702SOL    HW2 6006   0.083   2.803   0.139
 1703SOL     OW 6007   3.334   3.027   2.141
 1703SOL    HW1 6008   3.305   2.961   2.072
 1703SOL    HW2 6009   3.388   3.099   2.097
 1704SOL     OW 6010   0.932   2.408   1.213
 1704SOL    HW1 6011   0.933   2.315   1.177
 1704SOL    HW2 6012   0.898   2.471   1.143
 1705SOL     OW 6013   3.803   1.986   1.577
 1705SOL    HW1 6014   3.790   2.083   1.557
 1705SOL    HW2 6015   3.893   1.972   1.618
 1706SOL     OW 6016   5.013   1.277   1.816
 1706SOL    HW1 6017   5.000   1.183   1.784
 1706SOL    HW2 6018   4.971   1.340   1.751
 1707SOL     OW 6019   5.516   1.862   2.404
 1707SOL    HW1 6020   5.546   1.898   2.315
 1707SOL    HW2 6021   5.474   1.936   2.456
 1708SOL     OW 6022   5.128   5.313   2.320
 1708SOL    HW1 6023   5.129   5.234   2.381
 1708SOL    HW2 6024   5.220   5.327   2.283
 1709SOL     OW 6025   3.068   5.664   1.642
 1709SOL    HW1 6026   3.163   5.658   1.672
 1709SOL    HW2 6027   3.021   5.736   1.693
 1710SOL     OW 6028   5.111   5.506   3.931
 1710SOL    HW1 6029   5.109   5.538   4.026
 1710SOL    HW2 6030   5.178   5.432   3.923
 1711SOL     OW 6031   0.421   4.547   4.405
 1711SOL    HW1 6032   0.444   4.460   4.450
 1711SOL    HW2 6033   0.448   4.543   4.309
 1712SOL     OW 6034   6.991   3.223   5.875
 1712SOL    HW1 6035   7.010   3.131   5.908
 1712SOL    HW2 6036   7.017   3.290   5.944
 1713SOL     OW 6037   4.307   2.206   2.190
 1713SOL    HW1 6038   4.373   2.228   2.262
 1713SOL    HW2 6039   4.306   2.280   2.123
 1714SOL     OW 6040   3.584   2.040   5.559
 1714SOL    HW1 6041   3.534   1.976   5.501
 1714SOL    HW2 6042   3.541   2.043   5.649
 1715SOL     OW 6043   0.161   4.591   2.947
 1715SOL    HW1 6044   0.143   4.612   2.851
 1715SOL    HW2 6045   0.113   4.656   3.005
 1716SOL     OW 6046   4.371   6.884   3.042
 1716SOL    HW1 6047   4.353   6.953   2.972
 1716SOL    HW2 6048   4.411   6.928   3.122
 1717SOL     OW 6049   2.673   6.322   5.956
 1717SOL    HW1 6050   2.695   6.419   5.954
 1717SOL    HW2 6051   2.730   6.273   5.890
 1718SOL     OW 6052   2.464   2.426   1.532
 1718SOL    HW1 6053   2.556   2.386   1.527
 1718SOL    HW2 6054   2.434   2.454   1.441
 1719SOL     OW 6055   1.705   3.795   0.806
 1719SOL    HW1 6056   1.707   3.740   0.723
 1719SOL    HW2 6057   1.734   3.740   0.884
 1720SOL     OW 6058   0.529   2.614   0.199
 1720SOL    HW1 6059   0.455   2.656   0.147
 1720SOL    HW2 6060   0.608   2.600   0.140
 1721SOL     OW 6061   1.555   6.455   1.496
 1721SOL    HW1 6062   1.580   6.497   1.408
 1721SOL    HW2 6063   1.473   6.399   1.484
 1722SOL     OW 6064   4.156   2.292   4.158
 1722SOL    HW1 6065   4.076   2.266   4.211
 1722SOL    HW2 6066   4.129   2.314   4.064
 1723SOL     OW 6067   6.691   2.715   2.535
 1723SOL    HW1 6068   6.607   2.766   2.558
 1723SOL    HW2 6069   6.669   2.619   2.523
 1724SOL     OW 6070   6.513   2.336   0.710
 1724SOL    HW1 6071   6.521   2.247   0.666
 1724SOL    HW2 6072   6.419   2.352   0.738
 1725SOL     OW 6073   2.414   4.802   6.796
 1725SOL    HW1 6074   2.385   4.886   6.840
 1725SOL    HW2 6075   2.512   4.788   6.813
 1726SOL     OW 6076   5.132   4.394   5.724
 1726SOL    HW1 6077   5.053   4.337   5.699
 1726SOL    HW2 6078   5.216   4.350   5.691
 1727SOL     OW 6079   3.944   3.363   4.267
 1727SOL    HW1 6080   3.907   3.453   4.289
 1727SOL    HW2 6081   3.924   3.300   4.342
 1728SOL     OW 6082   4.872   5.021   5.446
 1728SOL    HW1 6083   4.916   4.942   5.489
 1728SOL    HW2 6084   4.834   4.993   5.357
 1729SOL     OW 6085   2.201   4.128   2.747
 1729SOL    HW1 6086   2.269   4.058   2.723
 1729SOL    HW2 6087   2.220   4.212   2.697
 1730SOL     OW 6088   1.242   6.911   5.926
 1730SOL    HW1 6089   1.200   6.980   5.986
 1730SOL    HW2 6090   1.216   6.929   5.832
 1731SOL     OW 6091   0.072   4.191   2.322
 1731SOL    HW1 6092   0.127   4.108   2.325
 1731SOL    HW2 6093   0.131   4.270   2.336
 1732SOL     OW 6094   2.714   4.529   5.554
 1732SOL    HW1 6095   2.769   4.592   5.499
 1732SOL    HW2 6096   2.768   4.447   5.574
 1733SOL     OW 6097   1.880   3.878   1.845
 1733SOL    HW1 6098   1.901   3.976   1.846
 1733SOL    HW2 6099   1.953   3.827   1.892
 1734SOL     OW 6100   4.678   3.173   1.470
 1734SOL    HW1 6101   4.599   3.111   1.471
 1734SOL    HW2 6102   4.756   3.129   1.516
 1735SOL     OW 6103   5.316   6.040   1.038
 1735SOL    HW1 6104   5.388   6.005   1.098
 1735SOL    HW2 6105   5.329   6.006   0.945
 1736SOL     OW 6106   3.993   2.757   1.060
 1736SOL    HW1 6107   4.042   2.844   1.069
 1736SOL    HW2 6108   3.896   2.775   1.044
 1737SOL     OW 6109   2.082   1.343   4.030
 1737SOL    HW1 6110   2.080   1.367   3.933
 1737SOL    HW2 6111   2.167   1.294   4.050
 1738SOL     OW 6112   2.059   2.251   3.651
 1738SOL    HW1 6113   1.999   2.172   3.664
 1738SOL    HW2 6114   2.125   2.232   3.579
 1739SOL     OW 6115   6.539   2.493   5.323
 1739SOL    HW1 6116   6.480   2.494   5.243
 1739SOL    HW2 6117   6.584   2.404   5.331
 1740SOL     OW 6118   6.367   1.850   5.779
 1740SOL    HW1 6119   6.404   1.917   5.843
 1740SOL    HW2 6120   6.278   1.881   5.746
 1741SOL     OW 6121   1.969   0.855   4.026
 1741SOL    HW1 6122   1.911   0.905   3.961
 1741SOL    HW2 6123   2.002   0.771   3.983
 1742SOL     OW 6124   5.409   0.814   6.293
 1742SOL    HW1 6125   5.425   0.913   6.283
 1742SOL    HW2 6126   5.497   0.766   6.292
 1743SOL     OW 6127   1.197   2.416   1.738
 1743SOL    HW1 6128   1.218   2.320   1.757
 1743SOL    HW2 6129   1.127   2.448   1.802
 1744SOL     OW 6130   0.644   1.738   2.371
 1744SOL    HW1 6131   0.694   1.811   2.323
 1744SOL    HW2 6132   0.665   1.650   2.328
 1745SOL     OW 6133   6.209   6.600   3.254
 1745SOL    HW1 6134   6.235   6.508   3.286
 1745SOL    HW2 6135   6.208   6.601   3.154
 1746SOL     OW 6136   2.062   5.186   4.675
 1746SOL    HW1 6137   2.048   5.280   4.642
 1746SOL    HW2 6138   2.056   5.122   4.598
 1747SOL     OW 6139   5.730   1.927   2.847
 1747SOL    HW1 6140   5.811   1.902   2.900
 1747SOL    HW2 6141   5.747   1.909   2.750
 1748SOL     OW 6142   0.974   0.617   4.454
 1748SOL    HW1 6143   0.979   0.647   4.549
 1748SOL    HW2 6144   1.059   0.572   4.428
 1749SOL     OW 6145   2.785   6.841   4.552
 1749SOL    HW1 6146   2.721   6.916   4.536
 1749SOL    HW2 6147   2.870   6.878   4.590
 1750SOL     OW 6148   5.886   0.134   3.654
 1750SOL    HW1 6149   5.849   0.044   3.675
 1750SOL    HW2 6150   5.814   0.193   3.619
 1751SOL     OW 6151   4.076   6.046   5.335
 1751SOL    HW1 6152   4.116   6.022   5.423
 1751SOL    HW2 6153   4.124   5.998   5.262
 1752SOL     OW 6154   6.912   2.239   1.602
 1752SOL    HW1 6155   6.834   2.299   1.620
 1752SOL    HW2 6156   6.899   2.194   1.513
 1753SOL     OW 6157   0.399   1.125   0.616
 1753SOL    HW1 6158   0.399   1.116   0.516
 1753SOL    HW2 6159   0.311   1.095   0.652
 1754SOL     OW 6160   1.973   3.992   1.055
 1754SOL    HW1 6161   1.965   4.091   1.043
 1754SOL    HW2 6162   1.940   3.967   1.146
 1755SOL     OW 6163   6.476   6.125   2.108
 1755SOL    HW1 6164   6.453   6.122   2.010
 1755SOL    HW2 6165   6.405   6.078   2.160
 1756SOL     OW 6166   4.497   5.297   6.572
 1756SOL    HW1 6167   4.419   5.318   6.631
 1756SOL    HW2 6168   4.540   5.382   6.542
 1757SOL     OW 6169   2.364   5.287   4.544
 1757SOL    HW1 6170   2.339   5.374   4.501
 1757SOL    HW2 6171   2.301   5.268   4.619
 1758SOL     OW 6172   1.763   0.391   3.967
 1758SOL    HW1 6173   1.828   0.380   3.893
 1758SOL    HW2 6174   1.679   0.434   3.932
 1759SOL     OW 6175   2.097   5.214   6.584
 1759SOL    HW1 6176   2.187   5.176   6.564
 1759SOL    HW2 6177   2.106   5.305   6.623
 1760SOL     OW 6178   6.091   1.847   2.794
 1760SOL    HW1 6179   6.095   1.810   2.702
 1760SOL    HW2 6180   6.028   1.792   2.849
 1761SOL     OW 6181   0.536   0.552   0.447
 1761SOL    HW1 6182   0.572   0.460   0.429
 1761SOL    HW2 6183   0.519   0.563   0.544
 1762SOL     OW 6184   0.349   1.832   4.977
 1762SOL    HW1 6185   0.432   1.782   4.953
 1762SOL    HW2 6186   0.365   1.885   5.061
 1763SOL     OW 6187   1.276   3.524   4.110
 1763SOL    HW1 6188   1.269   3.557   4.016
 1763SOL    HW2 6189   1.373   3.521   4.136
 1764SOL     OW 6190   2.088   3.659   2.427
 1764SOL    HW1 6191   2.140   3.597   2.486
 1764SOL    HW2 6192   2.146   3.737   2.402
 1765SOL     OW 6193   3.657   1.266   1.102
 1765SOL    HW1 6194   3.753   1.238   1.108
 1765SOL    HW2 6195   3.634   1.326   1.178
 1766SOL     OW 6196   4.965   3.363   2.863
 1766SOL    HW1 6197   4.901   3.365   2.940
 1766SOL    HW2 6198   4.971   3.454   2.823
 1767SOL     OW 6199   0.340   3.229   3.228
 1767SOL    HW1 6200   0.424   3.283   3.232
 1767SOL    HW2 6201   0.316   3.211   3.133
 1768SOL     OW 6202   4.108   1.491   5.592
 1768SOL    HW1 6203   4.137   1.564   5.529
 1768SOL    HW2 6204   4.161   1.408   5.573
 1769SOL     OW 6205   4.358   2.776   5.624
 1769SOL    HW1 6206   4.428   2.843   5.602
 1769SOL    HW2 6207   4.318   2.740   5.539
 1770SOL     OW 6208   6.907   5.193   4.815
 1770SOL    HW1 6209   6.944   5.157   4.901
 1770SOL    HW2 6210   6.853   5.275   4.833
 1771SOL     OW 6211   2.593   4.734   0.076
 1771SOL    HW1 6212   2.630   4.741   7.004
 1771SOL    HW2 6213   2.623   4.813   0.129
 1772SOL     OW 6214   3.817   6.630   3.146
 1772SOL    HW1 6215   3.825   6.637   3.245
 1772SOL    HW2 6216   3.720   6.632   3.121
 1773SOL     OW 6217   3.150   4.024   6.475
 1773SOL    HW1 6218   3.173   3.962   6.550
 1773SOL    HW2 6219   3.234   4.051   6.428
 1774SOL     OW 6220   4.077   0.271   1.624
 1774SOL    HW1 6221   4.148   0.236   1.562
 1774SOL    HW2 6222   4.001   0.306   1.570
 1775SOL     OW 6223   1.374   5.364   4.003
 1775SOL    HW1 6224   1.407   5.374   4.097
 1775SOL    HW2 6225   1.406   5.277   3.966
 1776SOL     OW 6226   3.573   0.750   5.629
 1776SOL    HW1 6227   3.646   0.796   5.578
 1776SOL    HW2 6228   3.585   0.651   5.622
 1777SOL     OW 6229   3.135   5.381   5.461
 1777SOL    HW1 6230   3.182   5.393   5.549
 1777SOL    HW2 6231   3.186   5.317   5.404
 1778SOL     OW 6232   4.462   2.186   4.507
 1778SOL    HW1 6233   4.415   2.272   4.489
 1778SOL    HW2 6234   4.552   2.205   4.548
 1779SOL     OW 6235   4.589   1.975   3.926
 1779SOL    HW1 6236   4.578   2.047   3.995
 1779SOL    HW2 6237   4.540   2.001   3.843
 1780SOL     OW 6238   2.549   4.647   5.743
 1780SOL    HW1 6239   2.590   4.609   5.659
 1780SOL    HW2 6240   2.566   4.746   5.746
 1781SOL     OW 6241   4.297   5.452   3.539
 1781SOL    HW1 6242   4.274   5.358   3.561
 1781SOL    HW2 6243   4.379   5.479   3.590
 1782SOL     OW 6244   3.018   1.617   2.965
 1782SOL    HW1 6245   3.083   1.692   2.980
 1782SOL    HW2 6246   3.032   1.547   3.035
 1783SOL     OW 6247   1.788   3.328   6.968
 1783SOL    HW1 6248   1.794   3.428   6.978
 1783SOL    HW2 6249   1.877   3.288   6.990
 1784SOL     OW 6250   2.711   0.731   3.545
 1784SOL    HW1 6251   2.716   0.657   3.612
 1784SOL    HW2 6252   2.761   0.705   3.462
 1785SOL     OW 6253   4.995   5.921   3.779
 1785SOL    HW1 6254   5.026   5.869   3.858
 1785SOL    HW2 6255   5.048   6.006   3.772
 1786SOL     OW 6256   1.583   2.964   0.762
 1786SOL    HW1 6257   1.555   3.029   0.691
 1786SOL    HW2 6258   1.511   2.896   0.776
 1787SOL     OW 6259   2.231   1.270   4.344
 1787SOL    HW1 6260   2.198   1.364   4.338
 1787SOL    HW2 6261   2.262   1.239   4.254
 1788SOL     OW 6262   2.903   3.519   0.254
 1788SOL    HW1 6263   2.932   3.431   0.292
 1788SOL    HW2 6264   2.955   3.538   0.171
 1789SOL     OW 6265   6.800   2.270   2.342
 1789SOL    HW1 6266   6.707   2.234   2.334
 1789SOL    HW2 6267   6.864   2.194   2.353
 1790SOL     OW 6268   3.838   5.889   4.338
 1790SOL    HW1 6269   3.918   5.948   4.338
 1790SOL    HW2 6270   3.810   5.870   4.432
 1791SOL     OW 6271   0.201   2.320   4.844
 1791SOL    HW1 6272   0.171   2.244   4.785
 1791SOL    HW2 6273   0.124   2.350   4.900
 1792SOL     OW 6274   0.840   2.217   4.167
 1792SOL    HW1 6275   0.908   2.187   4.100
 1792SOL    HW2 6276   0.829   2.316   4.161
 1793SOL     OW 6277   6.746   0.057   3.389
 1793SOL    HW1 6278   6.698   0.127   3.335
 1793SOL    HW2 6279   6.680   7.010   3.421
 1794SOL     OW 6280   5.101   6.048   6.408
 1794SOL    HW1 6281   5.089   6.015   6.501
 1794SOL    HW2 6282   5.070   6.143   6.401
 1795SOL     OW 6283   0.395   4.403   2.565
 1795SOL    HW1 6284   0.482   4.357   2.546
 1795SOL    HW2 6285   0.381   4.410   2.664
 1796SOL     OW 6286   1.842   1.366   4.630
 1796SOL    HW1 6287   1.836   1.431   4.706
 1796SOL    HW2 6288   1.768   1.298   4.639
 1797SOL     OW 6289   1.431   0.768   6.064
 1797SOL    HW1 6290   1.452   0.675   6.093
 1797SOL    HW2 6291   1.405   0.768   5.968
 1798SOL     OW 6292   4.571   2.748   5.370
 1798SOL    HW1 6293   4.626   2.763   5.287
 1798SOL    HW2 6294   4.477   2.777   5.353
 1799SOL     OW 6295   6.630   2.122   6.405
 1799SOL    HW1 6296   6.616   2.200   6.343
 1799SOL    HW2 6297   6.645   2.156   6.498
 1800SOL     OW 6298   4.617   5.090   3.833
 1800SOL    HW1 6299   4.662   5.178   3.847
 1800SOL    HW2 6300   4.680   5.027   3.790
 1801SOL     OW 6301   1.065   1.719   1.992
 1801SOL    HW1 6302   1.150   1.741   1.945
 1801SOL    HW2 6303   0.988   1.729   1.929
 1802SOL     OW 6304   5.675   5.209   2.949
 1802SOL    HW1 6305   5.590   5.219   3.000
 1802SOL    HW2 6306   5.724   5.296   2.948
 1803SOL     OW 6307   6.537   5.947   0.312
 1803SOL    HW1 6308   6.523   6.043   0.287
 1803SOL    HW2 6309   6.635   5.927   0.314
 1804SOL     OW 6310   2.749   3.123   6.160
 1804SOL    HW1 6311   2.684   3.182   6.207
 1804SOL    HW2 6312   2.775   3.164   6.072
 1805SOL     OW 6313   0.657   4.253   5.742
 1805SOL    HW1 6314   0.665   4.154   5.733
 1805SOL    HW2 6315   0.706   4.282   5.824
 1806SOL     OW 6316   1.442   0.861   1.307
 1806SOL    HW1 6317   1.518   0.919   1.277
 1806SOL    HW2 6318   1.392   0.908   1.380
 1807SOL     OW 6319   5.575   2.634   6.517
 1807SOL    HW1 6320   5.615   2.596   6.600
 1807SOL    HW2 6321   5.509   2.705   6.541
 1808SOL     OW 6322   6.154   3.748   4.726
 1808SOL    HW1 6323   6.159   3.804   4.808
 1808SOL    HW2 6324   6.088   3.675   4.739
 1809SOL     OW 6325   2.169   2.962   4.575
 1809SOL    HW1 6326   2.134   3.051   4.606
 1809SOL    HW2 6327   2.234   2.927   4.642
 1810SOL     OW 6328   2.664   0.134   5.672
 1810SOL    HW1 6329   2.613   0.179   5.746
 1810SOL    HW2 6330   2.668   0.196   5.593
 1811SOL     OW 6331   4.087   4.772   3.311
 1811SOL    HW1 6332   4.092   4.797   3.408
 1811SOL    HW2 6333   4.140   4.689   3.295
 1812SOL     OW 6334   4.303   0.203   6.037
 1812SOL    HW1 6335   4.364   0.133   6.073
 1812SOL    HW2 6336   4.331   0.293   6.071
 1813SOL     OW 6337   4.233   4.839   1.751
 1813SOL    HW1 6338   4.187   4.751   1.741
 1813SOL    HW2 6339   4.321   4.837   1.703
 1814SOL     OW 6340   6.978   0.629   6.828
 1814SOL    HW1 6341   6.932   0.621   6.917
 1814SOL    HW2 6342   6.941   0.560   6.765
 1815SOL     OW 6343   6.693   1.894   1.671
 1815SOL    HW1 6344   6.747   1.871   1.590
 1815SOL    HW2 6345   6.750   1.943   1.736
 1816SOL     OW 6346   1.555   4.370   0.725
 1816SOL    HW1 6347   1.624   4.413   0.667
 1816SOL    HW2 6348   1.576   4.387   0.821
 1817SOL     OW 6349   3.748   6.391   2.878
 1817SOL    HW1 6350   3.792   6.322   2.820
 1817SOL    HW2 6351   3.649   6.383   2.871
 1818SOL     OW 6352   2.517   5.783   1.886
 1818SOL    HW1 6353   2.424   5.752   1.900
 1818SOL    HW2 6354   2.572   5.765   1.968
 1819SOL     OW 6355   0.687   5.490   1.588
 1819SOL    HW1 6356   0.769   5.433   1.589
 1819SOL    HW2 6357   0.700   5.566   1.524
 1820SOL     OW 6358   2.314   0.653   2.167
 1820SOL    HW1 6359   2.410   0.626   2.161
 1820SOL    HW2 6360   2.270   0.636   2.079
 1821SOL     OW 6361   2.173   0.594   1.914
 1821SOL    HW1 6362   2.124   0.546   1.841
 1821SOL    HW2 6363   2.145   0.690   1.915
 1822SOL     OW 6364   1.446   3.685   0.986
 1822SOL    HW1 6365   1.519   3.636   1.034
 1822SOL    HW2 6366   1.358   3.641   1.006
 1823SOL     OW 6367   2.984   5.665   3.000
 1823SOL    HW1 6368   2.962   5.761   2.984
 1823SOL    HW2 6369   3.079   5.658   3.029
 1824SOL     OW 6370   3.431   3.395   1.176
 1824SOL    HW1 6371   3.521   3.402   1.133
 1824SOL    HW2 6372   3.360   3.391   1.105
 1825SOL     OW 6373   1.617   2.256   4.539
 1825SOL    HW1 6374   1.626   2.225   4.444
 1825SOL    HW2 6375   1.626   2.178   4.601
 1826SOL     OW 6376   3.300   1.115   1.533
 1826SOL    HW1 6377   3.230   1.085   1.598
 1826SOL    HW2 6378   3.389   1.118   1.579
 1827SOL     OW 6379   0.060   5.988   1.503
 1827SOL    HW1 6380   0.160   5.991   1.504
 1827SOL    HW2 6381   0.029   5.903   1.545
 1828SOL     OW 6382   1.724   2.419   0.495
 1828SOL    HW1 6383   1.629   2.408   0.523
 1828SOL    HW2 6384   1.729   2.423   0.395
 1829SOL     OW 6385   2.690   0.930   3.290
 1829SOL    HW1 6386   2.649   0.849   3.249
 1829SOL    HW2 6387   2.781   0.944   3.252
 1830SOL     OW 6388   5.969   6.246   3.597
 1830SOL    HW1 6389   6.015   6.325   3.639
 1830SOL    HW2 6390   5.984   6.165   3.654
 1831SOL     OW 6391   5.980   0.339   1.899
 1831SOL    HW1 6392   6.038   0.259   1.913
 1831SOL    HW2 6393   5.930   0.359   1.984
 1832SOL     OW 6394   4.425   1.692   1.364
 1832SOL    HW1 6395   4.372   1.650   1.438
 1832SOL    HW2 6396   4.523   1.684   1.385
 1833SOL     OW 6397   5.191   1.131   0.625
 1833SOL    HW1 6398   5.220   1.094   0.537
 1833SOL    HW2 6399   5.135   1.063   0.673
 1834SOL     OW 6400   2.632   3.301   0.829
 1834SOL    HW1 6401   2.624   3.332   0.734
 1834SOL    HW2 6402   2.542   3.273   0.863
 1835SOL     OW 6403   0.229   4.967   2.182
 1835SOL    HW1 6404   0.210   4.935   2.089
 1835SOL    HW2 6405   0.153   5.024   2.214
 1836SOL     OW 6406   5.032   1.632   1.546
 1836SOL    HW1 6407   4.984   1.545   1.545
 1836SOL    HW2 6408   5.111   1.627   1.485
 1837SOL     OW 6409   0.853   0.041   4.646
 1837SOL    HW1 6410   0.900   0.126   4.669
 1837SOL    HW2 6411   0.790   0.058   4.570
 1838SOL     OW 6412   6.495   1.272   4.879
 1838SOL    HW1 6413   6.470   1.217   4.959
 1838SOL    HW2 6414   6.421   1.269   4.812
 1839SOL     OW 6415   6.405   1.736   5.041
 1839SOL    HW1 6416   6.414   1.702   4.947
 1839SOL    HW2 6417   6.483   1.794   5.063
 1840SOL     OW 6418   4.012   0.237   1.156
 1840SOL    HW1 6419   4.020   0.170   1.082
 1840SOL    HW2 6420   3.972   0.192   1.236
 1841SOL     OW 6421   2.006   1.506   3.374
 1841SOL    HW1 6422   1.915   1.466   3.363
 1841SOL    HW2 6423   2.075   1.442   3.343
 1842SOL     OW 6424   1.446   5.934   0.300
 1842SOL    HW1 6425   1.386   5.977   0.367
 1842SOL    HW2 6426   1.481   5.848   0.338
 1843SOL     OW 6427   6.368   2.081   3.356
 1843SOL    HW1 6428   6.352   2.031   3.440
 1843SOL    HW2 6429   6.281   2.099   3.310
 1844SOL     OW 6430   3.158   6.493   5.122
 1844SOL    HW1 6431   3.191   6.573   5.171
 1844SOL    HW2 6432   3.073   6.461   5.164
 1845SOL     OW 6433   3.220   0.099   4.147
 1845SOL    HW1 6434   3.136   0.146   4.174
 1845SOL    HW2 6435   3.279   0.163   4.097
 1846SOL     OW 6436   3.659   1.622   1.769
 1846SOL    HW1 6437   3.581   1.672   1.730
 1846SOL    HW2 6438   3.634   1.589   1.860
 1847SOL     OW 6439   1.542   0.655   6.817
 1847SOL    HW1 6440   1.629   0.649   6.866
 1847SOL    HW2 6441   1.470   0.685   6.880
 1848SOL     OW 6442   1.653   6.047   3.812
 1848SOL    HW1 6443   1.620   5.982   3.744
 1848SOL    HW2 6444   1.751   6.063   3.798
 1849SOL     OW 6445   3.853   2.395   1.334
 1849SOL    HW1 6446   3.945   2.360   1.349
 1849SOL    HW2 6447   3.812   2.349   1.255
 1850SOL     OW 6448   0.385   2.834   1.856
 1850SOL    HW1 6449   0.401   2.802   1.763
 1850SOL    HW2 6450   0.397   2.758   1.920
 1851SOL     OW 6451   0.292   2.435   0.223
 1851SOL    HW1 6452   0.388   2.460   0.232
 1851SOL    HW2 6453   0.271   2.356   0.281
 1852SOL     OW 6454   6.534   4.399   2.816
 1852SOL    HW1 6455   6.578   4.489   2.814
 1852SOL    HW2 6456   6.564   4.349   2.897
 1853SOL     OW 6457   0.516   2.501   2.819
 1853SOL    HW1 6458   0.449   2.479   2.890
 1853SOL    HW2 6459   0.602   2.454   2.839
 1854SOL     OW 6460   2.410   5.819   2.880
 1854SOL    HW1 6461   2.494   5.817   2.825
 1854SOL    HW2 6462   2.412   5.746   2.948
 1855SOL     OW 6463   5.166   2.856   5.195
 1855SOL    HW1 6464   5.252   2.874   5.148
 1855SOL    HW2 6465   5.170   2.894   5.288
 1856SOL     OW 6466   6.031   4.258   5.824
 1856SOL    HW1 6467   6.127   4.242   5.800
 1856SOL    HW2 6468   6.005   4.197   5.899
 1857SOL     OW 6469   4.767   2.081   6.135
 1857SOL    HW1 6470   4.763   1.985   6.161
 1857SOL    HW2 6471   4.789   2.137   6.215
 1858SOL     OW 6472   5.763   4.126   3.999
 1858SOL    HW1 6473   5.682   4.184   3.986
 1858SOL    HW2 6474   5.735   4.029   3.997
 1859SOL     OW 6475   5.690   2.451   4.097
 1859SOL    HW1 6476   5.630   2.469   4.019
 1859SOL    HW2 6477   5.750   2.530   4.111
 1860SOL     OW 6478   7.013   0.561   5.457
 1860SOL    HW1 6479   6.914   0.555   5.468
 1860SOL    HW2 6480   0.019   0.657   5.444
 1861SOL     OW 6481   6.302   6.794   1.675
 1861SOL    HW1 6482   6.273   6.846   1.755
 1861SOL    HW2 6483   6.251   6.708   1.671
 1862SOL     OW 6484   3.620   0.054   6.241
 1862SOL    HW1 6485   3.585   0.000   6.164
 1862SOL    HW2 6486   3.673   0.131   6.206
 1863SOL     OW 6487   0.773   3.078   3.961
 1863SOL    HW1 6488   0.828   3.142   3.908
 1863SOL    HW2 6489   0.701   3.039   3.903
 1864SOL     OW 6490   1.608   6.757   4.955
 1864SOL    HW1 6491   1.606   6.855   4.936
 1864SOL    HW2 6492   1.680   6.737   5.022
 1865SOL     OW 6493   3.445   6.623   0.050
 1865SOL    HW1 6494   3.430   6.542   0.106
 1865SOL    HW2 6495   3.390   6.618   6.987
 1866SOL     OW 6496   5.277   4.977   3.372
 1866SOL    HW1 6497   5.334   4.895   3.380
 1866SOL    HW2 6498   5.269   5.003   3.275
 1867SOL     OW 6499   0.819   4.139   6.806
 1867SOL    HW1 6500   0.813   4.224   6.755
 1867SOL    HW2 6501   0.811   4.061   6.744
 1868SOL     OW 6502   4.976   2.980   5.920
 1868SOL    HW1 6503   5.047   2.942   5.860
 1868SOL    HW2 6504   4.960   2.918   5.996
 1869SOL     OW 6505   5.964   3.396   5.599
 1869SOL    HW1 6506   5.980   3.300   5.622
 1869SOL    HW2 6507   5.931   3.403   5.505
 1870SOL     OW 6508   1.530   2.516   4.871
 1870SOL    HW1 6509   1.558   2.472   4.786
 1870SOL    HW2 6510   1.597   2.496   4.943
 1871SOL     OW 6511   0.520   0.355   6.711
 1871SOL    HW1 6512   0.526   0.455   6.712
 1871SOL    HW2 6513   0.435   0.326   6.754
 1872SOL     OW 6514   4.240   1.572   6.759
 1872SOL    HW1 6515   4.318   1.635   6.761
 1872SOL    HW2 6516   4.269   1.484   6.723
 1873SOL     OW 6517   5.352   1.208   6.039
 1873SOL    HW1 6518   5.396   1.124   6.007
 1873SOL    HW2 6519   5.282   1.185   6.108
 1874SOL     OW 6520   2.559   1.008   0.470
 1874SOL    HW1 6521   2.491   1.027   0.541
 1874SOL    HW2 6522   2.512   0.982   0.386
 1875SOL     OW 6523   0.296   0.412   0.093
 1875SOL    HW1 6524   0.374   0.449   0.143
 1875SOL    HW2 6525   0.304   0.436   7.017
 1876SOL     OW 6526   3.468   5.906   6.436
 1876SOL    HW1 6527   3.551   5.957   6.455
 1876SOL    HW2 6528   3.463   5.887   6.338
 1877SOL     OW 6529   0.966   1.393   3.233
 1877SOL    HW1 6530   0.975   1.395   3.133
 1877SOL    HW2 6531   1.042   1.341   3.272
 1878SOL     OW 6532   6.269   3.238   3.849
 1878SOL    HW1 6533   6.340   3.292   3.805
 1878SOL    HW2 6534   6.263   3.148   3.804
 1879SOL     OW 6535   1.818   5.303   3.630
 1879SOL    HW1 6536   1.893   5.278   3.691
 1879SOL    HW2 6537   1.735   5.316   3.684
 1880SOL     OW 6538   6.400   0.809   3.780
 1880SOL    HW1 6539   6.393   0.804   3.680
 1880SOL    HW2 6540   6.457   0.887   3.806
 1881SOL     OW 6541   0.074   3.315   2.890
 1881SOL    HW1 6542   0.082   3.369   2.973
 1881SOL    HW2 6543   0.165   3.283   2.862
 1882SOL     OW 6544   1.071   3.958   0.109
 1882SOL    HW1 6545   1.012   3.907   0.046
 1882SOL    HW2 6546   1.051   3.929   0.203
 1883SOL     OW 6547   1.250   3.018   3.800
 1883SOL    HW1 6548   1.333   3.004   3.746
 1883SOL    HW2 6549   1.244   3.113   3.829
 1884SOL     OW 6550   6.214   2.916   6.892
 1884SOL    HW1 6551   6.175   3.008   6.888
 1884SOL    HW2 6552   6.305   2.916   6.851
 1885SOL     OW 6553   1.003   2.508   5.875
 1885SOL    HW1 6554   0.993   2.527   5.973
 1885SOL    HW2 6555   1.087   2.456   5.860
 1886SOL     OW 6556   2.320   0.406   1.365
 1886SOL    HW1 6557   2.418   0.424   1.376
 1886SOL    HW2 6558   2.308   0.325   1.306
 1887SOL     OW 6559   1.851   5.760   5.945
 1887SOL    HW1 6560   1.756   5.750   5.914
 1887SOL    HW2 6561   1.913   5.737   5.870
 1888SOL     OW 6562   2.986   2.451   6.534
 1888SOL    HW1 6563   3.019   2.485   6.622
 1888SOL    HW2 6564   2.891   2.421   6.542
 1889SOL     OW 6565   6.010   3.295   6.487
 1889SOL    HW1 6566   5.995   3.243   6.403
 1889SOL    HW2 6567   5.925   3.338   6.516
 1890SOL     OW 6568   1.779   5.774   4.288
 1890SOL    HW1 6569   1.706   5.708   4.271
 1890SOL    HW2 6570   1.800   5.823   4.203
 1891SOL     OW 6571   5.941   2.533   3.204
 1891SOL    HW1 6572   6.002   2.578   3.138
 1891SOL    HW2 6573   5.919   2.598   3.277
 1892SOL     OW 6574   2.923   1.237   0.612
 1892SOL    HW1 6575   2.863   1.285   0.547
 1892SOL    HW2 6576   3.016   1.236   0.577
 1893SOL     OW 6577   2.969   2.572   0.402
 1893SOL    HW1 6578   2.968   2.563   0.502
 1893SOL    HW2 6579   2.879   2.601   0.370
 1894SOL     OW 6580   3.906   3.830   3.391
 1894SOL    HW1 6581   3.823   3.876   3.424
 1894SOL    HW2 6582   3.943   3.880   3.313
 1895SOL     OW 6583   6.325   0.994   1.912
 1895SOL    HW1 6584   6.390   1.068   1.896
 1895SOL    HW2 6585   6.376   0.908   1.925
 1896SOL     OW 6586   6.884   0.668   1.295
 1896SOL    HW1 6587   6.798   0.719   1.301
 1896SOL    HW2 6588   6.905   0.629   1.385
 1897SOL     OW 6589   1.108   4.488   2.531
 1897SOL    HW1 6590   1.128   4.582   2.557
 1897SOL    HW2 6591   1.191   4.445   2.495
 1898SOL     OW 6592   3.023   4.854   2.615
 1898SOL    HW1 6593   3.082   4.915   2.667
 1898SOL    HW2 6594   2.944   4.829   2.671
 1899SOL     OW 6595   0.964   2.013   2.121
 1899SOL    HW1 6596   1.004   2.012   2.212
 1899SOL    HW2 6597   0.994   1.933   2.070
 1900SOL     OW 6598   1.480   0.381   6.731
 1900SOL    HW1 6599   1.413   0.397   6.658
 1900SOL    HW2 6600   1.512   0.469   6.766
 1901SOL     OW 6601   2.054   2.061   1.274
 1901SOL    HW1 6602   2.024   1.985   1.332
 1901SOL    HW2 6603   2.113   2.122   1.327
 1902SOL     OW 6604   2.212   2.010   4.678
 1902SOL    HW1 6605   2.218   1.948   4.600
 1902SOL    HW2 6606   2.278   2.084   4.668
 1903SOL     OW 6607   6.402   3.247   3.133
 1903SOL    HW1 6608   6.310   3.257   3.095
 1903SOL    HW2 6609   6.451   3.334   3.122
 1904SOL     OW 6610   5.709   6.449   4.847
 1904SOL    HW1 6611   5.744   6.529   4.798
 1904SOL    HW2 6612   5.739   6.454   4.943
 1905SOL     OW 6613   1.521   0.814   3.999
 1905SOL    HW1 6614   1.577   0.874   3.942
 1905SOL    HW2 6615   1.572   0.730   4.019
 1906SOL     OW 6616   2.188   0.435   5.218
 1906SOL    HW1 6617   2.218   0.366   5.152
 1906SOL    HW2 6618   2.119   0.494   5.175
 1907SOL     OW 6619   3.475   6.650   2.859
 1907SOL    HW1 6620   3.473   6.567   2.804
 1907SOL    HW2 6621   3.480   6.625   2.956
 1908SOL     OW 6622   3.451   0.155   5.135
 1908SOL    HW1 6623   3.392   0.226   5.096
 1908SOL    HW2 6624   3.404   0.068   5.134
 1909SOL     OW 6625   0.652   4.277   2.494
 1909SOL    HW1 6626   0.689   4.277   2.587
 1909SOL    HW2 6627   0.720   4.316   2.432
 1910SOL     OW 6628   6.538   2.970   6.007
 1910SOL    HW1 6629   6.527   2.891   5.948
 1910SOL    HW2 6630   6.465   2.972   6.075
 1911SOL     OW 6631   5.668   3.296   4.971
 1911SOL    HW1 6632   5.655   3.339   4.882
 1911SOL    HW2 6633   5.740   3.344   5.022
 1912SOL     OW 6634   3.352   6.251   0.863
 1912SOL    HW1 6635   3.266   6.303   0.857
 1912SOL    HW2 6636   3.355   6.184   0.789
 1913SOL     OW 6637   1.533   5.912   5.069
 1913SOL    HW1 6638   1.516   5.814   5.059
 1913SOL    HW2 6639   1.525   5.957   4.980
 1914SOL     OW 6640   4.079   3.030   6.425
 1914SOL    HW1 6641   4.052   3.032   6.329
 1914SOL    HW2 6642   4.166   3.079   6.436
 1915SOL     OW 6643   4.166   2.181   5.280
 1915SOL    HW1 6644   4.112   2.201   5.361
 1915SOL    HW2 6645   4.112   2.129   5.215
 1916SOL     OW 6646   3.866   5.714   1.468
 1916SOL    HW1 6647   3.882   5.674   1.377
 1916SOL    HW2 6648   3.799   5.659   1.517
 1917SOL     OW 6649   2.893   3.096   5.211
 1917SOL    HW1 6650   2.858   3.020   5.267
 1917SOL    HW2 6651   2.852   3.092   5.120
 1918SOL     OW 6652   0.974   1.025   5.290
 1918SOL    HW1 6653   0.979   1.021   5.190
 1918SOL    HW2 6654   0.887   0.984   5.320
 1919SOL     OW 6655   2.673   0.604   1.605
 1919SOL    HW1 6656   2.629   0.565   1.524
 1919SOL    HW2 6657   2.760   0.558   1.621
 1920SOL     OW 6658   1.386   4.354   2.449
 1920SOL    HW1 6659   1.335   4.272   2.423
 1920SOL    HW2 6660   1.396   4.357   2.548
 1921SOL     OW 6661   1.103   4.840   6.873
 1921SOL    HW1 6662   1.182   4.800   6.919
 1921SOL    HW2 6663   1.038   4.872   6.942
 1922SOL     OW 6664   1.578   4.306   1.006
 1922SOL    HW1 6665   1.619   4.376   1.066
 1922SOL    HW2 6666   1.596   4.215   1.044
 1923SOL     OW 6667   3.242   0.803   5.380
 1923SOL    HW1 6668   3.227   0.793   5.478
 1923SOL    HW2 6669   3.327   0.853   5.364
 1924SOL     OW 6670   4.510   5.466   1.251
 1924SOL    HW1 6671   4.451   5.546   1.244
 1924SOL    HW2 6672   4.454   5.385   1.272
 1925SOL     OW 6673   2.032   4.781   0.305
 1925SOL    HW1 6674   2.006   4.685   0.307
 1925SOL    HW2 6675   2.088   4.799   0.224
 1926SOL     OW 6676   2.242   6.999   3.368
 1926SOL    HW1 6677   2.314   7.020   3.434
 1926SOL    HW2 6678   2.179   0.055   3.361
 1927SOL     OW 6679   2.745   4.674   6.379
 1927SOL    HW1 6680   2.810   4.645   6.308
 1927SOL    HW2 6681   2.673   4.730   6.339
 1928SOL     OW 6682   6.700   4.649   5.968
 1928SOL    HW1 6683   6.658   4.734   5.998
 1928SOL    HW2 6684   6.760   4.614   6.040
 1929SOL     OW 6685   1.119   5.010   1.121
 1929SOL    HW1 6686   1.172   4.927   1.105
 1929SOL    HW2 6687   1.100   5.019   1.219
 1930SOL     OW 6688   3.550   3.806   6.374
 1930SOL    HW1 6689   3.559   3.894   6.328
 1930SOL    HW2 6690   3.453   3.788   6.392
 1931SOL     OW 6691   0.784   3.923   2.432
 1931SOL    HW1 6692   0.873   3.935   2.388
 1931SOL    HW2 6693   0.713   3.917   2.362
 1932SOL     OW 6694   4.884   3.376   3.131
 1932SOL    HW1 6695   4.889   3.471   3.162
 1932SOL    HW2 6696   4.830   3.323   3.196
 1933SOL     OW 6697   2.091   3.794   0.705
 1933SOL    HW1 6698   2.037   3.877   0.688
 1933SOL    HW2 6699   2.128   3.796   0.797
 1934SOL     OW 6700   0.397   0.129   5.106
 1934SOL    HW1 6701   0.319   0.073   5.080
 1934SOL    HW2 6702   0.472   0.070   5.135
 1935SOL     OW 6703   4.085   6.134   3.691
 1935SOL    HW1 6704   3.991   6.122   3.659
 1935SOL    HW2 6705   4.128   6.211   3.643
 1936SOL     OW 6706   5.754   3.682   3.753
 1936SOL    HW1 6707   5.721   3.683   3.847
 1936SOL    HW2 6708   5.714   3.604   3.705
 1937SOL     OW 6709   3.950   6.677   1.306
 1937SOL    HW1 6710   3.869   6.649   1.253
 1937SOL    HW2 6711   3.925   6.751   1.368
 1938SOL     OW 6712   2.286   1.597   1.887
 1938SOL    HW1 6713   2.268   1.695   1.898
 1938SOL    HW2 6714   2.384   1.580   1.895
 1939SOL     OW 6715   6.461   0.379   4.414
 1939SOL    HW1 6716   6.372   0.352   4.377
 1939SOL    HW2 6717   6.485   0.321   4.492
 1940SOL     OW 6718   5.590   4.692   0.837
 1940SOL    HW1 6719   5.568   4.597   0.859
 1940SOL    HW2 6720   5.640   4.694   0.750
 1941SOL     OW 6721   0.620   3.520   4.288
 1941SOL    HW1 6722   0.659   3.436   4.251
 1941SOL    HW2 6723   0.523   3.505   4.309
 1942SOL     OW 6724   5.274   1.887   1.706
 1942SOL    HW1 6725   5.335   1.842   1.641
 1942SOL    HW2 6726   5.183   1.898   1.665
 1943SOL     OW 6727   1.910   6.126   3.866
 1943SOL    HW1 6728   1.873   6.210   3.908
 1943SOL    HW2 6729   1.995   6.101   3.911
 1944SOL     OW 6730   6.221   2.815   0.117
 1944SOL    HW1 6731   6.240   2.717   0.111
 1944SOL    HW2 6732   6.197   2.850   0.026
 1945SOL     OW 6733   3.875   5.235   0.810
 1945SOL    HW1 6734   3.782   5.261   0.787
 1945SOL    HW2 6735   3.934   5.247   0.730
 1946SOL     OW 6736   6.252   6.764   0.632
 1946SOL    HW1 6737   6.333   6.803   0.587
 1946SOL    HW2 6738   6.169   6.796   0.587
 1947SOL     OW 6739   4.794   6.631   4.322
 1947SOL    HW1 6740   4.804   6.628   4.222
 1947SOL    HW2 6741   4.749   6.547   4.353
 1948SOL     OW 6742   5.591   5.459   3.873
 1948SOL    HW1 6743   5.528   5.500   3.808
 1948SOL    HW2 6744   5.681   5.448   3.830
 1949SOL     OW 6745   3.517   3.828   6.024
 1949SOL    HW1 6746   3.577   3.880   6.085
 1949SOL    HW2 6747   3.429   3.813   6.070
 1950SOL     OW 6748   4.027   3.230   0.409
 1950SOL    HW1 6749   3.943   3.177   0.421
 1950SOL    HW2 6750   4.027   3.271   0.318
 1951SOL     OW 6751   6.100   3.792   0.281
 1951SOL    HW1 6752   6.132   3.877   0.239
 1951SOL    HW2 6753   6.022   3.812   0.340
 1952SOL     OW 6754   4.812   3.661   1.423
 1952SOL    HW1 6755   4.714   3.645   1.413
 1952SOL    HW2 6756   4.855   3.579   1.461
 1953SOL     OW 6757   6.374   1.661   5.534
 1953SOL    HW1 6758   6.305   1.591   5.555
 1953SOL    HW2 6759   6.373   1.731   5.606
 1954SOL     OW 6760   6.928   0.628   2.858
 1954SOL    HW1 6761   6.950   0.535   2.827
 1954SOL    HW2 6762   6.990   0.654   2.932
 1955SOL     OW 6763   0.306   1.173   2.547
 1955SOL    HW1 6764   0.226   1.216   2.504
 1955SOL    HW2 6765   0.316   1.208   2.640
 1956SOL     OW 6766   5.015   0.239   2.273
 1956SOL    HW1 6767   4.921   0.257   2.302
 1956SOL    HW2 6768   5.077   0.255   2.349
 1957SOL     OW 6769   5.721   4.119   4.370
 1957SOL    HW1 6770   5.784   4.164   4.434
 1957SOL    HW2 6771   5.690   4.186   4.302
 1958SOL     OW 6772   5.037   1.562   2.100
 1958SOL    HW1 6773   5.039   1.605   2.010
 1958SOL    HW2 6774   5.032   1.632   2.171
 1959SOL     OW 6775   1.265   0.051   3.992
 1959SOL    HW1 6776   1.332   7.000   4.010
 1959SOL    HW2 6777   1.301   0.114   3.923
 1960SOL     OW 6778   6.872   5.013   1.662
 1960SOL    HW1 6779   6.823   4.953   1.598
 1960SOL    HW2 6780   6.808   5.078   1.703
 1961SOL     OW 6781   5.974   4.199   4.499
 1961SOL    HW1 6782   5.979   4.100   4.494
 1961SOL    HW2 6783   6.046   4.233   4.561
 1962SOL     OW 6784   1.029   6.555   3.048
 1962SOL    HW1 6785   0.951   6.607   3.084
 1962SOL    HW2 6786   1.022   6.460   3.080
 1963SOL     OW 6787   0.959   1.850   1.121
 1963SOL    HW1 6788   0.903   1.769   1.136
 1963SOL    HW2 6789   1.048   1.824   1.083
 1964SOL     OW 6790   4.981   4.452   1.320
 1964SOL    HW1 6791   4.992   4.540   1.366
 1964SOL    HW2 6792   4.884   4.432   1.310
 1965SOL     OW 6793   1.991   2.797   5.036
 1965SOL    HW1 6794   1.980   2.892   5.005
 1965SOL    HW2 6795   1.994   2.736   4.957
 1966SOL     OW 6796   0.434   6.265   0.586
 1966SOL    HW1 6797   0.427   6.171   0.620
 1966SOL    HW2 6798   0.343   6.304   0.577
 1967SOL     OW 6799   5.655   2.752   5.450
 1967SOL    HW1 6800   5.667   2.656   5.426
 1967SOL    HW2 6801   5.698   2.810   5.379
 1968SOL     OW 6802   1.270   6.724   5.238
 1968SOL    HW1 6803   1.284   6.650   5.304
 1968SOL    HW2 6804   1.266   6.686   5.145
 1969SOL     OW 6805   1.606   1.749   0.987
 1969SOL    HW1 6806   1.571   1.794   0.905
 1969SOL    HW2 6807   1.703   1.773   0.999
 1970SOL     OW 6808   2.825   6.579   6.339
 1970SOL    HW1 6809   2.859   6.664   6.379
 1970SOL    HW2 6810   2.799   6.595   6.244
 1971SOL     OW 6811   0.805   0.308   5.810
 1971SOL    HW1 6812   0.803   0.210   5.830
 1971SOL    HW2 6813   0.824   0.322   5.713
 1972SOL     OW 6814   5.463   1.871   2.090
 1972SOL    HW1 6815   5.376   1.918   2.107
 1972SOL    HW2 6816   5.447   1.788   2.037
 1973SOL     OW 6817   2.926   2.773   7.010
 1973SOL    HW1 6818   2.990   2.849   7.005
 1973SOL    HW2 6819   2.975   2.687   6.994
 1974SOL     OW 6820   5.584   6.761   5.012
 1974SOL    HW1 6821   5.660   6.754   4.948
 1974SOL    HW2 6822   5.502   6.719   4.973
 1975SOL     OW 6823   1.969   1.810   3.975
 1975SOL    HW1 6824   1.903   1.793   4.048
 1975SOL    HW2 6825   1.948   1.897   3.931
 1976SOL     OW 6826   6.462   0.195   0.205
 1976SOL    HW1 6827   6.387   0.232   0.148
 1976SOL    HW2 6828   6.429   0.116   0.255
 1977SOL     OW 6829   1.901   3.334   5.056
 1977SOL    HW1 6830   1.985   3.378   5.025
 1977SOL    HW2 6831   1.912   3.235   5.053
 1978SOL     OW 6832   1.802   6.317   3.028
 1978SOL    HW1 6833   1.850   6.304   2.942
 1978SOL    HW2 6834   1.842   6.393   3.078
 1979SOL     OW 6835   6.148   4.016   0.124
 1979SOL    HW1 6836   6.121   4.102   0.168
 1979SOL    HW2 6837   6.077   3.989   0.059
 1980SOL     OW 6838   3.412   6.769   4.432
 1980SOL    HW1 6839   3.440   6.861   4.408
 1980SOL    HW2 6840   3.468   6.703   4.382
 1981SOL     OW 6841   6.896   2.874   2.039
 1981SOL    HW1 6842   6.904   2.778   2.064
 1981SOL    HW2 6843   6.981   2.922   2.061
 1982SOL     OW 6844   0.844   4.120   4.288
 1982SOL    HW1 6845   0.758   4.150   4.331
 1982SOL    HW2 6846   0.832   4.028   4.250
 1983SOL     OW 6847   0.867   0.941   2.451
 1983SOL    HW1 6848   0.958   0.930   2.490
 1983SOL    HW2 6849   0.799   0.945   2.524
 1984SOL     OW 6850   4.686   2.086   4.860
 1984SOL    HW1 6851   4.708   2.131   4.774
 1984SOL    HW2 6852   4.607   2.131   4.903
 1985SOL     OW 6853   0.905   6.563   2.088
 1985SOL    HW1 6854   0.950   6.652   2.094
 1985SOL    HW2 6855   0.842   6.552   2.164
 1986SOL     OW 6856   2.841   1.089   6.991
 1986SOL    HW1 6857   2.779   1.038   6.933
 1986SOL    HW2 6858   2.847   1.184   6.959
 1987SOL     OW 6859   1.997   2.002   2.965
 1987SOL    HW1 6860   2.086   2.048   2.967
 1987SOL    HW2 6861   2.006   1.914   2.919
 1988SOL     OW 6862   5.884   3.320   0.500
 1988SOL    HW1 6863   5.886   3.413   0.461
 1988SOL    HW2 6864   5.963   3.269   0.467
 1989SOL     OW 6865   1.908   5.278   4.892
 1989SOL    HW1 6866   1.937   5.240   4.804
 1989SOL    HW2 6867   1.968   5.245   4.964
 1990SOL     OW 6868   3.832   5.579   0.458
 1990SOL    HW1 6869   3.828   5.650   0.388
 1990SOL    HW2 6870   3.867   5.618   0.543
 1991SOL     OW 6871   2.917   4.827   6.960
 1991SOL    HW1 6872   2.900   4.907   7.017
 1991SOL    HW2 6873   2.969   4.854   6.878
 1992SOL     OW 6874   0.421   0.903   0.229
 1992SOL    HW1 6875   0.408   0.923   0.131
 1992SOL    HW2 6876   0.506   0.944   0.260
 1993SOL     OW 6877   3.628   2.497   5.395
 1993SOL    HW1 6878   3.691   2.481   5.471
 1993SOL    HW2 6879   3.595   2.409   5.360
 1994SOL     OW 6880   0.438   1.786   0.096
 1994SOL    HW1 6881   0.538   1.792   0.102
 1994SOL    HW2 6882   0.407   1.838   0.017
 1995SOL     OW 6883   5.477   2.521   3.908
 1995SOL    HW1 6884   5.428   2.528   3.821
 1995SOL    HW2 6885   5.415   2.485   3.978
 1996SOL     OW 6886   2.392   2.771   0.241
 1996SOL    HW1 6887   2.362   2.836   0.312
 1996SOL    HW2 6888   2.422   2.686   0.284
 1997SOL     OW 6889   3.047   2.029   5.026
 1997SOL    HW1 6890   3.100   1.986   4.952
 1997SOL    HW2 6891   3.049   2.128   5.014
 1998SOL     OW 6892   2.965   3.885   0.352
 1998SOL    HW1 6893   2.913   3.848   0.276
 1998SOL    HW2 6894   3.058   3.907   0.322
 1999SOL     OW 6895   2.316   6.354   6.215
 1999SOL    HW1 6896   2.358   6.411   6.285
 1999SOL    HW2 6897   2.371   6.358   6.131
 2000SOL     OW 6898   4.302   2.758   5.315
 2000SOL    HW1 6899   4.251   2.686   5.267
 2000SOL    HW2 6900   4.238   2.827   5.349
 2001SOL     OW 6901   2.919   6.835   1.660
 2001SOL    HW1 6902   2.846   6.794   1.606
 2001SOL    HW2 6903   2.974   6.763   1.702
 2002SOL     OW 6904   0.627   4.653   0.097
 2002SOL    HW1 6905   0.585   4.566   0.123
 2002SOL    HW2 6906   0.645   4.707   0.179
 2003SOL     OW 6907   6.034   5.440   2.802
 2003SOL    HW1 6908   6.018   5.349   2.765
 2003SOL    HW2 6909   5.976   5.506   2.755
 2004SOL     OW 6910   5.186   1.638   4.360
 2004SOL    HW1 6911   5.134   1.723   4.362
 2004SOL    HW2 6912   5.126   1.563   4.332
 2005SOL     OW 6913   0.080   5.326   0.291
 2005SOL    HW1 6914   0.170   5.369   0.291
 2005SOL    HW2 6915   0.012   5.388   0.330
 2006SOL     OW 6916   5.752   6.683   3.078
 2006SOL    HW1 6917   5.779   6.651   2.987
 2006SOL    HW2 6918   5.660   6.650   3.099
 2007SOL     OW 6919   4.383   4.300   0.933
 2007SOL    HW1 6920   4.395   4.325   1.029
 2007SOL    HW2 6921   4.457   4.238   0.906
 2008SOL     OW 6922   1.998   4.219   3.862
 2008SOL    HW1 6923   2.057   4.153   3.815
 2008SOL    HW2 6924   1.987   4.190   3.958
 2009SOL     OW 6925   5.613   6.886   2.299
 2009SOL    HW1 6926   5.650   6.890   2.206
 2009SOL    HW2 6927   5.632   6.972   2.347
 2010SOL     OW 6928   2.845   1.792   2.121
 2010SOL    HW1 6929   2.843   1.764   2.217
 2010SOL    HW2 6930   2.821   1.889   2.114
 2011SOL     OW 6931   0.170   0.023   4.910
 2011SOL    HW1 6932   0.230   0.061   4.840
 2011SOL    HW2 6933   0.147   6.949   4.886
 2012SOL     OW 6934   1.094   4.589   2.011
 2012SOL    HW1 6935   1.087   4.646   2.093
 2012SOL    HW2 6936   1.021   4.521   2.011
 2013SOL     OW 6937   6.409   2.630   3.414
 2013SOL    HW1 6938   6.479   2.689   3.373
 2013SOL    HW2 6939   6.433   2.534   3.401
 2014SOL     OW 6940   2.440   6.529   3.501
 2014SOL    HW1 6941   2.485   6.474   3.430
 2014SOL    HW2 6942   2.348   6.552   3.471
 2015SOL     OW 6943   1.923   0.735   0.208
 2015SOL    HW1 6944   1.959   0.642   0.201
 2015SOL    HW2 6945   1.910   0.772   0.116
 2016SOL     OW 6946   1.656   6.024   5.964
 2016SOL    HW1 6947   1.639   6.106   6.020
 2016SOL    HW2 6948   1.652   5.943   6.022
 2017SOL     OW 6949   3.730   0.093   3.957
 2017SOL    HW1 6950   3.673   0.070   4.036
 2017SOL    HW2 6951   3.815   0.135   3.988
 2018SOL     OW 6952   5.359   1.975   4.449
 2018SOL    HW1 6953   5.378   2.062   4.495
 2018SOL    HW2 6954   5.280   1.985   4.389
 2019SOL     OW 6955   5.288   3.496   6.160
 2019SOL    HW1 6956   5.360   3.470   6.095
 2019SOL    HW2 6957   5.198   3.481   6.119
 2020SOL     OW 6958   1.793   7.020   5.015
 2020SOL    HW1 6959   1.700   0.021   4.985
 2020SOL    HW2 6960   1.796   6.925   5.046
 2021SOL     OW 6961   0.561   6.331   4.725
 2021SOL    HW1 6962   0.618   6.398   4.678
 2021SOL    HW2 6963   0.572   6.342   4.824
 2022SOL     OW 6964   1.241   4.820   3.323
 2022SOL    HW1 6965   1.315   4.795   3.386
 2022SOL    HW2 6966   1.156   4.831   3.375
 2023SOL     OW 6967   0.147   0.313   6.585
 2023SOL    HW1 6968   0.216   0.379   6.555
 2023SOL    HW2 6969   0.183   0.220   6.571
 2024SOL     OW 6970   0.516   6.052   3.275
 2024SOL    HW1 6971   0.594   6.072   3.216
 2024SOL    HW2 6972   0.504   5.953   3.281
 2025SOL     OW 6973   3.265   1.370   3.713
 2025SOL    HW1 6974   3.295   1.407   3.625
 2025SOL    HW2 6975   3.339   1.316   3.753
 2026SOL     OW 6976   6.669   3.617   5.577
 2026SOL    HW1 6977   6.685   3.532   5.527
 2026SOL    HW2 6978   6.592   3.605   5.640
 2027SOL     OW 6979   1.284   6.985   0.469
 2027SOL    HW1 6980   1.272   0.016   0.384
 2027SOL    HW2 6981   1.204   6.998   0.527
 2028SOL     OW 6982   2.652   5.803   4.737
 2028SOL    HW1 6983   2.596   5.796   4.654
 2028SOL    HW2 6984   2.725   5.734   4.733
 2029SOL     OW 6985   6.116   1.414   0.127
 2029SOL    HW1 6986   6.136   1.407   0.030
 2029SOL    HW2 6987   6.143   1.504   0.161
 2030SOL     OW 6988   2.932   1.078   3.801
 2030SOL    HW1 6989   2.959   1.174   3.809
 2030SOL    HW2 6990   2.918   1.039   3.893
 2031SOL     OW 6991   6.647   5.712   1.123
 2031SOL    HW1 6992   6.679   5.651   1.051
 2031SOL    HW2 6993   6.725   5.747   1.174
 2032SOL     OW 6994   4.584   0.822   2.045
 2032SOL    HW1 6995   4.514   0.752   2.053
 2032SOL    HW2 6996   4.599   0.845   1.949
 2033SOL     OW 6997   3.490   2.709   6.451
 2033SOL    HW1 6998   3.552   2.782   6.479
 2033SOL    HW2 6999   3.519   2.672   6.363
 2034SOL     OW 7000   2.310   5.062   5.614
 2034SOL    HW1 7001   2.362   4.976   5.615
 2034SOL    HW2 7002   2.374   5.139   5.607
 2035SOL     OW 7003   6.620   6.256   3.552
 2035SOL    HW1 7004   6.664   6.170   3.529
 2035SOL    HW2 7005   6.594   6.256   3.649
 2036SOL     OW 7006   0.719   4.053   3.144
 2036SOL    HW1 7007   0.783   4.120   3.184
 2036SOL    HW2 7008   0.771   3.980   3.100
 2037SOL     OW 7009   6.284   3.088   5.936
 2037SOL    HW1 7010   6.338   3.087   6.019
 2037SOL    HW2 7011   6.321   3.155   5.872
 2038SOL     OW 7012   2.087   1.771   0.027
 2038SOL    HW1 7013   2.134   1.690   0.061
 2038SOL    HW2 7014   2.072   1.835   0.102
 2039SOL     OW 7015   0.212   5.522   3.799
 2039SOL    HW1 7016   0.303   5.482   3.785
 2039SOL    HW2 7017   0.146   5.477   3.739
 2040SOL     OW 7018   2.512   2.997   5.822
 2040SOL    HW1 7019   2.503   3.024   5.726
 2040SOL    HW2 7020   2.568   3.063   5.871
 2041SOL     OW 7021   0.990   6.495   5.896
 2041SOL    HW1 7022   1.032   6.552   5.967
 2041SOL    HW2 7023   1.038   6.407   5.891
 2042SOL     OW 7024   4.930   6.411   6.889
 2042SOL    HW1 7025   4.995   6.487   6.890
 2042SOL    HW2 7026   4.897   6.395   6.982
 2043SOL     OW 7027   6.258   3.772   3.009
 2043SOL    HW1 7028   6.316   3.722   2.944
 2043SOL    HW2 7029   6.197   3.707   3.055
 2044SOL     OW 7030   6.938   0.542   1.522
 2044SOL    HW1 7031   6.909   0.561   1.616
 2044SOL    HW2 7032   7.000   0.464   1.521
 2045SOL     OW 7033   1.762   5.092   4.380
 2045SOL    HW1 7034   1.730   5.126   4.292
 2045SOL    HW2 7035   1.729   5.152   4.453
 2046SOL     OW 7036   6.630   1.851   4.324
 2046SOL    HW1 7037   6.590   1.814   4.241
 2046SOL    HW2 7038   6.708   1.794   4.351
 2047SOL     OW 7039   0.029   2.916   0.508
 2047SOL    HW1 7040   0.021   3.015   0.492
 2047SOL    HW2 7041   6.958   2.876   0.515
 2048SOL     OW 7042   1.533   6.380   5.776
 2048SOL    HW1 7043   1.579   6.451   5.723
 2048SOL    HW2 7044   1.592   6.299   5.783
 2049SOL     OW 7045   5.818   1.695   4.167
 2049SOL    HW1 7046   5.771   1.636   4.101
 2049SOL    HW2 7047   5.753   1.757   4.210
 2050SOL     OW 7048   6.141   2.736   4.047
 2050SOL    HW1 7049   6.226   2.709   4.002
 2050SOL    HW2 7050   6.088   2.794   3.986
 2051SOL     OW 7051   1.188   6.321   6.929
 2051SOL    HW1 7052   1.217   6.235   6.888
 2051SOL    HW2 7053   1.199   6.317   0.008
 2052SOL     OW 7054   1.810   3.098   1.263
 2052SOL    HW1 7055   1.887   3.034   1.264
 2052SOL    HW2 7056   1.751   3.079   1.341
 2053SOL     OW 7057   6.378   6.003   4.614
 2053SOL    HW1 7058   6.307   6.070   4.590
 2053SOL    HW2 7059   6.335   5.921   4.652
 2054SOL     OW 7060   3.313   4.079   3.539
 2054SOL    HW1 7061   3.313   4.007   3.609
 2054SOL    HW2 7062   3.293   4.039   3.450
 2055SOL     OW 7063   5.470   3.522   4.065
 2055SOL    HW1 7064   5.531   3.589   4.023
 2055SOL    HW2 7065   5.519   3.437   4.080
 2056SOL     OW 7066   4.243   5.640   1.176
 2056SOL    HW1 7067   4.240   5.723   1.121
 2056SOL    HW2 7068   4.291   5.659   1.262
 2057SOL     OW 7069   5.633   4.140   5.982
 2057SOL    HW1 7070   5.628   4.195   5.899
 2057SOL    HW2 7071   5.727   4.140   6.016
 2058SOL     OW 7072   0.345   0.403   3.185
 2058SOL    HW1 7073   0.377   0.481   3.240
 2058SOL    HW2 7074   0.335   0.323   3.244
 2059SOL     OW 7075   1.641   5.834   6.216
 2059SOL    HW1 7076   1.708   5.772   6.175
 2059SOL    HW2 7077   1.673   5.928   6.208
 2060SOL     OW 7078   0.342   4.095   1.648
 2060SOL    HW1 7079   0.404   4.069   1.574
 2060SOL    HW2 7080   0.355   4.034   1.726
 2061SOL     OW 7081   1.345   1.868   2.385
 2061SOL    HW1 7082   1.411   1.900   2.316
 2061SOL    HW2 7083   1.309   1.779   2.358
 2062SOL     OW 7084   0.026   5.170   5.079
 2062SOL    HW1 7085   6.955   5.203   5.101
 2062SOL    HW2 7086   0.082   5.245   5.044
 2063SOL     OW 7087   0.998   6.687   5.356
 2063SOL    HW1 7088   1.053   6.765   5.326
 2063SOL    HW2 7089   0.923   6.673   5.292
 2064SOL     OW 7090   6.816   2.373   4.592
 2064SOL    HW1 7091   6.881   2.341   4.524
 2064SOL    HW2 7092   6.807   2.473   4.587
 2065SOL     OW 7093   5.873   2.372   5.595
 2065SOL    HW1 7094   5.877   2.313   5.676
 2065SOL    HW2 7095   5.867   2.467   5.624
 2066SOL     OW 7096   0.168   4.620   5.074
 2066SOL    HW1 7097   0.098   4.591   5.139
 2066SOL    HW2 7098   0.259   4.605   5.114
 2067SOL     OW 7099   7.020   5.289   0.664
 2067SOL    HW1 7100   0.011   5.227   0.741
 2067SOL    HW2 7101   6.987   5.377   0.697
 2068SOL     OW 7102   2.247   0.314   4.590
 2068SOL    HW1 7103   2.227   0.219   4.612
 2068SOL    HW2 7104   2.199   0.340   4.506
 2069SOL     OW 7105   6.411   2.716   3.967
 2069SOL    HW1 7106   6.457   2.697   4.054
 2069SOL    HW2 7107   6.421   2.639   3.905
 2070SOL     OW 7108   1.069   1.366   0.568
 2070SOL    HW1 7109   1.024   1.389   0.654
 2070SOL    HW2 7110   1.155   1.319   0.587
 2071SOL     OW 7111   6.092   0.491   5.672
 2071SOL    HW1 7112   6.178   0.478   5.720
 2071SOL    HW2 7113   6.031   0.548   5.728
 2072SOL     OW 7114   4.357   5.327   4.902
 2072SOL    HW1 7115   4.420   5.331   4.980
 2072SOL    HW2 7116   4.308   5.240   4.903
 2073SOL     OW 7117   4.520   6.657   4.892
 2073SOL    HW1 7118   4.430   6.628   4.925
 2073SOL    HW2 7119   4.557   6.725   4.955
 2074SOL     OW 7120   2.207   2.070   5.969
 2074SOL    HW1 7121   2.185   1.972   5.970
 2074SOL    HW2 7122   2.217   2.102   6.063
 2075SOL     OW 7123   6.974   2.546   3.120
 2075SOL    HW1 7124   6.980   2.645   3.107
 2075SOL    HW2 7125   0.044   2.505   3.113
 2076SOL     OW 7126   5.303   6.850   6.168
 2076SOL    HW1 7127   5.316   6.785   6.244
 2076SOL    HW2 7128   5.260   6.933   6.203
 2077SOL     OW 7129   6.964   2.013   2.441
 2077SOL    HW1 7130   0.023   2.023   2.500
 2077SOL    HW2 7131   6.888   1.973   2.493
 2078SOL     OW 7132   1.816   5.208   6.518
 2078SOL    HW1 7133   1.907   5.242   6.542
 2078SOL    HW2 7134   1.823   5.148   6.439
 2079SOL     OW 7135   0.178   1.668   2.919
 2079SOL    HW1 7136   0.177   1.758   2.963
 2079SOL    HW2 7137   0.256   1.615   2.954
 2080SOL     OW 7138   1.897   0.763   4.735
 2080SOL    HW1 7139   1.828   0.786   4.667
 2080SOL    HW2 7140   1.866   0.792   4.825
 2081SOL     OW 7141   0.750   6.464   4.583
 2081SOL    HW1 7142   0.834   6.460   4.638
 2081SOL    HW2 7143   0.774   6.453   4.486
 2082SOL     OW 7144   1.007   6.734   2.839
 2082SOL    HW1 7145   0.925   6.703   2.791
 2082SOL    HW2 7146   1.040   6.660   2.898
 2083SOL     OW 7147   1.224   5.140   5.532
 2083SOL    HW1 7148   1.160   5.073   5.495
 2083SOL    HW2 7149   1.256   5.109   5.622
 2084SOL     OW 7150   0.939   4.238   2.421
 2084SOL    HW1 7151   1.014   4.304   2.429
 2084SOL    HW2 7152   0.932   4.185   2.505
 2085SOL     OW 7153   4.635   0.943   1.138
 2085SOL    HW1 7154   4.566   0.968   1.070
 2085SOL    HW2 7155   4.641   0.843   1.144
 2086SOL     OW 7156   3.649   6.421   6.754
 2086SOL    HW1 7157   3.580   6.442   6.685
 2086SOL    HW2 7158   3.721   6.490   6.753
 2087SOL     OW 7159   5.487   1.330   1.952
 2087SOL    HW1 7160   5.512   1.336   2.049
 2087SOL    HW2 7161   5.390   1.348   1.941
 2088SOL     OW 7162   1.216   6.067   6.829
 2088SOL    HW1 7163   1.275   6.005   6.880
 2088SOL    HW2 7164   1.131   6.021   6.805
 2089SOL     OW 7165   4.820   2.840   6.147
 2089SOL    HW1 7166   4.736   2.820   6.097
 2089SOL    HW2 7167   4.798   2.878   6.237
 2090SOL     OW 7168   4.481   3.089   5.783
 2090SOL    HW1 7169   4.552   3.064   5.849
 2090SOL    HW2 7170   4.495   3.038   5.699
 2091SOL     OW 7171   6.594   4.857   0.593
 2091SOL    HW1 7172   6.533   4.916   0.541
 2091SOL    HW2 7173   6.575   4.865   0.691
 2092SOL     OW 7174   5.419   3.590   0.449
 2092SOL    HW1 7175   5.432   3.543   0.362
 2092SOL    HW2 7176   5.508   3.606   0.492
 2093SOL     OW 7177   3.074   2.367   1.683
 2093SOL    HW1 7178   3.140   2.295   1.703
 2093SOL    HW2 7179   3.034   2.401   1.768
 2094SOL     OW 7180   5.624   1.435   1.501
 2094SOL    HW1 7181   5.644   1.516   1.446
 2094SOL    HW2 7182   5.595   1.464   1.593
 2095SOL     OW 7183   6.313   6.442   4.934
 2095SOL    HW1 7184   6.390   6.495   4.971
 2095SOL    HW2 7185   6.228   6.491   4.951
 2096SOL     OW 7186   4.910   4.950   3.771
 2096SOL    HW1 7187   4.980   4.886   3.802
 2096SOL    HW2 7188   4.841   4.900   3.718
 2097SOL     OW 7189   3.164   2.808   6.291
 2097SOL    HW1 7190   3.086   2.865   6.263
 2097SOL    HW2 7191   3.189   2.829   6.385
 2098SOL     OW 7192   4.553   5.940   1.798
 2098SOL    HW1 7193   4.456   5.939   1.778
 2098SOL    HW2 7194   4.588   5.846   1.799
 2099SOL     OW 7195   3.563   1.475   0.022
 2099SOL    HW1 7196   3.469   1.445   0.030
 2099SOL    HW2 7197   3.621   1.397   7.017
 2100SOL     OW 7198   5.647   1.508   0.810
 2100SOL    HW1 7199   5.630   1.602   0.840
 2100SOL    HW2 7200   5.653   1.448   0.890
 2101SOL     OW 7201   0.496   6.833   1.089
 2101SOL    HW1 7202   0.497   6.790   1.179
 2101SOL    HW2 7203   0.438   6.915   1.091
 2102SOL     OW 7204   5.226   4.353   1.994
 2102SOL    HW1 7205   5.229   4.300   2.079
 2102SOL    HW2 7206   5.153   4.318   1.936
 2103SOL     OW 7207   3.271   3.548   6.874
 2103SOL    HW1 7208   3.361   3.522   6.838
 2103SOL    HW2 7209   3.199   3.508   6.818
 2104SOL     OW 7210   1.769   4.434   2.289
 2104SOL    HW1 7211   1.797   4.346   2.252
 2104SOL    HW2 7212   1.672   4.449   2.269
 2105SOL     OW 7213   4.754   4.337   5.955
 2105SOL    HW1 7214   4.656   4.340   5.976
 2105SOL    HW2 7215   4.794   4.255   5.995
 2106SOL     OW 7216   5.318   3.754   1.600
 2106SOL    HW1 7217   5.287   3.726   1.691
 2106SOL    HW2 7218   5.255   3.823   1.564
 2107SOL     OW 7219   6.237   2.113   5.542
 2107SOL    HW1 7220   6.320   2.167   5.551
 2107SOL    HW2 7221   6.169   2.166   5.490
 2108SOL     OW 7222   6.106   5.032   5.392
 2108SOL    HW1 7223   6.058   5.028   5.480
 2108SOL    HW2 7224   6.069   5.108   5.338
 2109SOL     OW 7225   3.756   6.004   2.388
 2109SOL    HW1 7226   3.850   5.987   2.420
 2109SOL    HW2 7227   3.693   5.994   2.465
 2110SOL     OW 7228   2.815   0.957   0.521
 2110SOL    HW1 7229   2.824   1.015   0.602
 2110SOL    HW2 7230   2.720   0.955   0.492
 2111SOL     OW 7231   2.088   3.199   6.680
 2111SOL    HW1 7232   2.160   3.248   6.632
 2111SOL    HW2 7233   2.092   3.220   6.778
 2112SOL     OW 7234   5.030   2.008   0.779
 2112SOL    HW1 7235   5.029   1.908   0.781
 2112SOL    HW2 7236   5.014   2.043   0.872
 2113SOL     OW 7237   2.469   0.981   5.131
 2113SOL    HW1 7238   2.380   0.985   5.177
 2113SOL    HW2 7239   2.469   0.905   5.066
 2114SOL     OW 7240   2.536   1.764   6.713
 2114SOL    HW1 7241   2.609   1.748   6.648
 2114SOL    HW2 7242   2.552   1.851   6.761
 2115SOL     OW 7243   0.427   4.487   2.199
 2115SOL    HW1 7244   0.347   4.451   2.248
 2115SOL    HW2 7245   0.421   4.459   2.102
 2116SOL     OW 7246   1.241   3.691   2.484
 2116SOL    HW1 7247   1.163   3.743   2.517
 2116SOL    HW2 7248   1.238   3.598   2.522
 2117SOL     OW 7249   5.987   3.870   1.632
 2117SOL    HW1 7250   6.060   3.932   1.662
 2117SOL    HW2 7251   6.003   3.779   1.669
 2118SOL     OW 7252   6.132   3.591   3.189
 2118SOL    HW1 7253   6.037   3.591   3.222
 2118SOL    HW2 7254   6.156   3.499   3.160
 2119SOL     OW 7255   2.240   0.153   0.788
 2119SOL    HW1 7256   2.289   0.238   0.807
 2119SOL    HW2 7257   2.177   0.134   0.863
 2120SOL     OW 7258   0.724   4.239   2.783
 2120SOL    HW1 7259   0.822   4.220   2.785
 2120SOL    HW2 7260   0.673   4.154   2.798
 2121SOL     OW 7261   1.429   2.570   5.546
 2121SOL    HW1 7262   1.411   2.472   5.539
 2121SOL    HW2 7263   1.465   2.604   5.459
 2122SOL     OW 7264   5.806   5.963   6.757
 2122SOL    HW1 7265   5.738   5.939   6.688
 2122SOL    HW2 7266   5.828   6.060   6.751
 2123SOL     OW 7267   6.531   5.701   1.379
 2123SOL    HW1 7268   6.530   5.700   1.279
 2123SOL    HW2 7269   6.555   5.793   1.411
 2124SOL     OW 7270   2.817   1.613   0.348
 2124SOL    HW1 7271   2.880   1.677   0.303
 2124SOL    HW2 7272   2.812   1.635   0.446
 2125SOL     OW 7273   1.231   6.068   1.882
 2125SOL    HW1 7274   1.165   5.995   1.863
 2125SOL    HW2 7275   1.200   6.121   1.961
 2126SOL     OW 7276   3.407   2.298   6.769
 2126SOL    HW1 7277   3.350   2.277   6.690
 2126SOL    HW2 7278   3.476   2.366   6.744
 2127SOL     OW 7279   0.642   1.819   5.744
 2127SOL    HW1 7280   0.618   1.780   5.833
 2127SOL    HW2 7281   0.689   1.750   5.688
 2128SOL     OW 7282   6.456   2.841   2.631
 2128SOL    HW1 7283   6.395   2.785   2.574
 2128SOL    HW2 7284   6.411   2.861   2.718
 2129SOL     OW 7285   4.584   4.546   4.959
 2129SOL    HW1 7286   4.485   4.560   4.964
 2129SOL    HW2 7287   4.615   4.501   5.043
 2130SOL     OW 7288   3.059   0.262   2.508
 2130SOL    HW1 7289   3.002   0.235   2.430
 2130SOL    HW2 7290   3.110   0.182   2.541
 2131SOL     OW 7291   4.981   1.695   0.780
 2131SOL    HW1 7292   5.003   1.602   0.751
 2131SOL    HW2 7293   4.882   1.709   0.773
 2132SOL     OW 7294   2.838   1.852   6.654
 2132SOL    HW1 7295   2.852   1.754   6.666
 2132SOL    HW2 7296   2.886   1.883   6.573
 2133SOL     OW 7297   3.363   2.751   1.077
 2133SOL    HW1 7298   3.451   2.703   1.071
 2133SOL    HW2 7299   3.289   2.687   1.056
 2134SOL     OW 7300   0.667   0.973   4.368
 2134SOL    HW1 7301   0.762   0.947   4.381
 2134SOL    HW2 7302   0.658   1.023   4.281
 2135SOL     OW 7303   0.604   1.571   4.308
 2135SOL    HW1 7304   0.602   1.543   4.404
 2135SOL    HW2 7305   0.692   1.613   4.288
 2136SOL     OW 7306   1.345   4.004   4.793
 2136SOL    HW1 7307   1.256   4.032   4.829
 2136SOL    HW2 7308   1.387   3.938   4.856
 2137SOL     OW 7309   6.771   6.230   4.602
 2137SOL    HW1 7310   6.759   6.213   4.699
 2137SOL    HW2 7311   6.867   6.216   4.577
 2138SOL     OW 7312   6.752   1.434   1.551
 2138SOL    HW1 7313   6.680   1.503   1.540
 2138SOL    HW2 7314   6.730   1.377   1.630
 2139SOL     OW 7315   3.800   0.775   3.094
 2139SOL    HW1 7316   3.815   0.849   3.160
 2139SOL    HW2 7317   3.888   0.734   3.070
 2140SOL     OW 7318   2.940   5.490   3.230
 2140SOL    HW1 7319   2.983   5.445   3.152
 2140SOL    HW2 7320   2.908   5.580   3.203
 2141SOL     OW 7321   6.833   4.089   0.960
 2141SOL    HW1 7322   6.904   4.146   0.917
 2141SOL    HW2 7323   6.827   4.002   0.911
 2142SOL     OW 7324   1.290   2.110   2.792
 2142SOL    HW1 7325   1.352   2.101   2.714
 2142SOL    HW2 7326   1.331   2.171   2.860
 2143SOL     OW 7327   3.666   5.084   1.373
 2143SOL    HW1 7328   3.680   5.091   1.472
 2143SOL    HW2 7329   3.613   5.163   1.342
 2144SOL     OW 7330   1.183   6.753   3.166
 2144SOL    HW1 7331   1.138   6.692   3.101
 2144SOL    HW2 7332   1.114   6.800   3.222
 2145SOL     OW 7333   3.604   5.896   3.864
 2145SOL    HW1 7334   3.610   5.996   3.871
 2145SOL    HW2 7335   3.692   5.856   3.890
 2146SOL     OW 7336   2.923   3.362   2.133
 2146SOL    HW1 7337   2.986   3.396   2.064
 2146SOL    HW2 7338   2.904   3.265   2.116
 2147SOL     OW 7339   0.207   0.753   6.706
 2147SOL    HW1 7340   0.200   0.842   6.659
 2147SOL    HW2 7341   0.131   0.744   6.771
 2148SOL     OW 7342   5.355   2.751   4.189
 2148SOL    HW1 7343   5.438   2.727   4.240
 2148SOL    HW2 7344   5.336   2.849   4.200
 2149SOL     OW 7345   3.648   0.955   1.401
 2149SOL    HW1 7346   3.625   1.028   1.465
 2149SOL    HW2 7347   3.605   0.869   1.431
 2150SOL     OW 7348   2.281   2.394   2.550
 2150SOL    HW1 7349   2.223   2.362   2.625
 2150SOL    HW2 7350   2.243   2.365   2.463
 2151SOL     OW 7351   1.970   1.568   3.805
 2151SOL    HW1 7352   2.012   1.659   3.807
 2151SOL    HW2 7353   1.915   1.554   3.887
 2152SOL     OW 7354   3.737   6.080   1.215
 2152SOL    HW1 7355   3.820   6.134   1.229
 2152SOL    HW2 7356   3.713   6.034   1.301
 2153SOL     OW 7357   3.886   0.213   3.077
 2153SOL    HW1 7358   3.917   0.133   3.128
 2153SOL    HW2 7359   3.853   0.282   3.142
 2154SOL     OW 7360   5.134   0.660   4.529
 2154SOL    HW1 7361   5.071   0.596   4.574
 2154SOL    HW2 7362   5.223   0.617   4.518
 2155SOL     OW 7363   2.183   5.260   0.477
 2155SOL    HW1 7364   2.146   5.233   0.566
 2155SOL    HW2 7365   2.146   5.349   0.452
 2156SOL     OW 7366   2.594   0.460   2.658
 2156SOL    HW1 7367   2.611   0.394   2.732
 2156SOL    HW2 7368   2.579   0.410   2.573
 2157SOL     OW 7369   6.121   1.325   3.129
 2157SOL    HW1 7370   6.135   1.237   3.176
 2157SOL    HW2 7371   6.054   1.379   3.179
 2158SOL     OW 7372   4.391   6.112   0.941
 2158SOL    HW1 7373   4.310   6.157   0.979
 2158SOL    HW2 7374   4.428   6.048   1.008
 2159SOL     OW 7375   1.966   5.208   5.659
 2159SOL    HW1 7376   1.927   5.186   5.569
 2159SOL    HW2 7377   1.892   5.232   5.722
 2160SOL     OW 7378   4.426   3.387   1.357
 2160SOL    HW1 7379   4.498   3.319   1.370
 2160SOL    HW2 7380   4.414   3.404   1.259
 2161SOL     OW 7381   5.352   2.797   3.720
 2161SOL    HW1 7382   5.395   2.761   3.802
 2161SOL    HW2 7383   5.293   2.727   3.680
 2162SOL     OW 7384   2.857   0.640   0.142
 2162SOL    HW1 7385   2.897   0.659   0.052
 2162SOL    HW2 7386   2.929   0.610   0.204
 2163SOL     OW 7387   0.437   5.418   6.154
 2163SOL    HW1 7388   0.377   5.444   6.230
 2163SOL    HW2 7389   0.468   5.501   6.107
 2164SOL     OW 7390   1.444   2.249   6.969
 2164SOL    HW1 7391   1.405   2.197   6.893
 2164SOL    HW2 7392   1.542   2.233   6.973
 2165SOL     OW 7393   1.257   1.645   2.261
 2165SOL    HW1 7394   1.311   1.583   2.205
 2165SOL    HW2 7395   1.160   1.627   2.246
 2166SOL     OW 7396   1.829   1.786   5.234
 2166SOL    HW1 7397   1.855   1.708   5.177
 2166SOL    HW2 7398   1.835   1.870   5.181
 2167SOL     OW 7399   1.912   1.041   3.453
 2167SOL    HW1 7400   1.972   1.056   3.375
 2167SOL    HW2 7401   1.853   1.121   3.466
 2168SOL     OW 7402   0.412   2.195   3.393
 2168SOL    HW1 7403   0.333   2.226   3.446
 2168SOL    HW2 7404   0.385   2.120   3.333
 2169SOL     OW 7405   5.928   2.151   5.840
 2169SOL    HW1 7406   5.888   2.073   5.792
 2169SOL    HW2 7407   5.963   2.122   5.929
 2170SOL     OW 7408   5.611   4.846   5.808
 2170SOL    HW1 7409   5.589   4.861   5.712
 2170SOL    HW2 7410   5.583   4.754   5.835
 2171SOL     OW 7411   6.251   3.122   1.149
 2171SOL    HW1 7412   6.284   3.162   1.234
 2171SOL    HW2 7413   6.180   3.180   1.110
 2172SOL     OW 7414   2.468   1.703   0.576
 2172SOL    HW1 7415   2.455   1.697   0.675
 2172SOL    HW2 7416   2.486   1.612   0.539
 2173SOL     OW 7417   3.892   6.949   5.543
 2173SOL    HW1 7418   3.823   7.020   5.535
 2173SOL    HW2 7419   3.869   6.888   5.619
 2174SOL     OW 7420   5.949   4.962   6.109
 2174SOL    HW1 7421   5.891   4.963   6.028
 2174SOL    HW2 7422   5.974   4.868   6.132
 2175SOL     OW 7423   3.221   2.168   3.369
 2175SOL    HW1 7424   3.209   2.070   3.387
 2175SOL    HW2 7425   3.263   2.211   3.449
 2176SOL     OW 7426   0.840   2.728   0.365
 2176SOL    HW1 7427   0.834   2.753   0.268
 2176SOL    HW2 7428   0.867   2.808   0.418
 2177SOL     OW 7429   6.704   0.421   3.118
 2177SOL    HW1 7430   6.639   0.376   3.178
 2177SOL    HW2 7431   6.797   0.399   3.146
 2178SOL     OW 7432   1.937   4.530   0.296
 2178SOL    HW1 7433   1.980   4.456   0.245
 2178SOL    HW2 7434   1.838   4.522   0.290
 2179SOL     OW 7435   1.744   5.428   4.517
 2179SOL    HW1 7436   1.693   5.351   4.557
 2179SOL    HW2 7437   1.832   5.437   4.563
 2180SOL     OW 7438   3.082   3.440   1.899
 2180SOL    HW1 7439   3.023   3.494   1.839
 2180SOL    HW2 7440   3.075   3.343   1.875
 2181SOL     OW 7441   5.718   4.344   5.830
 2181SOL    HW1 7442   5.749   4.328   5.736
 2181SOL    HW2 7443   5.796   4.340   5.892
 2182SOL     OW 7444   6.274   3.373   5.004
 2182SOL    HW1 7445   6.311   3.285   5.034
 2182SOL    HW2 7446   6.232   3.362   4.914
 2183SOL     OW 7447   3.293   3.722   6.422
 2183SOL    HW1 7448   3.315   3.625   6.434
 2183SOL    HW2 7449   3.310   3.771   6.507
 2184SOL     OW 7450   3.512   1.578   5.292
 2184SOL    HW1 7451   3.604   1.541   5.299
 2184SOL    HW2 7452   3.451   1.529   5.354
 2185SOL     OW 7453   1.494   2.373   0.639
 2185SOL    HW1 7454   1.411   2.385   0.693
 2185SOL    HW2 7455   1.545   2.294   0.673
 2186SOL     OW 7456   0.089   4.669   2.188
 2186SOL    HW1 7457   0.125   4.712   2.105
 2186SOL    HW2 7458   7.015   4.699   2.203
 2187SOL     OW 7459   0.368   2.120   1.971
 2187SOL    HW1 7460   0.439   2.050   1.962
 2187SOL    HW2 7461   0.354   2.164   1.882
 2188SOL     OW 7462   5.523   5.918   4.401
 2188SOL    HW1 7463   5.500   5.962   4.489
 2188SOL    HW2 7464   5.463   5.840   4.386
 2189SOL     OW 7465   2.018   6.310   6.476
 2189SOL    HW1 7466   1.992   6.375   6.405
 2189SOL    HW2 7467   2.108   6.335   6.512
 2190SOL     OW 7468   0.237   2.710   2.214
 2190SOL    HW1 7469   0.167   2.773   2.246
 2190SOL    HW2 7470   0.327   2.741   2.243
 2191SOL     OW 7471   2.977   1.533   6.150
 2191SOL    HW1 7472   3.029   1.469   6.093
 2191SOL    HW2 7473   2.965   1.619   6.101
 2192SOL     OW 7474   3.878   6.790   4.034
 2192SOL    HW1 7475   3.856   6.700   3.996
 2192SOL    HW2 7476   3.903   6.852   3.960
 2193SOL     OW 7477   0.159   6.007   5.966
 2193SOL    HW1 7478   0.186   5.913   5.944
 2193SOL    HW2 7479   0.127   6.052   5.883
 2194SOL     OW 7480   2.599   4.448   6.943
 2194SOL    HW1 7481   2.565   4.522   7.001
 2194SOL    HW2 7482   2.643   4.487   6.862
 2195SOL     OW 7483   0.652   6.807   3.007
 2195SOL    HW1 7484   0.711   6.732   3.038
 2195SOL    HW2 7485   0.559   6.791   3.038
 2196SOL     OW 7486   3.264   0.324   5.462
 2196SOL    HW1 7487   3.171   0.345   5.493
 2196SOL    HW2 7488   3.265   0.235   5.416
 2197SOL     OW 7489   4.622   3.585   1.644
 2197SOL    HW1 7490   4.652   3.494   1.672
 2197SOL    HW2 7491   4.666   3.654   1.703
 2198SOL     OW 7492   6.782   1.540   6.904
 2198SOL    HW1 7493   6.752   1.522   6.810
 2198SOL    HW2 7494   6.880   1.558   6.905
 2199SOL     OW 7495   5.676   1.035   1.964
 2199SOL    HW1 7496   5.735   0.968   1.917
 2199SOL    HW2 7497   5.595   1.053   1.909
 2200SOL     OW 7498   4.356   0.230   4.683
 2200SOL    HW1 7499   4.385   0.134   4.678
 2200SOL    HW2 7500   4.262   0.238   4.652
 2201SOL     OW 7501   6.690   2.892   2.261
 2201SOL    HW1 7502   6.723   2.905   2.354
 2201SOL    HW2 7503   6.768   2.873   2.200
 2202SOL     OW 7504   3.565   5.168   4.109
 2202SOL    HW1 7505   3.642   5.171   4.045
 2202SOL    HW2 7506   3.598   5.188   4.201
 2203SOL     OW 7507   2.019   2.597   1.879
 2203SOL    HW1 7508   2.022   2.606   1.979
 2203SOL    HW2 7509   2.107   2.563   1.846
 2204SOL     OW 7510   3.443   1.050   6.882
 2204SOL    HW1 7511   3.406   0.964   6.848
 2204SOL    HW2 7512   3.370   1.103   6.925
 2205SOL     OW 7513   1.922   0.047   6.358
 2205SOL    HW1 7514   1.983   0.094   6.421
 2205SOL    HW2 7515   1.842   0.104   6.340
 2206SOL     OW 7516   2.946   3.951   5.067
 2206SOL    HW1 7517   2.870   4.012   5.089
 2206SOL    HW2 7518   2.926   3.901   4.983
 2207SOL     OW 7519   1.979   3.845   6.370
 2207SOL    HW1 7520   2.068   3.865   6.411
 2207SOL    HW2 7521   1.985   3.762   6.315
 2208SOL     OW 7522   1.829   4.889   2.281
 2208SOL    HW1 7523   1.865   4.913   2.371
 2208SOL    HW2 7524   1.848   4.962   2.216
 2209SOL     OW 7525   1.426   5.303   6.196
 2209SOL    HW1 7526   1.490   5.379   6.200
 2209SOL    HW2 7527   1.409   5.269   6.289
 2210SOL     OW 7528   0.301   4.760   3.657
 2210SOL    HW1 7529   0.356   4.766   3.741
 2210SOL    HW2 7530   0.295   4.664   3.628
 2211SOL     OW 7531   5.433   1.206   0.063
 2211SOL    HW1 7532   5.509   1.270   0.068
 2211SOL    HW2 7533   5.397   1.189   0.154
 2212SOL     OW 7534   1.871   6.262   0.907
 2212SOL    HW1 7535   1.876   6.228   1.001
 2212SOL    HW2 7536   1.782   6.307   0.893
 2213SOL     OW 7537   3.930   2.687   5.299
 2213SOL    HW1 7538   3.989   2.619   5.257
 2213SOL    HW2 7539   3.913   2.761   5.234
 2214SOL     OW 7540   4.724   1.341   5.138
 2214SOL    HW1 7541   4.636   1.294   5.136
 2214SOL    HW2 7542   4.779   1.312   5.059
 2215SOL     OW 7543   6.785   2.024   6.006
 2215SOL    HW1 7544   6.787   1.982   6.097
 2215SOL    HW2 7545   6.832   1.964   5.941
 2216SOL     OW 7546   1.787   0.630   6.985
 2216SOL    HW1 7547   1.864   0.601   6.928
 2216SOL    HW2 7548   1.783   0.574   0.047
 2217SOL     OW 7549   3.012   0.096   1.637
 2217SOL    HW1 7550   2.969   0.178   1.674
 2217SOL    HW2 7551   2.967   0.015   1.674
 2218SOL     OW 7552   1.529   6.978   1.231
 2218SOL    HW1 7553   1.489   7.004   1.319
 2218SOL    HW2 7554   1.625   7.006   1.229
 2219SOL     OW 7555   0.583   3.998   3.361
 2219SOL    HW1 7556   0.624   4.034   3.445
 2219SOL    HW2 7557   0.642   4.019   3.284
 2220SOL     OW 7558   0.110   1.377   4.427
 2220SOL    HW1 7559   0.134   1.425   4.342
 2220SOL    HW2 7560   0.168   1.296   4.437
 2221SOL     OW 7561   6.901   1.163   6.754
 2221SOL    HW1 7562   6.897   1.190   6.851
 2221SOL    HW2 7563   6.919   1.244   6.699
 2222SOL     OW 7564   3.582   0.742   1.100
 2222SOL    HW1 7565   3.645   0.701   1.165
 2222SOL    HW2 7566   3.599   0.840   1.095
 2223SOL     OW 7567   5.593   6.327   4.039
 2223SOL    HW1 7568   5.553   6.413   4.071
 2223SOL    HW2 7569   5.622   6.273   4.118
 2224SOL     OW 7570   2.290   4.398   1.960
 2224SOL    HW1 7571   2.307   4.311   2.006
 2224SOL    HW2 7572   2.195   4.401   1.928
 2225SOL     OW 7573   5.973   5.835   3.057
 2225SOL    HW1 7574   5.966   5.817   3.155
 2225SOL    HW2 7575   5.990   5.932   3.042
 2226SOL     OW 7576   4.210   3.693   0.843
 2226SOL    HW1 7577   4.208   3.789   0.870
 2226SOL    HW2 7578   4.120   3.666   0.808
 2227SOL     OW 7579   6.036   4.236   0.262
 2227SOL    HW1 7580   6.040   4.293   0.180
 2227SOL    HW2 7581   6.054   4.293   0.342
 2228SOL     OW 7582   3.030   5.913   0.887
 2228SOL    HW1 7583   3.074   5.941   0.802
 2228SOL    HW2 7584   3.073   5.829   0.920
 2229SOL     OW 7585   4.614   1.183   4.542
 2229SOL    HW1 7586   4.593   1.224   4.630
 2229SOL    HW2 7587   4.668   1.247   4.487
 2230SOL     OW 7588   0.994   5.841   4.909
 2230SOL    HW1 7589   1.021   5.746   4.898
 2230SOL    HW2 7590   1.008   5.890   4.823
 2231SOL     OW 7591   1.521   1.181   1.195
 2231SOL    HW1 7592   1.579   1.185   1.114
 2231SOL    HW2 7593   1.454   1.255   1.192
 2232SOL     OW 7594   0.921   2.049   3.760
 2232SOL    HW1 7595   1.008   2.068   3.805
 2232SOL    HW2 7596   0.935   1.981   3.688
 2233SOL     OW 7597   2.333   4.507   0.742
 2233SOL    HW1 7598   2.408   4.517   0.676
 2233SOL    HW2 7599   2.371   4.485   0.832
 2234SOL     OW 7600   4.828   2.185   1.638
 2234SOL    HW1 7601   4.797   2.274   1.669
 2234SOL    HW2 7602   4.758   2.143   1.580
 2235SOL     OW 7603   1.861   0.103   0.575
 2235SOL    HW1 7604   1.869   0.015   0.527
 2235SOL    HW2 7605   1.824   0.087   0.667
 2236SOL     OW 7606   0.570   4.490   0.463
 2236SOL    HW1 7607   0.611   4.412   0.416
 2236SOL    HW2 7608   0.599   4.575   0.419
 2237SOL     OW 7609   5.260   4.048   4.274
 2237SOL    HW1 7610   5.331   4.030   4.342
 2237SOL    HW2 7611   5.261   3.975   4.205
 2238SOL     OW 7612   6.292   6.029   2.610
 2238SOL    HW1 7613   6.369   5.979   2.651
 2238SOL    HW2 7614   6.213   5.968   2.604
 2239SOL     OW 7615   3.644   5.485   3.895
 2239SOL    HW1 7616   3.595   5.478   3.983
 2239SOL    HW2 7617   3.589   5.444   3.823
 2240SOL     OW 7618   5.699   5.910   4.215
 2240SOL    HW1 7619   5.662   5.844   4.151
 2240SOL    HW2 7620   5.642   5.914   4.297
 2241SOL     OW 7621   0.311   6.692   2.131
 2241SOL    HW1 7622   0.232   6.677   2.071
 2241SOL    HW2 7623   0.389   6.638   2.099
 2242SOL     OW 7624   5.779   2.359   3.047
 2242SOL    HW1 7625   5.837   2.418   3.103
 2242SOL    HW2 7626   5.708   2.413   3.002
 2243SOL     OW 7627   2.970   6.037   5.252
 2243SOL    HW1 7628   2.948   5.953   5.300
 2243SOL    HW2 7629   2.943   6.029   5.156
 2244SOL     OW 7630   3.558   0.916   3.296
 2244SOL    HW1 7631   3.654   0.927   3.269
 2244SOL    HW2 7632   3.511   0.862   3.227
 2245SOL     OW 7633   0.326   2.283   1.417
 2245SOL    HW1 7634   0.376   2.367   1.395
 2245SOL    HW2 7635   0.390   2.212   1.446
 2246SOL     OW 7636   1.556   1.676   4.345
 2246SOL    HW1 7637   1.630   1.623   4.385
 2246SOL    HW2 7638   1.538   1.643   4.252
 2247SOL     OW 7639   2.393   2.342   6.502
 2247SOL    HW1 7640   2.479   2.389   6.484
 2247SOL    HW2 7641   2.318   2.408   6.505
 2248SOL     OW 7642   4.829   3.752   6.304
 2248SOL    HW1 7643   4.886   3.806   6.241
 2248SOL    HW2 7644   4.808   3.664   6.261
 2249SOL     OW 7645   5.228   6.462   3.144
 2249SOL    HW1 7646   5.288   6.499   3.073
 2249SOL    HW2 7647   5.133   6.485   3.122
 2250SOL     OW 7648   5.389   3.926   1.390
 2250SOL    HW1 7649   5.376   3.906   1.293
 2250SOL    HW2 7650   5.399   3.841   1.441
 2251SOL     OW 7651   5.614   1.682   0.090
 2251SOL    HW1 7652   5.547   1.608   0.097
 2251SOL    HW2 7653   5.607   1.725   7.021
 2252SOL     OW 7654   6.672   2.629   4.184
 2252SOL    HW1 7655   6.668   2.564   4.109
 2252SOL    HW2 7656   6.585   2.630   4.233
 2253SOL     OW 7657   1.253   3.072   0.328
 2253SOL    HW1 7658   1.315   3.043   0.401
 2253SOL    HW2 7659   1.304   3.127   0.262
 2254SOL     OW 7660   2.397   2.811   5.598
 2254SOL    HW1 7661   2.434   2.753   5.671
 2254SOL    HW2 7662   2.454   2.893   5.588
 2255SOL     OW 7663   6.278   2.709   0.829
 2255SOL    HW1 7664   6.259   2.786   0.891
 2255SOL    HW2 7665   6.241   2.625   0.869
 2256SOL     OW 7666   4.034   5.864   1.618
 2256SOL    HW1 7667   4.022   5.963   1.611
 2256SOL    HW2 7668   3.995   5.821   1.536
 2257SOL     OW 7669   0.196   3.106   4.408
 2257SOL    HW1 7670   0.116   3.053   4.436
 2257SOL    HW2 7671   0.277   3.068   4.451
 2258SOL     OW 7672   1.464   5.645   5.059
 2258SOL    HW1 7673   1.474   5.615   4.964
 2258SOL    HW2 7674   1.471   5.566   5.120
 2259SOL     OW 7675   4.746   3.181   6.148
 2259SOL    HW1 7676   4.731   3.181   6.247
 2259SOL    HW2 7677   4.673   3.232   6.103
 2260SOL     OW 7678   4.917   4.398   3.264
 2260SOL    HW1 7679   4.826   4.438   3.264
 2260SOL    HW2 7680   4.953   4.396   3.357
 2261SOL     OW 7681   6.056   6.873   0.860
 2261SOL    HW1 7682   6.087   6.849   0.952
 2261SOL    HW2 7683   6.128   6.852   0.794
 2262SOL     OW 7684   6.127   3.188   2.674
 2262SOL    HW1 7685   6.139   3.111   2.736
 2262SOL    HW2 7686   6.087   3.156   2.588
 2263SOL     OW 7687   2.930   5.674   6.070
 2263SOL    HW1 7688   2.959   5.691   6.165
 2263SOL    HW2 7689   2.838   5.636   6.071
 2264SOL     OW 7690   2.988   3.803   2.334
 2264SOL    HW1 7691   3.074   3.753   2.342
 2264SOL    HW2 7692   2.915   3.749   2.375
 2265SOL     OW 7693   0.406   0.568   3.606
 2265SOL    HW1 7694   0.330   0.505   3.621
 2265SOL    HW2 7695   0.434   0.565   3.509
 2266SOL     OW 7696   6.257   1.247   1.015
 2266SOL    HW1 7697   6.251   1.156   0.975
 2266SOL    HW2 7698   6.303   1.242   1.104
 2267SOL     OW 7699   5.623   2.584   4.884
 2267SOL    HW1 7700   5.701   2.538   4.842
 2267SOL    HW2 7701   5.624   2.681   4.860
 2268SOL     OW 7702   6.692   4.831   0.020
 2268SOL    HW1 7703   6.748   4.797   0.096
 2268SOL    HW2 7704   6.682   4.760   6.971
 2269SOL     OW 7705   5.929   5.750   5.384
 2269SOL    HW1 7706   5.896   5.824   5.442
 2269SOL    HW2 7707   6.023   5.770   5.355
 2270SOL     OW 7708   3.981   3.119   0.092
 2270SOL    HW1 7709   3.920   3.046   0.123
 2270SOL    HW2 7710   3.970   3.131   7.013
 2271SOL     OW 7711   5.827   4.073   0.998
 2271SOL    HW1 7712   5.897   4.115   0.939
 2271SOL    HW2 7713   5.790   3.992   0.953
 2272SOL     OW 7714   6.070   2.177   5.005
 2272SOL    HW1 7715   5.997   2.225   5.054
 2272SOL    HW2 7716   6.082   2.218   4.915
 2273SOL     OW 7717   1.852   1.476   1.502
 2273SOL    HW1 7718   1.893   1.450   1.590
 2273SOL    HW2 7719   1.775   1.415   1.482
 2274SOL     OW 7720   1.115   3.356   6.009
 2274SOL    HW1 7721   1.117   3.401   5.920
 2274SOL    HW2 7722   1.091   3.259   5.996
 2275SOL     OW 7723   5.260   0.266   4.638
 2275SOL    HW1 7724   5.334   0.245   4.702
 2275SOL    HW2 7725   5.210   0.182   4.617
 2276SOL     OW 7726   3.306   4.984   1.290
 2276SOL    HW1 7727   3.210   5.009   1.289
 2276SOL    HW2 7728   3.351   5.029   1.368
 2277SOL     OW 7729   2.989   3.855   4.545
 2277SOL    HW1 7730   3.058   3.784   4.557
 2277SOL    HW2 7731   3.022   3.941   4.584
 2278SOL     OW 7732   4.990   6.869   4.319
 2278SOL    HW1 7733   5.009   6.777   4.286
 2278SOL    HW2 7734   4.896   6.894   4.293
 2279SOL     OW 7735   5.282   5.474   4.223
 2279SOL    HW1 7736   5.195   5.425   4.231
 2279SOL    HW2 7737   5.354   5.411   4.194
 2280SOL     OW 7738   6.664   6.472   5.031
 2280SOL    HW1 7739   6.635   6.565   5.054
 2280SOL    HW2 7740   6.733   6.475   4.959
 2281SOL     OW 7741   3.701   1.075   2.000
 2281SOL    HW1 7742   3.720   1.173   1.999
 2281SOL    HW2 7743   3.630   1.055   1.932
 2282SOL     OW 7744   5.444   0.195   4.845
 2282SOL    HW1 7745   5.397   0.127   4.902
 2282SOL    HW2 7746   5.522   0.152   4.800
 2283SOL     OW 7747   0.088   4.722   1.102
 2283SOL    HW1 7748   0.090   4.713   1.202
 2283SOL    HW2 7749   0.174   4.761   1.071
 2284SOL     OW 7750   2.020   1.388   0.294
 2284SOL    HW1 7751   2.041   1.429   0.383
 2284SOL    HW2 7752   2.057   1.445   0.221
 2285SOL     OW 7753   1.840   3.657   6.937
 2285SOL    HW1 7754   1.921   3.701   6.898
 2285SOL    HW2 7755   1.785   3.617   6.864
 2286SOL     OW 7756   6.323   6.537   4.233
 2286SOL    HW1 7757   6.281   6.448   4.252
 2286SOL    HW2 7758   6.274   6.608   4.284
 2287SOL     OW 7759   2.458   2.421   1.903
 2287SOL    HW1 7760   2.408   2.495   1.948
 2287SOL    HW2 7761   2.537   2.459   1.854
 2288SOL     OW 7762   6.840   5.150   4.556
 2288SOL    HW1 7763   6.872   5.152   4.651
 2288SOL    HW2 7764   6.751   5.194   4.550
 2289SOL     OW 7765   6.451   3.703   2.743
 2289SOL    HW1 7766   6.488   3.791   2.715
 2289SOL    HW2 7767   6.506   3.629   2.704
 2290SOL     OW 7768   2.044   3.686   1.935
 2290SOL    HW1 7769   1.962   3.643   1.972
 2290SOL    HW2 7770   2.125   3.638   1.969
 2291SOL     OW 7771   2.044   1.898   0.263
 2291SOL    HW1 7772   1.973   1.956   0.301
 2291SOL    HW2 7773   2.125   1.901   0.321
 2292SOL     OW 7774   4.943   2.555   3.175
 2292SOL    HW1 7775   5.042   2.540   3.177
 2292SOL    HW2 7776   4.898   2.477   3.133
 2293SOL     OW 7777   6.287   0.114   0.778
 2293SOL    HW1 7778   6.225   0.137   0.854
 2293SOL    HW2 7779   6.266   0.172   0.699
 2294SOL     OW 7780   3.482   1.878   6.066
 2294SOL    HW1 7781   3.397   1.825   6.060
 2294SOL    HW2 7782   3.556   1.826   6.024
 2295SOL     OW 7783   0.250   1.100   3.105
 2295SOL    HW1 7784   0.234   1.198   3.095
 2295SOL    HW2 7785   0.164   1.054   3.128
 2296SOL     OW 7786   2.748   4.960   2.965
 2296SOL    HW1 7787   2.782   4.935   3.056
 2296SOL    HW2 7788   2.672   5.024   2.974
 2297SOL     OW 7789   5.199   4.673   6.019
 2297SOL    HW1 7790   5.243   4.659   6.108
 2297SOL    HW2 7791   5.128   4.604   6.006
 2298SOL     OW 7792   3.565   3.772   2.871
 2298SOL    HW1 7793   3.626   3.697   2.897
 2298SOL    HW2 7794   3.536   3.760   2.776
 2299SOL     OW 7795   4.970   4.449   5.186
 2299SOL    HW1 7796   4.939   4.387   5.258
 2299SOL    HW2 7797   4.921   4.429   5.101
 2300SOL     OW 7798   2.969   6.650   3.442
 2300SOL    HW1 7799   3.007   6.558   3.447
 2300SOL    HW2 7800   2.877   6.647   3.404
 2301SOL     OW 7801   3.936   2.990   3.634
 2301SOL    HW1 7802   3.849   2.970   3.680
 2301SOL    HW2 7803   4.008   3.002   3.703
 2302SOL     OW 7804   3.278   0.606   1.459
 2302SOL    HW1 7805   3.307   0.514   1.431
 2302SOL    HW2 7806   3.301   0.671   1.387
 2303SOL     OW 7807   2.188   3.313   1.200
 2303SOL    HW1 7808   2.195   3.288   1.104
 2303SOL    HW2 7809   2.091   3.322   1.225
 2304SOL     OW 7810   5.479   5.466   4.482
 2304SOL    HW1 7811   5.408   5.522   4.438
 2304SOL    HW2 7812   5.514   5.513   4.562
 2305SOL     OW 7813   2.076   0.383   3.514
 2305SOL    HW1 7814   2.159   0.338   3.546
 2305SOL    HW2 7815   2.101   0.453   3.447
 2306SOL     OW 7816   1.644   5.495   1.700
 2306SOL    HW1 7817   1.614   5.416   1.753
 2306SOL    HW2 7818   1.709   5.548   1.754
 2307SOL     OW 7819   0.124   3.251   5.545
 2307SOL    HW1 7820   0.095   3.318   5.613
 2307SOL    HW2 7821   0.050   3.185   5.530
 2308SOL     OW 7822   2.655   4.807   1.415
 2308SOL    HW1 7823   2.644   4.708   1.426
 2308SOL    HW2 7824   2.591   4.855   1.476
 2309SOL     OW 7825   1.959   1.023   4.548
 2309SOL    HW1 7826   1.969   1.022   4.647
 2309SOL    HW2 7827   1.964   0.929   4.513
 2310SOL     OW 7828   5.684   6.215   2.444
 2310SOL    HW1 7829   5.690   6.265   2.357
 2310SOL    HW2 7830   5.624   6.264   2.507
 2311SOL     OW 7831   2.876   5.946   0.044
 2311SOL    HW1 7832   2.946   5.996   7.014
 2311SOL    HW2 7833   2.855   5.861   7.016
 2312SOL     OW 7834   4.233   5.841   3.538
 2312SOL    HW1 7835   4.182   5.763   3.503
 2312SOL    HW2 7836   4.302   5.810   3.603
 2313SOL     OW 7837   4.616   5.147   2.280
 2313SOL    HW1 7838   4.598   5.048   2.285
 2313SOL    HW2 7839   4.530   5.195   2.262
 2314SOL     OW 7840   4.381   6.711   2.821
 2314SOL    HW1 7841   4.282   6.698   2.809
 2314SOL    HW2 7842   4.397   6.774   2.896
 2315SOL     OW 7843   5.226   3.206   5.837
 2315SOL    HW1 7844   5.127   3.209   5.826
 2315SOL    HW2 7845   5.251   3.133   5.901
 2316SOL     OW 7846   4.935   2.145   3.747
 2316SOL    HW1 7847   4.864   2.207   3.782
 2316SOL    HW2 7848   4.892   2.066   3.704
 2317SOL     OW 7849   0.093   5.588   3.209
 2317SOL    HW1 7850   0.030   5.661   3.236
 2317SOL    HW2 7851   0.083   5.512   3.273
 2318SOL     OW 7852   0.171   3.317   3.489
 2318SOL    HW1 7853   0.269   3.299   3.496
 2318SOL    HW2 7854   0.154   3.415   3.497
 2319SOL     OW 7855   1.357   4.647   4.483
 2319SOL    HW1 7856   1.432   4.582   4.471
 2319SOL    HW2 7857   1.328   4.647   4.579
 2320SOL     OW 7858   1.272   2.808   4.367
 2320SOL    HW1 7859   1.347   2.824   4.432
 2320SOL    HW2 7860   1.197   2.760   4.413
 2321SOL     OW 7861   3.263   1.319   5.190
 2321SOL    HW1 7862   3.169   1.286   5.189
 2321SOL    HW2 7863   3.289   1.342   5.284
 2322SOL     OW 7864   2.587   1.723   5.204
 2322SOL    HW1 7865   2.679   1.683   5.200
 2322SOL    HW2 7866   2.584   1.804   5.145
 2323SOL     OW 7867   2.702   4.686   2.467
 2323SOL    HW1 7868   2.703   4.721   2.561
 2323SOL    HW2 7869   2.613   4.646   2.448
 2324SOL     OW 7870   0.534   6.344   2.819
 2324SOL    HW1 7871   0.480   6.426   2.798
 2324SOL    HW2 7872   0.628   6.371   2.840
 2325SOL     OW 7873   0.952   3.950   1.463
 2325SOL    HW1 7874   0.983   3.856   1.447
 2325SOL    HW2 7875   0.947   3.967   1.562
 2326SOL     OW 7876   2.909   4.142   6.138
 2326SOL    HW1 7877   2.819   4.142   6.094
 2326SOL    HW2 7878   2.918   4.224   6.195
 2327SOL     OW 7879   5.301   2.534   4.763
 2327SOL    HW1 7880   5.382   2.539   4.704
 2327SOL    HW2 7881   5.330   2.535   4.859
 2328SOL     OW 7882   5.208   1.396   3.752
 2328SOL    HW1 7883   5.282   1.330   3.742
 2328SOL    HW2 7884   5.230   1.480   3.702
 2329SOL     OW 7885   1.629   5.275   4.902
 2329SOL    HW1 7886   1.728   5.263   4.888
 2329SOL    HW2 7887   1.581   5.196   4.863
 2330SOL     OW 7888   0.226   4.470   1.999
 2330SOL    HW1 7889   0.201   4.378   1.970
 2330SOL    HW2 7890   0.147   4.514   2.042
 2331SOL     OW 7891   6.185   5.167   6.600
 2331SOL    HW1 7892   6.262   5.149   6.662
 2331SOL    HW2 7893   6.215   5.230   6.528
 2332SOL     OW 7894   4.729   2.231   5.199
 2332SOL    HW1 7895   4.723   2.300   5.270
 2332SOL    HW2 7896   4.726   2.140   5.240
 2333SOL     OW 7897   6.920   4.989   2.877
 2333SOL    HW1 7898   6.837   5.042   2.897
 2333SOL    HW2 7899   6.976   5.039   2.811
 2334SOL     OW 7900   2.519   6.848   0.076
 2334SOL    HW1 7901   2.571   6.824   0.158
 2334SOL    HW2 7902   2.582   6.866   0.001
 2335SOL     OW 7903   6.101   0.657   3.076
 2335SOL    HW1 7904   6.139   0.577   3.123
 2335SOL    HW2 7905   6.106   0.643   2.977
 2336SOL     OW 7906   4.691   1.409   5.401
 2336SOL    HW1 7907   4.744   1.493   5.394
 2336SOL    HW2 7908   4.687   1.364   5.312
 2337SOL     OW 7909   4.988   0.767   3.614
 2337SOL    HW1 7910   4.927   0.772   3.536
 2337SOL    HW2 7911   5.050   0.688   3.604
 2338SOL     OW 7912   1.231   0.211   6.494
 2338SOL    HW1 7913   1.142   0.213   6.539
 2338SOL    HW2 7914   1.290   0.143   6.538
 2339SOL     OW 7915   3.893   3.616   5.271
 2339SOL    HW1 7916   3.820   3.683   5.257
 2339SOL    HW2 7917   3.917   3.612   5.367
 2340SOL     OW 7918   4.451   6.565   5.530
 2340SOL    HW1 7919   4.460   6.592   5.434
 2340SOL    HW2 7920   4.493   6.475   5.543
 2341SOL     OW 7921   4.975   4.082   1.217
 2341SOL    HW1 7922   4.991   4.092   1.315
 2341SOL    HW2 7923   4.999   4.167   1.170
 2342SOL     OW 7924   0.838   6.219   5.426
 2342SOL    HW1 7925   0.763   6.157   5.403
 2342SOL    HW2 7926   0.812   6.274   5.505
 2343SOL     OW 7927   2.003   6.515   1.131
 2343SOL    HW1 7928   2.090   6.553   1.163
 2343SOL    HW2 7929   2.010   6.494   1.033
 2344SOL     OW 7930   2.147   1.546   1.422
 2344SOL    HW1 7931   2.164   1.504   1.333
 2344SOL    HW2 7932   2.048   1.558   1.433
 2345SOL     OW 7933   2.052   6.475   5.672
 2345SOL    HW1 7934   2.050   6.540   5.596
 2345SOL    HW2 7935   1.961   6.469   5.713
 2346SOL     OW 7936   4.690   2.841   5.124
 2346SOL    HW1 7937   4.638   2.787   5.058
 2346SOL    HW2 7938   4.771   2.880   5.080
 2347SOL     OW 7939   1.492   4.329   1.960
 2347SOL    HW1 7940   1.405   4.362   1.922
 2347SOL    HW2 7941   1.509   4.373   2.048
 2348SOL     OW 7942   2.389   6.058   3.394
 2348SOL    HW1 7943   2.323   6.131   3.377
 2348SOL    HW2 7944   2.464   6.093   3.451
 2349SOL     OW 7945   1.159   6.662   0.172
 2349SOL    HW1 7946   1.060   6.651   0.172
 2349SOL    HW2 7947   1.185   6.727   0.243
 2350SOL     OW 7948   3.973   6.627   5.597
 2350SOL    HW1 7949   3.944   6.621   5.692
 2350SOL    HW2 7950   4.051   6.690   5.590
 2351SOL     OW 7951   3.298   5.290   3.334
 2351SOL    HW1 7952   3.358   5.302   3.413
 2351SOL    HW2 7953   3.295   5.194   3.309
 2352SOL     OW 7954   0.531   4.811   3.255
 2352SOL    HW1 7955   0.526   4.784   3.352
 2352SOL    HW2 7956   0.626   4.829   3.230
 2353SOL     OW 7957   2.477   4.402   4.508
 2353SOL    HW1 7958   2.490   4.458   4.589
 2353SOL    HW2 7959   2.509   4.451   4.427
 2354SOL     OW 7960   3.696   1.910   6.721
 2354SOL    HW1 7961   3.787   1.931   6.684
 2354SOL    HW2 7962   3.686   1.811   6.730
 2355SOL     OW 7963   0.453   6.004   0.653
 2355SOL    HW1 7964   0.528   5.953   0.612
 2355SOL    HW2 7965   0.373   5.944   0.660
 2356SOL     OW 7966   2.415   3.697   1.760
 2356SOL    HW1 7967   2.493   3.673   1.701
 2356SOL    HW2 7968   2.386   3.617   1.811
 2357SOL     OW 7969   4.250   5.148   3.994
 2357SOL    HW1 7970   4.240   5.238   3.952
 2357SOL    HW2 7971   4.268   5.158   4.092
 2358SOL     OW 7972   2.822   6.505   4.110
 2358SOL    HW1 7973   2.765   6.428   4.083
 2358SOL    HW2 7974   2.790   6.588   4.064
 2359SOL     OW 7975   1.770   0.649   6.066
 2359SOL    HW1 7976   1.672   0.629   6.077
 2359SOL    HW2 7977   1.781   0.741   6.028
 2360SOL     OW 7978   4.552   4.621   6.372
 2360SOL    HW1 7979   4.618   4.634   6.446
 2360SOL    HW2 7980   4.531   4.710   6.330
 2361SOL     OW 7981   2.976   6.815   4.199
 2361SOL    HW1 7982   2.879   6.834   4.187
 2361SOL    HW2 7983   2.990   6.766   4.285
 2362SOL     OW 7984   4.366   6.215   5.038
 2362SOL    HW1 7985   4.343   6.260   4.952
 2362SOL    HW2 7986   4.308   6.250   5.111
 2363SOL     OW 7987   4.845   2.603   5.222
 2363SOL    HW1 7988   4.872   2.556   5.138
 2363SOL    HW2 7989   4.810   2.694   5.200
 2364SOL     OW 7990   6.106   2.289   2.439
 2364SOL    HW1 7991   6.110   2.245   2.349
 2364SOL    HW2 7992   6.075   2.384   2.428
 2365SOL     OW 7993   5.735   4.537   5.550
 2365SOL    HW1 7994   5.780   4.447   5.548
 2365SOL    HW2 7995   5.782   4.596   5.615
 2366SOL     OW 7996   1.114   4.107   5.882
 2366SOL    HW1 7997   1.154   4.029   5.930
 2366SOL    HW2 7998   1.155   4.116   5.792
 2367SOL     OW 7999   1.031   3.290   6.522
 2367SOL    HW1 8000   1.022   3.388   6.504
 2367SOL    HW2 8001   1.097   3.250   6.458
 2368SOL     OW 8002   4.481   1.207   5.199
 2368SOL    HW1 8003   4.486   1.148   5.280
 2368SOL    HW2 8004   4.437   1.157   5.124
 2369SOL     OW 8005   1.928   2.054   3.848
 2369SOL    HW1 8006   2.002   2.093   3.902
 2369SOL    HW2 8007   1.843   2.104   3.866
 2370SOL     OW 8008   4.250   3.391   0.838
 2370SOL    HW1 8009   4.276   3.473   0.786
 2370SOL    HW2 8010   4.205   3.326   0.778
 2371SOL     OW 8011   1.562   5.892   2.449
 2371SOL    HW1 8012   1.499   5.836   2.503
 2371SOL    HW2 8013   1.544   5.879   2.352
 2372SOL     OW 8014   0.407   1.502   0.058
 2372SOL    HW1 8015   0.410   1.602   0.060
 2372SOL    HW2 8016   0.313   1.472   0.042
 2373SOL     OW 8017   6.696   1.360   6.330
 2373SOL    HW1 8018   6.781   1.362   6.383
 2373SOL    HW2 8019   6.668   1.454   6.310
 2374SOL     OW 8020   6.131   5.799   3.344
 2374SOL    HW1 8021   6.186   5.881   3.363
 2374SOL    HW2 8022   6.123   5.745   3.428
 2375SOL     OW 8023   0.774   0.485   4.329
 2375SOL    HW1 8024   0.759   0.535   4.244
 2375SOL    HW2 8025   0.851   0.525   4.379
 2376SOL     OW 8026   6.149   2.608   3.043
 2376SOL    HW1 8027   6.138   2.639   2.949
 2376SOL    HW2 8028   6.205   2.525   3.044
 2377SOL     OW 8029   3.255   3.777   4.399
 2377SOL    HW1 8030   3.196   3.742   4.325
 2377SOL    HW2 8031   3.236   3.727   4.483
 2378SOL     OW 8032   5.483   1.987   0.170
 2378SOL    HW1 8033   5.536   1.980   0.255
 2378SOL    HW2 8034   5.428   1.904   0.159
 2379SOL     OW 8035   6.586   3.541   0.015
 2379SOL    HW1 8036   6.609   3.497   0.102
 2379SOL    HW2 8037   6.608   3.478   6.960
 2380SOL     OW 8038   6.358   0.869   5.433
 2380SOL    HW1 8039   6.430   0.938   5.436
 2380SOL    HW2 8040   6.270   0.911   5.454
 2381SOL     OW 8041   1.478   4.458   5.045
 2381SOL    HW1 8042   1.422   4.405   4.982
 2381SOL    HW2 8043   1.550   4.401   5.082
 2382SOL     OW 8044   2.192   5.645   2.728
 2382SOL    HW1 8045   2.196   5.550   2.759
 2382SOL    HW2 8046   2.136   5.698   2.792
 2383SOL     OW 8047   5.548   6.343   6.433
 2383SOL    HW1 8048   5.450   6.339   6.450
 2383SOL    HW2 8049   5.566   6.375   6.340
 2384SOL     OW 8050   1.173   2.484   1.251
 2384SOL    HW1 8051   1.078   2.453   1.255
 2384SOL    HW2 8052   1.205   2.481   1.156
 2385SOL     OW 8053   0.530   0.637   0.767
 2385SOL    HW1 8054   0.569   0.551   0.799
 2385SOL    HW2 8055   0.602   0.705   0.755
 2386SOL     OW 8056   2.945   5.435   4.323
 2386SOL    HW1 8057   2.949   5.342   4.360
 2386SOL    HW2 8058   3.000   5.496   4.379
 2387SOL     OW 8059   6.512   2.881   4.451
 2387SOL    HW1 8060   6.569   2.962   4.463
 2387SOL    HW2 8061   6.463   2.887   4.364
 2388SOL     OW 8062   0.847   1.998   5.774
 2388SOL    HW1 8063   0.755   1.963   5.753
 2388SOL    HW2 8064   0.839   2.090   5.812
 2389SOL     OW 8065   4.271   4.702   3.738
 2389SOL    HW1 8066   4.267   4.795   3.773
 2389SOL    HW2 8067   4.297   4.639   3.811
 2390SOL     OW 8068   3.780   3.691   4.560
 2390SOL    HW1 8069   3.691   3.666   4.598
 2390SOL    HW2 8070   3.827   3.753   4.623
 2391SOL     OW 8071   3.682   3.992   6.186
 2391SOL    HW1 8072   3.641   4.056   6.252
 2391SOL    HW2 8073   3.782   3.995   6.195
 2392SOL     OW 8074   3.006   3.874   6.109
 2392SOL    HW1 8075   3.041   3.879   6.015
 2392SOL    HW2 8076   2.974   3.964   6.138
 2393SOL     OW 8077   4.086   5.344   1.260
 2393SOL    HW1 8078   4.050   5.264   1.212
 2393SOL    HW2 8079   4.010   5.405   1.284
 2394SOL     OW 8080   0.681   3.716   4.104
 2394SOL    HW1 8081   0.656   3.667   4.188
 2394SOL    HW2 8082   0.654   3.661   4.025
 2395SOL     OW 8083   6.977   2.932   6.557
 2395SOL    HW1 8084   6.927   3.018   6.566
 2395SOL    HW2 8085   0.016   2.921   6.637
 2396SOL     OW 8086   5.618   6.435   0.658
 2396SOL    HW1 8087   5.650   6.523   0.624
 2396SOL    HW2 8088   5.636   6.364   0.589
 2397SOL     OW 8089   6.690   5.021   0.337
 2397SOL    HW1 8090   6.750   5.056   0.409
 2397SOL    HW2 8091   6.707   5.071   0.252
 2398SOL     OW 8092   2.803   4.741   4.752
 2398SOL    HW1 8093   2.889   4.782   4.723
 2398SOL    HW2 8094   2.816   4.696   4.841
 2399SOL     OW 8095   3.610   1.791   3.607
 2399SOL    HW1 8096   3.611   1.883   3.567
 2399SOL    HW2 8097   3.607   1.724   3.533
 2400SOL     OW 8098   2.767   3.700   0.825
 2400SOL    HW1 8099   2.702   3.733   0.893
 2400SOL    HW2 8100   2.741   3.735   0.735
 2401SOL     OW 8101   3.412   0.587   4.328
 2401SOL    HW1 8102   3.476   0.545   4.393
 2401SOL    HW2 8103   3.335   0.526   4.313
 2402SOL     OW 8104   0.089   1.273   4.124
 2402SOL    HW1 8105   7.020   1.310   4.098
 2402SOL    HW2 8106   0.160   1.340   4.103
 2403SOL     OW 8107   3.128   2.794   0.307
 2403SOL    HW1 8108   3.070   2.714   0.324
 2403SOL    HW2 8109   3.129   2.853   0.388
 2404SOL     OW 8110   5.853   1.746   1.852
 2404SOL    HW1 8111   5.877   1.782   1.943
 2404SOL    HW2 8112   5.766   1.785   1.822
 2405SOL     OW 8113   3.615   3.964   5.617
 2405SOL    HW1 8114   3.605   3.898   5.691
 2405SOL    HW2 8115   3.709   4.000   5.617
 2406SOL     OW 8116   2.197   0.210   4.187
 2406SOL    HW1 8117   2.262   0.159   4.242
 2406SOL    HW2 8118   2.106   0.170   4.198
 2407SOL     OW 8119   4.574   2.578   2.850
 2407SOL    HW1 8120   4.666   2.617   2.863
 2407SOL    HW2 8121   4.529   2.626   2.775
 2408SOL     OW 8122   3.162   4.877   3.035
 2408SOL    HW1 8123   3.187   4.907   2.943
 2408SOL    HW2 8124   3.127   4.784   3.031
 2409SOL     OW 8125   2.009   2.909   0.966
 2409SOL    HW1 8126   1.971   2.834   0.912
 2409SOL    HW2 8127   1.963   2.994   0.941
 2410SOL     OW 8128   6.216   3.447   5.284
 2410SOL    HW1 8129   6.186   3.513   5.215
 2410SOL    HW2 8130   6.160   3.364   5.278
 2411SOL     OW 8131   3.148   3.325   5.431
 2411SOL    HW1 8132   3.164   3.423   5.428
 2411SOL    HW2 8133   3.052   3.307   5.453
 2412SOL     OW 8134   2.830   3.062   0.261
 2412SOL    HW1 8135   2.849   2.988   0.326
 2412SOL    HW2 8136   2.779   3.025   0.183
 2413SOL     OW 8137   5.426   3.729   6.351
 2413SOL    HW1 8138   5.425   3.633   6.322
 2413SOL    HW2 8139   5.497   3.778   6.299
 2414SOL     OW 8140   5.622   3.624   3.000
 2414SOL    HW1 8141   5.608   3.525   2.991
 2414SOL    HW2 8142   5.534   3.671   2.997
 2415SOL     OW 8143   2.005   0.191   1.932
 2415SOL    HW1 8144   1.993   0.242   1.847
 2415SOL    HW2 8145   1.918   0.149   1.958
 2416SOL     OW 8146   1.489   1.838   4.741
 2416SOL    HW1 8147   1.399   1.852   4.698
 2416SOL    HW2 8148   1.477   1.808   4.835
 2417SOL     OW 8149   5.275   2.085   1.099
 2417SOL    HW1 8150   5.180   2.088   1.131
 2417SOL    HW2 8151   5.277   2.095   1.000
 2418SOL     OW 8152   3.358   3.226   4.992
 2418SOL    HW1 8153   3.427   3.290   4.957
 2418SOL    HW2 8154   3.401   3.137   5.007
 2419SOL     OW 8155   1.539   7.007   4.945
 2419SOL    HW1 8156   1.460   0.019   4.997
 2419SOL    HW2 8157   1.530   0.016   4.849
 2420SOL     OW 8158   3.856   6.835   1.998
 2420SOL    HW1 8159   3.758   6.816   1.996
 2420SOL    HW2 8160   3.879   6.886   2.080
 2421SOL     OW 8161   3.401   6.645   4.076
 2421SOL    HW1 8162   3.458   6.658   4.157
 2421SOL    HW2 8163   3.328   6.714   4.075
 2422SOL     OW 8164   4.672   0.310   0.559
 2422SOL    HW1 8165   4.715   0.309   0.469
 2422SOL    HW2 8166   4.691   0.397   0.605
 2423SOL     OW 8167   1.863   5.142   1.873
 2423SOL    HW1 8168   1.775   5.181   1.847
 2423SOL    HW2 8169   1.902   5.092   1.796
 2424SOL     OW 8170   5.612   6.704   6.730
 2424SOL    HW1 8171   5.570   6.652   6.805
 2424SOL    HW2 8172   5.664   6.642   6.671
 2425SOL     OW 8173   6.001   6.665   6.110
 2425SOL    HW1 8174   6.084   6.696   6.156
 2425SOL    HW2 8175   6.023   6.637   6.017
 2426SOL     OW 8176   0.937   5.663   4.538
 2426SOL    HW1 8177   0.951   5.691   4.443
 2426SOL    HW2 8178   0.972   5.570   4.551
 2427SOL     OW 8179   5.437   5.878   0.255
 2427SOL    HW1 8180   5.446   5.882   0.155
 2427SOL    HW2 8181   5.527   5.882   0.297
 2428SOL     OW 8182   0.522   0.690   2.885
 2428SOL    HW1 8183   0.620   0.699   2.904
 2428SOL    HW2 8184   0.506   0.706   2.787
 2429SOL     OW 8185   6.034   4.589   3.299
 2429SOL    HW1 8186   6.048   4.526   3.376
 2429SOL    HW2 8187   5.938   4.584   3.270
 2430SOL     OW 8188   5.343   3.000   0.543
 2430SOL    HW1 8189   5.424   2.943   0.528
 2430SOL    HW2 8190   5.368   3.096   0.536
 2431SOL     OW 8191   4.446   1.020   0.958
 2431SOL    HW1 8192   4.389   1.102   0.962
 2431SOL    HW2 8193   4.390   0.941   0.935
 2432SOL     OW 8194   3.293   6.454   2.437
 2432SOL    HW1 8195   3.322   6.376   2.381
 2432SOL    HW2 8196   3.201   6.438   2.472
 2433SOL     OW 8197   1.850   6.438   6.991
 2433SOL    HW1 8198   1.946   6.432   7.019
 2433SOL    HW2 8199   1.825   6.357   6.938
 2434SOL     OW 8200   5.415   1.601   3.048
 2434SOL    HW1 8201   5.406   1.502   3.055
 2434SOL    HW2 8202   5.351   1.645   3.111
 2435SOL     OW 8203   5.182   4.613   0.668
 2435SOL    HW1 8204   5.146   4.623   0.761
 2435SOL    HW2 8205   5.111   4.640   0.602
 2436SOL     OW 8206   2.050   6.884   1.567
 2436SOL    HW1 8207   2.024   6.808   1.627
 2436SOL    HW2 8208   2.051   6.853   1.472
 2437SOL     OW 8209   5.235   6.735   1.610
 2437SOL    HW1 8210   5.153   6.713   1.663
 2437SOL    HW2 8211   5.314   6.735   1.670
 2438SOL     OW 8212   4.028   0.942   4.527
 2438SOL    HW1 8213   4.126   0.921   4.529
 2438SOL    HW2 8214   4.007   1.009   4.598
 2439SOL     OW 8215   0.784   4.078   0.555
 2439SOL    HW1 8216   0.836   4.136   0.494
 2439SOL    HW2 8217   0.836   3.995   0.576
 2440SOL     OW 8218   3.868   6.259   5.530
 2440SOL    HW1 8219   3.948   6.279   5.474
 2440SOL    HW2 8220   3.895   6.197   5.604
 2441SOL     OW 8221   6.084   0.864   6.749
 2441SOL    HW1 8222   6.070   0.901   6.841
 2441SOL    HW2 8223   6.052   0.769   6.747
 2442SOL     OW 8224   5.409   5.418   2.980
 2442SOL    HW1 8225   5.415   5.323   3.011
 2442SOL    HW2 8226   5.473   5.474   3.032
 2443SOL     OW 8227   3.172   0.003   6.520
 2443SOL    HW1 8228   3.095   0.055   6.482
 2443SOL    HW2 8229   3.257   0.050   6.498
 2444SOL     OW 8230   3.397   3.540   0.351
 2444SOL    HW1 8231   3.444   3.491   0.425
 2444SOL    HW2 8232   3.298   3.526   0.359
 2445SOL     OW 8233   6.170   1.449   1.696
 2445SOL    HW1 8234   6.167   1.393   1.613
 2445SOL    HW2 8235   6.252   1.428   1.748
 2446SOL     OW 8236   0.845   3.346   4.790
 2446SOL    HW1 8237   0.879   3.352   4.696
 2446SOL    HW2 8238   0.919   3.366   4.854
 2447SOL     OW 8239   2.550   1.231   1.197
 2447SOL    HW1 8240   2.600   1.156   1.239
 2447SOL    HW2 8241   2.579   1.318   1.237
 2448SOL     OW 8242   6.648   1.369   3.956
 2448SOL    HW1 8243   6.645   1.440   3.886
 2448SOL    HW2 8244   6.576   1.385   4.023
 2449SOL     OW 8245   0.649   4.140   2.127
 2449SOL    HW1 8246   0.681   4.049   2.154
 2449SOL    HW2 8247   0.658   4.202   2.205
 2450SOL     OW 8248   3.865   4.690   6.246
 2450SOL    HW1 8249   3.906   4.674   6.335
 2450SOL    HW2 8250   3.776   4.644   6.241
 2451SOL     OW 8251   1.519   6.742   3.515
 2451SOL    HW1 8252   1.427   6.734   3.554
 2451SOL    HW2 8253   1.512   6.742   3.415
 2452SOL     OW 8254   2.805   2.054   4.040
 2452SOL    HW1 8255   2.809   2.134   4.100
 2452SOL    HW2 8256   2.715   2.010   4.051
 2453SOL     OW 8257   0.220   3.620   0.534
 2453SOL    HW1 8258   0.209   3.544   0.470
 2453SOL    HW2 8259   0.177   3.702   0.496
 2454SOL     OW 8260   3.073   0.679   6.959
 2454SOL    HW1 8261   3.043   0.769   6.927
 2454SOL    HW2 8262   3.129   0.636   6.888
 2455SOL     OW 8263   3.909   0.539   0.299
 2455SOL    HW1 8264   3.918   0.636   0.277
 2455SOL    HW2 8265   3.830   0.525   0.359
 2456SOL     OW 8266   6.543   2.602   0.025
 2456SOL    HW1 8267   6.540   2.578   6.948
 2456SOL    HW2 8268   6.608   2.542   0.072
 2457SOL     OW 8269   6.983   1.107   6.019
 2457SOL    HW1 8270   6.954   1.020   6.058
 2457SOL    HW2 8271   0.021   1.155   6.084
 2458SOL     OW 8272   1.433   6.633   3.937
 2458SOL    HW1 8273   1.370   6.555   3.947
 2458SOL    HW2 8274   1.437   6.683   4.024
 2459SOL     OW 8275   2.982   5.910   5.962
 2459SOL    HW1 8276   2.976   5.993   6.017
 2459SOL    HW2 8277   2.963   5.830   6.019
 2460SOL     OW 8278   1.009   1.158   1.375
 2460SOL    HW1 8279   1.075   1.219   1.419
 2460SOL    HW2 8280   1.003   1.073   1.426
 2461SOL     OW 8281   5.153   0.713   3.068
 2461SOL    HW1 8282   5.244   0.672   3.069
 2461SOL    HW2 8283   5.098   0.670   2.997
 2462SOL     OW 8284   2.269   5.332   0.109
 2462SOL    HW1 8285   2.329   5.308   0.033
 2462SOL    HW2 8286   2.259   5.253   0.169
 2463SOL     OW 8287   5.855   1.913   6.962
 2463SOL    HW1 8288   5.763   1.936   6.993
 2463SOL    HW2 8289   5.864   1.934   6.865
 2464SOL     OW 8290   1.925   4.001   2.542
 2464SOL    HW1 8291   1.931   4.094   2.507
 2464SOL    HW2 8292   2.015   3.957   2.536
 2465SOL     OW 8293   1.014   6.873   6.672
 2465SOL    HW1 8294   0.937   6.844   6.616
 2465SOL    HW2 8295   1.029   6.971   6.660
 2466SOL     OW 8296   2.615   1.662   3.210
 2466SOL    HW1 8297   2.688   1.724   3.239
 2466SOL    HW2 8298   2.592   1.601   3.286
 2467SOL     OW 8299   5.071   1.779   4.645
 2467SOL    HW1 8300   4.987   1.735   4.612
 2467SOL    HW2 8301   5.143   1.766   4.577
 2468SOL     OW 8302   4.666   6.611   1.695
 2468SOL    HW1 8303   4.644   6.556   1.613
 2468SOL    HW2 8304   4.607   6.691   1.698
 2469SOL     OW 8305   4.336   3.772   5.449
 2469SOL    HW1 8306   4.367   3.691   5.399
 2469SOL    HW2 8307   4.245   3.798   5.418
 2470SOL     OW 8308   4.758   4.094   6.095
 2470SOL    HW1 8309   4.833   4.030   6.113
 2470SOL    HW2 8310   4.688   4.084   6.165
 2471SOL     OW 8311   2.745   5.966   0.793
 2471SOL    HW1 8312   2.724   5.962   0.695
 2471SOL    HW2 8313   2.828   5.914   0.811
 2472SOL     OW 8314   4.531   2.201   3.177
 2472SOL    HW1 8315   4.507   2.288   3.132
 2472SOL    HW2 8316   4.554   2.133   3.108
 2473SOL     OW 8317   2.077   3.609   4.754
 2473SOL    HW1 8318   1.977   3.603   4.753
 2473SOL    HW2 8319   2.108   3.663   4.675
 2474SOL     OW 8320   0.395   6.042   1.515
 2474SOL    HW1 8321   0.445   6.094   1.446
 2474SOL    HW2 8322   0.363   6.105   1.587
 2475SOL     OW 8323   3.903   0.942   3.343
 2475SOL    HW1 8324   3.966   0.866   3.326
 2475SOL    HW2 8325   3.855   0.927   3.429
 2476SOL     OW 8326   6.597   1.328   2.750
 2476SOL    HW1 8327   6.659   1.250   2.758
 2476SOL    HW2 8328   6.506   1.302   2.784
 2477SOL     OW 8329   4.220   1.368   2.114
 2477SOL    HW1 8330   4.141   1.428   2.100
 2477SOL    HW2 8331   4.204   1.311   2.195
 2478SOL     OW 8332   6.280   0.944   1.567
 2478SOL    HW1 8333   6.262   0.858   1.613
 2478SOL    HW2 8334   6.195   0.978   1.526
 2479SOL     OW 8335   1.108   3.484   2.069
 2479SOL    HW1 8336   1.148   3.573   2.048
 2479SOL    HW2 8337   1.015   3.480   2.033
 2480SOL     OW 8338   4.561   4.108   0.900
 2480SOL    HW1 8339   4.488   4.045   0.871
 2480SOL    HW2 8340   4.629   4.058   0.953
 2481SOL     OW 8341   2.977   6.886   0.569
 2481SOL    HW1 8342   2.948   6.885   0.474
 2481SOL    HW2 8343   3.069   6.926   0.575
 2482SOL     OW 8344   5.434   3.389   5.956
 2482SOL    HW1 8345   5.390   3.302   5.936
 2482SOL    HW2 8346   5.527   3.389   5.921
 2483SOL     OW 8347   1.847   1.143   0.757
 2483SOL    HW1 8348   1.900   1.059   0.769
 2483SOL    HW2 8349   1.837   1.163   0.659
 2484SOL     OW 8350   3.740   0.813   0.234
 2484SOL    HW1 8351   3.687   0.787   0.153
 2484SOL    HW2 8352   3.682   0.806   0.315
 2485SOL     OW 8353   6.361   3.664   1.459
 2485SOL    HW1 8354   6.414   3.600   1.515
 2485SOL    HW2 8355   6.272   3.624   1.438
 2486SOL     OW 8356   1.971   4.707   4.493
 2486SOL    HW1 8357   2.007   4.641   4.426
 2486SOL    HW2 8358   1.871   4.710   4.486
 2487SOL     OW 8359   3.769   5.946   0.741
 2487SOL    HW1 8360   3.836   5.900   0.683
 2487SOL    HW2 8361   3.813   6.022   0.789
 2488SOL     OW 8362   1.495   4.446   2.222
 2488SOL    HW1 8363   1.463   4.538   2.201
 2488SOL    HW2 8364   1.442   4.408   2.298
 2489SOL     OW 8365   1.339   5.529   3.007
 2489SOL    HW1 8366   1.417   5.554   2.949
 2489SOL    HW2 8367   1.305   5.611   3.053
 2490SOL     OW 8368   6.742   4.851   1.486
 2490SOL    HW1 8369   6.751   4.834   1.387
 2490SOL    HW2 8370   6.710   4.767   1.531
 2491SOL     OW 8371   1.967   5.481   1.015
 2491SOL    HW1 8372   1.887   5.454   1.069
 2491SOL    HW2 8373   2.025   5.542   1.069
 2492SOL     OW 8374   4.227   2.201   0.735
 2492SOL    HW1 8375   4.325   2.196   0.754
 2492SOL    HW2 8376   4.206   2.149   0.652
 2493SOL     OW 8377   5.626   0.527   1.901
 2493SOL    HW1 8378   5.539   0.482   1.924
 2493SOL    HW2 8379   5.701   0.481   1.949
 2494SOL     OW 8380   5.784   4.368   2.375
 2494SOL    HW1 8381   5.874   4.409   2.388
 2494SOL    HW2 8382   5.768   4.298   2.444
 2495SOL     OW 8383   5.783   0.293   4.524
 2495SOL    HW1 8384   5.734   0.370   4.483
 2495SOL    HW2 8385   5.878   0.318   4.540
 2496SOL     OW 8386   6.538   3.536   6.033
 2496SOL    HW1 8387   6.538   3.491   6.122
 2496SOL    HW2 8388   6.618   3.507   5.981
 2497SOL     OW 8389   0.384   0.286   0.685
 2497SOL    HW1 8390   0.383   0.386   0.687
 2497SOL    HW2 8391   0.328   0.253   0.609
 2498SOL     OW 8392   2.589   1.693   4.261
 2498SOL    HW1 8393   2.607   1.689   4.360
 2498SOL    HW2 8394   2.665   1.651   4.211
 2499SOL     OW 8395   6.564   2.149   2.448
 2499SOL    HW1 8396   6.580   2.051   2.447
 2499SOL    HW2 8397   6.466   2.168   2.455
 2500SOL     OW 8398   4.512   3.140   6.971
 2500SOL    HW1 8399   4.427   3.191   6.985
 2500SOL    HW2 8400   4.564   3.181   6.896
 2501SOL     OW 8401   5.660   5.301   0.523
 2501SOL    HW1 8402   5.585   5.237   0.510
 2501SOL    HW2 8403   5.676   5.351   0.437
 2502SOL     OW 8404   1.365   5.595   3.489
 2502SOL    HW1 8405   1.283   5.543   3.513
 2502SOL    HW2 8406   1.424   5.603   3.569
 2503SOL     OW 8407   2.895   5.780   3.842
 2503SOL    HW1 8408   2.962   5.716   3.804
 2503SOL    HW2 8409   2.803   5.742   3.835
 2504SOL     OW 8410   4.032   5.566   4.449
 2504SOL    HW1 8411   3.941   5.526   4.458
 2504SOL    HW2 8412   4.074   5.536   4.364
 2505SOL     OW 8413   1.432   6.292   3.073
 2505SOL    HW1 8414   1.449   6.193   3.072
 2505SOL    HW2 8415   1.390   6.318   3.160
 2506SOL     OW 8416   6.921   4.210   4.816
 2506SOL    HW1 8417   6.924   4.126   4.870
 2506SOL    HW2 8418   6.940   4.289   4.875
 2507SOL     OW 8419   1.148   4.233   0.827
 2507SOL    HW1 8420   1.163   4.166   0.755
 2507SOL    HW2 8421   1.216   4.306   0.818
 2508SOL     OW 8422   2.436   1.577   2.477
 2508SOL    HW1 8423   2.516   1.612   2.526
 2508SOL    HW2 8424   2.425   1.629   2.392
 2509SOL     OW 8425   6.698   2.406   1.615
 2509SOL    HW1 8426   6.664   2.359   1.696
 2509SOL    HW2 8427   6.711   2.503   1.637
 2510SOL     OW 8428   2.874   4.374   1.454
 2510SOL    HW1 8429   2.836   4.458   1.493
 2510SOL    HW2 8430   2.960   4.353   1.500
 2511SOL     OW 8431   2.802   2.296   4.165
 2511SOL    HW1 8432   2.760   2.313   4.254
 2511SOL    HW2 8433   2.740   2.325   4.092
 2512SOL     OW 8434   5.292   4.280   5.178
 2512SOL    HW1 8435   5.380   4.323   5.157
 2512SOL    HW2 8436   5.228   4.349   5.210
 2513SOL     OW 8437   1.397   3.887   5.067
 2513SOL    HW1 8438   1.493   3.867   5.089
 2513SOL    HW2 8439   1.348   3.801   5.052
 2514SOL     OW 8440   6.490   3.887   4.537
 2514SOL    HW1 8441   6.456   3.852   4.625
 2514SOL    HW2 8442   6.566   3.829   4.506
 2515SOL     OW 8443   1.607   6.437   0.575
 2515SOL    HW1 8444   1.670   6.430   0.498
 2515SOL    HW2 8445   1.513   6.440   0.541
 2516SOL     OW 8446   6.305   0.915   2.882
 2516SOL    HW1 8447   6.286   0.863   2.799
 2516SOL    HW2 8448   6.220   0.954   2.918
 2517SOL     OW 8449   1.086   5.731   5.716
 2517SOL    HW1 8450   1.171   5.781   5.702
 2517SOL    HW2 8451   1.010   5.796   5.723
 2518SOL     OW 8452   1.175   4.586   0.256
 2518SOL    HW1 8453   1.182   4.535   0.341
 2518SOL    HW2 8454   1.266   4.612   0.225
 2519SOL     OW 8455   4.757   6.904   3.278
 2519SOL    HW1 8456   4.845   6.946   3.297
 2519SOL    HW2 8457   4.764   6.844   3.198
 2520SOL     OW 8458   2.431   2.111   0.156
 2520SOL    HW1 8459   2.369   2.121   0.234
 2520SOL    HW2 8460   2.435   2.015   0.129
 2521SOL     OW 8461   1.126   0.111   4.952
 2521SOL    HW1 8462   1.176   0.100   4.866
 2521SOL    HW2 8463   1.037   0.152   4.934
 2522SOL     OW 8464   0.399   3.823   4.999
 2522SOL    HW1 8465   0.482   3.876   5.018
 2522SOL    HW2 8466   0.400   3.740   5.055
 2523SOL     OW 8467   0.131   2.881   1.560
 2523SOL    HW1 8468   0.229   2.889   1.541
 2523SOL    HW2 8469   0.115   2.806   1.624
 2524SOL     OW 8470   1.324   6.285   5.066
 2524SOL    HW1 8471   1.332   6.375   5.023
 2524SOL    HW2 8472   1.232   6.249   5.049
 2525SOL     OW 8473   0.890   2.250   5.162
 2525SOL    HW1 8474   0.986   2.275   5.171
 2525SOL    HW2 8475   0.851   2.296   5.083
 2526SOL     OW 8476   2.020   3.856   5.818
 2526SOL    HW1 8477   2.005   3.950   5.849
 2526SOL    HW2 8478   2.031   3.855   5.719
 2527SOL     OW 8479   5.039   5.966   4.664
 2527SOL    HW1 8480   5.035   6.066   4.659
 2527SOL    HW2 8481   5.005   5.935   4.753
 2528SOL     OW 8482   5.562   5.002   1.310
 2528SOL    HW1 8483   5.615   4.996   1.225
 2528SOL    HW2 8484   5.509   4.918   1.322
 2529SOL     OW 8485   0.102   6.515   6.220
 2529SOL    HW1 8486   0.134   6.475   6.306
 2529SOL    HW2 8487   0.033   6.585   6.240
 2530SOL     OW 8488   2.614   6.886   5.577
 2530SOL    HW1 8489   2.624   6.982   5.603
 2530SOL    HW2 8490   2.528   6.851   5.614
 2531SOL     OW 8491   4.860   6.114   4.419
 2531SOL    HW1 8492   4.912   6.152   4.496
 2531SOL    HW2 8493   4.798   6.043   4.453
 2532SOL     OW 8494   1.161   0.077   1.141
 2532SOL    HW1 8495   1.177   0.112   1.234
 2532SOL    HW2 8496   1.238   0.105   1.083
 2533SOL     OW 8497   3.057   6.647   2.957
 2533SOL    HW1 8498   3.104   6.734   2.947
 2533SOL    HW2 8499   2.995   6.633   2.879
 2534SOL     OW 8500   3.289   0.219   3.402
 2534SOL    HW1 8501   3.333   0.186   3.485
 2534SOL    HW2 8502   3.359   0.255   3.339
 2535SOL     OW 8503   3.292   2.136   5.636
 2535SOL    HW1 8504   3.196   2.108   5.635
 2535SOL    HW2 8505   3.313   2.183   5.721
 2536SOL     OW 8506   0.440   2.156   4.699
 2536SOL    HW1 8507   0.372   2.094   4.740
 2536SOL    HW2 8508   0.435   2.245   4.745
 2537SOL     OW 8509   3.706   0.330   6.271
 2537SOL    HW1 8510   3.769   0.314   6.348
 2537SOL    HW2 8511   3.752   0.386   6.203
 2538SOL     OW 8512   1.396   4.979   5.327
 2538SOL    HW1 8513   1.316   5.023   5.369
 2538SOL    HW2 8514   1.455   4.943   5.400
 2539SOL     OW 8515   5.007   0.809   5.490
 2539SOL    HW1 8516   5.090   0.841   5.446
 2539SOL    HW2 8517   4.976   0.725   5.445
 2540SOL     OW 8518   3.597   0.894   2.674
 2540SOL    HW1 8519   3.611   0.993   2.665
 2540SOL    HW2 8520   3.603   0.851   2.585
 2541SOL     OW 8521   2.389   6.881   4.832
 2541SOL    HW1 8522   2.346   6.825   4.762
 2541SOL    HW2 8523   2.402   6.828   4.915
 2542SOL     OW 8524   4.591   0.824   5.898
 2542SOL    HW1 8525   4.517   0.850   5.960
 2542SOL    HW2 8526   4.614   0.728   5.912
 2543SOL     OW 8527   1.595   1.473   2.842
 2543SOL    HW1 8528   1.674   1.423   2.878
 2543SOL    HW2 8529   1.559   1.426   2.761
 2544SOL     OW 8530   0.267   6.204   1.006
 2544SOL    HW1 8531   0.329   6.125   1.003
 2544SOL    HW2 8532   0.173   6.171   1.013
 2545SOL     OW 8533   2.083   1.099   1.537
 2545SOL    HW1 8534   2.091   1.079   1.439
 2545SOL    HW2 8535   2.163   1.150   1.567
 2546SOL     OW 8536   6.892   1.576   1.241
 2546SOL    HW1 8537   6.919   1.666   1.206
 2546SOL    HW2 8538   6.933   1.562   1.331
 2547SOL     OW 8539   6.091   4.376   0.469
 2547SOL    HW1 8540   6.175   4.430   0.472
 2547SOL    HW2 8541   6.057   4.361   0.562
 2548SOL     OW 8542   2.493   6.409   5.547
 2548SOL    HW1 8543   2.429   6.424   5.622
 2548SOL    HW2 8544   2.578   6.458   5.566
 2549SOL     OW 8545   2.038   0.960   0.856
 2549SOL    HW1 8546   2.028   0.876   0.908
 2549SOL    HW2 8547   2.020   1.039   0.916
 2550SOL     OW 8548   7.018   0.385   5.903
 2550SOL    HW1 8549   0.011   0.457   5.835
 2550SOL    HW2 8550   0.030   0.297   5.866
 2551SOL     OW 8551   3.643   4.580   0.500
 2551SOL    HW1 8552   3.602   4.669   0.481
 2551SOL    HW2 8553   3.650   4.527   0.416
 2552SOL     OW 8554   2.163   5.860   5.899
 2552SOL    HW1 8555   2.112   5.780   5.868
 2552SOL    HW2 8556   2.101   5.939   5.902
 2553SOL     OW 8557   4.230   2.984   5.913
 2553SOL    HW1 8558   4.289   3.040   5.854
 2553SOL    HW2 8559   4.176   2.922   5.857
 2554SOL     OW 8560   1.899   5.903   0.284
 2554SOL    HW1 8561   1.830   5.936   0.347
 2554SOL    HW2 8562   1.894   5.803   0.279
 2555SOL     OW 8563   5.981   0.070   6.517
 2555SOL    HW1 8564   6.020   0.100   6.604
 2555SOL    HW2 8565   6.002   0.137   6.446
 2556SOL     OW 8566   4.592   5.612   0.296
 2556SOL    HW1 8567   4.634   5.681   0.236
 2556SOL    HW2 8568   4.495   5.634   0.309
 2557SOL     OW 8569   2.580   3.266   6.294
 2557SOL    HW1 8570   2.505   3.301   6.237
 2557SOL    HW2 8571   2.636   3.343   6.324
 2558SOL     OW 8572   4.717   2.725   5.874
 2558SOL    HW1 8573   4.807   2.697   5.842
 2558SOL    HW2 8574   4.713   2.825   5.879
 2559SOL     OW 8575   6.046   4.247   3.866
 2559SOL    HW1 8576   6.070   4.228   3.771
 2559SOL    HW2 8577   5.950   4.221   3.882
 2560SOL     OW 8578   5.590   3.233   4.102
 2560SOL    HW1 8579   5.674   3.246   4.049
 2560SOL    HW2 8580   5.541   3.153   4.068
 2561SOL     OW 8581   2.738   6.325   4.856
 2561SOL    HW1 8582   2.787   6.358   4.937
 2561SOL    HW2 8583   2.758   6.228   4.843
 2562SOL     OW 8584   1.213   5.827   2.224
 2562SOL    HW1 8585   1.141   5.897   2.213
 2562SOL    HW2 8586   1.180   5.755   2.285
 2563SOL     OW 8587   4.027   2.017   0.774
 2563SOL    HW1 8588   3.990   1.939   0.723
 2563SOL    HW2 8589   4.023   2.099   0.716
 2564SOL     OW 8590   2.056   6.090   6.041
 2564SOL    HW1 8591   2.137   6.085   6.098
 2564SOL    HW2 8592   1.974   6.081   6.098
 2565SOL     OW 8593   0.292   7.012   6.978
 2565SOL    HW1 8594   0.245   0.045   0.027
 2565SOL    HW2 8595   0.287   0.039   6.890
 2566SOL     OW 8596   2.375   0.001   1.388
 2566SOL    HW1 8597   2.404   0.064   1.460
 2566SOL    HW2 8598   2.363   6.930   1.426
 2567SOL     OW 8599   0.809   1.610   1.161
 2567SOL    HW1 8600   0.791   1.532   1.101
 2567SOL    HW2 8601   0.773   1.590   1.253
 2568SOL     OW 8602   3.250   6.743   0.224
 2568SOL    HW1 8603   3.314   6.699   0.160
 2568SOL    HW2 8604   3.204   6.819   0.179
 2569SOL     OW 8605   2.806   1.195   1.654
 2569SOL    HW1 8606   2.709   1.194   1.630
 2569SOL    HW2 8607   2.816   1.165   1.749
 2570SOL     OW 8608   5.468   0.186   6.248
 2570SOL    HW1 8609   5.409   0.210   6.325
 2570SOL    HW2 8610   5.446   0.093   6.218
 2571SOL     OW 8611   2.315   4.302   4.927
 2571SOL    HW1 8612   2.381   4.376   4.936
 2571SOL    HW2 8613   2.303   4.256   5.016
 2572SOL     OW 8614   2.233   5.114   0.245
 2572SOL    HW1 8615   2.304   5.050   0.274
 2572SOL    HW2 8616   2.193   5.159   0.325
 2573SOL     OW 8617   6.453   2.038   1.662
 2573SOL    HW1 8618   6.538   1.987   1.653
 2573SOL    HW2 8619   6.423   2.036   1.758
 2574SOL     OW 8620   6.369   3.936   6.828
 2574SOL    HW1 8621   6.378   3.967   6.922
 2574SOL    HW2 8622   6.326   3.845   6.827
 2575SOL     OW 8623   5.459   5.454   0.310
 2575SOL    HW1 8624   5.443   5.497   0.399
 2575SOL    HW2 8625   5.556   5.431   0.302
 2576SOL     OW 8626   3.343   0.304   4.018
 2576SOL    HW1 8627   3.417   0.306   4.086
 2576SOL    HW2 8628   3.280   0.379   4.036
 2577SOL     OW 8629   3.483   0.035   1.725
 2577SOL    HW1 8630   3.469   0.134   1.731
 2577SOL    HW2 8631   3.394   7.011   1.721
 2578SOL     OW 8632   4.890   1.769   3.649
 2578SOL    HW1 8633   4.889   1.706   3.571
 2578SOL    HW2 8634   4.850   1.857   3.621
 2579SOL     OW 8635   1.156   6.330   2.221
 2579SOL    HW1 8636   1.225   6.261   2.239
 2579SOL    HW2 8637   1.066   6.295   2.246
 2580SOL     OW 8638   2.712   2.809   6.434
 2580SOL    HW1 8639   2.749   2.748   6.364
 2580SOL    HW2 8640   2.651   2.876   6.390
 2581SOL     OW 8641   0.675   4.456   1.014
 2581SOL    HW1 8642   0.645   4.498   0.928
 2581SOL    HW2 8643   0.745   4.512   1.056
 2582SOL     OW 8644   0.710   4.991   2.219
 2582SOL    HW1 8645   0.633   4.948   2.172
 2582SOL    HW2 8646   0.780   5.016   2.152
 2583SOL     OW 8647   0.667   1.059   0.244
 2583SOL    HW1 8648   0.694   1.153   0.226
 2583SOL    HW2 8649   0.692   1.034   0.337
 2584SOL     OW 8650   4.159   5.477   0.439
 2584SOL    HW1 8651   4.073   5.440   0.403
 2584SOL    HW2 8652   4.218   5.504   0.363
 2585SOL     OW 8653   5.067   2.317   0.457
 2585SOL    HW1 8654   4.998   2.280   0.520
 2585SOL    HW2 8655   5.155   2.275   0.476
 2586SOL     OW 8656   3.692   1.351   3.816
 2586SOL    HW1 8657   3.766   1.334   3.751
 2586SOL    HW2 8658   3.728   1.405   3.893
 2587SOL     OW 8659   0.478   0.854   3.361
 2587SOL    HW1 8660   0.514   0.909   3.286
 2587SOL    HW2 8661   0.405   0.904   3.407
 2588SOL     OW 8662   4.297   0.736   6.441
 2588SOL    HW1 8663   4.211   0.693   6.413
 2588SOL    HW2 8664   4.365   0.726   6.368
 2589SOL     OW 8665   0.537   6.106   6.224
 2589SOL    HW1 8666   0.619   6.072   6.178
 2589SOL    HW2 8667   0.506   6.039   6.291
 2590SOL     OW 8668   3.640   5.766   0.899
 2590SOL    HW1 8669   3.698   5.761   0.980
 2590SOL    HW2 8670   3.682   5.826   0.832
 2591SOL     OW 8671   6.935   6.001   2.578
 2591SOL    HW1 8672   7.003   6.033   2.643
 2591SOL    HW2 8673   6.850   6.053   2.590
 2592SOL     OW 8674   3.643   5.298   0.697
 2592SOL    HW1 8675   3.592   5.370   0.743
 2592SOL    HW2 8676   3.610   5.288   0.604
 2593SOL     OW 8677   3.339   5.362   0.565
 2593SOL    HW1 8678   3.259   5.421   0.563
 2593SOL    HW2 8679   3.418   5.412   0.527
 2594SOL     OW 8680   1.376   5.253   6.480
 2594SOL    HW1 8681   1.349   5.251   6.576
 2594SOL    HW2 8682   1.391   5.160   6.447
 2595SOL     OW 8683   6.357   1.791   4.141
 2595SOL    HW1 8684   6.277   1.815   4.085
 2595SOL    HW2 8685   6.438   1.838   4.105
 2596SOL     OW 8686   3.131   1.578   2.038
 2596SOL    HW1 8687   3.170   1.671   2.036
 2596SOL    HW2 8688   3.061   1.573   2.109
 2597SOL     OW 8689   1.587   4.731   5.822
 2597SOL    HW1 8690   1.491   4.718   5.795
 2597SOL    HW2 8691   1.641   4.653   5.792
 2598SOL     OW 8692   6.545   1.275   3.064
 2598SOL    HW1 8693   6.506   1.286   3.156
 2598SOL    HW2 8694   6.493   1.207   3.013
 2599SOL     OW 8695   2.555   6.597   1.341
 2599SOL    HW1 8696   2.564   6.634   1.248
 2599SOL    HW2 8697   2.530   6.500   1.335
 2600SOL     OW 8698   5.568   3.068   4.720
 2600SOL    HW1 8699   5.485   3.114   4.750
 2600SOL    HW2 8700   5.632   3.135   4.682
 2601SOL     OW 8701   2.564   1.484   1.268
 2601SOL    HW1 8702   2.532   1.491   1.362
 2601SOL    HW2 8703   2.577   1.575   1.230
 2602SOL     OW 8704   1.003   4.078   4.566
 2602SOL    HW1 8705   1.101   4.076   4.547
 2602SOL    HW2 8706   0.952   4.062   4.482
 2603SOL     OW 8707   2.294   1.197   4.086
 2603SOL    HW1 8708   2.379   1.242   4.113
 2603SOL    HW2 8709   2.303   1.163   3.992
 2604SOL     OW 8710   4.467   1.867   2.640
 2604SOL    HW1 8711   4.373   1.897   2.655
 2604SOL    HW2 8712   4.513   1.930   2.577
 2605SOL     OW 8713   1.949   3.527   2.890
 2605SOL    HW1 8714   1.875   3.478   2.844
 2605SOL    HW2 8715   1.960   3.492   2.982
 2606SOL     OW 8716   5.557   4.612   2.097
 2606SOL    HW1 8717   5.529   4.627   2.003
 2606SOL    HW2 8718   5.523   4.687   2.155
 2607SOL     OW 8719   1.279   1.484   0.810
 2607SOL    HW1 8720   1.192   1.510   0.767
 2607SOL    HW2 8721   1.270   1.488   0.910
 2608SOL     OW 8722   4.675   5.211   1.231
 2608SOL    HW1 8723   4.629   5.210   1.143
 2608SOL    HW2 8724   4.635   5.282   1.289
 2609SOL     OW 8725   6.621   1.044   1.033
 2609SOL    HW1 8726   6.714   1.041   1.070
 2609SOL    HW2 8727   6.581   0.952   1.034
 2610SOL     OW 8728   1.249   4.285   4.936
 2610SOL    HW1 8729   1.172   4.339   4.967
 2610SOL    HW2 8730   1.293   4.241   5.015
 2611SOL     OW 8731   4.452   6.706   1.163
 2611SOL    HW1 8732   4.358   6.729   1.186
 2611SOL    HW2 8733   4.465   6.607   1.169
 2612SOL     OW 8734   6.395   0.182   6.363
 2612SOL    HW1 8735   6.377   0.243   6.286
 2612SOL    HW2 8736   6.473   0.217   6.416
 2613SOL     OW 8737   2.846   6.300   6.340
 2613SOL    HW1 8738   2.872   6.394   6.318
 2613SOL    HW2 8739   2.848   6.287   6.439
 2614SOL     OW 8740   6.892   0.763   5.746
 2614SOL    HW1 8741   6.949   0.695   5.792
 2614SOL    HW2 8742   6.852   0.723   5.664
 2615SOL     OW 8743   6.592   3.203   2.826
 2615SOL    HW1 8744   6.661   3.163   2.765
 2615SOL    HW2 8745   6.636   3.236   2.909
 2616SOL     OW 8746   3.311   2.978   5.637
 2616SOL    HW1 8747   3.241   2.995   5.567
 2616SOL    HW2 8748   3.324   2.879   5.647
 2617SOL     OW 8749   3.865   6.674   0.516
 2617SOL    HW1 8750   3.872   6.596   0.454
 2617SOL    HW2 8751   3.895   6.647   0.607
 2618SOL     OW 8752   6.853   0.499   4.088
 2618SOL    HW1 8753   6.816   0.407   4.080
 2618SOL    HW2 8754   6.801   0.561   4.029
 2619SOL     OW 8755   3.864   1.638   3.001
 2619SOL    HW1 8756   3.838   1.734   2.992
 2619SOL    HW2 8757   3.941   1.630   3.065
 2620SOL     OW 8758   6.459   6.845   3.947
 2620SOL    HW1 8759   6.400   6.921   3.922
 2620SOL    HW2 8760   6.404   6.768   3.980
 2621SOL     OW 8761   0.875   5.328   2.324
 2621SOL    HW1 8762   0.795   5.292   2.276
 2621SOL    HW2 8763   0.846   5.398   2.390
 2622SOL     OW 8764   1.557   3.690   5.487
 2622SOL    HW1 8765   1.552   3.591   5.474
 2622SOL    HW2 8766   1.651   3.721   5.474
 2623SOL     OW 8767   1.007   0.909   5.550
 2623SOL    HW1 8768   1.050   0.997   5.529
 2623SOL    HW2 8769   1.006   0.895   5.649
 2624SOL     OW 8770   6.866   1.256   5.608
 2624SOL    HW1 8771   6.859   1.180   5.673
 2624SOL    HW2 8772   6.831   1.339   5.650
 2625SOL     OW 8773   2.360   3.227   5.359
 2625SOL    HW1 8774   2.310   3.162   5.417
 2625SOL    HW2 8775   2.413   3.177   5.290
 2626SOL     OW 8776   0.565   0.386   5.958
 2626SOL    HW1 8777   0.494   0.330   5.916
 2626SOL    HW2 8778   0.649   0.379   5.905
 2627SOL     OW 8779   0.574   1.185   5.998
 2627SOL    HW1 8780   0.504   1.192   5.928
 2627SOL    HW2 8781   0.658   1.231   5.966
 2628SOL     OW 8782   2.308   4.600   5.930
 2628SOL    HW1 8783   2.387   4.609   5.869
 2628SOL    HW2 8784   2.256   4.517   5.906
 2629SOL     OW 8785   3.497   3.304   2.138
 2629SOL    HW1 8786   3.531   3.235   2.203
 2629SOL    HW2 8787   3.528   3.394   2.167
 2630SOL     OW 8788   3.318   2.051   2.753
 2630SOL    HW1 8789   3.355   2.053   2.660
 2630SOL    HW2 8790   3.234   2.105   2.757
 2631SOL     OW 8791   5.353   0.949   5.967
 2631SOL    HW1 8792   5.345   0.966   5.869
 2631SOL    HW2 8793   5.328   0.855   5.987
 2632SOL     OW 8794   5.304   3.172   6.220
 2632SOL    HW1 8795   5.310   3.098   6.287
 2632SOL    HW2 8796   5.378   3.237   6.234
 2633SOL     OW 8797   0.047   2.700   4.574
 2633SOL    HW1 8798   0.108   2.646   4.632
 2633SOL    HW2 8799   6.985   2.647   4.554
 2634SOL     OW 8800   0.604   4.812   3.527
 2634SOL    HW1 8801   0.651   4.847   3.608
 2634SOL    HW2 8802   0.519   4.768   3.555
 2635SOL     OW 8803   6.697   5.707   5.624
 2635SOL    HW1 8804   6.712   5.630   5.562
 2635SOL    HW2 8805   6.653   5.674   5.707
 2636SOL     OW 8806   3.708   0.377   4.700
 2636SOL    HW1 8807   3.665   0.360   4.789
 2636SOL    HW2 8808   3.745   0.469   4.698
 2637SOL     OW 8809   5.395   1.343   3.109
 2637SOL    HW1 8810   5.386   1.355   3.208
 2637SOL    HW2 8811   5.340   1.266   3.079
 2638SOL     OW 8812   6.849   0.065   3.920
 2638SOL    HW1 8813   6.823   0.133   3.989
 2638SOL    HW2 8814   6.776   7.019   3.910
 2639SOL     OW 8815   0.454   6.000   1.008
 2639SOL    HW1 8816   0.400   5.953   1.078
 2639SOL    HW2 8817   0.498   5.932   0.949
 2640SOL     OW 8818   0.637   5.984   5.492
 2640SOL    HW1 8819   0.601   5.912   5.552
 2640SOL    HW2 8820   0.568   6.055   5.479
 2641SOL     OW 8821   6.182   2.954   2.151
 2641SOL    HW1 8822   6.254   2.994   2.095
 2641SOL    HW2 8823   6.159   3.016   2.226
 2642SOL     OW 8824   5.371   7.011   3.708
 2642SOL    HW1 8825   5.367   0.033   3.618
 2642SOL    HW2 8826   5.373   6.911   3.697
 2643SOL     OW 8827   0.538   3.671   3.630
 2643SOL    HW1 8828   0.598   3.718   3.695
 2643SOL    HW2 8829   0.490   3.596   3.677
 2644SOL     OW 8830   4.910   6.386   5.464
 2644SOL    HW1 8831   4.817   6.352   5.453
 2644SOL    HW2 8832   4.949   6.406   5.374
 2645SOL     OW 8833   3.797   5.721   3.916
 2645SOL    HW1 8834   3.734   5.644   3.925
 2645SOL    HW2 8835   3.846   5.735   4.002
 2646SOL     OW 8836   5.768   1.076   6.837
 2646SOL    HW1 8837   5.726   1.118   6.757
 2646SOL    HW2 8838   5.797   1.147   6.901
 2647SOL     OW 8839   6.497   0.026   2.074
 2647SOL    HW1 8840   6.447   0.019   1.988
 2647SOL    HW2 8841   6.483   6.963   2.128
 2648SOL     OW 8842   0.674   6.937   3.671
 2648SOL    HW1 8843   0.703   6.990   3.751
 2648SOL    HW2 8844   0.695   6.988   3.587
 2649SOL     OW 8845   6.504   3.311   0.174
 2649SOL    HW1 8846   6.411   3.295   0.140
 2649SOL    HW2 8847   6.542   3.226   0.208
 2650SOL     OW 8848   0.960   4.869   3.971
 2650SOL    HW1 8849   1.052   4.902   3.993
 2650SOL    HW2 8850   0.964   4.771   3.953
 2651SOL     OW 8851   2.011   1.564   1.003
 2651SOL    HW1 8852   2.103   1.564   1.041
 2651SOL    HW2 8853   1.952   1.503   1.058
 2652SOL     OW 8854   3.975   3.695   4.952
 2652SOL    HW1 8855   3.987   3.794   4.955
 2652SOL    HW2 8856   3.877   3.673   4.955
 2653SOL     OW 8857   4.717   0.050   5.581
 2653SOL    HW1 8858   4.784   0.024   5.651
 2653SOL    HW2 8859   4.741   0.006   5.495
 2654SOL     OW 8860   4.390   0.339   2.339
 2654SOL    HW1 8861   4.300   0.329   2.382
 2654SOL    HW2 8862   4.445   0.403   2.392
 2655SOL     OW 8863   5.051   6.631   4.154
 2655SOL    HW1 8864   5.106   6.686   4.091
 2655SOL    HW2 8865   5.049   6.536   4.121
 2656SOL     OW 8866   3.585   5.215   4.658
 2656SOL    HW1 8867   3.577   5.121   4.691
 2656SOL    HW2 8868   3.568   5.216   4.559
 2657SOL     OW 8869   0.914   4.227   0.009
 2657SOL    HW1 8870   0.977   4.157   0.042
 2657SOL    HW2 8871   0.865   4.191   6.949
 2658SOL     OW 8872   4.903   4.659   1.074
 2658SOL    HW1 8873   4.926   4.616   0.987
 2658SOL    HW2 8874   4.805   4.673   1.080
 2659SOL     OW 8875   5.121   3.117   4.447
 2659SOL    HW1 8876   5.150   3.091   4.539
 2659SOL    HW2 8877   5.116   3.217   4.441
 2660SOL     OW 8878   1.996   6.855   1.941
 2660SOL    HW1 8879   2.010   6.784   1.872
 2660SOL    HW2 8880   1.950   6.815   2.021
 2661SOL     OW 8881   2.583   6.937   1.774
 2661SOL    HW1 8882   2.600   6.881   1.693
 2661SOL    HW2 8883   2.653   6.918   1.843
 2662SOL     OW 8884   3.992   6.449   5.379
 2662SOL    HW1 8885   3.981   6.485   5.286
 2662SOL    HW2 8886   3.978   6.523   5.445
 2663SOL     OW 8887   3.272   4.319   6.438
 2663SOL    HW1 8888   3.235   4.333   6.530
 2663SOL    HW2 8889   3.231   4.384   6.375
 2664SOL     OW 8890   4.464   3.359   5.533
 2664SOL    HW1 8891   4.535   3.300   5.571
 2664SOL    HW2 8892   4.424   3.414   5.606
 2665SOL     OW 8893   2.714   2.946   5.362
 2665SOL    HW1 8894   2.638   2.958   5.298
 2665SOL    HW2 8895   2.746   2.851   5.360
 2666SOL     OW 8896   6.653   5.284   1.526
 2666SOL    HW1 8897   6.593   5.226   1.471
 2666SOL    HW2 8898   6.664   5.243   1.617
 2667SOL     OW 8899   0.505   5.748   4.341
 2667SOL    HW1 8900   0.416   5.704   4.334
 2667SOL    HW2 8901   0.568   5.689   4.392
 2668SOL     OW 8902   0.203   3.468   5.021
 2668SOL    HW1 8903   0.166   3.556   5.051
 2668SOL    HW2 8904   0.180   3.453   4.924
 2669SOL     OW 8905   3.062   4.715   5.814
 2669SOL    HW1 8906   2.976   4.667   5.831
 2669SOL    HW2 8907   3.052   4.773   5.733
 2670SOL     OW 8908   5.273   3.227   5.574
 2670SOL    HW1 8909   5.271   3.327   5.564
 2670SOL    HW2 8910   5.262   3.204   5.671
 2671SOL     OW 8911   4.633   5.208   6.877
 2671SOL    HW1 8912   4.616   5.221   6.975
 2671SOL    HW2 8913   4.592   5.123   6.847
 2672SOL     OW 8914   2.069   4.940   0.521
 2672SOL    HW1 8915   2.031   4.896   0.440
 2672SOL    HW2 8916   2.055   5.039   0.515
 2673SOL     OW 8917   6.533   1.108   2.117
 2673SOL    HW1 8918   6.619   1.072   2.154
 2673SOL    HW2 8919   6.457   1.079   2.175
 2674SOL     OW 8920   1.622   4.903   3.939
 2674SOL    HW1 8921   1.642   4.870   3.847
 2674SOL    HW2 8922   1.540   4.858   3.974
 2675SOL     OW 8923   6.098   5.183   4.330
 2675SOL    HW1 8924   6.129   5.162   4.422
 2675SOL    HW2 8925   6.006   5.147   4.317
 2676SOL     OW 8926   4.241   2.597   1.057
 2676SOL    HW1 8927   4.187   2.649   0.990
 2676SOL    HW2 8928   4.199   2.506   1.069
 2677SOL     OW 8929   2.656   3.974   0.052
 2677SOL    HW1 8930   2.592   4.012   0.118
 2677SOL    HW2 8931   2.731   3.929   0.100
 2678SOL     OW 8932   0.134   2.361   1.604
 2678SOL    HW1 8933   0.192   2.326   1.530
 2678SOL    HW2 8934   0.046   2.314   1.602
 2679SOL     OW 8935   1.778   4.472   1.607
 2679SOL    HW1 8936   1.701   4.508   1.555
 2679SOL    HW2 8937   1.763   4.487   1.705
 2680SOL     OW 8938   1.287   1.842   0.684
 2680SOL    HW1 8939   1.324   1.914   0.742
 2680SOL    HW2 8940   1.187   1.837   0.696
 2681SOL     OW 8941   1.616   2.129   5.017
 2681SOL    HW1 8942   1.598   2.198   5.087
 2681SOL    HW2 8943   1.615   2.038   5.058
 2682SOL     OW 8944   4.866   4.142   3.161
 2682SOL    HW1 8945   4.777   4.146   3.116
 2682SOL    HW2 8946   4.904   4.234   3.170
 2683SOL     OW 8947   2.815   5.612   1.759
 2683SOL    HW1 8948   2.770   5.530   1.795
 2683SOL    HW2 8949   2.908   5.589   1.731
 2684SOL     OW 8950   4.743   6.119   1.697
 2684SOL    HW1 8951   4.679   6.060   1.746
 2684SOL    HW2 8952   4.703   6.147   1.610
 2685SOL     OW 8953   5.843   6.094   6.087
 2685SOL    HW1 8954   5.830   6.010   6.139
 2685SOL    HW2 8955   5.824   6.173   6.146
 2686SOL     OW 8956   1.983   1.230   5.738
 2686SOL    HW1 8957   2.016   1.323   5.748
 2686SOL    HW2 8958   1.920   1.208   5.812
 2687SOL     OW 8959   5.120   5.252   1.164
 2687SOL    HW1 8960   5.171   5.270   1.248
 2687SOL    HW2 8961   5.184   5.239   1.088
 2688SOL     OW 8962   3.039   3.719   0.567
 2688SOL    HW1 8963   2.948   3.676   0.569
 2688SOL    HW2 8964   3.038   3.794   0.501
 2689SOL     OW 8965   1.209   4.424   3.123
 2689SOL    HW1 8966   1.198   4.327   3.103
 2689SOL    HW2 8967   1.261   4.436   3.207
 2690SOL     OW 8968   3.866   3.140   4.986
 2690SOL    HW1 8969   3.914   3.152   4.899
 2690SOL    HW2 8970   3.844   3.229   5.025
 2691SOL     OW 8971   1.369   5.258   3.577
 2691SOL    HW1 8972   1.279   5.298   3.598
 2691SOL    HW2 8973   1.408   5.304   3.497
 2692SOL     OW 8974   2.637   6.011   3.022
 2692SOL    HW1 8975   2.737   6.006   3.014
 2692SOL    HW2 8976   2.596   5.977   2.937
 2693SOL     OW 8977   2.203   5.095   3.611
 2693SOL    HW1 8978   2.156   5.170   3.657
 2693SOL    HW2 8979   2.190   5.103   3.512
 2694SOL     OW 8980   4.111   6.327   2.813
 2694SOL    HW1 8981   4.151   6.413   2.844
 2694SOL    HW2 8982   4.183   6.268   2.776
 2695SOL     OW 8983   5.864   1.268   1.624
 2695SOL    HW1 8984   5.848   1.322   1.706
 2695SOL    HW2 8985   5.777   1.249   1.578
 2696SOL     OW 8986   3.695   3.177   5.706
 2696SOL    HW1 8987   3.657   3.167   5.614
 2696SOL    HW2 8988   3.682   3.272   5.737
 2697SOL     OW 8989   3.384   1.136   3.197
 2697SOL    HW1 8990   3.403   1.050   3.244
 2697SOL    HW2 8991   3.382   1.120   3.098
 2698SOL     OW 8992   1.940   4.764   0.674
 2698SOL    HW1 8993   1.843   4.763   0.650
 2698SOL    HW2 8994   1.989   4.829   0.616
 2699SOL     OW 8995   2.401   5.409   0.715
 2699SOL    HW1 8996   2.501   5.410   0.719
 2699SOL    HW2 8997   2.364   5.470   0.785
 2700SOL     OW 8998   3.118   2.974   0.083
 2700SOL    HW1 8999   3.142   2.914   0.159
 2700SOL    HW2 9000   3.079   3.059   0.118
 2701SOL     OW 9001   5.327   1.489   5.529
 2701SOL    HW1 9002   5.245   1.521   5.482
 2701SOL    HW2 9003   5.384   1.567   5.557
 2702SOL     OW 9004   0.206   3.022   3.430
 2702SOL    HW1 9005   0.108   3.006   3.423
 2702SOL    HW2 9006   0.230   3.107   3.384
 2703SOL     OW 9007   1.440   0.686   0.812
 2703SOL    HW1 9008   1.526   0.735   0.826
 2703SOL    HW2 9009   1.459   0.593   0.781
 2704SOL     OW 9010   6.583   5.664   1.875
 2704SOL    HW1 9011   6.639   5.681   1.957
 2704SOL    HW2 9012   6.638   5.616   1.807
 2705SOL     OW 9013   6.976   6.301   4.411
 2705SOL    HW1 9014   0.046   6.276   4.375
 2705SOL    HW2 9015   6.951   6.391   4.376
 2706SOL     OW 9016   6.558   5.147   2.572
 2706SOL    HW1 9017   6.577   5.215   2.502
 2706SOL    HW2 9018   6.486   5.181   2.633
 2707SOL     OW 9019   3.820   0.414   4.156
 2707SOL    HW1 9020   3.874   0.391   4.075
 2707SOL    HW2 9021   3.859   0.370   4.236
 2708SOL     OW 9022   0.157   2.728   1.226
 2708SOL    HW1 9023   0.244   2.777   1.218
 2708SOL    HW2 9024   0.148   2.663   1.151
 2709SOL     OW 9025   5.023   0.254   6.982
 2709SOL    HW1 9026   4.956   0.317   0.001
 2709SOL    HW2 9027   5.057   0.193   0.033
 2710SOL     OW 9028   1.036   3.702   4.217
 2710SOL    HW1 9029   1.092   3.634   4.168
 2710SOL    HW2 9030   1.005   3.663   4.304
 2711SOL     OW 9031   2.100   0.640   3.904
 2711SOL    HW1 9032   2.134   0.594   3.986
 2711SOL    HW2 9033   2.177   0.673   3.849
 2712SOL     OW 9034   2.717   4.151   1.642
 2712SOL    HW1 9035   2.736   4.246   1.668
 2712SOL    HW2 9036   2.618   4.137   1.635
 2713SOL     OW 9037   2.228   2.599   5.251
 2713SOL    HW1 9038   2.187   2.558   5.170
 2713SOL    HW2 9039   2.201   2.547   5.332
 2714SOL     OW 9040   3.711   2.672   0.091
 2714SOL    HW1 9041   3.648   2.652   0.166
 2714SOL    HW2 9042   3.761   2.590   0.066
 2715SOL     OW 9043   4.739   2.161   1.081
 2715SOL    HW1 9044   4.659   2.149   1.021
 2715SOL    HW2 9045   4.752   2.258   1.100
 2716SOL     OW 9046   5.691   3.212   2.603
 2716SOL    HW1 9047   5.770   3.251   2.650
 2716SOL    HW2 9048   5.607   3.253   2.640
 2717SOL     OW 9049   0.495   0.157   2.505
 2717SOL    HW1 9050   0.526   0.241   2.551
 2717SOL    HW2 9051   0.498   0.081   2.570
 2718SOL     OW 9052   1.567   1.417   4.921
 2718SOL    HW1 9053   1.633   1.489   4.905
 2718SOL    HW2 9054   1.574   1.385   5.015
 2719SOL     OW 9055   0.292   5.070   1.576
 2719SOL    HW1 9056   0.272   5.164   1.606
 2719SOL    HW2 9057   0.373   5.037   1.625
 2720SOL     OW 9058   2.083   5.729   1.814
 2720SOL    HW1 9059   2.128   5.759   1.898
 2720SOL    HW2 9060   2.146   5.670   1.763
 2721SOL     OW 9061   3.435   6.661   3.405
 2721SOL    HW1 9062   3.357   6.717   3.433
 2721SOL    HW2 9063   3.499   6.653   3.482
 2722SOL     OW 9064   6.593   5.407   0.699
 2722SOL    HW1 9065   6.620   5.311   0.707
 2722SOL    HW2 9066   6.588   5.432   0.603
 2723SOL     OW 9067   0.968   6.057   6.527
 2723SOL    HW1 9068   0.998   6.016   6.441
 2723SOL    HW2 9069   0.909   6.136   6.508
 2724SOL     OW 9070   2.166   6.059   6.921
 2724SOL    HW1 9071   2.099   6.034   6.851
 2724SOL    HW2 9072   2.130   6.036   7.012
 2725SOL     OW 9073   4.815   4.790   4.650
 2725SOL    HW1 9074   4.814   4.690   4.662
 2725SOL    HW2 9075   4.907   4.824   4.669
 2726SOL     OW 9076   0.002   1.810   1.133
 2726SOL    HW1 9077   0.043   1.810   1.042
 2726SOL    HW2 9078   0.056   1.865   1.195
 2727SOL     OW 9079   0.967   5.146   3.506
 2727SOL    HW1 9080   0.993   5.064   3.556
 2727SOL    HW2 9081   0.873   5.171   3.528
 2728SOL     OW 9082   4.419   6.242   5.552
 2728SOL    HW1 9083   4.337   6.292   5.578
 2728SOL    HW2 9084   4.452   6.189   5.630
 2729SOL     OW 9085   0.076   6.511   0.354
 2729SOL    HW1 9086   0.165   6.501   0.309
 2729SOL    HW2 9087   0.007   6.539   0.287
 2730SOL     OW 9088   2.102   5.693   1.476
 2730SOL    HW1 9089   2.144   5.651   1.396
 2730SOL    HW2 9090   2.148   5.659   1.559
 2731SOL     OW 9091   2.898   3.495   3.090
 2731SOL    HW1 9092   2.891   3.560   3.166
 2731SOL    HW2 9093   2.888   3.544   3.003
 2732SOL     OW 9094   5.308   2.661   1.977
 2732SOL    HW1 9095   5.272   2.670   2.070
 2732SOL    HW2 9096   5.356   2.574   1.968
 2733SOL     OW 9097   6.391   1.966   4.444
 2733SOL    HW1 9098   6.401   1.952   4.543
 2733SOL    HW2 9099   6.467   1.922   4.396
 2734SOL     OW 9100   3.328   5.413   0.848
 2734SOL    HW1 9101   3.421   5.437   0.875
 2734SOL    HW2 9102   3.330   5.366   0.759
 2735SOL     OW 9103   1.228   3.553   1.551
 2735SOL    HW1 9104   1.282   3.623   1.502
 2735SOL    HW2 9105   1.280   3.468   1.554
 2736SOL     OW 9106   5.446   6.396   4.892
 2736SOL    HW1 9107   5.403   6.397   4.983
 2736SOL    HW2 9108   5.541   6.424   4.900
 2737SOL     OW 9109   2.872   3.913   5.435
 2737SOL    HW1 9110   2.868   3.816   5.459
 2737SOL    HW2 9111   2.944   3.958   5.488
 2738SOL     OW 9112   4.940   6.256   1.896
 2738SOL    HW1 9113   4.884   6.239   1.815
 2738SOL    HW2 9114   5.019   6.312   1.871
 2739SOL     OW 9115   1.128   4.653   1.251
 2739SOL    HW1 9116   1.090   4.600   1.175
 2739SOL    HW2 9117   1.208   4.705   1.219
 2740SOL     OW 9118   6.921   4.397   1.969
 2740SOL    HW1 9119   6.894   4.363   1.878
 2740SOL    HW2 9120   6.921   4.322   2.034
 2741SOL     OW 9121   6.467   0.937   4.855
 2741SOL    HW1 9122   6.558   0.944   4.896
 2741SOL    HW2 9123   6.398   0.961   4.923
 2742SOL     OW 9124   2.404   4.925   0.325
 2742SOL    HW1 9125   2.496   4.929   0.286
 2742SOL    HW2 9126   2.392   4.838   0.373
 2743SOL     OW 9127   6.277   4.699   2.276
 2743SOL    HW1 9128   6.322   4.611   2.284
 2743SOL    HW2 9129   6.214   4.698   2.198
 2744SOL     OW 9130   4.150   2.109   0.478
 2744SOL    HW1 9131   4.144   2.041   0.405
 2744SOL    HW2 9132   4.145   2.201   0.439
 2745SOL     OW 9133   6.767   0.550   5.299
 2745SOL    HW1 9134   6.814   0.474   5.254
 2745SOL    HW2 9135   6.676   0.520   5.328
 2746SOL     OW 9136   1.644   2.082   4.733
 2746SOL    HW1 9137   1.642   2.115   4.828
 2746SOL    HW2 9138   1.603   1.992   4.728
 2747SOL     OW 9139   5.343   4.311   6.742
 2747SOL    HW1 9140   5.390   4.398   6.760
 2747SOL    HW2 9141   5.249   4.329   6.714
 2748SOL     OW 9142   4.914   1.324   2.092
 2748SOL    HW1 9143   4.974   1.393   2.133
 2748SOL    HW2 9144   4.957   1.288   2.009
 2749SOL     OW 9145   0.082   4.687   1.413
 2749SOL    HW1 9146   0.126   4.650   1.494
 2749SOL    HW2 9147   0.111   4.782   1.399
 2750SOL     OW 9148   1.049   4.140   1.281
 2750SOL    HW1 9149   1.022   4.062   1.337
 2750SOL    HW2 9150   1.060   4.111   1.186
 2751SOL     OW 9151   1.016   3.695   1.758
 2751SOL    HW1 9152   1.009   3.673   1.855
 2751SOL    HW2 9153   1.000   3.613   1.704
 2752SOL     OW 9154   3.862   5.146   5.445
 2752SOL    HW1 9155   3.953   5.106   5.435
 2752SOL    HW2 9156   3.813   5.100   5.520
 2753SOL     OW 9157   0.497   6.282   5.114
 2753SOL    HW1 9158   0.490   6.312   5.210
 2753SOL    HW2 9159   0.544   6.353   5.061
 2754SOL     OW 9160   0.747   0.600   1.655
 2754SOL    HW1 9161   0.809   0.523   1.670
 2754SOL    HW2 9162   0.656   0.576   1.689
 2755SOL     OW 9163   2.059   0.062   2.805
 2755SOL    HW1 9164   2.136   0.089   2.747
 2755SOL    HW2 9165   1.977   0.052   2.749
 2756SOL     OW 9166   5.870   5.499   0.054
 2756SOL    HW1 9167   5.927   5.442   7.016
 2756SOL    HW2 9168   5.813   5.558   7.019
 2757SOL     OW 9169   2.319   0.252   6.538
 2757SOL    HW1 9170   2.328   0.328   6.473
 2757SOL    HW2 9171   2.320   0.288   6.631
 2758SOL     OW 9172   3.794   6.511   3.896
 2758SOL    HW1 9173   3.698   6.535   3.908
 2758SOL    HW2 9174   3.823   6.451   3.971
 2759SOL     OW 9175   5.411   0.258   5.796
 2759SOL    HW1 9176   5.418   0.322   5.719
 2759SOL    HW2 9177   5.315   0.245   5.821
 2760SOL     OW 9178   0.179   5.907   2.157
 2760SOL    HW1 9179   0.219   5.985   2.204
 2760SOL    HW2 9180   0.251   5.843   2.130
 2761SOL     OW 9181   1.893   5.555   4.923
 2761SOL    HW1 9182   1.840   5.545   4.839
 2761SOL    HW2 9183   1.913   5.465   4.962
 2762SOL     OW 9184   1.168   1.262   5.001
 2762SOL    HW1 9185   1.176   1.295   5.095
 2762SOL    HW2 9186   1.235   1.308   4.943
 2763SOL     OW 9187   4.968   1.705   3.198
 2763SOL    HW1 9188   5.042   1.773   3.192
 2763SOL    HW2 9189   4.975   1.643   3.120
 2764SOL     OW 9190   5.499   0.889   1.156
 2764SOL    HW1 9191   5.496   0.857   1.061
 2764SOL    HW2 9192   5.448   0.825   1.214
 2765SOL     OW 9193   6.096   0.275   0.943
 2765SOL    HW1 9194   6.074   0.373   0.952
 2765SOL    HW2 9195   6.145   0.244   1.025
 2766SOL     OW 9196   5.021   2.874   1.068
 2766SOL    HW1 9197   4.973   2.828   0.994
 2766SOL    HW2 9198   5.000   2.829   1.155
 2767SOL     OW 9199   0.115   5.517   0.030
 2767SOL    HW1 9200   0.083   5.472   6.968
 2767SOL    HW2 9201   0.146   5.448   0.096
 2768SOL     OW 9202   4.237   0.604   1.325
 2768SOL    HW1 9203   4.208   0.700   1.314
 2768SOL    HW2 9204   4.337   0.600   1.329
 2769SOL     OW 9205   2.152   4.472   4.332
 2769SOL    HW1 9206   2.157   4.566   4.299
 2769SOL    HW2 9207   2.244   4.441   4.357
 2770SOL     OW 9208   5.021   6.108   6.007
 2770SOL    HW1 9209   4.945   6.117   6.071
 2770SOL    HW2 9210   4.984   6.099   5.914
 2771SOL     OW 9211   6.888   0.919   4.013
 2771SOL    HW1 9212   6.842   1.001   3.977
 2771SOL    HW2 9213   6.982   0.942   4.039
 2772SOL     OW 9214   4.096   1.422   0.600
 2772SOL    HW1 9215   4.156   1.348   0.630
 2772SOL    HW2 9216   4.134   1.465   0.518
 2773SOL     OW 9217   6.468   1.576   5.266
 2773SOL    HW1 9218   6.429   1.621   5.346
 2773SOL    HW2 9219   6.438   1.623   5.183
 2774SOL     OW 9220   5.472   3.335   2.694
 2774SOL    HW1 9221   5.373   3.329   2.687
 2774SOL    HW2 9222   5.502   3.428   2.670
 2775SOL     OW 9223   6.573   5.076   5.858
 2775SOL    HW1 9224   6.554   5.162   5.907
 2775SOL    HW2 9225   6.504   5.063   5.787
 2776SOL     OW 9226   4.325   4.912   5.723
 2776SOL    HW1 9227   4.329   5.012   5.719
 2776SOL    HW2 9228   4.357   4.874   5.636
 2777SOL     OW 9229   2.895   1.321   2.129
 2777SOL    HW1 9230   2.807   1.339   2.084
 2777SOL    HW2 9231   2.930   1.407   2.167
 2778SOL     OW 9232   2.006   6.969   5.467
 2778SOL    HW1 9233   2.001   6.998   5.562
 2778SOL    HW2 9234   1.914   6.958   5.430
 2779SOL     OW 9235   4.695   6.507   1.417
 2779SOL    HW1 9236   4.741   6.449   1.350
 2779SOL    HW2 9237   4.698   6.602   1.388
 2780SOL     OW 9238   6.370   6.407   6.991
 2780SOL    HW1 9239   6.461   6.380   7.021
 2780SOL    HW2 9240   6.377   6.466   6.911
 2781SOL     OW 9241   5.635   6.454   1.831
 2781SOL    HW1 9242   5.639   6.378   1.896
 2781SOL    HW2 9243   5.549   6.450   1.779
 2782SOL     OW 9244   4.834   1.907   6.422
 2782SOL    HW1 9245   4.750   1.864   6.456
 2782SOL    HW2 9246   4.826   2.006   6.429
 2783SOL     OW 9247   5.397   4.179   3.700
 2783SOL    HW1 9248   5.430   4.273   3.706
 2783SOL    HW2 9249   5.432   4.137   3.616
 2784SOL     OW 9250   3.168   1.772   2.357
 2784SOL    HW1 9251   3.267   1.783   2.350
 2784SOL    HW2 9252   3.126   1.860   2.378
 2785SOL     OW 9253   5.225   2.028   0.607
 2785SOL    HW1 9254   5.184   1.981   0.529
 2785SOL    HW2 9255   5.159   2.035   0.681
 2786SOL     OW 9256   4.765   0.173   2.345
 2786SOL    HW1 9257   4.698   0.121   2.291
 2786SOL    HW2 9258   4.756   0.148   2.441
 2787SOL     OW 9259   4.840   1.294   6.145
 2787SOL    HW1 9260   4.909   1.359   6.174
 2787SOL    HW2 9261   4.777   1.338   6.081
 2788SOL     OW 9262   2.427   5.350   6.214
 2788SOL    HW1 9263   2.408   5.447   6.195
 2788SOL    HW2 9264   2.372   5.293   6.153
 2789SOL     OW 9265   1.534   2.466   3.723
 2789SOL    HW1 9266   1.591   2.430   3.797
 2789SOL    HW2 9267   1.591   2.517   3.659
 2790SOL     OW 9268   3.210   5.392   2.355
 2790SOL    HW1 9269   3.306   5.405   2.328
 2790SOL    HW2 9270   3.199   5.301   2.396
 2791SOL     OW 9271   0.570   2.975   3.803
 2791SOL    HW1 9272   0.561   3.008   3.709
 2791SOL    HW2 9273   0.566   2.875   3.804
 2792SOL     OW 9274   1.810   6.786   3.927
 2792SOL    HW1 9275   1.823   6.833   3.840
 2792SOL    HW2 9276   1.758   6.702   3.911
 2793SOL     OW 9277   5.938   4.253   2.161
 2793SOL    HW1 9278   5.885   4.253   2.245
 2793SOL    HW2 9279   5.896   4.191   2.095
 2794SOL     OW 9280   7.017   2.658   6.478
 2794SOL    HW1 9281   0.007   2.634   6.574
 2794SOL    HW2 9282   6.988   2.753   6.470
 2795SOL     OW 9283   1.392   3.371   0.751
 2795SOL    HW1 9284   1.369   3.304   0.821
 2795SOL    HW2 9285   1.491   3.385   0.749
 2796SOL     OW 9286   7.013   6.245   3.231
 2796SOL    HW1 9287   6.955   6.293   3.297
 2796SOL    HW2 9288   0.087   6.276   3.239
 2797SOL     OW 9289   5.004   5.481   4.222
 2797SOL    HW1 9290   4.951   5.531   4.153
 2797SOL    HW2 9291   4.942   5.446   4.292
 2798SOL     OW 9292   0.336   5.316   1.682
 2798SOL    HW1 9293   0.245   5.354   1.699
 2798SOL    HW2 9294   0.371   5.275   1.766
 2799SOL     OW 9295   6.059   5.504   6.508
 2799SOL    HW1 9296   6.074   5.494   6.606
 2799SOL    HW2 9297   6.103   5.428   6.459
 2800SOL     OW 9298   4.861   6.414   0.127
 2800SOL    HW1 9299   4.768   6.387   0.151
 2800SOL    HW2 9300   4.863   6.511   0.103
 2801SOL     OW 9301   6.641   5.539   6.231
 2801SOL    HW1 9302   6.718   5.548   6.295
 2801SOL    HW2 9303   6.585   5.622   6.234
 2802SOL     OW 9304   4.787   0.832   5.299
 2802SOL    HW1 9305   4.811   0.871   5.387
 2802SOL    HW2 9306   4.863   0.845   5.235
 2803SOL     OW 9307   4.140   5.187   6.869
 2803SOL    HW1 9308   4.099   5.218   6.955
 2803SOL    HW2 9309   4.085   5.113   6.831
 2804SOL     OW 9310   0.285   5.017   5.331
 2804SOL    HW1 9311   0.261   4.989   5.238
 2804SOL    HW2 9312   0.216   4.981   5.394
 2805SOL     OW 9313   5.989   2.984   1.779
 2805SOL    HW1 9314   5.972   3.030   1.692
 2805SOL    HW2 9315   6.087   2.964   1.788
 2806SOL     OW 9316   6.911   4.575   6.136
 2806SOL    HW1 9317   6.999   4.538   6.108
 2806SOL    HW2 9318   6.923   4.629   6.220
 2807SOL     OW 9319   4.272   6.116   4.486
 2807SOL    HW1 9320   4.355   6.083   4.532
 2807SOL    HW2 9321   4.298   6.173   4.408
 2808SOL     OW 9322   5.918   4.816   1.768
 2808SOL    HW1 9323   6.013   4.825   1.796
 2808SOL    HW2 9324   5.899   4.882   1.694
 2809SOL     OW 9325   5.741   2.996   1.120
 2809SOL    HW1 9326   5.823   2.960   1.075
 2809SOL    HW2 9327   5.734   3.094   1.105
 2810SOL     OW 9328   3.571   4.917   3.931
 2810SOL    HW1 9329   3.620   4.989   3.981
 2810SOL    HW2 9330   3.498   4.881   3.989
 2811SOL     OW 9331   1.160   2.037   3.162
 2811SOL    HW1 9332   1.084   1.988   3.120
 2811SOL    HW2 9333   1.140   2.053   3.259
 2812SOL     OW 9334   5.330   3.942   6.721
 2812SOL    HW1 9335   5.353   3.854   6.681
 2812SOL    HW2 9336   5.356   4.016   6.658
 2813SOL     OW 9337   0.270   0.081   6.493
 2813SOL    HW1 9338   0.289   7.003   6.485
 2813SOL    HW2 9339   0.233   0.114   6.407
 2814SOL     OW 9340   3.967   3.821   5.540
 2814SOL    HW1 9341   3.983   3.723   5.541
 2814SOL    HW2 9342   3.975   3.855   5.446
 2815SOL     OW 9343   6.058   0.212   5.333
 2815SOL    HW1 9344   6.130   0.224   5.265
 2815SOL    HW2 9345   6.024   0.118   5.330
 2816SOL     OW 9346   6.545   5.428   3.425
 2816SOL    HW1 9347   6.550   5.518   3.469
 2816SOL    HW2 9348   6.634   5.407   3.384
 2817SOL     OW 9349   2.806   6.559   1.952
 2817SOL    HW1 9350   2.852   6.534   1.866
 2817SOL    HW2 9351   2.851   6.511   2.028
 2818SOL     OW 9352   0.716   0.521   1.172
 2818SOL    HW1 9353   0.797   0.511   1.116
 2818SOL    HW2 9354   0.736   0.581   1.250
 2819SOL     OW 9355   0.609   0.894   1.514
 2819SOL    HW1 9356   0.526   0.838   1.511
 2819SOL    HW2 9357   0.680   0.851   1.458
 2820SOL     OW 9358   0.896   2.687   3.000
 2820SOL    HW1 9359   0.826   2.752   3.029
 2820SOL    HW2 9360   0.931   2.713   2.910
 2821SOL     OW 9361   4.454   3.444   6.423
 2821SOL    HW1 9362   4.470   3.538   6.394
 2821SOL    HW2 9363   4.361   3.436   6.461
 2822SOL     OW 9364   3.802   1.869   0.263
 2822SOL    HW1 9365   3.767   1.951   0.308
 2822SOL    HW2 9366   3.750   1.852   0.179
 2823SOL     OW 9367   4.263   0.624   0.265
 2823SOL    HW1 9368   4.355   0.658   0.247
 2823SOL    HW2 9369   4.220   0.680   0.336
 2824SOL     OW 9370   2.342   1.288   3.518
 2824SOL    HW1 9371   2.434   1.288   3.556
 2824SOL    HW2 9372   2.279   1.332   3.583
 2825SOL     OW 9373   5.914   0.370   6.564
 2825SOL    HW1 9374   5.919   0.310   6.644
 2825SOL    HW2 9375   5.830   0.424   6.568
 2826SOL     OW 9376   4.728   1.091   6.595
 2826SOL    HW1 9377   4.724   1.062   6.499
 2826SOL    HW2 9378   4.798   1.038   6.643
 2827SOL     OW 9379   0.371   0.908   5.453
 2827SOL    HW1 9380   0.391   0.980   5.519
 2827SOL    HW2 9381   0.387   0.819   5.494
 2828SOL     OW 9382   2.112   0.826   0.629
 2828SOL    HW1 9383   2.143   0.895   0.563
 2828SOL    HW2 9384   2.087   0.871   0.715
 2829SOL     OW 9385   3.433   3.434   5.258
 2829SOL    HW1 9386   3.458   3.519   5.304
 2829SOL    HW2 9387   3.516   3.391   5.221
 2830SOL     OW 9388   1.695   2.957   5.695
 2830SOL    HW1 9389   1.724   2.880   5.752
 2830SOL    HW2 9390   1.760   3.032   5.703
 2831SOL     OW 9391   0.757   4.901   3.765
 2831SOL    HW1 9392   0.832   4.886   3.830
 2831SOL    HW2 9393   0.724   4.995   3.773
 2832SOL     OW 9394   1.213   3.194   2.286
 2832SOL    HW1 9395   1.221   3.291   2.310
 2832SOL    HW2 9396   1.174   3.143   2.363
 2833SOL     OW 9397   3.392   2.117   2.489
 2833SOL    HW1 9398   3.406   2.054   2.413
 2833SOL    HW2 9399   3.299   2.155   2.484
 2834SOL     OW 9400   3.889   5.657   6.157
 2834SOL    HW1 9401   3.954   5.731   6.141
 2834SOL    HW2 9402   3.937   5.578   6.194
 2835SOL     OW 9403   0.662   6.723   2.060
 2835SOL    HW1 9404   0.617   6.639   2.029
 2835SOL    HW2 9405   0.649   6.732   2.159
 2836SOL     OW 9406   6.812   0.098   2.287
 2836SOL    HW1 9407   6.754   0.164   2.238
 2836SOL    HW2 9408   6.817   0.013   2.235
 2837SOL     OW 9409   5.149   5.093   2.491
 2837SOL    HW1 9410   5.078   5.109   2.559
 2837SOL    HW2 9411   5.236   5.130   2.524
 2838SOL     OW 9412   2.944   3.902   0.892
 2838SOL    HW1 9413   2.887   3.959   0.951
 2838SOL    HW2 9414   2.901   3.813   0.879
 2839SOL     OW 9415   6.713   2.429   2.821
 2839SOL    HW1 9416   6.727   2.522   2.855
 2839SOL    HW2 9417   6.748   2.364   2.888
 2840SOL     OW 9418   1.203   0.038   3.131
 2840SOL    HW1 9419   1.299   0.064   3.123
 2840SOL    HW2 9420   1.192   6.963   3.103
 2841SOL     OW 9421   0.597   0.823   6.448
 2841SOL    HW1 9422   0.545   0.859   6.371
 2841SOL    HW2 9423   0.659   0.751   6.416
 2842SOL     OW 9424   0.462   4.103   4.000
 2842SOL    HW1 9425   0.459   4.005   4.018
 2842SOL    HW2 9426   0.464   4.153   4.086
 2843SOL     OW 9427   2.461   2.600   2.710
 2843SOL    HW1 9428   2.420   2.527   2.655
 2843SOL    HW2 9429   2.440   2.688   2.669
 2844SOL     OW 9430   6.891   5.086   0.527
 2844SOL    HW1 9431   6.954   5.033   0.470
 2844SOL    HW2 9432   6.935   5.172   0.554
 2845SOL     OW 9433   6.266   2.802   1.348
 2845SOL    HW1 9434   6.265   2.804   1.248
 2845SOL    HW2 9435   6.190   2.857   1.383
 2846SOL     OW 9436   4.108   1.346   0.001
 2846SOL    HW1 9437   4.048   1.425   0.009
 2846SOL    HW2 9438   4.204   1.376   0.006
 2847SOL     OW 9439   5.190   3.506   3.415
 2847SOL    HW1 9440   5.262   3.576   3.408
 2847SOL    HW2 9441   5.230   3.419   3.440
 2848SOL     OW 9442   1.683   2.518   5.098
 2848SOL    HW1 9443   1.754   2.564   5.151
 2848SOL    HW2 9444   1.689   2.419   5.113
 2849SOL     OW 9445   4.172   6.580   0.649
 2849SOL    HW1 9446   4.176   6.505   0.583
 2849SOL    HW2 9447   4.129   6.660   0.606
 2850SOL     OW 9448   1.422   0.183   2.585
 2850SOL    HW1 9449   1.465   0.235   2.512
 2850SOL    HW2 9450   1.367   0.244   2.642
 2851SOL     OW 9451   6.259   1.430   6.208
 2851SOL    HW1 9452   6.256   1.528   6.188
 2851SOL    HW2 9453   6.165   1.397   6.223
 2852SOL     OW 9454   6.078   3.965   6.700
 2852SOL    HW1 9455   6.132   4.019   6.635
 2852SOL    HW2 9456   6.135   3.894   6.739
 2853SOL     OW 9457   1.219   1.236   6.538
 2853SOL    HW1 9458   1.144   1.236   6.471
 2853SOL    HW2 9459   1.297   1.287   6.501
 2854SOL     OW 9460   4.291   1.347   4.898
 2854SOL    HW1 9461   4.251   1.410   4.964
 2854SOL    HW2 9462   4.252   1.256   4.911
 2855SOL     OW 9463   2.306   1.378   6.141
 2855SOL    HW1 9464   2.330   1.390   6.237
 2855SOL    HW2 9465   2.223   1.323   6.133
 2856SOL     OW 9466   0.581   2.968   5.227
 2856SOL    HW1 9467   0.627   3.056   5.235
 2856SOL    HW2 9468   0.624   2.902   5.289
 2857SOL     OW 9469   2.560   2.159   2.487
 2857SOL    HW1 9470   2.592   2.245   2.449
 2857SOL    HW2 9471   2.614   2.134   2.567
 2858SOL     OW 9472   4.771   4.325   2.061
 2858SOL    HW1 9473   4.684   4.301   2.019
 2858SOL    HW2 9474   4.846   4.296   2.001
 2859SOL     OW 9475   5.797   0.869   6.635
 2859SOL    HW1 9476   5.746   0.898   6.716
 2859SOL    HW2 9477   5.894   0.888   6.649
 2860SOL     OW 9478   2.989   1.318   1.529
 2860SOL    HW1 9479   2.909   1.286   1.580
 2860SOL    HW2 9480   2.973   1.308   1.431
 2861SOL     OW 9481   4.163   4.249   6.099
 2861SOL    HW1 9482   4.125   4.207   6.016
 2861SOL    HW2 9483   4.197   4.340   6.077
 2862SOL     OW 9484   5.941   1.583   2.487
 2862SOL    HW1 9485   5.897   1.494   2.493
 2862SOL    HW2 9486   6.000   1.585   2.406
 2863SOL     OW 9487   5.091   1.057   6.749
 2863SOL    HW1 9488   5.117   1.117   6.674
 2863SOL    HW2 9489   5.031   0.985   6.715
 2864SOL     OW 9490   4.325   1.718   1.858
 2864SOL    HW1 9491   4.376   1.693   1.940
 2864SOL    HW2 9492   4.229   1.733   1.882
 2865SOL     OW 9493   4.071   4.807   6.093
 2865SOL    HW1 9494   3.980   4.800   6.134
 2865SOL    HW2 9495   4.117   4.718   6.098
 2866SOL     OW 9496   6.759   5.551   6.777
 2866SOL    HW1 9497   6.800   5.619   6.715
 2866SOL    HW2 9498   6.682   5.593   6.825
 2867SOL     OW 9499   0.029   5.855   2.956
 2867SOL    HW1 9500   0.120   5.892   2.973
 2867SOL    HW2 9501   6.982   5.906   3.009
 2868SOL     OW 9502   0.942   1.280   5.244
 2868SOL    HW1 9503   0.947   1.184   5.270
 2868SOL    HW2 9504   0.935   1.337   5.326
 2869SOL     OW 9505   6.934   1.266   3.719
 2869SOL    HW1 9506   6.866   1.337   3.701
 2869SOL    HW2 9507   0.002   1.308   3.738
 2870SOL     OW 9508   0.545   1.554   4.884
 2870SOL    HW1 9509   0.570   1.549   4.981
 2870SOL    HW2 9510   0.451   1.521   4.872
 2871SOL     OW 9511   0.234   1.942   6.521
 2871SOL    HW1 9512   0.320   1.957   6.570
 2871SOL    HW2 9513   0.158   1.963   6.582
 2872SOL     OW 9514   2.781   2.088   2.663
 2872SOL    HW1 9515   2.754   2.148   2.739
 2872SOL    HW2 9516   2.758   1.994   2.686
 2873SOL     OW 9517   0.252   5.444   2.804
 2873SOL    HW1 9518   0.195   5.518   2.839
 2873SOL    HW2 9519   0.223   5.357   2.843
 2874SOL     OW 9520   4.401   6.351   3.078
 2874SOL    HW1 9521   4.337   6.412   3.125
 2874SOL    HW2 9522   4.418   6.385   2.986
 2875SOL     OW 9523   4.654   0.064   0.881
 2875SOL    HW1 9524   4.607   7.002   0.913
 2875SOL    HW2 9525   4.633   0.140   0.943
 2876SOL     OW 9526   1.647   0.352   2.356
 2876SOL    HW1 9527   1.592   0.287   2.303
 2876SOL    HW2 9528   1.652   0.439   2.307
 2877SOL     OW 9529   2.988   2.518   5.313
 2877SOL    HW1 9530   3.054   2.470   5.255
 2877SOL    HW2 9531   2.951   2.456   5.381
 2878SOL     OW 9532   3.385   4.773   5.183
 2878SOL    HW1 9533   3.298   4.789   5.230
 2878SOL    HW2 9534   3.435   4.700   5.229
 2879SOL     OW 9535   5.344   4.999   0.193
 2879SOL    HW1 9536   5.253   4.968   0.221
 2879SOL    HW2 9537   5.336   5.072   0.126
 2880SOL     OW 9538   6.906   0.903   1.677
 2880SOL    HW1 9539   6.929   0.836   1.748
 2880SOL    HW2 9540   6.807   0.921   1.679
 2881SOL     OW 9541   5.455   6.120   6.596
 2881SOL    HW1 9542   5.495   6.183   6.530
 2881SOL    HW2 9543   5.417   6.041   6.547
 2882SOL     OW 9544   0.479   5.236   2.521
 2882SOL    HW1 9545   0.397   5.225   2.465
 2882SOL    HW2 9546   0.485   5.331   2.552
 2883SOL     OW 9547   5.353   0.237   3.065
 2883SOL    HW1 9548   5.396   0.274   2.982
 2883SOL    HW2 9549   5.409   0.162   3.100
 2884SOL     OW 9550   0.896   0.201   2.543
 2884SOL    HW1 9551   0.814   0.239   2.498
 2884SOL    HW2 9552   0.881   0.104   2.563
 2885SOL     OW 9553   1.186   3.640   3.872
 2885SOL    HW1 9554   1.093   3.607   3.888
 2885SOL    HW2 9555   1.183   3.735   3.841
 2886SOL     OW 9556   1.675   3.956   5.986
 2886SOL    HW1 9557   1.615   4.002   6.051
 2886SOL    HW2 9558   1.769   3.985   6.000
 2887SOL     OW 9559   0.497   0.408   5.054
 2887SOL    HW1 9560   0.413   0.421   5.000
 2887SOL    HW2 9561   0.500   0.314   5.087
 2888SOL     OW 9562   0.483   4.124   0.135
 2888SOL    HW1 9563   0.410   4.062   0.164
 2888SOL    HW2 9564   0.538   4.080   0.063
 2889SOL     OW 9565   2.460   5.948   2.503
 2889SOL    HW1 9566   2.482   5.854   2.529
 2889SOL    HW2 9567   2.408   5.948   2.418
 2890SOL     OW 9568   2.161   5.954   0.616
 2890SOL    HW1 9569   2.116   6.036   0.578
 2890SOL    HW2 9570   2.151   5.878   0.552
 2891SOL     OW 9571   0.953   4.605   3.617
 2891SOL    HW1 9572   0.933   4.678   3.682
 2891SOL    HW2 9573   0.919   4.631   3.526
 2892SOL     OW 9574   5.705   3.130   0.064
 2892SOL    HW1 9575   5.704   3.057   0.132
 2892SOL    HW2 9576   5.755   3.100   7.004
 2893SOL     OW 9577   0.035   6.326   4.677
 2893SOL    HW1 9578   0.125   6.285   4.692
 2893SOL    HW2 9579   0.015   6.329   4.579
 2894SOL     OW 9580   1.260   3.461   2.283
 2894SOL    HW1 9581   1.197   3.462   2.205
 2894SOL    HW2 9582   1.237   3.537   2.344
 2895SOL     OW 9583   5.080   2.651   5.353
 2895SOL    HW1 9584   4.981   2.649   5.361
 2895SOL    HW2 9585   5.107   2.688   5.264
 2896SOL     OW 9586   4.754   5.667   6.043
 2896SOL    HW1 9587   4.831   5.608   6.018
 2896SOL    HW2 9588   4.688   5.616   6.098
 2897SOL     OW 9589   4.449   4.831   3.219
 2897SOL    HW1 9590   4.514   4.845   3.144
 2897SOL    HW2 9591   4.383   4.760   3.193
 2898SOL     OW 9592   4.599   4.955   4.601
 2898SOL    HW1 9593   4.637   4.863   4.598
 2898SOL    HW2 9594   4.546   4.967   4.685
 2899SOL     OW 9595   1.118   1.705   0.051
 2899SOL    HW1 9596   1.215   1.728   0.043
 2899SOL    HW2 9597   1.095   1.633   7.005
 2900SOL     OW 9598   2.074   3.303   5.804
 2900SOL    HW1 9599   2.091   3.363   5.727
 2900SOL    HW2 9600   1.990   3.251   5.789
 2901SOL     OW 9601   2.741   5.082   3.560
 2901SOL    HW1 9602   2.795   5.132   3.491
 2901SOL    HW2 9603   2.768   5.112   3.651
 2902SOL     OW 9604   5.308   6.516   2.881
 2902SOL    HW1 9605   5.358   6.437   2.846
 2902SOL    HW2 9606   5.234   6.540   2.818
 2903SOL     OW 9607   3.019   0.567   0.379
 2903SOL    HW1 9608   3.035   0.664   0.398
 2903SOL    HW2 9609   3.022   0.515   0.464
 2904SOL     OW 9610   2.183   4.018   4.412
 2904SOL    HW1 9611   2.276   4.021   4.451
 2904SOL    HW2 9612   2.127   4.088   4.456
 2905SOL     OW 9613   1.668   2.761   4.844
 2905SOL    HW1 9614   1.712   2.753   4.755
 2905SOL    HW2 9615   1.621   2.676   4.867
 2906SOL     OW 9616   4.022   5.517   1.786
 2906SOL    HW1 9617   3.961   5.592   1.813
 2906SOL    HW2 9618   3.983   5.469   1.707
 2907SOL     OW 9619   0.736   1.478   3.395
 2907SOL    HW1 9620   0.825   1.512   3.366
 2907SOL    HW2 9621   0.733   1.378   3.385
 2908SOL     OW 9622   4.842   6.362   3.555
 2908SOL    HW1 9623   4.821   6.423   3.631
 2908SOL    HW2 9624   4.782   6.281   3.560
 2909SOL     OW 9625   1.598   5.392   3.757
 2909SOL    HW1 9626   1.589   5.490   3.744
 2909SOL    HW2 9627   1.511   5.355   3.791
 2910SOL     OW 9628   5.060   0.434   4.663
 2910SOL    HW1 9629   5.139   0.374   4.655
 2910SOL    HW2 9630   4.976   0.383   4.645
 2911SOL     OW 9631   0.631   5.491   3.452
 2911SOL    HW1 9632   0.591   5.543   3.528
 2911SOL    HW2 9633   0.725   5.521   3.437
 2912SOL     OW 9634   4.454   0.714   0.052
 2912SOL    HW1 9635   4.446   0.625   0.009
 2912SOL    HW2 9636   4.396   0.780   0.005
 2913SOL     OW 9637   2.772   4.784   2.756
 2913SOL    HW1 9638   2.729   4.701   2.793
 2913SOL    HW2 9639   2.766   4.857   2.823
 2914SOL     OW 9640   6.636   6.218   6.668
 2914SOL    HW1 9641   6.717   6.275   6.679
 2914SOL    HW2 9642   6.660   6.122   6.683
 2915SOL     OW 9643   5.193   1.730   3.922
 2915SOL    HW1 9644   5.129   1.793   3.966
 2915SOL    HW2 9645   5.280   1.732   3.970
 2916SOL     OW 9646   1.005   6.667   0.538
 2916SOL    HW1 9647   0.954   6.590   0.578
 2916SOL    HW2 9648   1.096   6.671   0.579
 2917SOL     OW 9649   2.854   0.080   3.512
 2917SOL    HW1 9650   2.797   7.020   3.500
 2917SOL    HW2 9651   2.921   0.085   3.437
 2918SOL     OW 9652   6.412   5.001   5.016
 2918SOL    HW1 9653   6.417   4.902   5.019
 2918SOL    HW2 9654   6.316   5.030   5.018
 2919SOL     OW 9655   6.889   0.886   2.141
 2919SOL    HW1 9656   6.953   0.858   2.213
 2919SOL    HW2 9657   6.815   0.940   2.181
 2920SOL     OW 9658   2.586   1.708   1.684
 2920SOL    HW1 9659   2.682   1.708   1.656
 2920SOL    HW2 9660   2.580   1.727   1.782
 2921SOL     OW 9661   0.713   0.246   4.098
 2921SOL    HW1 9662   0.783   0.313   4.125
 2921SOL    HW2 9663   0.666   0.279   4.016
 2922SOL     OW 9664   4.970   0.938   0.645
 2922SOL    HW1 9665   4.994   0.858   0.591
 2922SOL    HW2 9666   4.961   0.912   0.742
 2923SOL     OW 9667   6.531   5.308   2.334
 2923SOL    HW1 9668   6.586   5.374   2.386
 2923SOL    HW2 9669   6.496   5.352   2.251
 2924SOL     OW 9670   6.658   2.427   5.657
 2924SOL    HW1 9671   6.716   2.346   5.647
 2924SOL    HW2 9672   6.700   2.504   5.609
 2925SOL     OW 9673   4.834   1.079   2.361
 2925SOL    HW1 9674   4.842   1.011   2.288
 2925SOL    HW2 9675   4.775   1.153   2.331
 2926SOL     OW 9676   6.951   1.896   4.108
 2926SOL    HW1 9677   6.872   1.867   4.162
 2926SOL    HW2 9678   7.015   1.820   4.100
 2927SOL     OW 9679   1.267   3.285   1.939
 2927SOL    HW1 9680   1.206   3.343   1.994
 2927SOL    HW2 9681   1.342   3.252   1.996
 2928SOL     OW 9682   7.011   1.691   6.413
 2928SOL    HW1 9683   0.078   1.644   6.427
 2928SOL    HW2 9684   6.954   1.679   6.494
 2929SOL     OW 9685   0.216   2.394   6.973
 2929SOL    HW1 9686   0.215   2.396   0.052
 2929SOL    HW2 9687   0.298   2.441   6.940
 2930SOL     OW 9688   4.167   0.656   4.703
 2930SOL    HW1 9689   4.225   0.705   4.637
 2930SOL    HW2 9690   4.081   0.631   4.659
 2931SOL     OW 9691   5.655   4.584   0.543
 2931SOL    HW1 9692   5.641   4.628   0.454
 2931SOL    HW2 9693   5.570   4.542   0.574
 2932SOL     OW 9694   0.933   5.758   1.441
 2932SOL    HW1 9695   0.857   5.786   1.383
 2932SOL    HW2 9696   0.930   5.809   1.527
 2933SOL     OW 9697   6.989   5.173   3.090
 2933SOL    HW1 9698   6.961   5.082   3.060
 2933SOL    HW2 9699   0.044   5.206   3.032
 2934SOL     OW 9700   4.575   0.961   0.331
 2934SOL    HW1 9701   4.514   0.935   0.257
 2934SOL    HW2 9702   4.667   0.977   0.295
 2935SOL     OW 9703   6.284   3.599   0.254
 2935SOL    HW1 9704   6.335   3.568   0.334
 2935SOL    HW2 9705   6.204   3.651   0.284
 2936SOL     OW 9706   4.104   6.656   0.967
 2936SOL    HW1 9707   4.116   6.712   1.049
 2936SOL    HW2 9708   4.086   6.715   0.888
 2937SOL     OW 9709   4.973   4.533   0.838
 2937SOL    HW1 9710   4.988   4.437   0.863
 2937SOL    HW2 9711   4.904   4.537   0.766
 2938SOL     OW 9712   5.121   4.658   6.636
 2938SOL    HW1 9713   5.046   4.712   6.597
 2938SOL    HW2 9714   5.180   4.625   6.562
 2939SOL     OW 9715   1.285   1.119   2.869
 2939SOL    HW1 9716   1.245   1.165   2.789
 2939SOL    HW2 9717   1.382   1.143   2.875
 2940SOL     OW 9718   5.464   5.070   6.167
 2940SOL    HW1 9719   5.472   4.978   6.207
 2940SOL    HW2 9720   5.459   5.138   6.240
 2941SOL     OW 9721   1.912   2.518   4.477
 2941SOL    HW1 9722   1.853   2.517   4.395
 2941SOL    HW2 9723   1.949   2.426   4.492
 2942SOL     OW 9724   2.732   2.733   0.368
 2942SOL    HW1 9725   2.711   2.802   0.299
 2942SOL    HW2 9726   2.650   2.679   0.387
 2943SOL     OW 9727   4.612   4.498   3.317
 2943SOL    HW1 9728   4.641   4.551   3.238
 2943SOL    HW2 9729   4.513   4.496   3.323
 2944SOL     OW 9730   2.919   5.891   4.488
 2944SOL    HW1 9731   2.934   5.979   4.534
 2944SOL    HW2 9732   2.953   5.898   4.394
 2945SOL     OW 9733   3.616   4.154   3.831
 2945SOL    HW1 9734   3.550   4.168   3.904
 2945SOL    HW2 9735   3.702   4.121   3.870
 2946SOL     OW 9736   1.071   4.928   6.204
 2946SOL    HW1 9737   1.039   4.945   6.111
 2946SOL    HW2 9738   1.171   4.928   6.204
 2947SOL     OW 9739   0.399   3.692   0.957
 2947SOL    HW1 9740   0.374   3.761   1.025
 2947SOL    HW2 9741   0.328   3.686   0.887
 2948SOL     OW 9742   0.856   3.997   5.861
 2948SOL    HW1 9743   0.914   4.065   5.906
 2948SOL    HW2 9744   0.892   3.980   5.769
 2949SOL     OW 9745   2.985   5.321   1.017
 2949SOL    HW1 9746   2.972   5.384   0.941
 2949SOL    HW2 9747   3.081   5.294   1.022
 2950SOL     OW 9748   5.049   4.252   4.363
 2950SOL    HW1 9749   4.984   4.199   4.417
 2950SOL    HW2 9750   5.114   4.189   4.319
 2951SOL     OW 9751   5.568   1.244   0.672
 2951SOL    HW1 9752   5.616   1.330   0.687
 2951SOL    HW2 9753   5.620   1.169   0.711
 2952SOL     OW 9754   1.032   5.032   5.339
 2952SOL    HW1 9755   1.011   4.941   5.303
 2952SOL    HW2 9756   0.952   5.091   5.331
 2953SOL     OW 9757   5.064   2.845   2.302
 2953SOL    HW1 9758   5.127   2.918   2.327
 2953SOL    HW2 9759   4.993   2.838   2.371
 2954SOL     OW 9760   0.670   5.549   1.868
 2954SOL    HW1 9761   0.670   5.457   1.908
 2954SOL    HW2 9762   0.658   5.543   1.769
 2955SOL     OW 9763   0.542   4.440   1.722
 2955SOL    HW1 9764   0.546   4.370   1.651
 2955SOL    HW2 9765   0.596   4.412   1.801
 2956SOL     OW 9766   5.476   6.497   3.550
 2956SOL    HW1 9767   5.457   6.429   3.621
 2956SOL    HW2 9768   5.539   6.457   3.482
 2957SOL     OW 9769   6.062   2.908   1.473
 2957SOL    HW1 9770   5.990   2.977   1.475
 2957SOL    HW2 9771   6.114   2.912   1.558
 2958SOL     OW 9772   2.144   5.142   4.123
 2958SOL    HW1 9773   2.222   5.085   4.150
 2958SOL    HW2 9774   2.101   5.179   4.204
 2959SOL     OW 9775   4.679   4.260   0.584
 2959SOL    HW1 9776   4.767   4.249   0.537
 2959SOL    HW2 9777   4.641   4.170   0.605
 2960SOL     OW 9778   2.784   0.525   6.750
 2960SOL    HW1 9779   2.698   0.503   6.703
 2960SOL    HW2 9780   2.812   0.618   6.728
 2961SOL     OW 9781   4.984   3.615   2.720
 2961SOL    HW1 9782   4.991   3.647   2.626
 2961SOL    HW2 9783   4.935   3.682   2.775
 2962SOL     OW 9784   4.908   0.386   3.231
 2962SOL    HW1 9785   4.820   0.348   3.258
 2962SOL    HW2 9786   4.940   0.450   3.301
 2963SOL     OW 9787   2.195   0.323   6.168
 2963SOL    HW1 9788   2.192   0.225   6.186
 2963SOL    HW2 9789   2.111   0.366   6.200
 2964SOL     OW 9790   0.776   0.472   3.350
 2964SOL    HW1 9791   0.813   0.444   3.262
 2964SOL    HW2 9792   0.832   0.544   3.389
 2965SOL     OW 9793   6.855   1.899   4.569
 2965SOL    HW1 9794   6.806   1.821   4.529
 2965SOL    HW2 9795   6.933   1.865   4.623
 2966SOL     OW 9796   5.276   6.401   3.934
 2966SOL    HW1 9797   5.231   6.315   3.957
 2966SOL    HW2 9798   5.300   6.450   4.018
 2967SOL     OW 9799   6.710   0.555   4.813
 2967SOL    HW1 9800   6.768   0.636   4.826
 2967SOL    HW2 9801   6.638   0.577   4.747
 2968SOL     OW 9802   1.084   3.045   6.684
 2968SOL    HW1 9803   1.138   3.054   6.768
 2968SOL    HW2 9804   1.035   3.131   6.667
 2969SOL     OW 9805   4.815   1.237   4.000
 2969SOL    HW1 9806   4.842   1.143   4.019
 2969SOL    HW2 9807   4.870   1.272   3.924
 2970SOL     OW 9808   1.914   4.682   6.147
 2970SOL    HW1 9809   1.880   4.614   6.082
 2970SOL    HW2 9810   1.883   4.773   6.120
 2971SOL     OW 9811   4.926   4.127   0.482
 2971SOL    HW1 9812   4.846   4.099   0.429
 2971SOL    HW2 9813   4.928   4.077   0.569
 2972SOL     OW 9814   6.397   4.838   6.622
 2972SOL    HW1 9815   6.397   4.782   6.705
 2972SOL    HW2 9816   6.306   4.836   6.582
 2973SOL     OW 9817   5.318   6.905   2.773
 2973SOL    HW1 9818   5.293   6.840   2.844
 2973SOL    HW2 9819   5.242   6.968   2.757
 2974SOL     OW 9820   0.821   4.559   2.683
 2974SOL    HW1 9821   0.818   4.542   2.584
 2974SOL    HW2 9822   0.872   4.486   2.728
 2975SOL     OW 9823   5.418   3.661   4.308
 2975SOL    HW1 9824   5.324   3.628   4.316
 2975SOL    HW2 9825   5.463   3.615   4.232
 2976SOL     OW 9826   4.280   2.271   3.272
 2976SOL    HW1 9827   4.245   2.288   3.180
 2976SOL    HW2 9828   4.358   2.209   3.267
 2977SOL     OW 9829   2.688   0.261   2.869
 2977SOL    HW1 9830   2.674   0.243   2.966
 2977SOL    HW2 9831   2.786   0.269   2.850
 2978SOL     OW 9832   4.963   4.416   0.428
 2978SOL    HW1 9833   4.942   4.318   0.423
 2978SOL    HW2 9834   4.883   4.469   0.400
 2979SOL     OW 9835   3.888   0.864   4.310
 2979SOL    HW1 9836   3.951   0.909   4.373
 2979SOL    HW2 9837   3.807   0.835   4.361
 2980SOL     OW 9838   1.351   5.917   4.446
 2980SOL    HW1 9839   1.268   5.960   4.411
 2980SOL    HW2 9840   1.386   5.852   4.378
 2981SOL     OW 9841   1.837   0.894   5.712
 2981SOL    HW1 9842   1.820   0.898   5.810
 2981SOL    HW2 9843   1.777   0.958   5.664
 2982SOL     OW 9844   4.052   4.811   2.901
 2982SOL    HW1 9845   3.976   4.746   2.901
 2982SOL    HW2 9846   4.093   4.815   2.810
 2983SOL     OW 9847   0.886   1.209   2.687
 2983SOL    HW1 9848   0.809   1.185   2.627
 2983SOL    HW2 9849   0.947   1.273   2.639
 2984SOL     OW 9850   5.563   5.547   1.425
 2984SOL    HW1 9851   5.620   5.623   1.392
 2984SOL    HW2 9852   5.529   5.495   1.347
 2985SOL     OW 9853   1.491   2.634   5.788
 2985SOL    HW1 9854   1.577   2.583   5.798
 2985SOL    HW2 9855   1.465   2.636   5.691
 2986SOL     OW 9856   3.106   4.077   4.645
 2986SOL    HW1 9857   3.046   4.134   4.701
 2986SOL    HW2 9858   3.199   4.080   4.681
 2987SOL     OW 9859   6.436   1.418   4.116
 2987SOL    HW1 9860   6.449   1.337   4.173
 2987SOL    HW2 9861   6.343   1.452   4.126
 2988SOL     OW 9862   1.417   6.030   3.020
 2988SOL    HW1 9863   1.377   6.052   2.931
 2988SOL    HW2 9864   1.453   5.937   3.019
 2989SOL     OW 9865   6.171   5.665   6.181
 2989SOL    HW1 9866   6.173   5.763   6.199
 2989SOL    HW2 9867   6.087   5.626   6.219
 2990SOL     OW 9868   3.693   2.036   4.755
 2990SOL    HW1 9869   3.718   1.961   4.817
 2990SOL    HW2 9870   3.597   2.059   4.769
 2991SOL     OW 9871   6.707   4.472   5.749
 2991SOL    HW1 9872   6.715   4.538   5.824
 2991SOL    HW2 9873   6.723   4.518   5.662
 2992SOL     OW 9874   2.917   5.718   4.700
 2992SOL    HW1 9875   3.008   5.724   4.740
 2992SOL    HW2 9876   2.917   5.762   4.611
 2993SOL     OW 9877   0.367   5.275   1.160
 2993SOL    HW1 9878   0.463   5.283   1.187
 2993SOL    HW2 9879   0.322   5.203   1.214
 2994SOL     OW 9880   4.579   6.525   6.993
 2994SOL    HW1 9881   4.541   6.470   0.047
 2994SOL    HW2 9882   4.643   6.593   0.009
 2995SOL     OW 9883   2.978   2.213   5.891
 2995SOL    HW1 9884   2.923   2.132   5.867
 2995SOL    HW2 9885   2.957   2.287   5.828
 2996SOL     OW 9886   1.529   0.886   3.393
 2996SOL    HW1 9887   1.561   0.981   3.387
 2996SOL    HW2 9888   1.518   0.861   3.489
 2997SOL     OW 9889   5.986   0.346   2.800
 2997SOL    HW1 9890   6.040   0.429   2.816
 2997SOL    HW2 9891   5.960   0.306   2.888
 2998SOL     OW 9892   4.299   6.907   4.380
 2998SOL    HW1 9893   4.364   6.832   4.364
 2998SOL    HW2 9894   4.259   6.897   4.471
 2999SOL     OW 9895   3.039   4.920   4.679
 2999SOL    HW1 9896   2.995   5.007   4.699
 2999SOL    HW2 9897   3.133   4.922   4.713
 3000SOL     OW 9898   2.548   3.452   6.747
 3000SOL    HW1 9899   2.579   3.503   6.666
 3000SOL    HW2 9900   2.507   3.366   6.717
 3001SOL     OW 9901   5.366   0.073   6.747
 3001SOL    HW1 9902   5.436   0.021   6.796
 3001SOL    HW2 9903   5.320   0.135   6.811
 3002SOL     OW 9904   3.745   1.285   6.976
 3002SOL    HW1 9905   3.722   1.284   6.879
 3002SOL    HW2 9906   3.807   1.209   6.996
 3003SOL     OW 9907   1.745   6.278   0.387
 3003SOL    HW1 9908   1.720   6.197   0.439
 3003SOL    HW2 9909   1.710   6.270   0.294
 3004SOL     OW 9910   1.209   4.736   2.560
 3004SOL    HW1 9911   1.261   4.781   2.487
 3004SOL    HW2 9912   1.230   4.779   2.648
 3005SOL     OW 9913   3.191   1.801   0.610
 3005SOL    HW1 9914   3.142   1.888   0.620
 3005SOL    HW2 9915   3.254   1.807   0.533
 3006SOL     OW 9916   4.839   1.663   5.361
 3006SOL    HW1 9917   4.911   1.647   5.293
 3006SOL    HW2 9918   4.870   1.731   5.427
 3007SOL     OW 9919   5.765   5.201   1.675
 3007SOL    HW1 9920   5.684   5.146   1.657
 3007SOL    HW2 9921   5.791   5.193   1.771
 3008SOL     OW 9922   4.140   1.837   6.135
 3008SOL    HW1 9923   4.146   1.768   6.207
 3008SOL    HW2 9924   4.048   1.835   6.094
 3009SOL     OW 9925   0.693   1.874   2.628
 3009SOL    HW1 9926   0.684   1.827   2.540
 3009SOL    HW2 9927   0.707   1.972   2.612
 3010SOL     OW 9928   3.588   4.945   3.487
 3010SOL    HW1 9929   3.641   4.925   3.405
 3010SOL    HW2 9930   3.646   4.994   3.553
 3011SOL     OW 9931   6.099   1.585   1.213
 3011SOL    HW1 9932   6.148   1.499   1.228
 3011SOL    HW2 9933   6.024   1.592   1.280
 3012SOL     OW 9934   1.764   3.704   6.067
 3012SOL    HW1 9935   1.731   3.798   6.059
 3012SOL    HW2 9936   1.783   3.667   5.976
 3013SOL     OW 9937   5.693   6.139   4.846
 3013SOL    HW1 9938   5.695   6.226   4.797
 3013SOL    HW2 9939   5.786   6.104   4.855
 3014SOL     OW 9940   4.522   2.528   4.423
 3014SOL    HW1 9941   4.563   2.617   4.403
 3014SOL    HW2 9942   4.478   2.493   4.340
 3015SOL     OW 9943   3.414   1.698   0.856
 3015SOL    HW1 9944   3.495   1.656   0.897
 3015SOL    HW2 9945   3.437   1.789   0.823
 3016SOL     OW 9946   2.249   6.162   3.718
 3016SOL    HW1 9947   2.153   6.185   3.704
 3016SOL    HW2 9948   2.304   6.246   3.714
 3017SOL     OW 9949   6.868   4.717   2.285
 3017SOL    HW1 9950   6.778   4.736   2.247
 3017SOL    HW2 9951   6.860   4.699   2.383
 3018SOL     OW 9952   3.373   6.184   5.773
 3018SOL    HW1 9953   3.452   6.128   5.800
 3018SOL    HW2 9954   3.313   6.129   5.715
 3019SOL     OW 9955   0.576   6.918   6.609
 3019SOL    HW1 9956   0.585   6.922   6.709
 3019SOL    HW2 9957   0.648   6.972   6.566
 3020SOL     OW 9958   4.223   2.926   1.348
 3020SOL    HW1 9959   4.210   2.972   1.260
 3020SOL    HW2 9960   4.205   2.828   1.337
 3021SOL     OW 9961   3.095   6.772   6.550
 3021SOL    HW1 9962   3.140   6.707   6.488
 3021SOL    HW2 9963   3.144   6.860   6.546
 3022SOL     OW 9964   3.487   5.842   4.127
 3022SOL    HW1 9965   3.550   5.764   4.133
 3022SOL    HW2 9966   3.490   5.880   4.035
 3023SOL     OW 9967   4.007   0.624   2.964
 3023SOL    HW1 9968   4.060   0.572   3.031
 3023SOL    HW2 9969   3.995   0.569   2.882
 3024SOL     OW 9970   4.238   6.655   4.959
 3024SOL    HW1 9971   4.227   6.745   5.001
 3024SOL    HW2 9972   4.156   6.600   4.974
 3025SOL     OW 9973   3.058   0.838   0.428
 3025SOL    HW1 9974   3.110   0.901   0.370
 3025SOL    HW2 9975   2.978   0.884   0.465
 3026SOL     OW 9976   1.489   0.376   0.494
 3026SOL    HW1 9977   1.532   0.286   0.493
 3026SOL    HW2 9978   1.396   0.368   0.530
 3027SOL     OW 9979   3.840   0.363   3.321
 3027SOL    HW1 9980   3.762   0.322   3.369
 3027SOL    HW2 9981   3.925   0.334   3.364
 3028SOL     OW 9982   1.371   4.006   5.595
 3028SOL    HW1 9983   1.328   3.936   5.652
 3028SOL    HW2 9984   1.371   3.977   5.500
 3029SOL     OW 9985   0.065   2.930   5.314
 3029SOL    HW1 9986   0.140   2.879   5.356
 3029SOL    HW2 9987   0.103   2.996   5.248
 3030SOL     OW 9988   0.300   3.332   6.614
 3030SOL    HW1 9989   0.248   3.386   6.548
 3030SOL    HW2 9990   0.397   3.333   6.589
 3031SOL     OW 9991   0.394   4.087   0.648
 3031SOL    HW1 9992   0.402   3.997   0.606
 3031SOL    HW2 9993   0.473   4.104   0.706
 3032SOL     OW 9994   3.479   0.138   1.278
 3032SOL    HW1 9995   3.483   0.044   1.244
 3032SOL    HW2 9996   3.420   0.192   1.218
 3033SOL     OW 9997   5.929   1.974   1.606
 3033SOL    HW1 9998   5.946   2.002   1.512
 3033SOL    HW2 9999   5.986   1.896   1.629
 3034SOL     OW10000   1.580   5.598   2.883
 3034SOL    HW110001   1.643   5.641   2.947
 3034SOL    HW210002   1.632   5.553   2.810
 3035SOL     OW10003   0.263   3.099   6.741
 3035SOL    HW110004   0.276   3.189   6.699
 3035SOL    HW210005   0.348   3.070   6.783
 3036SOL     OW10006   1.527   1.282   6.649
 3036SOL    HW110007   1.567   1.191   6.640
 3036SOL    HW210008   1.497   1.314   6.559
 3037SOL     OW10009   6.025   5.526   5.614
 3037SOL    HW110010   6.068   5.505   5.527
 3037SOL    HW210011   6.006   5.441   5.663
 3038SOL     OW10012   5.593   6.404   6.156
 3038SOL    HW110013   5.535   6.336   6.112
 3038SOL    HW210014   5.589   6.490   6.106
 3039SOL     OW10015   6.805   3.908   0.592
 3039SOL    HW110016   6.816   3.905   0.692
 3039SOL    HW210017   6.850   3.828   0.551
 3040SOL     OW10018   3.864   3.461   6.014
 3040SOL    HW110019   3.781   3.517   6.017
 3040SOL    HW210020   3.905   3.457   6.105
 3041SOL     OW10021   2.194   2.818   4.233
 3041SOL    HW110022   2.172   2.823   4.135
 3041SOL    HW210023   2.119   2.857   4.286
 3042SOL     OW10024   4.549   6.026   2.070
 3042SOL    HW110025   4.557   5.973   1.986
 3042SOL    HW210026   4.638   6.034   2.114
 3043SOL     OW10027   2.462   4.814   1.767
 3043SOL    HW110028   2.557   4.811   1.796
 3043SOL    HW210029   2.448   4.889   1.704
 3044SOL     OW10030   3.909   4.023   5.949
 3044SOL    HW110031   3.939   3.955   6.016
 3044SOL    HW210032   3.825   4.067   5.981
 3045SOL     OW10033   4.931   0.608   2.929
 3045SOL    HW110034   4.914   0.629   2.833
 3045SOL    HW210035   4.861   0.545   2.963
 3046SOL     OW10036   2.172   0.663   6.318
 3046SOL    HW110037   2.158   0.749   6.368
 3046SOL    HW210038   2.083   0.625   6.293
 3047SOL     OW10039   6.184   0.542   1.833
 3047SOL    HW110040   6.117   0.472   1.858
 3047SOL    HW210041   6.243   0.507   1.760
 3048SOL     OW10042   3.940   2.232   1.891
 3048SOL    HW110043   3.847   2.243   1.925
 3048SOL    HW210044   3.962   2.308   1.829
 3049SOL     OW10045   1.402   6.659   2.466
 3049SOL    HW110046   1.406   6.611   2.553
 3049SOL    HW210047   1.383   6.756   2.482
 3050SOL     OW10048   3.152   1.279   1.987
 3050SOL    HW110049   3.162   1.379   1.985
 3050SOL    HW210050   3.083   1.254   2.055
 3051SOL     OW10051   2.321   3.917   0.014
 3051SOL    HW110052   2.312   3.931   6.936
 3051SOL    HW210053   2.358   3.826   0.032
 3052SOL     OW10054   5.459   6.954   1.632
 3052SOL    HW110055   5.372   7.002   1.621
 3052SOL    HW210056   5.445   6.872   1.689
 3053SOL     OW10057   0.026   1.656   6.895
 3053SOL    HW110058   0.047   1.746   6.933
 3053SOL    HW210059   7.002   1.668   6.806
 3054SOL     OW10060   6.559   2.042   0.590
 3054SOL    HW110061   6.462   2.044   0.564
 3054SOL    HW210062   6.575   1.968   0.655
 3055SOL     OW10063   5.253   0.232   4.208
 3055SOL    HW110064   5.349   0.246   4.235
 3055SOL    HW210065   5.196   0.304   4.249
 3056SOL     OW10066   6.314   0.434   4.725
 3056SOL    HW110067   6.375   0.395   4.794
 3056SOL    HW210068   6.351   0.520   4.691
 3057SOL     OW10069   3.933   5.893   2.642
 3057SOL    HW110070   3.836   5.882   2.619
 3057SOL    HW210071   3.957   5.830   2.716
 3058SOL     OW10072   0.206   4.920   1.357
 3058SOL    HW110073   0.163   4.984   1.294
 3058SOL    HW210074   0.236   4.968   1.439
 3059SOL     OW10075   2.160   2.546   4.288
 3059SOL    HW110076   2.226   2.541   4.363
 3059SOL    HW210077   2.146   2.641   4.262
 3060SOL     OW10078   0.920   5.865   0.489
 3060SOL    HW110079   0.999   5.883   0.432
 3060SOL    HW210080   0.861   5.946   0.493
 3061SOL     OW10081   0.028   0.275   4.969
 3061SOL    HW110082   0.076   0.187   4.969
 3061SOL    HW210083   0.093   0.349   4.957
 3062SOL     OW10084   2.057   0.162   0.366
 3062SOL    HW110085   2.106   0.091   0.417
 3062SOL    HW210086   2.007   0.220   0.430
 3063SOL     OW10087   2.686   5.016   1.945
 3063SOL    HW110088   2.694   4.923   1.910
 3063SOL    HW210089   2.674   5.080   1.869
 3064SOL     OW10090   5.936   4.115   2.800
 3064SOL    HW110091   5.941   4.198   2.856
 3064SOL    HW210092   6.022   4.065   2.806
 3065SOL     OW10093   2.256   0.586   0.669
 3065SOL    HW110094   2.188   0.519   0.637
 3065SOL    HW210095   2.224   0.678   0.649
 3066SOL     OW10096   4.998   5.061   0.822
 3066SOL    HW110097   5.060   5.078   0.745
 3066SOL    HW210098   5.041   4.997   0.885
 3067SOL     OW10099   3.527   2.242   5.364
 3067SOL    HW110100   3.547   2.168   5.429
 3067SOL    HW210101   3.464   2.209   5.294
 3068SOL     OW10102   6.341   0.174   1.076
 3068SOL    HW110103   6.347   0.074   1.085
 3068SOL    HW210104   6.433   0.212   1.065
 3069SOL     OW10105   6.465   6.563   1.510
 3069SOL    HW110106   6.513   6.651   1.507
 3069SOL    HW210107   6.404   6.556   1.431
 3070SOL     OW10108   2.015   1.405   0.787
 3070SOL    HW110109   1.990   1.453   0.871
 3070SOL    HW210110   1.988   1.309   0.794
 3071SOL     OW10111   5.527   6.321   3.279
 3071SOL    HW110112   5.626   6.331   3.287
 3071SOL    HW210113   5.493   6.270   3.358
 3072SOL     OW10114   1.768   6.062   0.001
 3072SOL    HW110115   1.681   6.110   7.011
 3072SOL    HW210116   1.820   6.104   0.076
 3073SOL     OW10117   5.996   3.339   4.113
 3073SOL    HW110118   6.084   3.316   4.155
 3073SOL    HW210119   5.943   3.396   4.176
 3074SOL     OW10120   6.079   3.924   1.353
 3074SOL    HW110121   5.996   3.976   1.333
 3074SOL    HW210122   6.073   3.883   1.443
 3075SOL     OW10123   2.848   6.083   1.744
 3075SOL    HW110124   2.767   6.053   1.793
 3075SOL    HW210125   2.829   6.168   1.695
 3076SOL     OW10126   6.969   0.501   4.601
 3076SOL    HW110127   6.933   0.442   4.674
 3076SOL    HW210128   6.931   0.472   4.513
 3077SOL     OW10129   5.089   6.120   2.153
 3077SOL    HW110130   5.053   6.170   2.074
 3077SOL    HW210131   5.064   6.168   2.237
 3078SOL     OW10132   0.351   2.726   2.666
 3078SOL    HW110133   0.339   2.661   2.591
 3078SOL    HW210134   0.262   2.747   2.707
 3079SOL     OW10135   2.253   2.968   3.219
 3079SOL    HW110136   2.331   3.029   3.204
 3079SOL    HW210137   2.285   2.874   3.228
 3080SOL     OW10138   4.808   4.048   2.710
 3080SOL    HW110139   4.845   4.029   2.619
 3080SOL    HW210140   4.873   4.103   2.762
 3081SOL     OW10141   0.566   2.681   5.594
 3081SOL    HW110142   0.626   2.617   5.642
 3081SOL    HW210143   0.545   2.758   5.653
 3082SOL     OW10144   3.032   6.026   3.812
 3082SOL    HW110145   2.975   5.944   3.806
 3082SOL    HW210146   2.986   6.093   3.871
 3083SOL     OW10147   3.422   5.787   3.695
 3083SOL    HW110148   3.334   5.762   3.737
 3083SOL    HW210149   3.477   5.837   3.761
 3084SOL     OW10150   6.538   4.283   4.687
 3084SOL    HW110151   6.535   4.308   4.591
 3084SOL    HW210152   6.630   4.296   4.722
 3085SOL     OW10153   6.197   4.325   1.173
 3085SOL    HW110154   6.295   4.320   1.190
 3085SOL    HW210155   6.172   4.420   1.154
 3086SOL     OW10156   4.386   1.387   0.982
 3086SOL    HW110157   4.470   1.344   1.016
 3086SOL    HW210158   4.374   1.476   1.026
 3087SOL     OW10159   0.480   5.445   3.819
 3087SOL    HW110160   0.521   5.522   3.770
 3087SOL    HW210161   0.546   5.406   3.882
 3088SOL     OW10162   2.098   4.886   4.883
 3088SOL    HW110163   2.093   4.984   4.904
 3088SOL    HW210164   2.136   4.837   4.961
 3089SOL     OW10165   1.183   3.328   6.831
 3089SOL    HW110166   1.252   3.304   6.762
 3089SOL    HW210167   1.214   3.298   6.921
 3090SOL     OW10168   2.277   2.312   1.697
 3090SOL    HW110169   2.299   2.346   1.788
 3090SOL    HW210170   2.335   2.360   1.630
 3091SOL     OW10171   1.542   1.011   0.867
 3091SOL    HW110172   1.452   1.055   0.864
 3091SOL    HW210173   1.579   1.004   0.774
 3092SOL     OW10174   4.726   0.699   0.104
 3092SOL    HW110175   4.637   0.716   0.062
 3092SOL    HW210176   4.715   0.691   0.203
 3093SOL     OW10177   5.895   6.800   5.755
 3093SOL    HW110178   5.837   6.789   5.675
 3093SOL    HW210179   5.840   6.788   5.838
 3094SOL     OW10180   1.696   6.554   4.467
 3094SOL    HW110181   1.734   6.590   4.552
 3094SOL    HW210182   1.598   6.576   4.463
 3095SOL     OW10183   2.102   4.951   5.439
 3095SOL    HW110184   2.048   4.924   5.519
 3095SOL    HW210185   2.169   5.020   5.467
 3096SOL     OW10186   1.793   5.779   5.573
 3096SOL    HW110187   1.881   5.732   5.571
 3096SOL    HW210188   1.769   5.810   5.481
 3097SOL     OW10189   6.148   1.720   0.191
 3097SOL    HW110190   6.140   1.813   0.153
 3097SOL    HW210191   6.142   1.724   0.290
 3098SOL     OW10192   2.439   3.154   0.934
 3098SOL    HW110193   2.443   3.073   0.992
 3098SOL    HW210194   2.349   3.197   0.942
 3099SOL     OW10195   0.656   0.057   3.111
 3099SOL    HW110196   0.642   6.989   3.067
 3099SOL    HW210197   0.749   0.089   3.095
 3100SOL     OW10198   6.528   5.989   4.388
 3100SOL    HW110199   6.523   5.980   4.488
 3100SOL    HW210200   6.559   6.081   4.365
 3101SOL     OW10201   5.421   6.816   6.581
 3101SOL    HW110202   5.491   6.771   6.637
 3101SOL    HW210203   5.460   6.840   6.492
 3102SOL     OW10204   0.081   5.341   1.738
 3102SOL    HW110205   7.016   5.391   1.732
 3102SOL    HW210206   0.074   5.269   1.808
 3103SOL     OW10207   4.197   0.744   2.389
 3103SOL    HW110208   4.265   0.684   2.432
 3103SOL    HW210209   4.106   0.704   2.397
 3104SOL     OW10210   4.758   0.509   4.962
 3104SOL    HW110211   4.794   0.600   4.941
 3104SOL    HW210212   4.740   0.460   4.876
 3105SOL     OW10213   6.342   4.554   1.497
 3105SOL    HW110214   6.326   4.457   1.514
 3105SOL    HW210215   6.429   4.567   1.450
 3106SOL     OW10216   6.566   0.976   3.323
 3106SOL    HW110217   6.628   1.050   3.296
 3106SOL    HW210218   6.542   0.921   3.244
 3107SOL     OW10219   4.505   1.356   4.743
 3107SOL    HW110220   4.543   1.449   4.740
 3107SOL    HW210221   4.439   1.350   4.817
 3108SOL     OW10222   1.126   6.088   4.340
 3108SOL    HW110223   1.074   6.083   4.426
 3108SOL    HW210224   1.062   6.090   4.263
 3109SOL     OW10225   5.763   6.121   2.827
 3109SOL    HW110226   5.750   6.023   2.811
 3109SOL    HW210227   5.691   6.155   2.886
 3110SOL     OW10228   1.819   2.391   2.607
 3110SOL    HW110229   1.876   2.336   2.546
 3110SOL    HW210230   1.796   2.337   2.688
 3111SOL     OW10231   6.430   5.457   3.929
 3111SOL    HW110232   6.488   5.415   3.858
 3111SOL    HW210233   6.353   5.397   3.949
 3112SOL     OW10234   5.292   2.413   6.841
 3112SOL    HW110235   5.264   2.418   6.937
 3112SOL    HW210236   5.228   2.467   6.786
 3113SOL     OW10237   2.897   5.809   3.354
 3113SOL    HW110238   2.835   5.808   3.433
 3113SOL    HW210239   2.969   5.876   3.370
 3114SOL     OW10240   4.109   1.312   0.934
 3114SOL    HW110241   4.206   1.292   0.946
 3114SOL    HW210242   4.098   1.396   0.880
 3115SOL     OW10243   3.726   3.397   6.439
 3115SOL    HW110244   3.820   3.374   6.416
 3115SOL    HW210245   3.676   3.314   6.462
 3116SOL     OW10246   0.796   3.022   6.932
 3116SOL    HW110247   0.787   2.995   6.836
 3116SOL    HW210248   0.856   3.102   6.939
 3117SOL     OW10249   4.443   3.535   5.314
 3117SOL    HW110250   4.456   3.461   5.380
 3117SOL    HW210251   4.527   3.546   5.260
 3118SOL     OW10252   0.812   5.786   2.024
 3118SOL    HW110253   0.776   5.701   1.987
 3118SOL    HW210254   0.911   5.789   2.011
 3119SOL     OW10255   1.884   3.393   6.074
 3119SOL    HW110256   1.894   3.299   6.040
 3119SOL    HW210257   1.838   3.449   6.005
 3120SOL     OW10258   3.110   6.451   4.581
 3120SOL    HW110259   3.053   6.470   4.501
 3120SOL    HW210260   3.059   6.476   4.664
 3121SOL     OW10261   0.399   1.131   3.624
 3121SOL    HW110262   0.390   1.130   3.524
 3121SOL    HW210263   0.331   1.070   3.664
 3122SOL     OW10264   3.936   6.295   5.938
 3122SOL    HW110265   3.968   6.234   5.866
 3122SOL    HW210266   3.996   6.375   5.944
 3123SOL     OW10267   3.173   1.662   3.736
 3123SOL    HW110268   3.196   1.569   3.708
 3123SOL    HW210269   3.250   1.702   3.785
 3124SOL     OW10270   3.977   0.001   4.710
 3124SOL    HW110271   3.978   0.076   4.777
 3124SOL    HW210272   3.929   6.943   4.748
 3125SOL     OW10273   6.726   2.132   4.993
 3125SOL    HW110274   6.676   2.051   5.021
 3125SOL    HW210275   6.772   2.115   4.906
 3126SOL     OW10276   4.907   4.840   5.690
 3126SOL    HW110277   4.956   4.762   5.651
 3126SOL    HW210278   4.947   4.864   5.778
 3127SOL     OW10279   1.503   3.193   4.714
 3127SOL    HW110280   1.512   3.293   4.710
 3127SOL    HW210281   1.588   3.154   4.749
 3128SOL     OW10282   2.665   0.656   5.833
 3128SOL    HW110283   2.574   0.621   5.813
 3128SOL    HW210284   2.659   0.727   5.904
 3129SOL     OW10285   6.164   3.553   6.188
 3129SOL    HW110286   6.211   3.577   6.103
 3129SOL    HW210287   6.231   3.545   6.262
 3130SOL     OW10288   1.580   4.255   1.389
 3130SOL    HW110289   1.525   4.173   1.379
 3130SOL    HW210290   1.522   4.333   1.412
 3131SOL     OW10291   0.100   2.168   1.276
 3131SOL    HW110292   0.154   2.084   1.268
 3131SOL    HW210293   0.158   2.241   1.311
 3132SOL     OW10294   4.194   5.311   5.892
 3132SOL    HW110295   4.274   5.262   5.925
 3132SOL    HW210296   4.127   5.246   5.857
 3133SOL     OW10297   3.541   1.938   4.534
 3133SOL    HW110298   3.617   1.970   4.591
 3133SOL    HW210299   3.455   1.946   4.586
 3134SOL     OW10300   4.833   4.345   1.601
 3134SOL    HW110301   4.744   4.342   1.647
 3134SOL    HW210302   4.884   4.426   1.631
 3135SOL     OW10303   4.734   0.590   5.549
 3135SOL    HW110304   4.737   0.501   5.504
 3135SOL    HW210305   4.652   0.640   5.520
 3136SOL     OW10306   5.215   0.969   1.036
 3136SOL    HW110307   5.258   0.955   1.125
 3136SOL    HW210308   5.273   1.025   0.978
 3137SOL     OW10309   6.662   0.768   3.465
 3137SOL    HW110310   6.655   0.804   3.558
 3137SOL    HW210311   6.615   0.830   3.402
 3138SOL     OW10312   6.170   4.404   4.050
 3138SOL    HW110313   6.101   4.366   4.110
 3138SOL    HW210314   6.148   4.381   3.955
 3139SOL     OW10315   5.068   6.706   0.614
 3139SOL    HW110316   5.156   6.714   0.660
 3139SOL    HW210317   5.036   6.611   0.618
 3140SOL     OW10318   6.038   0.459   6.906
 3140SOL    HW110319   6.026   0.527   6.835
 3140SOL    HW210320   6.111   0.487   6.968
 3141SOL     OW10321   0.087   6.128   6.282
 3141SOL    HW110322   0.053   6.169   6.367
 3141SOL    HW210323   0.155   6.190   6.241
 3142SOL     OW10324   3.595   6.780   1.947
 3142SOL    HW110325   3.508   6.819   1.977
 3142SOL    HW210326   3.595   6.682   1.965
 3143SOL     OW10327   6.510   1.809   6.616
 3143SOL    HW110328   6.469   1.848   6.533
 3143SOL    HW210329   6.445   1.817   6.692
 3144SOL     OW10330   4.515   3.970   1.716
 3144SOL    HW110331   4.459   4.042   1.757
 3144SOL    HW210332   4.460   3.887   1.707
 3145SOL     OW10333   2.072   5.999   1.312
 3145SOL    HW110334   2.083   6.012   1.410
 3145SOL    HW210335   2.069   5.901   1.292
 3146SOL     OW10336   1.313   0.213   3.563
 3146SOL    HW110337   1.231   0.156   3.574
 3146SOL    HW210338   1.353   0.232   3.652
 3147SOL     OW10339   3.724   4.852   0.808
 3147SOL    HW110340   3.632   4.884   0.786
 3147SOL    HW210341   3.719   4.778   0.875
 3148SOL     OW10342   5.345   5.995   4.671
 3148SOL    HW110343   5.249   5.968   4.671
 3148SOL    HW210344   5.396   5.936   4.733
 3149SOL     OW10345   2.477   1.009   5.782
 3149SOL    HW110346   2.499   1.044   5.691
 3149SOL    HW210347   2.512   1.072   5.851
 3150SOL     OW10348   6.036   6.076   4.334
 3150SOL    HW110349   5.971   6.109   4.266
 3150SOL    HW210350   6.046   5.977   4.324
 3151SOL     OW10351   5.564   1.636   5.349
 3151SOL    HW110352   5.594   1.657   5.442
 3151SOL    HW210353   5.531   1.542   5.346
 3152SOL     OW10354   1.253   5.641   0.447
 3152SOL    HW110355   1.233   5.648   0.545
 3152SOL    HW210356   1.350   5.661   0.431
 3153SOL     OW10357   5.835   5.078   1.914
 3153SOL    HW110358   5.738   5.085   1.936
 3153SOL    HW210359   5.887   5.058   1.997
 3154SOL     OW10360   5.857   0.982   6.303
 3154SOL    HW110361   5.948   1.020   6.290
 3154SOL    HW210362   5.864   0.896   6.354
 3155SOL     OW10363   6.524   4.160   1.395
 3155SOL    HW110364   6.498   4.230   1.329
 3155SOL    HW210365   6.533   4.071   1.349
 3156SOL     OW10366   3.242   2.939   3.273
 3156SOL    HW110367   3.281   2.988   3.351
 3156SOL    HW210368   3.145   2.961   3.265
 3157SOL     OW10369   2.427   2.019   4.491
 3157SOL    HW110370   2.397   2.086   4.424
 3157SOL    HW210371   2.527   2.020   4.497
 3158SOL     OW10372   4.421   0.849   2.930
 3158SOL    HW110373   4.446   0.760   2.968
 3158SOL    HW210374   4.494   0.915   2.947
 3159SOL     OW10375   5.335   1.395   6.296
 3159SOL    HW110376   5.422   1.393   6.245
 3159SOL    HW210377   5.308   1.489   6.311
 3160SOL     OW10378   0.459   6.361   5.408
 3160SOL    HW110379   0.522   6.387   5.482
 3160SOL    HW210380   0.425   6.268   5.425
 3161SOL     OW10381   1.749   1.559   3.134
 3161SOL    HW110382   1.845   1.575   3.110
 3161SOL    HW210383   1.694   1.636   3.102
 3162SOL     OW10384   1.414   6.499   1.937
 3162SOL    HW110385   1.509   6.467   1.928
 3162SOL    HW210386   1.401   6.541   2.027
 3163SOL     OW10387   4.295   2.777   6.256
 3163SOL    HW110388   4.206   2.739   6.229
 3163SOL    HW210389   4.306   2.869   6.216
 3164SOL     OW10390   4.533   4.572   1.179
 3164SOL    HW110391   4.513   4.537   1.087
 3164SOL    HW210392   4.518   4.500   1.246
 3165SOL     OW10393   0.668   6.681   0.924
 3165SOL    HW110394   0.756   6.728   0.936
 3165SOL    HW210395   0.597   6.732   0.972
 3166SOL     OW10396   4.402   1.826   5.079
 3166SOL    HW110397   4.490   1.790   5.112
 3166SOL    HW210398   4.406   1.925   5.076
 3167SOL     OW10399   6.761   3.794   1.287
 3167SOL    HW110400   6.844   3.830   1.244
 3167SOL    HW210401   6.681   3.840   1.248
 3168SOL     OW10402   4.348   2.334   6.843
 3168SOL    HW110403   4.320   2.308   6.936
 3168SOL    HW210404   4.285   2.293   6.777
 3169SOL     OW10405   1.268   3.659   5.058
 3169SOL    HW110406   1.322   3.606   5.124
 3169SOL    HW210407   1.280   3.620   4.967
 3170SOL     OW10408   3.809   0.722   1.256
 3170SOL    HW110409   3.857   0.654   1.200
 3170SOL    HW210410   3.844   0.720   1.349
 3171SOL     OW10411   0.541   0.110   0.938
 3171SOL    HW110412   0.576   0.022   0.905
 3171SOL    HW210413   0.448   0.123   0.906
 3172SOL     OW10414   0.287   4.911   0.116
 3172SOL    HW110415   0.216   4.840   0.109
 3172SOL    HW210416   0.293   4.960   0.029
 3173SOL     OW10417   2.547   2.307   0.328
 3173SOL    HW110418   2.465   2.280   0.379
 3173SOL    HW210419   2.544   2.267   0.237
 3174SOL     OW10420   2.810   2.658   6.236
 3174SOL    HW110421   2.897   2.609   6.236
 3174SOL    HW210422   2.811   2.730   6.167
 3175SOL     OW10423   6.794   0.765   0.324
 3175SOL    HW110424   6.703   0.729   0.343
 3175SOL    HW210425   6.786   0.858   0.287
 3176SOL     OW10426   1.365   4.668   4.757
 3176SOL    HW110427   1.292   4.733   4.777
 3176SOL    HW210428   1.448   4.717   4.730
 3177SOL     OW10429   4.803   4.119   4.077
 3177SOL    HW110430   4.798   4.032   4.125
 3177SOL    HW210431   4.775   4.193   4.138
 3178SOL     OW10432   6.118   1.736   0.484
 3178SOL    HW110433   6.215   1.728   0.510
 3178SOL    HW210434   6.070   1.653   0.510
 3179SOL     OW10435   1.780   3.315   2.520
 3179SOL    HW110436   1.695   3.277   2.483
 3179SOL    HW210437   1.799   3.273   2.609
 3180SOL     OW10438   4.369   1.456   0.047
 3180SOL    HW110439   4.420   1.509   7.000
 3180SOL    HW210440   4.367   1.506   0.134
 3181SOL     OW10441   0.593   1.303   2.460
 3181SOL    HW110442   0.573   1.286   2.556
 3181SOL    HW210443   0.588   1.217   2.409
 3182SOL     OW10444   2.604   1.414   4.779
 3182SOL    HW110445   2.539   1.360   4.833
 3182SOL    HW210446   2.553   1.470   4.713
 3183SOL     OW10447   4.229   4.283   1.636
 3183SOL    HW110448   4.130   4.291   1.646
 3183SOL    HW210449   4.267   4.232   1.714
 3184SOL     OW10450   1.263   2.775   2.408
 3184SOL    HW110451   1.178   2.723   2.406
 3184SOL    HW210452   1.331   2.731   2.349
 3185SOL     OW10453   6.394   5.776   0.123
 3185SOL    HW110454   6.349   5.833   0.055
 3185SOL    HW210455   6.452   5.833   0.182
 3186SOL     OW10456   4.006   1.705   2.219
 3186SOL    HW110457   4.021   1.668   2.311
 3186SOL    HW210458   4.053   1.793   2.210
 3187SOL     OW10459   4.375   3.822   0.642
 3187SOL    HW110460   4.330   3.739   0.612
 3187SOL    HW210461   4.351   3.841   0.737
 3188SOL     OW10462   3.506   6.402   4.496
 3188SOL    HW110463   3.458   6.433   4.578
 3188SOL    HW210464   3.474   6.311   4.469
 3189SOL     OW10465   1.753   1.589   2.068
 3189SOL    HW110466   1.793   1.569   1.978
 3189SOL    HW210467   1.826   1.593   2.136
 3190SOL     OW10468   6.995   6.704   0.547
 3190SOL    HW110469   0.009   6.636   0.483
 3190SOL    HW210470   6.997   6.794   0.504
 3191SOL     OW10471   4.540   6.847   0.951
 3191SOL    HW110472   4.616   6.796   0.910
 3191SOL    HW210473   4.497   6.791   1.022
 3192SOL     OW10474   6.891   2.618   0.762
 3192SOL    HW110475   6.856   2.649   0.674
 3192SOL    HW210476   6.815   2.585   0.819
 3193SOL     OW10477   4.068   1.728   6.622
 3193SOL    HW110478   4.107   1.781   6.547
 3193SOL    HW210479   4.141   1.677   6.668
 3194SOL     OW10480   0.569   3.281   5.516
 3194SOL    HW110481   0.550   3.283   5.614
 3194SOL    HW210482   0.555   3.189   5.480
 3195SOL     OW10483   2.478   2.452   3.393
 3195SOL    HW110484   2.492   2.354   3.379
 3195SOL    HW210485   2.483   2.473   3.490
 3196SOL     OW10486   0.765   0.613   5.404
 3196SOL    HW110487   0.722   0.592   5.316
 3196SOL    HW210488   0.860   0.642   5.389
 3197SOL     OW10489   1.765   6.204   3.447
 3197SOL    HW110490   1.719   6.284   3.486
 3197SOL    HW210491   1.703   6.125   3.452
 3198SOL     OW10492   6.129   1.925   5.720
 3198SOL    HW110493   6.091   1.857   5.658
 3198SOL    HW210494   6.131   2.014   5.675
 3199SOL     OW10495   4.801   2.792   1.852
 3199SOL    HW110496   4.789   2.752   1.943
 3199SOL    HW210497   4.785   2.890   1.855
 3200SOL     OW10498   0.048   2.704   1.770
 3200SOL    HW110499   0.136   2.660   1.751
 3200SOL    HW210500   0.019   2.683   1.863
 3201SOL     OW10501   4.842   4.093   4.468
 3201SOL    HW110502   4.807   4.034   4.394
 3201SOL    HW210503   4.875   4.036   4.543
 3202SOL     OW10504   1.177   4.632   1.531
 3202SOL    HW110505   1.265   4.590   1.552
 3202SOL    HW210506   1.164   4.633   1.432
 3203SOL     OW10507   6.267   2.732   6.431
 3203SOL    HW110508   6.366   2.746   6.435
 3203SOL    HW210509   6.236   2.690   6.516
 3204SOL     OW10510   4.943   6.494   1.588
 3204SOL    HW110511   4.843   6.499   1.592
 3204SOL    HW210512   4.982   6.565   1.647
 3205SOL     OW10513   0.030   3.303   0.114
 3205SOL    HW110514   7.010   3.375   0.057
 3205SOL    HW210515   6.979   3.243   0.148
 3206SOL     OW10516   0.331   6.858   5.833
 3206SOL    HW110517   0.249   6.825   5.881
 3206SOL    HW210518   0.303   6.907   5.751
 3207SOL     OW10519   1.026   0.705   5.377
 3207SOL    HW110520   1.028   0.785   5.438
 3207SOL    HW210521   1.088   0.636   5.412
 3208SOL     OW10522   4.855   6.526   5.700
 3208SOL    HW110523   4.918   6.602   5.716
 3208SOL    HW210524   4.881   6.477   5.617
 3209SOL     OW10525   3.988   5.427   3.306
 3209SOL    HW110526   4.084   5.401   3.301
 3209SOL    HW210527   3.933   5.346   3.326
 3210SOL     OW10528   0.529   3.957   1.468
 3210SOL    HW110529   0.446   3.905   1.447
 3210SOL    HW210530   0.595   3.947   1.393
 3211SOL     OW10531   1.572   3.461   1.147
 3211SOL    HW110532   1.494   3.399   1.149
 3211SOL    HW210533   1.628   3.447   1.229
 3212SOL     OW10534   2.812   1.155   0.239
 3212SOL    HW110535   2.801   1.125   0.144
 3212SOL    HW210536   2.885   1.102   0.282
 3213SOL     OW10537   6.481   6.202   2.456
 3213SOL    HW110538   6.408   6.134   2.452
 3213SOL    HW210539   6.493   6.244   2.365
 3214SOL     OW10540   4.723   5.852   0.684
 3214SOL    HW110541   4.812   5.813   0.662
 3214SOL    HW210542   4.654   5.780   0.685
 3215SOL     OW10543   0.713   3.231   0.825
 3215SOL    HW110544   0.655   3.172   0.882
 3215SOL    HW210545   0.799   3.248   0.872
 3216SOL     OW10546   5.920   5.650   1.682
 3216SOL    HW110547   6.020   5.653   1.695
 3216SOL    HW210548   5.898   5.590   1.605
 3217SOL     OW10549   0.461   5.487   2.647
 3217SOL    HW110550   0.486   5.582   2.661
 3217SOL    HW210551   0.370   5.470   2.684
 3218SOL     OW10552   3.932   6.961   4.248
 3218SOL    HW110553   3.924   6.891   4.177
 3218SOL    HW210554   4.028   6.984   4.263
 3219SOL     OW10555   0.240   2.031   3.251
 3219SOL    HW110556   0.252   1.988   3.162
 3219SOL    HW210557   0.199   1.965   3.315
 3220SOL     OW10558   6.745   6.224   5.856
 3220SOL    HW110559   6.833   6.195   5.896
 3220SOL    HW210560   6.740   6.323   5.855
 3221SOL     OW10561   3.261   6.923   1.711
 3221SOL    HW110562   3.211   7.004   1.681
 3221SOL    HW210563   3.256   6.852   1.640
 3222SOL     OW10564   4.193   1.605   2.860
 3222SOL    HW110565   4.231   1.514   2.846
 3222SOL    HW210566   4.163   1.614   2.955
 3223SOL     OW10567   2.430   5.246   6.912
 3223SOL    HW110568   2.384   5.265   6.825
 3223SOL    HW210569   2.517   5.296   6.915
 3224SOL     OW10570   4.675   3.276   6.386
 3224SOL    HW110571   4.735   3.300   6.462
 3224SOL    HW210572   4.585   3.317   6.399
 3225SOL     OW10573   4.274   3.496   5.718
 3225SOL    HW110574   4.182   3.491   5.757
 3225SOL    HW210575   4.331   3.556   5.774
 3226SOL     OW10576   1.392   2.063   4.528
 3226SOL    HW110577   1.353   2.153   4.547
 3226SOL    HW210578   1.344   1.993   4.580
 3227SOL     OW10579   2.929   1.946   6.200
 3227SOL    HW110580   2.971   1.917   6.114
 3227SOL    HW210581   2.919   2.046   6.199
 3228SOL     OW10582   5.704   4.061   2.912
 3228SOL    HW110583   5.793   4.080   2.871
 3228SOL    HW210584   5.635   4.119   2.869
 3229SOL     OW10585   3.213   1.892   5.291
 3229SOL    HW110586   3.137   1.870   5.352
 3229SOL    HW210587   3.201   1.843   5.204
 3230SOL     OW10588   1.213   3.447   4.373
 3230SOL    HW110589   1.241   3.351   4.381
 3230SOL    HW210590   1.216   3.474   4.277
 3231SOL     OW10591   2.733   0.437   1.886
 3231SOL    HW110592   2.638   0.431   1.857
 3231SOL    HW210593   2.791   0.390   1.820
 3232SOL     OW10594   3.848   5.161   4.643
 3232SOL    HW110595   3.904   5.184   4.723
 3232SOL    HW210596   3.765   5.216   4.644
 3233SOL     OW10597   0.857   2.847   1.812
 3233SOL    HW110598   0.944   2.884   1.844
 3233SOL    HW210599   0.805   2.919   1.767
 3234SOL     OW10600   0.041   1.366   0.477
 3234SOL    HW110601   0.030   1.272   0.445
 3234SOL    HW210602   0.138   1.386   0.491
 3235SOL     OW10603   4.923   0.811   1.494
 3235SOL    HW110604   4.871   0.873   1.435
 3235SOL    HW210605   5.004   0.779   1.445
 3236SOL     OW10606   1.481   3.143   0.558
 3236SOL    HW110607   1.426   3.221   0.588
 3236SOL    HW210608   1.534   3.169   0.478
 3237SOL     OW10609   5.568   1.438   3.448
 3237SOL    HW110610   5.478   1.447   3.406
 3237SOL    HW210611   5.585   1.341   3.469
 3238SOL     OW10612   0.336   5.235   0.855
 3238SOL    HW110613   0.357   5.138   0.862
 3238SOL    HW210614   0.324   5.260   0.758
 3239SOL     OW10615   6.331   1.658   0.613
 3239SOL    HW110616   6.329   1.565   0.651
 3239SOL    HW210617   6.417   1.702   0.637
 3240SOL     OW10618   1.318   5.902   5.714
 3240SOL    HW110619   1.296   5.987   5.761
 3240SOL    HW210620   1.410   5.872   5.742
 3241SOL     OW10621   4.782   1.425   4.451
 3241SOL    HW110622   4.845   1.352   4.423
 3241SOL    HW210623   4.821   1.473   4.529
 3242SOL     OW10624   3.017   4.635   1.117
 3242SOL    HW110625   2.985   4.729   1.128
 3242SOL    HW210626   3.112   4.636   1.085
 3243SOL     OW10627   5.405   4.431   0.557
 3243SOL    HW110628   5.379   4.487   0.478
 3243SOL    HW210629   5.353   4.460   0.637
 3244SOL     OW10630   5.090   6.038   0.689
 3244SOL    HW110631   5.047   6.027   0.599
 3244SOL    HW210632   5.078   5.954   0.742
 3245SOL     OW10633   4.862   2.405   5.021
 3245SOL    HW110634   4.961   2.393   5.010
 3245SOL    HW210635   4.827   2.336   5.083
 3246SOL     OW10636   6.122   0.573   2.821
 3246SOL    HW110637   6.105   0.645   2.754
 3246SOL    HW210638   6.211   0.531   2.802
 3247SOL     OW10639   6.167   4.433   3.482
 3247SOL    HW110640   6.129   4.352   3.526
 3247SOL    HW210641   6.267   4.432   3.491
 3248SOL     OW10642   6.588   3.386   1.391
 3248SOL    HW110643   6.562   3.404   1.486
 3248SOL    HW210644   6.505   3.373   1.336
 3249SOL     OW10645   3.515   3.721   4.613
 3249SOL    HW110646   3.522   3.753   4.519
 3249SOL    HW210647   3.463   3.635   4.616
 3250SOL     OW10648   5.142   7.002   2.320
 3250SOL    HW110649   5.096   0.067   2.342
 3250SOL    HW210650   5.121   6.933   2.390
 3251SOL     OW10651   3.805   0.749   2.107
 3251SOL    HW110652   3.776   0.828   2.160
 3251SOL    HW210653   3.894   0.767   2.066
 3252SOL     OW10654   2.508   2.103   2.202
 3252SOL    HW110655   2.522   2.114   2.301
 3252SOL    HW210656   2.596   2.086   2.159
 3253SOL     OW10657   5.948   3.438   2.389
 3253SOL    HW110658   5.901   3.399   2.468
 3253SOL    HW210659   6.038   3.472   2.418
 3254SOL     OW10660   4.832   5.913   5.613
 3254SOL    HW110661   4.840   5.856   5.694
 3254SOL    HW210662   4.912   5.900   5.554
 3255SOL     OW10663   5.189   6.412   1.856
 3255SOL    HW110664   5.174   6.484   1.924
 3255SOL    HW210665   5.280   6.373   1.869
 3256SOL     OW10666   4.743   0.590   0.447
 3256SOL    HW110667   4.664   0.608   0.506
 3256SOL    HW210668   4.826   0.596   0.502
 3257SOL     OW10669   1.509   2.146   1.434
 3257SOL    HW110670   1.568   2.083   1.483
 3257SOL    HW210671   1.414   2.127   1.456
 3258SOL     OW10672   3.858   4.847   1.973
 3258SOL    HW110673   3.771   4.810   1.941
 3258SOL    HW210674   3.932   4.813   1.916
 3259SOL     OW10675   4.426   5.793   3.733
 3259SOL    HW110676   4.433   5.693   3.723
 3259SOL    HW210677   4.517   5.831   3.752
 3260SOL     OW10678   1.601   1.834   1.253
 3260SOL    HW110679   1.596   1.758   1.187
 3260SOL    HW210680   1.509   1.865   1.274
 3261SOL     OW10681   4.699   6.639   0.600
 3261SOL    HW110682   4.774   6.688   0.555
 3261SOL    HW210683   4.633   6.611   0.531
 3262SOL     OW10684   3.514   1.914   2.901
 3262SOL    HW110685   3.459   1.993   2.872
 3262SOL    HW210686   3.551   1.868   2.821
 3263SOL     OW10687   3.458   1.568   4.008
 3263SOL    HW110688   3.395   1.516   4.065
 3263SOL    HW210689   3.550   1.530   4.016
 3264SOL     OW10690   1.372   4.472   1.141
 3264SOL    HW110691   1.312   4.521   1.079
 3264SOL    HW210692   1.405   4.389   1.097
 3265SOL     OW10693   4.623   1.726   5.783
 3265SOL    HW110694   4.672   1.680   5.857
 3265SOL    HW210695   4.687   1.783   5.731
 3266SOL     OW10696   0.594   2.589   0.448
 3266SOL    HW110697   0.556   2.580   0.357
 3266SOL    HW210698   0.690   2.616   0.441
 3267SOL     OW10699   4.071   1.121   0.137
 3267SOL    HW110700   4.098   1.206   0.092
 3267SOL    HW210701   4.028   1.142   0.224
 3268SOL     OW10702   1.631   4.589   0.254
 3268SOL    HW110703   1.552   4.599   0.315
 3268SOL    HW210704   1.678   4.677   0.248
 3269SOL     OW10705   4.502   4.747   1.959
 3269SOL    HW110706   4.511   4.657   2.001
 3269SOL    HW210707   4.575   4.761   1.892
 3270SOL     OW10708   1.372   4.426   5.317
 3270SOL    HW110709   1.278   4.406   5.287
 3270SOL    HW210710   1.423   4.465   5.240
 3271SOL     OW10711   5.482   3.851   2.800
 3271SOL    HW110712   5.538   3.918   2.847
 3271SOL    HW210713   5.440   3.789   2.866
 3272SOL     OW10714   3.473   4.048   6.729
 3272SOL    HW110715   3.534   4.120   6.695
 3272SOL    HW210716   3.480   4.043   6.829
 3273SOL     OW10717   0.506   6.512   2.051
 3273SOL    HW110718   0.418   6.463   2.045
 3273SOL    HW210719   0.560   6.474   2.126
 3274SOL     OW10720   3.920   1.199   1.159
 3274SOL    HW110721   3.936   1.256   1.239
 3274SOL    HW210722   3.986   1.223   1.087
 3275SOL     OW10723   0.744   0.625   6.355
 3275SOL    HW110724   0.669   0.578   6.309
 3275SOL    HW210725   0.825   0.566   6.354
 3276SOL     OW10726   3.622   5.898   0.411
 3276SOL    HW110727   3.602   5.955   0.490
 3276SOL    HW210728   3.706   5.929   0.368
 3277SOL     OW10729   5.300   0.283   7.007
 3277SOL    HW110730   5.327   0.195   0.023
 3277SOL    HW210731   5.205   0.278   6.975
 3278SOL     OW10732   0.172   0.843   5.678
 3278SOL    HW110733   0.092   0.865   5.621
 3278SOL    HW210734   0.253   0.835   5.620
 3279SOL     OW10735   6.825   0.962   0.768
 3279SOL    HW110736   6.758   1.016   0.718
 3279SOL    HW210737   6.868   1.018   0.839
 3280SOL     OW10738   3.756   4.824   5.497
 3280SOL    HW110739   3.778   4.730   5.524
 3280SOL    HW210740   3.753   4.882   5.578
 3281SOL     OW10741   2.117   5.282   0.752
 3281SOL    HW110742   2.048   5.347   0.783
 3281SOL    HW210743   2.205   5.306   0.793
 3282SOL     OW10744   1.570   5.679   4.597
 3282SOL    HW110745   1.475   5.652   4.581
 3282SOL    HW210746   1.631   5.617   4.548
 3283SOL     OW10747   3.153   1.289   1.036
 3283SOL    HW110748   3.140   1.190   1.032
 3283SOL    HW210749   3.187   1.322   0.947
 3284SOL     OW10750   6.113   6.104   6.842
 3284SOL    HW110751   6.136   6.008   6.859
 3284SOL    HW210752   6.139   6.160   6.920
 3285SOL     OW10753   5.548   2.677   3.128
 3285SOL    HW110754   5.480   2.735   3.083
 3285SOL    HW210755   5.505   2.631   3.206
 3286SOL     OW10756   3.838   3.521   2.513
 3286SOL    HW110757   3.862   3.436   2.467
 3286SOL    HW210758   3.867   3.517   2.609
 3287SOL     OW10759   1.924   6.034   6.812
 3287SOL    HW110760   1.856   6.047   6.885
 3287SOL    HW210761   1.879   5.997   6.731
 3288SOL     OW10762   0.898   5.599   6.556
 3288SOL    HW110763   0.903   5.633   6.462
 3288SOL    HW210764   0.903   5.676   6.619
 3289SOL     OW10765   2.407   6.774   5.071
 3289SOL    HW110766   2.389   6.677   5.055
 3289SOL    HW210767   2.421   6.789   5.169
 3290SOL     OW10768   0.503   6.869   1.686
 3290SOL    HW110769   0.511   6.942   1.618
 3290SOL    HW210770   0.592   6.828   1.702
 3291SOL     OW10771   1.284   6.326   0.183
 3291SOL    HW110772   1.323   6.418   0.184
 3291SOL    HW210773   1.214   6.318   0.254
 3292SOL     OW10774   0.406   0.945   6.981
 3292SOL    HW110775   0.346   0.997   6.920
 3292SOL    HW210776   0.401   0.848   6.958
 3293SOL     OW10777   6.535   3.537   3.278
 3293SOL    HW110778   6.541   3.509   3.182
 3293SOL    HW210779   6.459   3.600   3.290
 3294SOL     OW10780   0.774   1.266   5.843
 3294SOL    HW110781   0.843   1.326   5.884
 3294SOL    HW210782   0.721   1.317   5.776
 3295SOL     OW10783   1.816   3.007   2.082
 3295SOL    HW110784   1.887   3.066   2.118
 3295SOL    HW210785   1.828   2.997   1.983
 3296SOL     OW10786   1.938   6.456   2.028
 3296SOL    HW110787   1.875   6.500   1.964
 3296SOL    HW210788   1.886   6.403   2.095
 3297SOL     OW10789   2.956   0.000   4.689
 3297SOL    HW110790   3.036   0.019   4.631
 3297SOL    HW210791   2.896   0.080   4.689
 3298SOL     OW10792   5.997   2.248   4.349
 3298SOL    HW110793   6.059   2.325   4.337
 3298SOL    HW210794   5.964   2.217   4.260
 3299SOL     OW10795   1.767   6.379   4.286
 3299SOL    HW110796   1.772   6.421   4.196
 3299SOL    HW210797   1.736   6.447   4.353
 3300SOL     OW10798   0.610   0.745   6.048
 3300SOL    HW110799   0.558   0.691   6.114
 3300SOL    HW210800   0.596   0.843   6.066
 3301SOL     OW10801   2.138   3.287   3.332
 3301SOL    HW110802   2.146   3.207   3.274
 3301SOL    HW210803   2.107   3.365   3.277
 3302SOL     OW10804   1.602   5.532   5.702
 3302SOL    HW110805   1.587   5.556   5.798
 3302SOL    HW210806   1.685   5.577   5.668
 3303SOL     OW10807   3.878   2.886   1.372
 3303SOL    HW110808   3.976   2.874   1.357
 3303SOL    HW210809   3.852   2.980   1.351
 3304SOL     OW10810   1.741   5.446   4.239
 3304SOL    HW110811   1.748   5.435   4.338
 3304SOL    HW210812   1.645   5.454   4.212
 3305SOL     OW10813   2.204   1.336   3.292
 3305SOL    HW110814   2.262   1.297   3.363
 3305SOL    HW210815   2.207   1.278   3.210
 3306SOL     OW10816   2.068   5.307   3.766
 3306SOL    HW110817   2.149   5.344   3.719
 3306SOL    HW210818   2.058   5.350   3.855
 3307SOL     OW10819   0.102   5.868   6.238
 3307SOL    HW110820   0.042   5.865   6.157
 3307SOL    HW210821   0.108   5.961   6.272
 3308SOL     OW10822   4.598   6.099   6.783
 3308SOL    HW110823   4.683   6.120   6.735
 3308SOL    HW210824   4.619   6.056   6.871
 3309SOL     OW10825   0.942   5.132   2.510
 3309SOL    HW110826   0.950   5.210   2.449
 3309SOL    HW210827   0.851   5.131   2.552
 3310SOL     OW10828   6.453   4.435   5.082
 3310SOL    HW110829   6.395   4.444   5.163
 3310SOL    HW210830   6.414   4.367   5.020
 3311SOL     OW10831   2.298   4.071   1.721
 3311SOL    HW110832   2.308   4.127   1.638
 3311SOL    HW210833   2.372   4.003   1.724
 3312SOL     OW10834   3.669   4.450   5.720
 3312SOL    HW110835   3.716   4.514   5.781
 3312SOL    HW210836   3.575   4.438   5.752
 3313SOL     OW10837   7.008   5.752   2.544
 3313SOL    HW110838   7.018   5.740   2.445
 3313SOL    HW210839   7.005   5.849   2.566
 3314SOL     OW10840   1.774   1.776   4.156
 3314SOL    HW110841   1.686   1.823   4.143
 3314SOL    HW210842   1.773   1.727   4.243
 3315SOL     OW10843   6.339   3.497   4.212
 3315SOL    HW110844   6.352   3.569   4.145
 3315SOL    HW210845   6.316   3.411   4.166
 3316SOL     OW10846   4.078   1.582   6.243
 3316SOL    HW110847   4.095   1.563   6.340
 3316SOL    HW210848   4.134   1.520   6.187
 3317SOL     OW10849   4.642   3.305   1.709
 3317SOL    HW110850   4.617   3.221   1.757
 3317SOL    HW210851   4.654   3.286   1.612
 3318SOL     OW10852   3.174   0.213   0.774
 3318SOL    HW110853   3.200   0.160   0.693
 3318SOL    HW210854   3.142   0.151   0.846
 3319SOL     OW10855   6.109   6.909   4.650
 3319SOL    HW110856   6.107   6.818   4.691
 3319SOL    HW210857   6.071   6.904   4.557
 3320SOL     OW10858   5.526   0.922   5.351
 3320SOL    HW110859   5.621   0.916   5.383
 3320SOL    HW210860   5.519   0.992   5.281
 3321SOL     OW10861   3.809   2.263   1.617
 3321SOL    HW110862   3.757   2.297   1.695
 3321SOL    HW210863   3.819   2.336   1.549
 3322SOL     OW10864   5.471   3.217   1.616
 3322SOL    HW110865   5.421   3.294   1.576
 3322SOL    HW210866   5.524   3.172   1.544
 3323SOL     OW10867   2.551   4.050   6.268
 3323SOL    HW110868   2.604   4.016   6.346
 3323SOL    HW210869   2.472   3.990   6.253
 3324SOL     OW10870   1.425   3.806   6.235
 3324SOL    HW110871   1.353   3.741   6.257
 3324SOL    HW210872   1.513   3.769   6.264
 3325SOL     OW10873   2.458   2.662   6.371
 3325SOL    HW110874   2.524   2.708   6.430
 3325SOL    HW210875   2.370   2.654   6.419
 3326SOL     OW10876   6.277   1.434   2.284
 3326SOL    HW110877   6.214   1.480   2.221
 3326SOL    HW210878   6.224   1.384   2.353
 3327SOL     OW10879   3.431   6.496   1.827
 3327SOL    HW110880   3.332   6.492   1.843
 3327SOL    HW210881   3.451   6.562   1.756
 3328SOL     OW10882   4.187   1.781   2.441
 3328SOL    HW110883   4.222   1.793   2.348
 3328SOL    HW210884   4.174   1.871   2.483
 3329SOL     OW10885   5.442   0.566   4.202
 3329SOL    HW110886   5.414   0.558   4.298
 3329SOL    HW210887   5.527   0.618   4.197
 3330SOL     OW10888   6.103   6.167   1.334
 3330SOL    HW110889   6.199   6.193   1.323
 3330SOL    HW210890   6.049   6.247   1.360
 3331SOL     OW10891   0.655   3.571   2.210
 3331SOL    HW110892   0.557   3.571   2.192
 3331SOL    HW210893   0.672   3.600   2.304
 3332SOL     OW10894   6.397   4.499   0.726
 3332SOL    HW110895   6.491   4.509   0.693
 3332SOL    HW210896   6.333   4.521   0.652
 3333SOL     OW10897   2.729   3.869   6.821
 3333SOL    HW110898   2.703   3.869   6.918
 3333SOL    HW210899   2.801   3.802   6.806
 3334SOL     OW10900   2.180   3.943   2.419
 3334SOL    HW110901   2.167   3.902   2.328
 3334SOL    HW210902   2.220   4.034   2.409
 3335SOL     OW10903   4.470   7.013   6.134
 3335SOL    HW110904   4.568   7.000   6.117
 3335SOL    HW210905   4.441   6.951   6.207
 3336SOL     OW10906   1.803   6.272   4.568
 3336SOL    HW110907   1.753   6.307   4.489
 3336SOL    HW210908   1.803   6.172   4.565
 3337SOL     OW10909   2.756   4.123   1.356
 3337SOL    HW110910   2.805   4.202   1.393
 3337SOL    HW210911   2.700   4.081   1.427
 3338SOL     OW10912   7.011   2.566   1.435
 3338SOL    HW110913   0.028   2.514   1.512
 3338SOL    HW210914   0.052   2.642   1.413
 3339SOL     OW10915   1.547   6.794   6.633
 3339SOL    HW110916   1.510   6.703   6.616
 3339SOL    HW210917   1.636   6.786   6.679
 3340SOL     OW10918   3.445   1.202   3.843
 3340SOL    HW110919   3.461   1.109   3.810
 3340SOL    HW210920   3.531   1.253   3.842
 3341SOL     OW10921   2.016   4.486   3.880
 3341SOL    HW110922   2.025   4.394   3.842
 3341SOL    HW210923   2.102   4.535   3.867
 3342SOL     OW10924   0.959   0.162   3.554
 3342SOL    HW110925   1.018   0.176   3.634
 3342SOL    HW210926   0.965   0.067   3.524
 3343SOL     OW10927   5.711   4.410   6.697
 3343SOL    HW110928   5.729   4.475   6.771
 3343SOL    HW210929   5.661   4.457   6.623
 3344SOL     OW10930   5.788   3.862   4.239
 3344SOL    HW110931   5.771   3.944   4.294
 3344SOL    HW210932   5.882   3.863   4.206
 3345SOL     OW10933   1.256   4.454   6.694
 3345SOL    HW110934   1.226   4.442   6.789
 3345SOL    HW210935   1.300   4.370   6.662
 3346SOL     OW10936   1.085   0.970   0.009
 3346SOL    HW110937   0.996   0.931   0.031
 3346SOL    HW210938   1.117   0.933   6.943
 3347SOL     OW10939   1.092   3.069   6.000
 3347SOL    HW110940   1.141   3.028   6.077
 3347SOL    HW210941   1.117   3.020   5.915
 3348SOL     OW10942   4.166   3.494   4.607
 3348SOL    HW110943   4.067   3.495   4.592
 3348SOL    HW210944   4.185   3.474   4.703
 3349SOL     OW10945   2.006   5.175   3.132
 3349SOL    HW110946   2.018   5.153   3.035
 3349SOL    HW210947   1.947   5.255   3.141
 3350SOL     OW10948   0.205   2.966   5.768
 3350SOL    HW110949   0.142   3.022   5.714
 3350SOL    HW210950   0.204   2.996   5.863
 3351SOL     OW10951   4.663   1.199   2.079
 3351SOL    HW110952   4.628   1.178   2.170
 3351SOL    HW210953   4.747   1.253   2.086
 3352SOL     OW10954   6.517   2.636   1.032
 3352SOL    HW110955   6.490   2.680   0.946
 3352SOL    HW210956   6.573   2.700   1.085
 3353SOL     OW10957   3.281   5.945   1.514
 3353SOL    HW110958   3.246   5.955   1.421
 3353SOL    HW210959   3.210   5.968   1.580
 3354SOL     OW10960   4.214   2.442   5.534
 3354SOL    HW110961   4.189   2.345   5.531
 3354SOL    HW210962   4.135   2.496   5.563
 3355SOL     OW10963   1.850   1.782   5.922
 3355SOL    HW110964   1.798   1.807   6.004
 3355SOL    HW210965   1.919   1.715   5.945
 3356SOL     OW10966   1.148   5.484   5.811
 3356SOL    HW110967   1.113   5.569   5.773
 3356SOL    HW210968   1.079   5.412   5.803
 3357SOL     OW10969   2.778   3.330   1.817
 3357SOL    HW110970   2.803   3.303   1.910
 3357SOL    HW210971   2.685   3.300   1.797
 3358SOL     OW10972   4.493   1.610   2.715
 3358SOL    HW110973   4.454   1.553   2.642
 3358SOL    HW210974   4.492   1.706   2.685
 3359SOL     OW10975   0.278   5.996   3.032
 3359SOL    HW110976   0.375   5.977   3.048
 3359SOL    HW210977   0.250   6.075   3.087
 3360SOL     OW10978   1.144   1.532   6.313
 3360SOL    HW110979   1.192   1.560   6.229
 3360SOL    HW210980   1.132   1.433   6.313
 3361SOL     OW10981   6.821   5.598   4.728
 3361SOL    HW110982   6.918   5.576   4.720
 3361SOL    HW210983   6.780   5.600   4.637
 3362SOL     OW10984   3.595   1.720   2.704
 3362SOL    HW110985   3.674   1.667   2.672
 3362SOL    HW210986   3.561   1.777   2.629
 3363SOL     OW10987   6.851   2.067   1.815
 3363SOL    HW110988   6.847   2.120   1.900
 3363SOL    HW210989   6.885   2.125   1.741
 3364SOL     OW10990   2.379   4.822   3.788
 3364SOL    HW110991   2.285   4.846   3.763
 3364SOL    HW210992   2.424   4.778   3.709
 3365SOL     OW10993   6.724   3.040   4.838
 3365SOL    HW110994   6.672   3.110   4.888
 3365SOL    HW210995   6.794   3.085   4.783
 3366SOL     OW10996   5.483   4.675   4.314
 3366SOL    HW110997   5.512   4.632   4.399
 3366SOL    HW210998   5.401   4.730   4.330
 3367SOL     OW10999   3.928   3.930   2.678
 3367SOL    HW111000   3.916   3.867   2.755
 3367SOL    HW211001   3.998   3.894   2.617
 3368SOL     OW11002   0.566   5.656   6.564
 3368SOL    HW111003   0.572   5.590   6.489
 3368SOL    HW211004   0.595   5.746   6.532
 3369SOL     OW11005   3.826   2.295   0.588
 3369SOL    HW111006   3.741   2.334   0.551
 3369SOL    HW211007   3.804   2.212   0.640
 3370SOL     OW11008   6.816   6.698   1.344
 3370SOL    HW111009   6.901   6.687   1.395
 3370SOL    HW211010   6.785   6.609   1.312
 3371SOL     OW11011   2.407   3.026   1.651
 3371SOL    HW111012   2.502   3.007   1.675
 3371SOL    HW211013   2.400   3.036   1.551
 3372SOL     OW11014   6.728   2.135   0.146
 3372SOL    HW111015   6.700   2.039   0.155
 3372SOL    HW211016   6.782   2.161   0.226
 3373SOL     OW11017   0.195   2.403   4.329
 3373SOL    HW111018   0.288   2.374   4.352
 3373SOL    HW211019   0.198   2.469   4.254
 3374SOL     OW11020   1.007   6.758   3.706
 3374SOL    HW111021   0.926   6.711   3.741
 3374SOL    HW211022   1.049   6.811   3.780
 3375SOL     OW11023   6.839   4.805   0.448
 3375SOL    HW111024   6.763   4.860   0.484
 3375SOL    HW211025   6.817   4.777   0.355
 3376SOL     OW11026   3.301   2.855   4.981
 3376SOL    HW111027   3.299   2.756   4.966
 3376SOL    HW211028   3.274   2.875   5.075
 3377SOL     OW11029   0.108   5.372   5.985
 3377SOL    HW111030   0.032   5.423   6.027
 3377SOL    HW211031   0.134   5.296   6.045
 3378SOL     OW11032   1.643   6.840   0.242
 3378SOL    HW111033   1.663   6.756   0.192
 3378SOL    HW211034   1.719   6.905   0.231
 3379SOL     OW11035   0.659   2.095   5.137
 3379SOL    HW111036   0.653   2.079   5.039
 3379SOL    HW211037   0.719   2.173   5.154
 3380SOL     OW11038   4.372   6.624   5.248
 3380SOL    HW111039   4.333   6.532   5.256
 3380SOL    HW211040   4.311   6.681   5.193
 3381SOL     OW11041   6.769   2.786   1.144
 3381SOL    HW111042   6.858   2.828   1.161
 3381SOL    HW211043   6.721   2.773   1.231
 3382SOL     OW11044   0.555   2.640   6.327
 3382SOL    HW111045   0.556   2.586   6.411
 3382SOL    HW211046   0.461   2.666   6.305
 3383SOL     OW11047   3.675   5.309   1.013
 3383SOL    HW111048   3.757   5.349   0.972
 3383SOL    HW211049   3.698   5.220   1.053
 3384SOL     OW11050   1.958   3.184   0.730
 3384SOL    HW111051   1.984   3.279   0.712
 3384SOL    HW211052   1.905   3.179   0.814
 3385SOL     OW11053   6.924   3.856   4.554
 3385SOL    HW111054   6.957   3.950   4.544
 3385SOL    HW211055   6.843   3.843   4.497
 3386SOL     OW11056   5.377   4.212   0.236
 3386SOL    HW111057   5.347   4.144   0.169
 3386SOL    HW211058   5.339   4.301   0.212
 3387SOL     OW11059   4.692   0.200   3.631
 3387SOL    HW111060   4.633   0.228   3.706
 3387SOL    HW211061   4.639   0.193   3.547
 3388SOL     OW11062   6.058   3.192   2.278
 3388SOL    HW111063   6.007   3.166   2.360
 3388SOL    HW211064   6.014   3.271   2.235
 3389SOL     OW11065   6.563   5.646   5.847
 3389SOL    HW111066   6.467   5.619   5.845
 3389SOL    HW211067   6.569   5.746   5.857
 3390SOL     OW11068   4.991   0.231   6.220
 3390SOL    HW111069   5.021   0.324   6.200
 3390SOL    HW211070   4.955   0.189   6.137
 3391SOL     OW11071   4.548   2.451   3.402
 3391SOL    HW111072   4.595   2.520   3.347
 3391SOL    HW211073   4.489   2.396   3.343
 3392SOL     OW11074   3.439   6.179   4.324
 3392SOL    HW111075   3.396   6.242   4.259
 3392SOL    HW211076   3.369   6.125   4.370
 3393SOL     OW11077   6.318   6.306   0.563
 3393SOL    HW111078   6.274   6.232   0.613
 3393SOL    HW211079   6.417   6.294   0.564
 3394SOL     OW11080   5.231   3.654   1.251
 3394SOL    HW111081   5.293   3.668   1.174
 3394SOL    HW211082   5.147   3.706   1.237
 3395SOL     OW11083   5.239   2.201   3.007
 3395SOL    HW111084   5.283   2.118   3.041
 3395SOL    HW211085   5.168   2.176   2.942
 3396SOL     OW11086   5.647   1.165   3.515
 3396SOL    HW111087   5.632   1.068   3.536
 3396SOL    HW211088   5.741   1.178   3.485
 3397SOL     OW11089   3.445   5.053   6.388
 3397SOL    HW111090   3.537   5.028   6.359
 3397SOL    HW211091   3.402   5.111   6.318
 3398SOL     OW11092   1.188   0.421   4.442
 3398SOL    HW111093   1.281   0.459   4.442
 3398SOL    HW211094   1.191   0.328   4.404
 3399SOL     OW11095   5.648   5.329   3.407
 3399SOL    HW111096   5.568   5.346   3.349
 3399SOL    HW211097   5.720   5.285   3.353
 3400SOL     OW11098   5.549   3.676   6.845
 3400SOL    HW111099   5.494   3.689   6.928
 3400SOL    HW211100   5.489   3.664   6.766
 3401SOL     OW11101   6.366   3.795   6.524
 3401SOL    HW111102   6.339   3.778   6.619
 3401SOL    HW211103   6.416   3.881   6.518
 3402SOL     OW11104   5.631   5.783   6.575
 3402SOL    HW111105   5.557   5.795   6.509
 3402SOL    HW211106   5.688   5.706   6.548
 3403SOL     OW11107   5.029   5.723   6.949
 3403SOL    HW111108   5.068   5.698   6.861
 3403SOL    HW211109   5.082   5.680   0.002
 3404SOL     OW11110   4.915   2.241   0.662
 3404SOL    HW111111   4.955   2.154   0.690
 3404SOL    HW211112   4.930   2.309   0.733
 3405SOL     OW11113   5.819   4.005   6.720
 3405SOL    HW111114   5.917   3.988   6.716
 3405SOL    HW211115   5.788   3.998   6.815
 3406SOL     OW11116   1.036   3.404   2.462
 3406SOL    HW111117   0.975   3.326   2.448
 3406SOL    HW211118   0.994   3.486   2.421
 3407SOL     OW11119   1.666   4.376   0.100
 3407SOL    HW111120   1.662   4.466   0.144
 3407SOL    HW211121   1.716   4.383   0.014
 3408SOL     OW11122   5.044   2.596   4.356
 3408SOL    HW111123   4.981   2.538   4.304
 3408SOL    HW211124   5.079   2.668   4.296
 3409SOL     OW11125   4.094   5.993   0.313
 3409SOL    HW111126   4.079   6.058   0.238
 3409SOL    HW211127   4.184   5.951   0.303
 3410SOL     OW11128   6.769   6.414   1.837
 3410SOL    HW111129   6.790   6.481   1.766
 3410SOL    HW211130   6.737   6.329   1.795
 3411SOL     OW11131   0.364   2.667   0.601
 3411SOL    HW111132   0.443   2.680   0.540
 3411SOL    HW211133   0.385   2.707   0.690
 3412SOL     OW11134   4.936   3.425   1.547
 3412SOL    HW111135   4.936   3.398   1.644
 3412SOL    HW211136   4.964   3.347   1.491
 3413SOL     OW11137   6.314   1.412   0.760
 3413SOL    HW111138   6.288   1.391   0.854
 3413SOL    HW211139   6.405   1.374   0.741
 3414SOL     OW11140   3.528   2.018   5.833
 3414SOL    HW111141   3.463   2.073   5.886
 3414SOL    HW211142   3.558   1.940   5.888
 3415SOL     OW11143   1.959   2.590   3.981
 3415SOL    HW111144   1.915   2.660   4.036
 3415SOL    HW211145   1.977   2.509   4.038
 3416SOL     OW11146   4.975   0.124   0.599
 3416SOL    HW111147   5.067   0.162   0.592
 3416SOL    HW211148   4.919   0.183   0.657
 3417SOL     OW11149   0.215   6.263   4.314
 3417SOL    HW111150   0.201   6.274   4.216
 3417SOL    HW211151   0.301   6.216   4.331
 3418SOL     OW11152   4.068   5.590   3.493
 3418SOL    HW111153   4.014   5.527   3.437
 3418SOL    HW211154   4.159   5.552   3.508
 3419SOL     OW11155   3.421   5.318   6.207
 3419SOL    HW111156   3.321   5.318   6.198
 3419SOL    HW211157   3.462   5.282   6.123
 3420SOL     OW11158   5.885   3.450   3.475
 3420SOL    HW111159   5.856   3.477   3.383
 3420SOL    HW211160   5.960   3.509   3.505
 3421SOL     OW11161   4.894   1.567   3.410
 3421SOL    HW111162   4.902   1.469   3.389
 3421SOL    HW211163   4.941   1.620   3.340
 3422SOL     OW11164   2.623   0.214   6.911
 3422SOL    HW111165   2.708   0.168   6.939
 3422SOL    HW211166   2.627   0.310   6.938
 3423SOL     OW11167   6.950   4.807   6.312
 3423SOL    HW111168   6.913   4.898   6.295
 3423SOL    HW211169   0.024   4.803   6.281
 3424SOL     OW11170   2.793   6.444   1.113
 3424SOL    HW111171   2.795   6.405   1.206
 3424SOL    HW211172   2.887   6.456   1.080
 3425SOL     OW11173   4.988   4.755   2.514
 3425SOL    HW111174   4.901   4.742   2.467
 3425SOL    HW211175   5.052   4.800   2.452
 3426SOL     OW11176   4.875   2.783   1.339
 3426SOL    HW111177   4.775   2.788   1.340
 3426SOL    HW211178   4.906   2.714   1.405
 3427SOL     OW11179   0.728   1.960   0.933
 3427SOL    HW111180   0.647   1.905   0.953
 3427SOL    HW211181   0.807   1.922   0.980
 3428SOL     OW11182   3.707   4.432   0.267
 3428SOL    HW111183   3.616   4.390   0.263
 3428SOL    HW211184   3.770   4.371   0.314
 3429SOL     OW11185   0.696   2.209   0.995
 3429SOL    HW111186   0.709   2.260   0.910
 3429SOL    HW211187   0.716   2.112   0.979
 3430SOL     OW11188   2.341   5.312   5.407
 3430SOL    HW111189   2.426   5.263   5.425
 3430SOL    HW211190   2.303   5.347   5.493
 3431SOL     OW11191   1.776   6.055   2.088
 3431SOL    HW111192   1.803   6.126   2.023
 3431SOL    HW211193   1.707   6.092   2.151
 3432SOL     OW11194   2.605   4.287   5.829
 3432SOL    HW111195   2.572   4.379   5.805
 3432SOL    HW211196   2.626   4.236   5.746
 3433SOL     OW11197   1.195   0.524   5.081
 3433SOL    HW111198   1.286   0.534   5.041
 3433SOL    HW211199   1.145   0.611   5.074
 3434SOL     OW11200   3.680   1.743   2.188
 3434SOL    HW111201   3.719   1.830   2.158
 3434SOL    HW211202   3.640   1.696   2.109
 3435SOL     OW11203   2.242   1.509   1.168
 3435SOL    HW111204   2.285   1.593   1.201
 3435SOL    HW211205   2.312   1.438   1.161
 3436SOL     OW11206   3.807   5.908   0.162
 3436SOL    HW111207   3.739   5.870   0.100
 3436SOL    HW211208   3.864   5.974   0.113
 3437SOL     OW11209   2.833   6.227   5.771
 3437SOL    HW111210   2.853   6.151   5.833
 3437SOL    HW211211   2.819   6.192   5.678
 3438SOL     OW11212   0.397   3.338   1.427
 3438SOL    HW111213   0.484   3.388   1.423
 3438SOL    HW211214   0.330   3.392   1.478
 3439SOL     OW11215   3.268   5.887   4.262
 3439SOL    HW111216   3.352   5.868   4.211
 3439SOL    HW211217   3.276   5.974   4.309
 3440SOL     OW11218   3.499   2.883   2.294
 3440SOL    HW111219   3.429   2.941   2.252
 3440SOL    HW211220   3.488   2.884   2.394
 3441SOL     OW11221   6.719   6.099   6.283
 3441SOL    HW111222   6.768   6.185   6.265
 3441SOL    HW211223   6.715   6.045   6.198
 3442SOL     OW11224   2.388   3.773   1.298
 3442SOL    HW111225   2.397   3.864   1.256
 3442SOL    HW211226   2.325   3.718   1.244
 3443SOL     OW11227   3.801   6.067   2.130
 3443SOL    HW111228   3.895   6.093   2.109
 3443SOL    HW211229   3.789   6.064   2.229
 3444SOL     OW11230   4.752   5.383   0.225
 3444SOL    HW111231   4.709   5.334   0.150
 3444SOL    HW211232   4.694   5.460   0.252
 3445SOL     OW11233   5.663   5.176   2.659
 3445SOL    HW111234   5.702   5.154   2.748
 3445SOL    HW211235   5.669   5.096   2.599
 3446SOL     OW11236   5.949   0.262   1.386
 3446SOL    HW111237   5.905   0.352   1.378
 3446SOL    HW211238   6.038   0.264   1.341
 3447SOL     OW11239   5.000   6.445   0.585
 3447SOL    HW111240   5.004   6.403   0.494
 3447SOL    HW211241   4.952   6.384   0.648
 3448SOL     OW11242   3.489   6.702   6.019
 3448SOL    HW111243   3.414   6.669   5.963
 3448SOL    HW211244   3.571   6.647   6.000
 3449SOL     OW11245   5.491   5.019   4.467
 3449SOL    HW111246   5.456   4.982   4.381
 3449SOL    HW211247   5.438   5.100   4.493
 3450SOL     OW11248   0.956   2.006   6.216
 3450SOL    HW111249   1.013   1.961   6.148
 3450SOL    HW211250   0.984   1.979   6.307
 3451SOL     OW11251   2.596   6.051   6.775
 3451SOL    HW111252   2.655   5.982   6.734
 3451SOL    HW211253   2.565   6.020   6.865
 3452SOL     OW11254   5.743   0.588   6.620
 3452SOL    HW111255   5.699   0.577   6.709
 3452SOL    HW211256   5.756   0.685   6.602
 3453SOL     OW11257   5.798   5.571   6.516
 3453SOL    HW111258   5.745   5.536   6.439
 3453SOL    HW211259   5.894   5.545   6.505
 3454SOL     OW11260   1.068   3.757   5.402
 3454SOL    HW111261   1.067   3.740   5.501
 3454SOL    HW211262   1.008   3.692   5.356
 3455SOL     OW11263   2.491   1.523   3.974
 3455SOL    HW111264   2.392   1.538   3.977
 3455SOL    HW211265   2.537   1.608   3.950
 3456SOL     OW11266   5.736   4.915   2.116
 3456SOL    HW111267   5.828   4.913   2.156
 3456SOL    HW211268   5.730   4.847   2.043
 3457SOL     OW11269   4.646   5.863   4.012
 3457SOL    HW111270   4.580   5.804   4.059
 3457SOL    HW211271   4.673   5.937   4.073
 3458SOL     OW11272   4.498   1.523   2.330
 3458SOL    HW111273   4.412   1.534   2.379
 3458SOL    HW211274   4.569   1.492   2.393
 3459SOL     OW11275   5.027   2.133   2.848
 3459SOL    HW111276   5.007   2.106   2.942
 3459SOL    HW211277   4.941   2.152   2.800
 3460SOL     OW11278   3.324   1.967   6.707
 3460SOL    HW111279   3.378   1.914   6.642
 3460SOL    HW211280   3.382   1.997   6.783
 3461SOL     OW11281   4.606   3.471   0.110
 3461SOL    HW111282   4.592   3.542   0.179
 3461SOL    HW211283   4.548   3.490   0.030
 3462SOL     OW11284   0.932   4.077   5.277
 3462SOL    HW111285   1.031   4.061   5.268
 3462SOL    HW211286   0.883   4.014   5.218
 3463SOL     OW11287   0.513   4.297   1.166
 3463SOL    HW111288   0.538   4.206   1.198
 3463SOL    HW211289   0.583   4.330   1.104
 3464SOL     OW11290   6.969   4.588   6.797
 3464SOL    HW111291   0.003   4.532   6.859
 3464SOL    HW211292   6.986   4.685   6.816
 3465SOL     OW11293   1.774   2.552   1.979
 3465SOL    HW111294   1.738   2.608   2.054
 3465SOL    HW211295   1.824   2.610   1.916
 3466SOL     OW11296   6.852   5.279   6.020
 3466SOL    HW111297   6.919   5.326   5.964
 3466SOL    HW211298   6.761   5.291   5.980
 3467SOL     OW11299   1.706   2.852   6.107
 3467SOL    HW111300   1.685   2.949   6.122
 3467SOL    HW211301   1.712   2.805   6.196
 3468SOL     OW11302   4.185   6.481   2.542
 3468SOL    HW111303   4.261   6.440   2.591
 3468SOL    HW211304   4.139   6.410   2.488
 3469SOL     OW11305   6.055   0.982   2.987
 3469SOL    HW111306   6.005   1.066   3.005
 3469SOL    HW211307   5.992   0.904   2.995
 3470SOL     OW11308   0.164   4.485   0.666
 3470SOL    HW111309   0.224   4.416   0.625
 3470SOL    HW211310   0.113   4.445   0.741
 3471SOL     OW11311   4.322   5.482   4.678
 3471SOL    HW111312   4.353   5.412   4.742
 3471SOL    HW211313   4.233   5.518   4.707
 3472SOL     OW11314   2.270   0.582   2.692
 3472SOL    HW111315   2.190   0.611   2.744
 3472SOL    HW211316   2.241   0.531   2.611
 3473SOL     OW11317   6.647   1.572   6.661
 3473SOL    HW111318   6.586   1.494   6.646
 3473SOL    HW211319   6.599   1.656   6.633
 3474SOL     OW11320   3.116   5.124   2.139
 3474SOL    HW111321   3.145   5.113   2.234
 3474SOL    HW211322   3.017   5.106   2.133
 3475SOL     OW11323   1.244   6.320   4.758
 3475SOL    HW111324   1.226   6.238   4.811
 3475SOL    HW211325   1.343   6.332   4.747
 3476SOL     OW11326   3.627   1.491   3.098
 3476SOL    HW111327   3.550   1.554   3.086
 3476SOL    HW211328   3.713   1.540   3.086
 3477SOL     OW11329   3.309   5.512   1.302
 3477SOL    HW111330   3.253   5.438   1.341
 3477SOL    HW211331   3.402   5.477   1.287
 3478SOL     OW11332   2.456   5.655   5.314
 3478SOL    HW111333   2.514   5.677   5.392
 3478SOL    HW211334   2.495   5.577   5.264
 3479SOL     OW11335   0.356   0.810   3.060
 3479SOL    HW111336   0.419   0.887   3.067
 3479SOL    HW211337   0.379   0.754   2.981
 3480SOL     OW11338   6.870   0.210   4.771
 3480SOL    HW111339   6.932   0.228   4.846
 3480SOL    HW211340   6.922   0.183   4.690
 3481SOL     OW11341   4.281   0.307   0.108
 3481SOL    HW111342   4.273   0.320   0.206
 3481SOL    HW211343   4.190   0.310   0.066
 3482SOL     OW11344   5.670   1.792   0.949
 3482SOL    HW111345   5.661   1.891   0.944
 3482SOL    HW211346   5.585   1.752   0.983
 3483SOL     OW11347   3.679   1.164   1.581
 3483SOL    HW111348   3.779   1.159   1.592
 3483SOL    HW211349   3.650   1.259   1.585
 3484SOL     OW11350   2.721   3.588   1.713
 3484SOL    HW111351   2.698   3.496   1.746
 3484SOL    HW211352   2.773   3.636   1.784
 3485SOL     OW11353   1.537   0.088   4.430
 3485SOL    HW111354   1.580   0.039   4.355
 3485SOL    HW211355   1.546   0.187   4.415
 3486SOL     OW11356   3.139   1.667   2.655
 3486SOL    HW111357   3.178   1.679   2.564
 3486SOL    HW211358   3.052   1.619   2.649
 3487SOL     OW11359   6.005   2.031   6.085
 3487SOL    HW111360   5.910   2.023   6.115
 3487SOL    HW211361   6.065   2.041   6.164
 3488SOL     OW11362   5.531   2.426   4.373
 3488SOL    HW111363   5.554   2.505   4.316
 3488SOL    HW211364   5.583   2.346   4.341
 3489SOL     OW11365   2.569   6.698   0.639
 3489SOL    HW111366   2.484   6.678   0.686
 3489SOL    HW211367   2.551   6.717   0.542
 3490SOL     OW11368   4.874   4.282   6.317
 3490SOL    HW111369   4.842   4.201   6.268
 3490SOL    HW211370   4.958   4.259   6.367
 3491SOL     OW11371   5.504   3.117   4.395
 3491SOL    HW111372   5.421   3.084   4.350
 3491SOL    HW211373   5.520   3.212   4.368
 3492SOL     OW11374   1.004   6.107   1.179
 3492SOL    HW111375   1.041   6.163   1.105
 3492SOL    HW211376   0.904   6.105   1.171
 3493SOL     OW11377   6.436   5.488   6.654
 3493SOL    HW111378   6.427   5.580   6.616
 3493SOL    HW211379   6.374   5.477   6.732
 3494SOL     OW11380   3.853   0.363   1.493
 3494SOL    HW111381   3.838   0.372   1.395
 3494SOL    HW211382   3.774   0.398   1.543
 3495SOL     OW11383   4.358   5.008   2.382
 3495SOL    HW111384   4.385   4.974   2.292
 3495SOL    HW211385   4.421   4.973   2.451
 3496SOL     OW11386   0.417   3.070   1.547
 3496SOL    HW111387   0.439   3.162   1.514
 3496SOL    HW211388   0.348   3.076   1.619
 3497SOL     OW11389   4.137   0.059   3.227
 3497SOL    HW111390   4.189   0.057   3.142
 3497SOL    HW211391   4.142   6.990   3.271
 3498SOL     OW11392   2.134   2.232   6.913
 3498SOL    HW111393   2.145   2.134   6.895
 3498SOL    HW211394   2.223   2.272   6.936
 3499SOL     OW11395   5.337   2.593   4.492
 3499SOL    HW111396   5.254   2.604   4.437
 3499SOL    HW211397   5.395   2.523   4.452
 3500SOL     OW11398   0.768   4.307   5.315
 3500SOL    HW111399   0.677   4.287   5.352
 3500SOL    HW211400   0.820   4.221   5.308
 3501SOL     OW11401   0.634   5.335   4.025
 3501SOL    HW111402   0.728   5.304   4.013
 3501SOL    HW211403   0.591   5.285   4.100
 3502SOL     OW11404   6.967   2.612   2.073
 3502SOL    HW111405   6.887   2.552   2.077
 3502SOL    HW211406   0.029   2.556   2.080
 3503SOL     OW11407   5.769   6.458   5.098
 3503SOL    HW111408   5.745   6.361   5.099
 3503SOL    HW211409   5.738   6.501   5.183
 3504SOL     OW11410   2.392   2.570   1.213
 3504SOL    HW111411   2.409   2.478   1.176
 3504SOL    HW211412   2.377   2.634   1.137
 3505SOL     OW11413   5.433   5.005   4.827
 3505SOL    HW111414   5.511   5.023   4.887
 3505SOL    HW211415   5.464   5.004   4.732
 3506SOL     OW11416   4.213   5.733   5.596
 3506SOL    HW111417   4.246   5.678   5.519
 3506SOL    HW211418   4.188   5.672   5.672
 3507SOL     OW11419   2.403   0.331   6.785
 3507SOL    HW111420   2.477   0.267   6.764
 3507SOL    HW211421   2.392   0.338   6.884
 3508SOL     OW11422   3.969   2.632   6.285
 3508SOL    HW111423   3.877   2.611   6.251
 3508SOL    HW211424   4.032   2.640   6.208
 3509SOL     OW11425   5.002   6.507   6.461
 3509SOL    HW111426   5.095   6.540   6.444
 3509SOL    HW211427   4.941   6.586   6.474
 3510SOL     OW11428   1.995   2.914   1.647
 3510SOL    HW111429   1.973   2.817   1.653
 3510SOL    HW211430   1.913   2.968   1.667
 3511SOL     OW11431   1.755   4.918   6.862
 3511SOL    HW111432   1.812   4.835   6.863
 3511SOL    HW211433   1.705   4.925   6.948
 3512SOL     OW11434   0.080   4.173   0.885
 3512SOL    HW111435   0.111   4.101   0.823
 3512SOL    HW211436   0.156   4.204   0.941
 3513SOL     OW11437   5.416   4.193   0.743
 3513SOL    HW111438   5.349   4.132   0.786
 3513SOL    HW211439   5.373   4.241   0.667
 3514SOL     OW11440   0.628   0.969   1.815
 3514SOL    HW111441   0.579   1.056   1.818
 3514SOL    HW211442   0.607   0.921   1.730
 3515SOL     OW11443   3.919   6.933   2.600
 3515SOL    HW111444   3.993   6.867   2.586
 3515SOL    HW211445   3.837   6.885   2.630
 3516SOL     OW11446   4.288   1.237   0.647
 3516SOL    HW111447   4.232   1.157   0.667
 3516SOL    HW211448   4.383   1.208   0.631
 3517SOL     OW11449   0.610   2.249   6.964
 3517SOL    HW111450   0.675   2.312   6.922
 3517SOL    HW211451   0.625   2.157   6.927
 3518SOL     OW11452   5.071   4.140   5.511
 3518SOL    HW111453   5.070   4.040   5.522
 3518SOL    HW211454   5.165   4.173   5.525
 3519SOL     OW11455   1.884   0.283   6.712
 3519SOL    HW111456   1.914   0.318   6.801
 3519SOL    HW211457   1.964   0.253   6.659
 3520SOL     OW11458   3.109   4.829   0.764
 3520SOL    HW111459   3.069   4.921   0.759
 3520SOL    HW211460   3.038   4.764   0.792
 3521SOL     OW11461   5.573   3.019   1.782
 3521SOL    HW111462   5.546   3.099   1.729
 3521SOL    HW211463   5.494   2.959   1.794
 3522SOL     OW11464   3.881   5.662   2.424
 3522SOL    HW111465   3.891   5.686   2.520
 3522SOL    HW211466   3.905   5.566   2.411
 3523SOL     OW11467   2.987   4.446   5.665
 3523SOL    HW111468   3.074   4.493   5.651
 3523SOL    HW211469   2.921   4.509   5.705
 3524SOL     OW11470   2.637   1.012   1.308
 3524SOL    HW111471   2.734   1.025   1.330
 3524SOL    HW211472   2.598   0.942   1.368
 3525SOL     OW11473   0.669   3.687   2.465
 3525SOL    HW111474   0.702   3.777   2.493
 3525SOL    HW211475   0.670   3.625   2.543
 3526SOL     OW11476   1.321   6.421   3.555
 3526SOL    HW111477   1.238   6.376   3.521
 3526SOL    HW211478   1.300   6.515   3.582
 3527SOL     OW11479   6.104   3.158   5.620
 3527SOL    HW111480   6.119   3.070   5.666
 3527SOL    HW211481   6.183   3.217   5.636
 3528SOL     OW11482   1.144   5.415   3.548
 3528SOL    HW111483   1.145   5.351   3.472
 3528SOL    HW211484   1.061   5.402   3.602
 3529SOL     OW11485   3.760   6.638   5.125
 3529SOL    HW111486   3.807   6.692   5.195
 3529SOL    HW211487   3.705   6.567   5.169
 3530SOL     OW11488   2.366   5.079   2.874
 3530SOL    HW111489   2.271   5.048   2.861
 3530SOL    HW211490   2.408   5.097   2.785
 3531SOL     OW11491   4.958   4.740   1.440
 3531SOL    HW111492   5.012   4.824   1.433
 3531SOL    HW211493   4.905   4.742   1.524
 3532SOL     OW11494   3.253   0.317   0.471
 3532SOL    HW111495   3.180   0.352   0.530
 3532SOL    HW211496   3.215   0.245   0.412
 3533SOL     OW11497   1.235   2.367   3.353
 3533SOL    HW111498   1.179   2.355   3.272
 3533SOL    HW211499   1.239   2.464   3.378
 3534SOL     OW11500   5.858   1.130   5.124
 3534SOL    HW111501   5.766   1.137   5.164
 3534SOL    HW211502   5.909   1.058   5.170
 3535SOL     OW11503   6.530   5.680   0.470
 3535SOL    HW111504   6.618   5.667   0.514
 3535SOL    HW211505   6.527   5.769   0.426
 3536SOL     OW11506   2.186   3.017   3.643
 3536SOL    HW111507   2.109   3.018   3.580
 3536SOL    HW211508   2.159   3.056   3.731
 3537SOL     OW11509   2.819   4.872   0.457
 3537SOL    HW111510   2.885   4.797   0.456
 3537SOL    HW211511   2.737   4.845   0.506
 3538SOL     OW11512   2.177   0.951   4.229
 3538SOL    HW111513   2.120   0.891   4.172
 3538SOL    HW211514   2.186   1.040   4.185
 3539SOL     OW11515   5.769   3.660   6.490
 3539SOL    HW111516   5.864   3.680   6.465
 3539SOL    HW211517   5.726   3.744   6.523
 3540SOL     OW11518   2.338   1.340   5.660
 3540SOL    HW111519   2.401   1.263   5.644
 3540SOL    HW211520   2.268   1.340   5.589
 3541SOL     OW11521   2.781   2.755   6.687
 3541SOL    HW111522   2.767   2.785   6.592
 3541SOL    HW211523   2.692   2.731   6.727
 3542SOL     OW11524   6.699   2.972   0.650
 3542SOL    HW111525   6.706   2.875   0.624
 3542SOL    HW211526   6.753   2.989   0.732
 3543SOL     OW11527   1.869   3.359   4.406
 3543SOL    HW111528   1.880   3.329   4.311
 3543SOL    HW211529   1.958   3.380   4.445
 3544SOL     OW11530   1.996   4.691   6.420
 3544SOL    HW111531   2.053   4.773   6.418
 3544SOL    HW211532   1.959   4.675   6.328
 3545SOL     OW11533   4.280   4.510   0.160
 3545SOL    HW111534   4.207   4.576   0.140
 3545SOL    HW211535   4.349   4.514   0.088
 3546SOL     OW11536   0.094   4.910   2.566
 3546SOL    HW111537   0.169   4.947   2.620
 3546SOL    HW211538   0.130   4.839   2.504
 3547SOL     OW11539   6.790   4.065   5.147
 3547SOL    HW111540   6.775   4.000   5.222
 3547SOL    HW211541   6.709   4.122   5.136
 3548SOL     OW11542   6.005   0.459   5.059
 3548SOL    HW111543   5.923   0.461   5.003
 3548SOL    HW211544   6.062   0.381   5.032
 3549SOL     OW11545   2.081   4.439   5.844
 3549SOL    HW111546   2.026   4.431   5.761
 3549SOL    HW211547   2.111   4.349   5.874
 3550SOL     OW11548   5.624   2.186   4.299
 3550SOL    HW111549   5.692   2.176   4.226
 3550SOL    HW211550   5.649   2.125   4.375
 3551SOL     OW11551   3.279   1.749   4.666
 3551SOL    HW111552   3.370   1.722   4.698
 3551SOL    HW211553   3.271   1.729   4.568
 3552SOL     OW11554   6.061   5.868   2.134
 3552SOL    HW111555   6.007   5.946   2.167
 3552SOL    HW211556   6.065   5.799   2.206
 3553SOL     OW11557   3.691   5.413   6.624
 3553SOL    HW111558   3.609   5.356   6.616
 3553SOL    HW211559   3.715   5.424   6.720
 3554SOL     OW11560   4.889   2.747   0.871
 3554SOL    HW111561   4.849   2.794   0.792
 3554SOL    HW211562   4.959   2.683   0.839
 3555SOL     OW11563   1.361   2.731   4.020
 3555SOL    HW111564   1.365   2.632   4.002
 3555SOL    HW211565   1.371   2.781   3.934
 3556SOL     OW11566   3.591   1.061   4.054
 3556SOL    HW111567   3.648   0.981   4.072
 3556SOL    HW211568   3.515   1.036   3.995
 3557SOL     OW11569   1.052   6.429   3.706
 3557SOL    HW111570   1.115   6.429   3.783
 3557SOL    HW211571   1.008   6.340   3.699
 3558SOL     OW11572   2.598   4.544   1.473
 3558SOL    HW111573   2.570   4.478   1.403
 3558SOL    HW211574   2.632   4.495   1.553
 3559SOL     OW11575   1.645   5.867   4.780
 3559SOL    HW111576   1.569   5.931   4.788
 3559SOL    HW211577   1.620   5.792   4.720
 3560SOL     OW11578   1.691   4.784   3.299
 3560SOL    HW111579   1.780   4.822   3.325
 3560SOL    HW211580   1.705   4.696   3.254
 3561SOL     OW11581   5.114   3.906   5.861
 3561SOL    HW111582   5.035   3.847   5.842
 3561SOL    HW211583   5.196   3.865   5.821
 3562SOL     OW11584   3.393   1.746   3.823
 3562SOL    HW111585   3.459   1.762   3.749
 3562SOL    HW211586   3.433   1.683   3.890
 3563SOL     OW11587   5.700   1.940   6.135
 3563SOL    HW111588   5.751   1.976   6.213
 3563SOL    HW211589   5.610   1.910   6.165
 3564SOL     OW11590   0.524   5.117   3.378
 3564SOL    HW111591   0.480   5.065   3.451
 3564SOL    HW211592   0.530   5.061   3.295
 3565SOL     OW11593   3.800   5.676   2.996
 3565SOL    HW111594   3.875   5.616   2.967
 3565SOL    HW211595   3.713   5.640   2.963
 3566SOL     OW11596   6.469   1.077   5.692
 3566SOL    HW111597   6.402   1.012   5.730
 3566SOL    HW211598   6.485   1.150   5.758
 3567SOL     OW11599   0.503   2.468   6.064
 3567SOL    HW111600   0.478   2.373   6.081
 3567SOL    HW211601   0.482   2.523   6.145
 3568SOL     OW11602   5.831   4.019   5.207
 3568SOL    HW111603   5.878   3.949   5.259
 3568SOL    HW211604   5.750   3.979   5.163
 3569SOL     OW11605   3.245   1.850   5.816
 3569SOL    HW111606   3.343   1.845   5.798
 3569SOL    HW211607   3.215   1.946   5.809
 3570SOL     OW11608   4.677   0.425   6.436
 3570SOL    HW111609   4.582   0.401   6.456
 3570SOL    HW211610   4.681   0.517   6.396
 3571SOL     OW11611   0.399   5.106   0.389
 3571SOL    HW111612   0.462   5.073   0.459
 3571SOL    HW211613   0.447   5.114   0.302
 3572SOL     OW11614   5.618   4.212   3.270
 3572SOL    HW111615   5.601   4.148   3.195
 3572SOL    HW211616   5.583   4.302   3.245
 3573SOL     OW11617   0.476   4.849   3.874
 3573SOL    HW111618   0.553   4.789   3.852
 3573SOL    HW211619   0.487   4.936   3.825
 3574SOL     OW11620   0.186   4.799   0.454
 3574SOL    HW111621   0.169   4.891   0.419
 3574SOL    HW211622   0.281   4.773   0.438
 3575SOL     OW11623   5.634   4.506   2.930
 3575SOL    HW111624   5.671   4.458   2.851
 3575SOL    HW211625   5.646   4.605   2.918
 3576SOL     OW11626   2.141   1.791   5.243
 3576SOL    HW111627   2.230   1.767   5.282
 3576SOL    HW211628   2.091   1.849   5.308
 3577SOL     OW11629   1.202   3.167   6.328
 3577SOL    HW111630   1.191   3.212   6.239
 3577SOL    HW211631   1.298   3.140   6.339
 3578SOL     OW11632   3.317   2.321   0.598
 3578SOL    HW111633   3.255   2.246   0.621
 3578SOL    HW211634   3.297   2.353   0.505
 3579SOL     OW11635   6.341   4.112   4.591
 3579SOL    HW111636   6.406   4.178   4.628
 3579SOL    HW211637   6.391   4.029   4.564
 3580SOL     OW11638   5.949   2.331   1.128
 3580SOL    HW111639   5.906   2.245   1.099
 3580SOL    HW211640   5.940   2.398   1.055
 3581SOL     OW11641   6.992   6.465   3.982
 3581SOL    HW111642   0.067   6.446   3.958
 3581SOL    HW211643   6.987   6.552   4.031
 3582SOL     OW11644   1.263   2.052   5.973
 3582SOL    HW111645   1.241   2.142   5.935
 3582SOL    HW211646   1.310   1.997   5.905
 3583SOL     OW11647   1.504   3.727   6.532
 3583SOL    HW111648   1.555   3.676   6.462
 3583SOL    HW211649   1.414   3.685   6.543
 3584SOL     OW11650   5.720   5.437   0.268
 3584SOL    HW111651   5.742   5.504   0.339
 3584SOL    HW211652   5.792   5.438   0.198
 3585SOL     OW11653   4.218   5.837   5.217
 3585SOL    HW111654   4.154   5.787   5.275
 3585SOL    HW211655   4.312   5.812   5.240
 3586SOL     OW11656   0.165   2.208   5.386
 3586SOL    HW111657   0.085   2.228   5.328
 3586SOL    HW211658   0.221   2.290   5.395
 3587SOL     OW11659   3.033   4.875   6.295
 3587SOL    HW111660   3.102   4.936   6.256
 3587SOL    HW211661   3.003   4.811   6.224
 3588SOL     OW11662   1.449   2.810   4.570
 3588SOL    HW111663   1.397   2.825   4.654
 3588SOL    HW211664   1.525   2.747   4.589
 3589SOL     OW11665   4.160   2.206   4.818
 3589SOL    HW111666   4.162   2.134   4.748
 3589SOL    HW211667   4.250   2.248   4.824
 3590SOL     OW11668   0.684   3.235   6.279
 3590SOL    HW111669   0.734   3.184   6.209
 3590SOL    HW211670   0.692   3.333   6.260
 3591SOL     OW11671   5.153   3.425   6.369
 3591SOL    HW111672   5.119   3.333   6.352
 3591SOL    HW211673   5.217   3.452   6.298
 3592SOL     OW11674   6.539   4.346   2.497
 3592SOL    HW111675   6.540   4.249   2.471
 3592SOL    HW211676   6.542   4.354   2.596
 3593SOL     OW11677   1.947   5.854   3.973
 3593SOL    HW111678   1.855   5.877   4.005
 3593SOL    HW211679   2.001   5.938   3.962
 3594SOL     OW11680   4.307   0.646   3.459
 3594SOL    HW111681   4.355   0.695   3.387
 3594SOL    HW211682   4.213   0.681   3.466
 3595SOL     OW11683   2.769   5.343   6.656
 3595SOL    HW111684   2.792   5.331   6.753
 3595SOL    HW211685   2.747   5.254   6.616
 3596SOL     OW11686   6.477   2.337   3.365
 3596SOL    HW111687   6.569   2.352   3.400
 3596SOL    HW211688   6.450   2.242   3.379
 3597SOL     OW11689   1.844   0.359   5.196
 3597SOL    HW111690   1.914   0.288   5.196
 3597SOL    HW211691   1.785   0.348   5.276
 3598SOL     OW11692   1.394   6.091   6.588
 3598SOL    HW111693   1.318   6.074   6.651
 3598SOL    HW211694   1.480   6.088   6.638
 3599SOL     OW11695   0.794   2.268   5.890
 3599SOL    HW111696   0.849   2.340   5.933
 3599SOL    HW211697   0.723   2.239   5.953
 3600SOL     OW11698   1.344   3.385   0.413
 3600SOL    HW111699   1.354   3.409   0.317
 3600SOL    HW211700   1.248   3.391   0.439
 3601SOL     OW11701   6.046   4.619   0.287
 3601SOL    HW111702   6.034   4.609   0.188
 3601SOL    HW211703   6.034   4.529   0.331
 3602SOL     OW11704   1.192   2.184   0.600
 3602SOL    HW111705   1.195   2.282   0.623
 3602SOL    HW211706   1.243   2.133   0.670
 3603SOL     OW11707   3.131   6.398   3.771
 3603SOL    HW111708   3.168   6.487   3.745
 3603SOL    HW211709   3.122   6.340   3.690
 3604SOL     OW11710   0.006   4.798   3.757
 3604SOL    HW111711   0.098   4.807   3.719
 3604SOL    HW211712   0.006   4.833   3.851
 3605SOL     OW11713   5.270   4.003   5.236
 3605SOL    HW111714   5.284   4.097   5.267
 3605SOL    HW211715   5.335   3.942   5.282
 3606SOL     OW11716   0.122   6.276   5.243
 3606SOL    HW111717   0.066   6.294   5.162
 3606SOL    HW211718   0.150   6.362   5.284
 3607SOL     OW11719   5.173   6.297   0.935
 3607SOL    HW111720   5.229   6.286   0.853
 3607SOL    HW211721   5.183   6.216   0.993
 3608SOL     OW11722   6.553   1.979   2.955
 3608SOL    HW111723   6.560   2.078   2.972
 3608SOL    HW211724   6.633   1.948   2.904
 3609SOL     OW11725   0.724   0.579   4.071
 3609SOL    HW111726   0.778   0.564   3.988
 3609SOL    HW211727   0.627   0.571   4.048
 3610SOL     OW11728   1.644   6.760   5.506
 3610SOL    HW111729   1.558   6.726   5.471
 3610SOL    HW211730   1.683   6.826   5.442
 3611SOL     OW11731   4.718   6.609   6.110
 3611SOL    HW111732   4.707   6.534   6.044
 3611SOL    HW211733   4.638   6.612   6.170
 3612SOL     OW11734   5.838   0.243   5.844
 3612SOL    HW111735   5.896   0.162   5.833
 3612SOL    HW211736   5.895   0.324   5.851
 3613SOL     OW11737   4.456   5.646   1.919
 3613SOL    HW111738   4.537   5.620   1.972
 3613SOL    HW211739   4.377   5.651   1.979
 3614SOL     OW11740   3.584   3.616   2.468
 3614SOL    HW111741   3.670   3.587   2.511
 3614SOL    HW211742   3.558   3.706   2.504
 3615SOL     OW11743   5.881   5.926   0.208
 3615SOL    HW111744   5.811   5.924   0.280
 3615SOL    HW211745   5.836   5.932   0.119
 3616SOL     OW11746   6.956   3.025   5.549
 3616SOL    HW111747   6.859   3.042   5.529
 3616SOL    HW211748   7.005   3.009   5.463
 3617SOL     OW11749   4.333   1.047   6.382
 3617SOL    HW111750   4.307   1.078   6.474
 3617SOL    HW211751   4.312   0.950   6.373
 3618SOL     OW11752   2.120   2.385   5.077
 3618SOL    HW111753   2.036   2.358   5.031
 3618SOL    HW211754   2.198   2.344   5.030
 3619SOL     OW11755   5.806   3.230   3.960
 3619SOL    HW111756   5.891   3.242   4.011
 3619SOL    HW211757   5.823   3.245   3.862
 3620SOL     OW11758   6.491   5.946   5.797
 3620SOL    HW111759   6.400   5.906   5.800
 3620SOL    HW211760   6.485   6.042   5.770
 3621SOL     OW11761   3.819   2.881   6.002
 3621SOL    HW111762   3.760   2.887   5.922
 3621SOL    HW211763   3.787   2.946   6.072
 3622SOL     OW11764   1.909   2.028   4.519
 3622SOL    HW111765   1.816   2.024   4.481
 3622SOL    HW211766   1.972   1.980   4.458
 3623SOL     OW11767   6.122   5.454   4.352
 3623SOL    HW111768   6.126   5.356   4.369
 3623SOL    HW211769   6.214   5.489   4.333
 3624SOL     OW11770   2.306   5.962   2.300
 3624SOL    HW111771   2.254   5.894   2.249
 3624SOL    HW211772   2.303   6.049   2.251
 3625SOL     OW11773   5.456   3.702   0.105
 3625SOL    HW111774   5.514   3.759   0.163
 3625SOL    HW211775   5.457   3.608   0.140
 3626SOL     OW11776   1.471   3.025   6.357
 3626SOL    HW111777   1.534   3.043   6.432
 3626SOL    HW211778   1.514   3.047   6.269
 3627SOL     OW11779   3.828   2.968   3.375
 3627SOL    HW111780   3.849   3.024   3.295
 3627SOL    HW211781   3.909   2.962   3.433
 3628SOL     OW11782   1.397   0.707   1.672
 3628SOL    HW111783   1.469   0.761   1.714
 3628SOL    HW211784   1.418   0.609   1.682
 3629SOL     OW11785   6.657   2.126   4.289
 3629SOL    HW111786   6.602   2.162   4.364
 3629SOL    HW211787   6.657   2.026   4.294
 3630SOL     OW11788   5.137   2.707   3.300
 3630SOL    HW111789   5.133   2.746   3.392
 3630SOL    HW211790   5.048   2.670   3.275
 3631SOL     OW11791   1.728   6.840   3.639
 3631SOL    HW111792   1.649   6.806   3.588
 3631SOL    HW211793   1.759   6.926   3.599
 3632SOL     OW11794   5.180   6.520   1.427
 3632SOL    HW111795   5.092   6.484   1.456
 3632SOL    HW211796   5.199   6.605   1.475
 3633SOL     OW11797   3.501   1.713   5.586
 3633SOL    HW111798   3.601   1.718   5.588
 3633SOL    HW211799   3.467   1.766   5.508
 3634SOL     OW11800   0.358   5.004   4.323
 3634SOL    HW111801   0.404   4.926   4.282
 3634SOL    HW211802   0.261   4.983   4.337
 3635SOL     OW11803   2.627   6.782   6.128
 3635SOL    HW111804   2.561   6.784   6.203
 3635SOL    HW211805   2.655   6.875   6.105
 3636SOL     OW11806   0.668   5.653   6.811
 3636SOL    HW111807   0.619   5.636   6.725
 3636SOL    HW211808   0.754   5.700   6.791
 3637SOL     OW11809   6.415   1.537   1.085
 3637SOL    HW111810   6.387   1.606   1.152
 3637SOL    HW211811   6.345   1.466   1.080
 3638SOL     OW11812   0.564   4.544   4.856
 3638SOL    HW111813   0.562   4.447   4.830
 3638SOL    HW211814   0.490   4.593   4.811
 3639SOL     OW11815   3.298   4.194   1.675
 3639SOL    HW111816   3.242   4.142   1.610
 3639SOL    HW211817   3.332   4.133   1.746
 3640SOL     OW11818   3.568   0.745   0.620
 3640SOL    HW111819   3.600   0.743   0.715
 3640SOL    HW211820   3.469   0.758   0.619
 3641SOL     OW11821   5.069   2.624   3.806
 3641SOL    HW111822   5.007   2.549   3.779
 3641SOL    HW211823   5.069   2.632   3.905
 3642SOL     OW11824   4.688   0.824   0.831
 3642SOL    HW111825   4.643   0.853   0.746
 3642SOL    HW211826   4.737   0.901   0.870
 3643SOL     OW11827   2.860   5.623   5.184
 3643SOL    HW111828   2.833   5.654   5.093
 3643SOL    HW211829   2.954   5.589   5.182
 3644SOL     OW11830   6.907   1.640   1.875
 3644SOL    HW111831   6.838   1.647   1.947
 3644SOL    HW211832   6.887   1.705   1.802
 3645SOL     OW11833   0.015   3.408   3.255
 3645SOL    HW111834   0.071   3.360   3.322
 3645SOL    HW211835   0.074   3.451   3.187
 3646SOL     OW11836   6.718   4.434   6.736
 3646SOL    HW111837   6.785   4.507   6.723
 3646SOL    HW211838   6.634   4.473   6.774
 3647SOL     OW11839   2.447   3.189   6.718
 3647SOL    HW111840   2.480   3.107   6.670
 3647SOL    HW211841   2.422   3.164   6.812
 3648SOL     OW11842   3.660   4.881   2.543
 3648SOL    HW111843   3.733   4.862   2.608
 3648SOL    HW211844   3.614   4.796   2.517
 3649SOL     OW11845   4.879   3.074   1.693
 3649SOL    HW111846   4.806   3.061   1.761
 3649SOL    HW211847   4.913   3.167   1.699
 3650SOL     OW11848   0.304   5.509   0.889
 3650SOL    HW111849   0.361   5.558   0.955
 3650SOL    HW211850   0.316   5.410   0.902
 3651SOL     OW11851   0.173   6.697   3.693
 3651SOL    HW111852   0.256   6.654   3.657
 3651SOL    HW211853   0.150   6.778   3.640
 3652SOL     OW11854   5.490   6.607   3.187
 3652SOL    HW111855   5.473   6.508   3.184
 3652SOL    HW211856   5.416   6.652   3.237
 3653SOL     OW11857   0.639   1.805   4.746
 3653SOL    HW111858   0.730   1.795   4.706
 3653SOL    HW211859   0.610   1.718   4.784
 3654SOL     OW11860   2.325   4.829   0.598
 3654SOL    HW111861   2.308   4.859   0.692
 3654SOL    HW211862   2.243   4.846   0.543
 3655SOL     OW11863   1.623   6.573   3.282
 3655SOL    HW111864   1.585   6.660   3.251
 3655SOL    HW211865   1.709   6.556   3.235
 3656SOL     OW11866   0.980   3.658   2.318
 3656SOL    HW111867   0.963   3.616   2.229
 3656SOL    HW211868   0.987   3.757   2.308
 3657SOL     OW11869   5.093   5.044   6.267
 3657SOL    HW111870   5.163   5.099   6.311
 3657SOL    HW211871   5.111   5.039   6.169
 3658SOL     OW11872   1.907   5.412   5.306
 3658SOL    HW111873   1.909   5.319   5.342
 3658SOL    HW211874   1.966   5.418   5.225
 3659SOL     OW11875   1.667   3.478   5.050
 3659SOL    HW111876   1.759   3.440   5.037
 3659SOL    HW211877   1.663   3.568   5.008
 3660SOL     OW11878   5.353   0.524   3.511
 3660SOL    HW111879   5.427   0.502   3.448
 3660SOL    HW211880   5.265   0.510   3.465
 3661SOL     OW11881   5.445   1.699   5.656
 3661SOL    HW111882   5.482   1.736   5.742
 3661SOL    HW211883   5.358   1.743   5.636
 3662SOL     OW11884   4.358   0.296   4.291
 3662SOL    HW111885   4.431   0.301   4.223
 3662SOL    HW211886   4.386   0.344   4.374
 3663SOL     OW11887   1.833   2.394   0.746
 3663SOL    HW111888   1.770   2.419   0.819
 3663SOL    HW211889   1.782   2.384   0.660
 3664SOL     OW11890   5.785   2.145   2.045
 3664SOL    HW111891   5.859   2.090   2.005
 3664SOL    HW211892   5.699   2.124   1.998
 3665SOL     OW11893   2.418   6.091   5.590
 3665SOL    HW111894   2.439   6.188   5.578
 3665SOL    HW211895   2.321   6.076   5.571
 3666SOL     OW11896   1.182   4.164   3.672
 3666SOL    HW111897   1.110   4.233   3.682
 3666SOL    HW211898   1.271   4.209   3.670
 3667SOL     OW11899   0.435   1.151   2.211
 3667SOL    HW111900   0.341   1.180   2.195
 3667SOL    HW211901   0.457   1.074   2.151
 3668SOL     OW11902   1.565   1.085   2.278
 3668SOL    HW111903   1.511   1.007   2.310
 3668SOL    HW211904   1.607   1.064   2.190
 3669SOL     OW11905   4.955   1.328   3.273
 3669SOL    HW111906   5.055   1.326   3.281
 3669SOL    HW211907   4.927   1.292   3.185
 3670SOL     OW11908   2.878   5.166   0.465
 3670SOL    HW111909   2.893   5.195   0.560
 3670SOL    HW211910   2.850   5.070   0.463
 3671SOL     OW11911   5.963   0.864   3.752
 3671SOL    HW111912   5.902   0.828   3.822
 3671SOL    HW211913   5.970   0.963   3.761
 3672SOL     OW11914   5.637   1.819   1.507
 3672SOL    HW111915   5.635   1.741   1.444
 3672SOL    HW211916   5.649   1.903   1.454
 3673SOL     OW11917   4.195   6.366   6.725
 3673SOL    HW111918   4.144   6.280   6.732
 3673SOL    HW211919   4.288   6.353   6.760
 3674SOL     OW11920   1.156   6.931   5.359
 3674SOL    HW111921   1.157   7.012   5.301
 3674SOL    HW211922   1.222   6.864   5.324
 3675SOL     OW11923   2.066   3.219   4.671
 3675SOL    HW111924   2.089   3.262   4.584
 3675SOL    HW211925   2.070   3.288   4.744
 3676SOL     OW11926   5.215   4.351   4.049
 3676SOL    HW111927   5.297   4.406   4.067
 3676SOL    HW211928   5.151   4.361   4.126
 3677SOL     OW11929   1.711   6.042   3.198
 3677SOL    HW111930   1.752   6.064   3.287
 3677SOL    HW211931   1.713   6.123   3.140
 3678SOL     OW11932   0.328   2.425   5.367
 3678SOL    HW111933   0.339   2.490   5.292
 3678SOL    HW211934   0.402   2.357   5.363
 3679SOL     OW11935   1.535   0.590   3.005
 3679SOL    HW111936   1.586   0.504   3.007
 3679SOL    HW211937   1.554   0.642   3.088
 3680SOL     OW11938   5.681   2.481   3.530
 3680SOL    HW111939   5.630   2.435   3.603
 3680SOL    HW211940   5.660   2.437   3.443
 3681SOL     OW11941   0.636   0.078   6.064
 3681SOL    HW111942   0.557   0.129   6.029
 3681SOL    HW211943   0.689   0.137   6.125
 3682SOL     OW11944   6.143   1.945   0.039
 3682SOL    HW111945   6.194   2.024   0.005
 3682SOL    HW211946   6.054   1.940   7.015
 3683SOL     OW11947   0.257   0.363   2.804
 3683SOL    HW111948   0.241   0.395   2.898
 3683SOL    HW211949   0.255   0.263   2.804
 3684SOL     OW11950   1.907   4.431   6.960
 3684SOL    HW111951   1.951   4.384   6.884
 3684SOL    HW211952   1.963   4.422   0.022
 3685SOL     OW11953   6.857   6.353   6.258
 3685SOL    HW111954   6.766   6.395   6.256
 3685SOL    HW211955   6.885   6.337   6.353
 3686SOL     OW11956   5.561   6.006   3.772
 3686SOL    HW111957   5.474   5.961   3.789
 3686SOL    HW211958   5.549   6.105   3.779
 3687SOL     OW11959   3.545   5.636   5.281
 3687SOL    HW111960   3.643   5.625   5.268
 3687SOL    HW211961   3.498   5.552   5.253
 3688SOL     OW11962   6.369   3.538   6.365
 3688SOL    HW111963   6.376   3.631   6.402
 3688SOL    HW211964   6.460   3.498   6.358
 3689SOL     OW11965   2.431   0.396   6.067
 3689SOL    HW111966   2.344   0.366   6.107
 3689SOL    HW211967   2.482   0.449   6.135
 3690SOL     OW11968   4.998   6.003   0.442
 3690SOL    HW111969   5.017   6.097   0.413
 3690SOL    HW211970   4.950   5.955   0.369
 3691SOL     OW11971   2.901   3.198   6.516
 3691SOL    HW111972   2.824   3.256   6.487
 3691SOL    HW211973   2.966   3.190   6.441
 3692SOL     OW11974   0.220   5.650   5.056
 3692SOL    HW111975   0.138   5.707   5.064
 3692SOL    HW211976   0.292   5.686   5.116
 3693SOL     OW11977   2.116   3.311   2.756
 3693SOL    HW111978   2.092   3.406   2.777
 3693SOL    HW211979   2.080   3.287   2.666
 3694SOL     OW11980   1.164   5.629   2.690
 3694SOL    HW111981   1.234   5.558   2.676
 3694SOL    HW211982   1.167   5.695   2.615
 3695SOL     OW11983   6.610   2.924   1.626
 3695SOL    HW111984   6.634   3.005   1.572
 3695SOL    HW211985   6.534   2.877   1.583
 3696SOL     OW11986   3.445   5.419   5.147
 3696SOL    HW111987   3.461   5.426   5.048
 3696SOL    HW211988   3.353   5.383   5.163
 3697SOL     OW11989   0.048   6.796   3.001
 3697SOL    HW111990   6.973   6.823   2.993
 3697SOL    HW211991   0.101   6.873   3.037
 3698SOL     OW11992   2.241   0.929   4.474
 3698SOL    HW111993   2.211   0.848   4.525
 3698SOL    HW211994   2.215   0.920   4.378
 3699SOL     OW11995   0.692   2.250   3.764
 3699SOL    HW111996   0.737   2.185   3.826
 3699SOL    HW211997   0.761   2.309   3.723
 3700SOL     OW11998   0.297   6.676   5.010
 3700SOL    HW111999   0.287   6.577   5.006
 3700SOL    HW212000   0.210   6.720   4.989
 3701SOL     OW12001   1.424   0.493   3.994
 3701SOL    HW112002   1.482   0.538   3.926
 3701SOL    HW212003   1.466   0.500   4.085
 3702SOL     OW12004   5.336   6.771   2.346
 3702SOL    HW112005   5.288   6.859   2.342
 3702SOL    HW212006   5.433   6.786   2.324
 3703SOL     OW12007   5.149   1.164   5.661
 3703SOL    HW112008   5.231   1.174   5.604
 3703SOL    HW212009   5.143   1.241   5.725
 3704SOL     OW12010   3.426   1.726   1.622
 3704SOL    HW112011   3.420   1.787   1.543
 3704SOL    HW212012   3.334   1.697   1.649
 3705SOL     OW12013   4.714   5.376   3.698
 3705SOL    HW112014   4.748   5.399   3.789
 3705SOL    HW212015   4.791   5.356   3.637
 3706SOL     OW12016   1.245   3.064   6.912
 3706SOL    HW112017   1.336   3.094   6.944
 3706SOL    HW212018   1.203   3.007   6.983
 3707SOL     OW12019   5.159   4.185   4.942
 3707SOL    HW112020   5.209   4.220   5.022
 3707SOL    HW212021   5.071   4.148   4.972
 3708SOL     OW12022   0.166   0.501   6.074
 3708SOL    HW112023   0.120   0.588   6.057
 3708SOL    HW212024   0.111   0.426   6.037
 3709SOL     OW12025   3.124   0.710   0.790
 3709SOL    HW112026   3.025   0.695   0.801
 3709SOL    HW212027   3.142   0.808   0.783
 3710SOL     OW12028   6.501   5.327   6.273
 3710SOL    HW112029   6.562   5.397   6.235
 3710SOL    HW212030   6.555   5.257   6.320
 3711SOL     OW12031   0.344   0.153   3.749
 3711SOL    HW112032   0.307   0.245   3.734
 3711SOL    HW212033   0.376   0.116   3.662
 3712SOL     OW12034   0.168   6.102   0.103
 3712SOL    HW112035   0.208   6.013   0.080
 3712SOL    HW212036   0.070   6.090   0.121
 3713SOL     OW12037   1.537   6.174   5.210
 3713SOL    HW112038   1.519   6.079   5.182
 3713SOL    HW212039   1.472   6.235   5.165
 3714SOL     OW12040   5.295   5.930   5.694
 3714SOL    HW112041   5.279   5.854   5.757
 3714SOL    HW212042   5.357   5.996   5.736
 3715SOL     OW12043   6.539   3.969   2.719
 3715SOL    HW112044   6.525   3.984   2.621
 3715SOL    HW212045   6.610   4.031   2.752
 3716SOL     OW12046   6.440   0.152   4.926
 3716SOL    HW112047   6.387   0.107   4.854
 3716SOL    HW212048   6.537   0.139   4.909
 3717SOL     OW12049   5.936   6.352   6.501
 3717SOL    HW112050   5.902   6.338   6.408
 3717SOL    HW212051   6.026   6.308   6.510
 3718SOL     OW12052   1.701   0.719   0.427
 3718SOL    HW112053   1.634   0.678   0.365
 3718SOL    HW212054   1.789   0.728   0.380
 3719SOL     OW12055   5.272   4.685   1.167
 3719SOL    HW112056   5.288   4.723   1.258
 3719SOL    HW212057   5.342   4.616   1.147
 3720SOL     OW12058   6.068   2.772   6.689
 3720SOL    HW112059   6.027   2.698   6.742
 3720SOL    HW212060   6.122   2.831   6.749
 3721SOL     OW12061   5.826   4.555   1.821
 3721SOL    HW112062   5.839   4.532   1.725
 3721SOL    HW212063   5.870   4.642   1.841
 3722SOL     OW12064   6.537   6.003   0.614
 3722SOL    HW112065   6.533   5.975   0.518
 3722SOL    HW212066   6.554   6.102   0.619
 3723SOL     OW12067   6.424   5.837   1.719
 3723SOL    HW112068   6.340   5.869   1.762
 3723SOL    HW212069   6.483   5.794   1.787
 3724SOL     OW12070   1.684   4.281   5.104
 3724SOL    HW112071   1.734   4.261   5.020
 3724SOL    HW212072   1.652   4.195   5.145
 3725SOL     OW12073   5.948   5.328   1.136
 3725SOL    HW112074   5.884   5.321   1.060
 3725SOL    HW212075   5.903   5.301   1.221
 3726SOL     OW12076   5.788   4.105   0.333
 3726SOL    HW112077   5.733   4.168   0.388
 3726SOL    HW212078   5.878   4.146   0.317
 3727SOL     OW12079   6.680   2.232   5.262
 3727SOL    HW112080   6.656   2.143   5.300
 3727SOL    HW212081   6.674   2.228   5.162
 3728SOL     OW12082   1.245   3.851   6.623
 3728SOL    HW112083   1.345   3.850   6.620
 3728SOL    HW212084   1.213   3.946   6.627
 3729SOL     OW12085   1.197   2.640   3.392
 3729SOL    HW112086   1.249   2.720   3.363
 3729SOL    HW212087   1.101   2.650   3.365
 3730SOL     OW12088   2.878   5.008   5.718
 3730SOL    HW112089   2.876   5.107   5.706
 3730SOL    HW212090   2.883   4.986   5.816
 3731SOL     OW12091   6.243   0.275   0.555
 3731SOL    HW112092   6.188   0.359   0.553
 3731SOL    HW212093   6.331   0.292   0.510
 3732SOL     OW12094   2.720   1.775   6.230
 3732SOL    HW112095   2.693   1.862   6.270
 3732SOL    HW212096   2.815   1.780   6.199
 3733SOL     OW12097   1.204   3.736   2.028
 3733SOL    HW112098   1.180   3.833   2.021
 3733SOL    HW212099   1.302   3.727   2.041
 3734SOL     OW12100   5.231   1.396   1.918
 3734SOL    HW112101   5.190   1.478   1.958
 3734SOL    HW212102   5.159   1.332   1.891
 3735SOL     OW12103   2.152   0.773   3.517
 3735SOL    HW112104   2.178   0.864   3.484
 3735SOL    HW212105   2.189   0.760   3.609
 3736SOL     OW12106   0.169   2.254   0.627
 3736SOL    HW112107   0.163   2.333   0.687
 3736SOL    HW212108   0.263   2.220   0.625
 3737SOL     OW12109   5.073   0.504   3.438
 3737SOL    HW112110   5.005   0.476   3.506
 3737SOL    HW212111   5.045   0.590   3.396
 3738SOL     OW12112   6.740   6.481   2.440
 3738SOL    HW112113   6.744   6.579   2.422
 3738SOL    HW212114   6.684   6.436   2.371
 3739SOL     OW12115   2.710   4.454   1.714
 3739SOL    HW112116   2.789   4.490   1.764
 3739SOL    HW212117   2.626   4.491   1.752
 3740SOL     OW12118   6.110   0.512   0.555
 3740SOL    HW112119   6.036   0.571   0.522
 3740SOL    HW212120   6.176   0.568   0.605
 3741SOL     OW12121   5.496   3.434   1.122
 3741SOL    HW112122   5.428   3.380   1.172
 3741SOL    HW212123   5.588   3.407   1.151
 3742SOL     OW12124   2.218   1.345   6.442
 3742SOL    HW112125   2.299   1.289   6.461
 3742SOL    HW212126   2.191   1.393   6.526
 3743SOL     OW12127   5.597   3.110   1.384
 3743SOL    HW112128   5.537   3.060   1.321
 3743SOL    HW212129   5.608   3.204   1.352
 3744SOL     OW12130   1.107   5.364   2.809
 3744SOL    HW112131   1.185   5.315   2.769
 3744SOL    HW212132   1.128   5.390   2.903
 3745SOL     OW12133   3.884   4.977   1.688
 3745SOL    HW112134   3.925   4.988   1.598
 3745SOL    HW212135   3.788   4.951   1.679
 3746SOL     OW12136   5.537   1.048   3.219
 3746SOL    HW112137   5.472   0.998   3.277
 3746SOL    HW212138   5.488   1.116   3.165
 3747SOL     OW12139   2.707   6.751   5.319
 3747SOL    HW112140   2.653   6.686   5.266
 3747SOL    HW212141   2.647   6.805   5.378
 3748SOL     OW12142   6.032   0.806   0.842
 3748SOL    HW112143   5.941   0.846   0.829
 3748SOL    HW212144   6.100   0.879   0.844
 3749SOL     OW12145   1.526   5.659   3.726
 3749SOL    HW112146   1.469   5.723   3.778
 3749SOL    HW212147   1.599   5.709   3.680
 3750SOL     OW12148   0.900   3.851   0.667
 3750SOL    HW112149   0.836   3.776   0.680
 3750SOL    HW212150   0.960   3.858   0.747
 3751SOL     OW12151   0.283   3.571   1.556
 3751SOL    HW112152   0.230   3.603   1.635
 3751SOL    HW212153   0.323   3.649   1.509
 3752SOL     OW12154   5.374   0.507   6.680
 3752SOL    HW112155   5.274   0.517   6.688
 3752SOL    HW212156   5.415   0.517   6.770
 3753SOL     OW12157   6.617   0.225   5.222
 3753SOL    HW112158   6.590   0.153   5.158
 3753SOL    HW212159   6.715   0.221   5.238
 3754SOL     OW12160   2.137   0.976   1.300
 3754SOL    HW112161   2.192   0.918   1.359
 3754SOL    HW212162   2.195   1.015   1.228
 3755SOL     OW12163   4.792   4.970   4.936
 3755SOL    HW112164   4.820   4.875   4.926
 3755SOL    HW212165   4.693   4.977   4.934
 3756SOL     OW12166   3.215   4.959   6.099
 3756SOL    HW112167   3.205   4.962   5.999
 3756SOL    HW212168   3.295   4.903   6.123
 3757SOL     OW12169   6.146   5.137   1.270
 3757SOL    HW112170   6.122   5.227   1.233
 3757SOL    HW212171   6.075   5.071   1.246
 3758SOL     OW12172   2.485   1.571   4.585
 3758SOL    HW112173   2.413   1.640   4.569
 3758SOL    HW212174   2.485   1.505   4.511
 3759SOL     OW12175   4.059   0.291   5.968
 3759SOL    HW112176   4.045   0.386   5.995
 3759SOL    HW212177   4.150   0.260   5.997
 3760SOL     OW12178   1.283   1.309   4.350
 3760SOL    HW112179   1.359   1.248   4.326
 3760SOL    HW212180   1.197   1.261   4.334
 3761SOL     OW12181   0.460   1.063   4.987
 3761SOL    HW112182   0.364   1.071   5.014
 3761SOL    HW212183   0.510   1.011   5.056
 3762SOL     OW12184   1.650   4.799   0.852
 3762SOL    HW112185   1.648   4.793   0.752
 3762SOL    HW212186   1.711   4.728   0.888
 3763SOL     OW12187   0.528   3.270   0.116
 3763SOL    HW112188   0.438   3.292   0.080
 3763SOL    HW212189   0.538   3.308   0.208
 3764SOL     OW12190   1.337   6.939   2.556
 3764SOL    HW112191   1.361   0.014   2.540
 3764SOL    HW212192   1.280   6.931   2.638
 3765SOL     OW12193   5.027   1.759   1.060
 3765SOL    HW112194   4.946   1.744   1.117
 3765SOL    HW212195   5.006   1.734   0.965
 3766SOL     OW12196   1.665   1.993   4.384
 3766SOL    HW112197   1.691   1.903   4.347
 3766SOL    HW212198   1.568   1.993   4.407
 3767SOL     OW12199   2.871   4.098   6.761
 3767SOL    HW112200   2.799   4.038   6.794
 3767SOL    HW212201   2.952   4.089   6.820
 3768SOL     OW12202   0.475   6.810   4.587
 3768SOL    HW112203   0.410   6.754   4.535
 3768SOL    HW212204   0.445   6.905   4.585
 3769SOL     OW12205   5.671   5.070   4.988
 3769SOL    HW112206   5.645   5.155   5.033
 3769SOL    HW212207   5.722   5.012   5.052
 3770SOL     OW12208   1.273   0.528   6.569
 3770SOL    HW112209   1.270   0.501   6.473
 3770SOL    HW212210   1.195   0.487   6.617
 3771SOL     OW12211   5.162   3.615   0.712
 3771SOL    HW112212   5.073   3.626   0.757
 3771SOL    HW212213   5.150   3.564   0.627
 3772SOL     OW12214   0.505   0.623   0.205
 3772SOL    HW112215   0.506   0.580   0.296
 3772SOL    HW212216   0.494   0.722   0.215
 3773SOL     OW12217   5.664   3.171   5.707
 3773SOL    HW112218   5.670   3.072   5.717
 3773SOL    HW212219   5.630   3.194   5.616
 3774SOL     OW12220   6.138   5.427   1.702
 3774SOL    HW112221   6.084   5.405   1.621
 3774SOL    HW212222   6.216   5.484   1.675
 3775SOL     OW12223   4.497   5.626   2.770
 3775SOL    HW112224   4.528   5.690   2.840
 3775SOL    HW212225   4.419   5.574   2.804
 3776SOL     OW12226   3.932   1.957   6.618
 3776SOL    HW112227   4.000   2.030   6.616
 3776SOL    HW212228   3.977   1.870   6.638
 3777SOL     OW12229   3.299   5.029   3.230
 3777SOL    HW112230   3.278   4.974   3.311
 3777SOL    HW212231   3.269   4.980   3.148
 3778SOL     OW12232   2.547   4.942   2.544
 3778SOL    HW112233   2.608   5.011   2.584
 3778SOL    HW212234   2.565   4.935   2.446
 3779SOL     OW12235   0.829   5.133   0.826
 3779SOL    HW112236   0.915   5.164   0.867
 3779SOL    HW212237   0.754   5.149   0.889
 3780SOL     OW12238   5.927   4.659   4.882
 3780SOL    HW112239   5.895   4.610   4.962
 3780SOL    HW212240   5.923   4.600   4.802
 3781SOL     OW12241   0.402   6.607   3.612
 3781SOL    HW112242   0.399   6.582   3.515
 3781SOL    HW212243   0.443   6.532   3.664
 3782SOL     OW12244   2.412   0.568   3.129
 3782SOL    HW112245   2.494   0.587   3.184
 3782SOL    HW212246   2.420   0.612   3.040
 3783SOL     OW12247   5.849   5.158   4.146
 3783SOL    HW112248   5.903   5.104   4.081
 3783SOL    HW212249   5.830   5.248   4.107
 3784SOL     OW12250   5.526   2.947   2.672
 3784SOL    HW112251   5.599   2.907   2.728
 3784SOL    HW212252   5.560   3.031   2.629
 3785SOL     OW12253   1.462   3.516   5.771
 3785SOL    HW112254   1.494   3.485   5.860
 3785SOL    HW212255   1.478   3.615   5.763
 3786SOL     OW12256   2.491   4.496   3.217
 3786SOL    HW112257   2.554   4.419   3.228
 3786SOL    HW212258   2.430   4.501   3.296
 3787SOL     OW12259   6.507   1.009   2.429
 3787SOL    HW112260   6.413   0.983   2.449
 3787SOL    HW212261   6.516   1.108   2.434
 3788SOL     OW12262   0.394   4.306   5.039
 3788SOL    HW112263   0.310   4.315   5.093
 3788SOL    HW212264   0.372   4.262   4.952
 3789SOL     OW12265   0.558   4.249   4.825
 3789SOL    HW112266   0.574   4.259   4.923
 3789SOL    HW212267   0.544   4.153   4.803
 3790SOL     OW12268   1.310   4.654   5.798
 3790SOL    HW112269   1.223   4.675   5.754
 3790SOL    HW212270   1.341   4.563   5.770
 3791SOL     OW12271   5.045   1.464   6.244
 3791SOL    HW112272   5.085   1.556   6.241
 3791SOL    HW212273   5.117   1.396   6.230
 3792SOL     OW12274   1.445   2.105   3.144
 3792SOL    HW112275   1.505   2.097   3.065
 3792SOL    HW212276   1.350   2.088   3.116
 3793SOL     OW12277   4.595   6.937   2.568
 3793SOL    HW112278   4.611   6.964   2.473
 3793SOL    HW212279   4.523   6.994   2.608
 3794SOL     OW12280   2.170   2.516   1.450
 3794SOL    HW112281   2.221   2.598   1.480
 3794SOL    HW212282   2.074   2.540   1.436
 3795SOL     OW12283   4.842   6.024   1.262
 3795SOL    HW112284   4.833   6.110   1.312
 3795SOL    HW212285   4.885   6.041   1.173
 3796SOL     OW12286   4.050   1.772   2.697
 3796SOL    HW112287   4.067   1.746   2.602
 3796SOL    HW212288   4.087   1.702   2.759
 3797SOL     OW12289   0.821   3.107   2.672
 3797SOL    HW112290   0.831   3.166   2.592
 3797SOL    HW212291   0.898   3.121   2.733
 3798SOL     OW12292   2.381   5.700   3.193
 3798SOL    HW112293   2.364   5.719   3.290
 3798SOL    HW212294   2.480   5.700   3.176
 3799SOL     OW12295   6.252   2.939   3.747
 3799SOL    HW112296   6.199   2.857   3.765
 3799SOL    HW212297   6.333   2.940   3.805
 3800SOL     OW12298   5.196   1.663   3.650
 3800SOL    HW112299   5.183   1.689   3.746
 3800SOL    HW212300   5.119   1.696   3.596
 3801SOL     OW12301   6.187   6.673   1.393
 3801SOL    HW112302   6.196   6.772   1.403
 3801SOL    HW212303   6.194   6.629   1.483
 3802SOL     OW12304   1.685   2.026   1.751
 3802SOL    HW112305   1.736   2.023   1.665
 3802SOL    HW212306   1.750   2.030   1.828
 3803SOL     OW12307   4.073   3.620   2.228
 3803SOL    HW112308   3.981   3.598   2.194
 3803SOL    HW212309   4.134   3.636   2.150
 3804SOL     OW12310   4.636   0.998   3.004
 3804SOL    HW112311   4.624   1.094   3.026
 3804SOL    HW212312   4.691   0.989   2.920
 3805SOL     OW12313   1.688   2.982   1.500
 3805SOL    HW112314   1.708   2.889   1.468
 3805SOL    HW212315   1.592   2.988   1.527
 3806SOL     OW12316   4.241   3.506   6.191
 3806SOL    HW112317   4.180   3.518   6.112
 3806SOL    HW212318   4.274   3.596   6.221
 3807SOL     OW12319   1.781   5.473   2.747
 3807SOL    HW112320   1.848   5.467   2.821
 3807SOL    HW212321   1.800   5.554   2.691
 3808SOL     OW12322   4.137   0.770   0.471
 3808SOL    HW112323   4.070   0.730   0.533
 3808SOL    HW212324   4.090   0.830   0.406
 3809SOL     OW12325   5.535   2.107   1.859
 3809SOL    HW112326   5.574   2.015   1.846
 3809SOL    HW212327   5.441   2.099   1.891
 3810SOL     OW12328   5.391   2.571   3.330
 3810SOL    HW112329   5.297   2.604   3.323
 3810SOL    HW212330   5.399   2.483   3.283
 3811SOL     OW12331   6.623   5.922   4.810
 3811SOL    HW112332   6.707   5.977   4.811
 3811SOL    HW212333   6.544   5.983   4.811
 3812SOL     OW12334   4.718   5.165   5.618
 3812SOL    HW112335   4.701   5.107   5.698
 3812SOL    HW212336   4.787   5.122   5.560
 3813SOL     OW12337   4.603   3.434   0.481
 3813SOL    HW112338   4.566   3.379   0.406
 3813SOL    HW212339   4.665   3.378   0.536
 3814SOL     OW12340   6.151   6.893   5.671
 3814SOL    HW112341   6.150   6.991   5.649
 3814SOL    HW212342   6.058   6.864   5.695
 3815SOL     OW12343   3.379   2.105   0.966
 3815SOL    HW112344   3.362   2.204   0.968
 3815SOL    HW212345   3.420   2.077   1.053
 3816SOL     OW12346   1.209   5.482   6.592
 3816SOL    HW112347   1.109   5.479   6.585
 3816SOL    HW212348   1.249   5.415   6.530
 3817SOL     OW12349   5.195   3.656   2.201
 3817SOL    HW112350   5.115   3.663   2.141
 3817SOL    HW212351   5.209   3.743   2.249
 3818SOL     OW12352   6.757   0.898   6.785
 3818SOL    HW112353   6.719   0.893   6.877
 3818SOL    HW212354   6.745   0.991   6.749
 3819SOL     OW12355   5.705   5.488   2.220
 3819SOL    HW112356   5.648   5.543   2.281
 3819SOL    HW212357   5.659   5.477   2.132
 3820SOL     OW12358   5.555   0.220   4.079
 3820SOL    HW112359   5.587   0.149   4.017
 3820SOL    HW212360   5.494   0.282   4.030
 3821SOL     OW12361   2.030   0.814   1.662
 3821SOL    HW112362   2.047   0.909   1.635
 3821SOL    HW212363   2.055   0.753   1.587
 3822SOL     OW12364   2.290   6.657   0.747
 3822SOL    HW112365   2.251   6.685   0.835
 3822SOL    HW212366   2.247   6.710   0.674
 3823SOL     OW12367   2.747   3.809   6.114
 3823SOL    HW112368   2.709   3.902   6.114
 3823SOL    HW212369   2.847   3.814   6.115
 3824SOL     OW12370   0.480   3.338   0.408
 3824SOL    HW112371   0.387   3.360   0.376
 3824SOL    HW212372   0.479   3.330   0.508
 3825SOL     OW12373   0.174   5.888   0.669
 3825SOL    HW112374   0.224   5.811   0.707
 3825SOL    HW212375   0.148   5.868   0.575
 3826SOL     OW12376   0.711   3.624   0.631
 3826SOL    HW112377   0.693   3.606   0.534
 3826SOL    HW212378   0.729   3.537   0.678
 3827SOL     OW12379   1.593   1.413   1.669
 3827SOL    HW112380   1.673   1.378   1.718
 3827SOL    HW212381   1.529   1.338   1.651
 3828SOL     OW12382   3.490   3.538   3.298
 3828SOL    HW112383   3.467   3.616   3.355
 3828SOL    HW212384   3.585   3.546   3.267
 3829SOL     OW12385   1.311   4.961   2.105
 3829SOL    HW112386   1.231   4.981   2.162
 3829SOL    HW212387   1.304   4.868   2.069
 3830SOL     OW12388   0.885   0.223   5.306
 3830SOL    HW112389   0.972   0.271   5.319
 3830SOL    HW212390   0.871   0.205   5.209
 3831SOL     OW12391   4.523   2.285   2.798
 3831SOL    HW112392   4.430   2.298   2.764
 3831SOL    HW212393   4.553   2.368   2.845
 3832SOL     OW12394   0.096   0.720   3.031
 3832SOL    HW112395   0.195   0.732   3.041
 3832SOL    HW212396   0.052   0.731   3.120
 3833SOL     OW12397   0.127   5.823   6.515
 3833SOL    HW112398   0.149   5.918   6.540
 3833SOL    HW212399   0.099   5.820   6.419
 3834SOL     OW12400   4.106   4.027   1.481
 3834SOL    HW112401   4.053   3.943   1.490
 3834SOL    HW212402   4.147   4.051   1.569
 3835SOL     OW12403   3.750   5.823   4.576
 3835SOL    HW112404   3.655   5.822   4.543
 3835SOL    HW212405   3.761   5.895   4.645
 3836SOL     OW12406   0.370   4.653   5.927
 3836SOL    HW112407   0.385   4.721   5.854
 3836SOL    HW212408   0.416   4.568   5.902
 3837SOL     OW12409   4.515   4.098   6.244
 3837SOL    HW112410   4.545   4.192   6.263
 3837SOL    HW212411   4.463   4.063   6.322
 3838SOL     OW12412   0.863   3.326   4.527
 3838SOL    HW112413   0.769   3.331   4.494
 3838SOL    HW212414   0.917   3.265   4.469
 3839SOL     OW12415   5.681   1.285   2.998
 3839SOL    HW112416   5.620   1.206   2.995
 3839SOL    HW212417   5.676   1.335   2.912
 3840SOL     OW12418   2.383   1.079   6.806
 3840SOL    HW112419   2.394   1.034   6.718
 3840SOL    HW212420   2.473   1.104   6.842
 3841SOL     OW12421   0.237   3.886   4.784
 3841SOL    HW112422   0.288   3.864   4.866
 3841SOL    HW212423   0.213   3.801   4.736
 3842SOL     OW12424   2.550   2.742   1.691
 3842SOL    HW112425   2.587   2.652   1.712
 3842SOL    HW212426   2.620   2.811   1.707
 3843SOL     OW12427   5.746   4.921   2.473
 3843SOL    HW112428   5.814   4.977   2.425
 3843SOL    HW212429   5.791   4.868   2.545
 3844SOL     OW12430   1.183   2.700   5.370
 3844SOL    HW112431   1.177   2.796   5.342
 3844SOL    HW212432   1.203   2.696   5.468
 3845SOL     OW12433   3.134   3.811   5.229
 3845SOL    HW112434   3.123   3.717   5.197
 3845SOL    HW212435   3.063   3.869   5.189
 3846SOL     OW12436   6.781   5.278   3.226
 3846SOL    HW112437   6.847   5.227   3.170
 3846SOL    HW212438   6.696   5.289   3.174
 3847SOL     OW12439   5.178   2.173   3.866
 3847SOL    HW112440   5.085   2.153   3.835
 3847SOL    HW212441   5.210   2.100   3.927
 3848SOL     OW12442   4.568   5.555   2.520
 3848SOL    HW112443   4.501   5.558   2.446
 3848SOL    HW212444   4.529   5.598   2.602
 3849SOL     OW12445   1.058   1.271   6.123
 3849SOL    HW112446   1.006   1.209   6.183
 3849SOL    HW212447   0.995   1.317   6.061
 3850SOL     OW12448   2.680   3.228   1.518
 3850SOL    HW112449   2.657   3.285   1.596
 3850SOL    HW212450   2.641   3.267   1.435
 3851SOL     OW12451   0.876   4.588   2.381
 3851SOL    HW112452   0.854   4.686   2.372
 3851SOL    HW212453   0.972   4.577   2.406
 3852SOL     OW12454   4.022   6.309   3.915
 3852SOL    HW112455   3.993   6.258   3.835
 3852SOL    HW212456   3.964   6.285   3.993
 3853SOL     OW12457   0.692   4.297   3.688
 3853SOL    HW112458   0.655   4.363   3.623
 3853SOL    HW212459   0.639   4.300   3.773
 3854SOL     OW12460   1.873   2.771   2.757
 3854SOL    HW112461   1.839   2.690   2.804
 3854SOL    HW212462   1.969   2.757   2.730
 3855SOL     OW12463   5.727   6.466   6.615
 3855SOL    HW112464   5.803   6.405   6.591
 3855SOL    HW212465   5.651   6.451   6.552
 3856SOL     OW12466   6.865   0.862   6.009
 3856SOL    HW112467   6.852   0.845   5.911
 3856SOL    HW212468   6.841   0.780   6.061
 3857SOL     OW12469   0.091   6.525   6.928
 3857SOL    HW112470   0.115   6.570   7.015
 3857SOL    HW212471   0.015   6.574   6.886
 3858SOL     OW12472   2.155   0.864   5.509
 3858SOL    HW112473   2.167   0.940   5.574
 3858SOL    HW212474   2.176   0.778   5.554
 3859SOL     OW12475   6.208   1.037   2.260
 3859SOL    HW112476   6.226   1.098   2.337
 3859SOL    HW212477   6.211   1.089   2.175
 3860SOL     OW12478   2.939   0.783   5.420
 3860SOL    HW112479   2.866   0.783   5.489
 3860SOL    HW212480   3.028   0.778   5.466
 3861SOL     OW12481   4.421   4.664   3.505
 3861SOL    HW112482   4.397   4.744   3.450
 3861SOL    HW212483   4.375   4.670   3.594
 3862SOL     OW12484   0.469   0.388   4.690
 3862SOL    HW112485   0.552   0.394   4.746
 3862SOL    HW212486   0.411   0.468   4.707
 3863SOL     OW12487   5.722   2.757   6.941
 3863SOL    HW112488   5.724   2.774   0.018
 3863SOL    HW212489   5.716   2.844   6.892
 3864SOL     OW12490   2.666   0.312   5.460
 3864SOL    HW112491   2.747   0.313   5.402
 3864SOL    HW212492   2.584   0.326   5.404
 3865SOL     OW12493   3.108   0.374   0.181
 3865SOL    HW112494   3.115   0.279   0.210
 3865SOL    HW212495   3.088   0.432   0.260
 3866SOL     OW12496   3.344   0.740   1.224
 3866SOL    HW112497   3.309   0.833   1.214
 3866SOL    HW212498   3.434   0.734   1.180
 3867SOL     OW12499   1.217   4.990   4.002
 3867SOL    HW112500   1.271   4.905   3.997
 3867SOL    HW212501   1.250   5.054   3.933
 3868SOL     OW12502   3.114   0.116   0.295
 3868SOL    HW112503   3.047   0.049   0.264
 3868SOL    HW212504   3.205   0.092   0.260
 3869SOL     OW12505   5.576   3.904   5.111
 3869SOL    HW112506   5.498   3.959   5.083
 3869SOL    HW212507   5.553   3.807   5.105
 3870SOL     OW12508   5.585   6.208   6.803
 3870SOL    HW112509   5.535   6.169   6.726
 3870SOL    HW212510   5.683   6.199   6.786
 3871SOL     OW12511   3.521   0.663   3.458
 3871SOL    HW112512   3.461   0.591   3.493
 3871SOL    HW212513   3.505   0.674   3.360
 3872SOL     OW12514   3.814   2.961   3.915
 3872SOL    HW112515   3.740   2.926   3.973
 3872SOL    HW212516   3.855   3.042   3.958
 3873SOL     OW12517   6.227   2.885   1.037
 3873SOL    HW112518   6.229   2.974   1.083
 3873SOL    HW212519   6.149   2.832   1.070
 3874SOL     OW12520   4.306   5.785   0.297
 3874SOL    HW112521   4.311   5.686   0.282
 3874SOL    HW212522   4.328   5.805   0.392
 3875SOL     OW12523   2.209   3.135   1.827
 3875SOL    HW112524   2.126   3.117   1.774
 3875SOL    HW212525   2.289   3.109   1.773
 3876SOL     OW12526   4.330   5.320   1.000
 3876SOL    HW112527   4.361   5.396   0.942
 3876SOL    HW212528   4.264   5.355   1.067
 3877SOL     OW12529   6.029   3.163   0.915
 3877SOL    HW112530   5.960   3.167   0.842
 3877SOL    HW212531   5.992   3.207   0.997
 3878SOL     OW12532   3.552   7.020   4.356
 3878SOL    HW112533   3.573   6.977   4.268
 3878SOL    HW212534   3.629   7.010   4.418
 3879SOL     OW12535   5.230   5.244   1.453
 3879SOL    HW112536   5.245   5.332   1.497
 3879SOL    HW212537   5.132   5.232   1.436
 3880SOL     OW12538   5.983   4.666   4.016
 3880SOL    HW112539   6.067   4.713   4.042
 3880SOL    HW212540   5.905   4.710   4.062
 3881SOL     OW12541   1.003   3.672   1.455
 3881SOL    HW112542   0.915   3.626   1.440
 3881SOL    HW212543   1.061   3.615   1.513
 3882SOL     OW12544   1.305   1.700   5.387
 3882SOL    HW112545   1.249   1.648   5.322
 3882SOL    HW212546   1.400   1.671   5.379
 3883SOL     OW12547   3.892   0.915   3.803
 3883SOL    HW112548   3.862   0.854   3.729
 3883SOL    HW212549   3.857   0.881   3.891
 3884SOL     OW12550   0.156   5.311   3.333
 3884SOL    HW112551   0.253   5.325   3.349
 3884SOL    HW212552   0.143   5.235   3.270
 3885SOL     OW12553   6.690   0.366   2.705
 3885SOL    HW112554   6.682   0.463   2.727
 3885SOL    HW212555   6.784   0.336   2.719
 3886SOL     OW12556   6.363   6.012   5.134
 3886SOL    HW112557   6.433   5.940   5.133
 3886SOL    HW212558   6.318   6.016   5.045
 3887SOL     OW12559   0.563   0.489   6.225
 3887SOL    HW112560   0.556   0.447   6.134
 3887SOL    HW212561   0.502   0.441   6.288
 3888SOL     OW12562   6.465   0.375   5.420
 3888SOL    HW112563   6.423   0.403   5.334
 3888SOL    HW212564   6.512   0.288   5.406
 3889SOL     OW12565   6.625   3.317   5.785
 3889SOL    HW112566   6.650   3.231   5.741
 3889SOL    HW212567   6.689   3.336   5.859
 3890SOL     OW12568   5.387   5.797   3.235
 3890SOL    HW112569   5.470   5.763   3.280
 3890SOL    HW212570   5.412   5.851   3.155
 3891SOL     OW12571   5.922   4.313   4.842
 3891SOL    HW112572   6.006   4.281   4.800
 3891SOL    HW212573   5.873   4.236   4.884
 3892SOL     OW12574   0.219   1.912   1.305
 3892SOL    HW112575   0.252   1.882   1.395
 3892SOL    HW212576   0.298   1.930   1.246
 3893SOL     OW12577   4.386   4.312   1.214
 3893SOL    HW112578   4.301   4.366   1.221
 3893SOL    HW212579   4.420   4.292   1.305
 3894SOL     OW12580   3.345   2.398   0.889
 3894SOL    HW112581   3.327   2.375   0.793
 3894SOL    HW212582   3.270   2.452   0.926
 3895SOL     OW12583   1.346   0.744   5.807
 3895SOL    HW112584   1.336   0.784   5.716
 3895SOL    HW212585   1.418   0.674   5.805
 3896SOL     OW12586   0.325   0.851   6.247
 3896SOL    HW112587   0.331   0.951   6.243
 3896SOL    HW212588   0.288   0.817   6.161
 3897SOL     OW12589   4.021   5.808   2.236
 3897SOL    HW112590   3.959   5.855   2.173
 3897SOL    HW212591   3.969   5.745   2.294
 3898SOL     OW12592   3.615   3.539   4.220
 3898SOL    HW112593   3.698   3.584   4.252
 3898SOL    HW212594   3.636   3.480   4.143
 3899SOL     OW12595   5.713   0.670   4.200
 3899SOL    HW112596   5.747   0.701   4.111
 3899SOL    HW212597   5.776   0.697   4.272
 3900SOL     OW12598   5.547   2.785   3.923
 3900SOL    HW112599   5.519   2.692   3.944
 3900SOL    HW212600   5.625   2.783   3.860
 3901SOL     OW12601   2.949   6.684   5.458
 3901SOL    HW112602   2.877   6.727   5.404
 3901SOL    HW212603   2.930   6.586   5.468
 3902SOL     OW12604   6.291   4.040   2.349
 3902SOL    HW112605   6.234   4.076   2.423
 3902SOL    HW212606   6.237   4.035   2.265
 3903SOL     OW12607   4.408   5.277   0.363
 3903SOL    HW112608   4.455   5.277   0.451
 3903SOL    HW212609   4.350   5.196   0.355
 3904SOL     OW12610   1.830   6.780   5.132
 3904SOL    HW112611   1.801   6.701   5.186
 3904SOL    HW212612   1.930   6.783   5.128
 3905SOL     OW12613   6.158   0.131   5.580
 3905SOL    HW112614   6.109   0.167   5.501
 3905SOL    HW212615   6.202   0.207   5.629
 3906SOL     OW12616   3.710   5.128   5.141
 3906SOL    HW112617   3.638   5.192   5.115
 3906SOL    HW212618   3.714   5.123   5.241
 3907SOL     OW12619   6.571   6.753   5.436
 3907SOL    HW112620   6.630   6.716   5.364
 3907SOL    HW212621   6.532   6.840   5.406
 3908SOL     OW12622   1.103   0.582   0.352
 3908SOL    HW112623   1.176   0.583   0.283
 3908SOL    HW212624   1.092   0.674   0.391
 3909SOL     OW12625   0.756   5.426   5.413
 3909SOL    HW112626   0.847   5.404   5.448
 3909SOL    HW212627   0.696   5.451   5.488
 3910SOL     OW12628   3.777   4.015   2.021
 3910SOL    HW112629   3.847   4.004   2.091
 3910SOL    HW212630   3.726   3.930   2.010
 3911SOL     OW12631   3.926   1.080   6.941
 3911SOL    HW112632   3.959   1.036   6.857
 3911SOL    HW212633   3.997   1.076   7.011
 3912SOL     OW12634   2.974   0.782   6.647
 3912SOL    HW112635   3.014   0.704   6.598
 3912SOL    HW212636   2.970   0.861   6.586
 3913SOL     OW12637   2.388   5.621   6.555
 3913SOL    HW112638   2.308   5.646   6.500
 3913SOL    HW212639   2.408   5.694   6.620
 3914SOL     OW12640   3.511   1.170   0.848
 3914SOL    HW112641   3.593   1.208   0.890
 3914SOL    HW212642   3.462   1.114   0.914
 3915SOL     OW12643   4.235   6.329   1.677
 3915SOL    HW112644   4.242   6.251   1.614
 3915SOL    HW212645   4.179   6.401   1.634
 3916SOL     OW12646   1.590   6.455   2.926
 3916SOL    HW112647   1.505   6.414   2.959
 3916SOL    HW212648   1.667   6.394   2.948
 3917SOL     OW12649   1.022   5.104   0.022
 3917SOL    HW112650   0.931   5.090   7.005
 3917SOL    HW212651   1.042   5.033   0.089
 3918SOL     OW12652   4.640   6.732   2.143
 3918SOL    HW112653   4.736   6.704   2.153
 3918SOL    HW212654   4.597   6.679   2.071
 3919SOL     OW12655   3.221   6.641   6.364
 3919SOL    HW112656   3.254   6.547   6.367
 3919SOL    HW212657   3.161   6.653   6.284
 3920SOL     OW12658   2.637   2.083   6.574
 3920SOL    HW112659   2.544   2.087   6.608
 3920SOL    HW212660   2.690   2.017   6.628
 3921SOL     OW12661   0.555   2.915   0.668
 3921SOL    HW112662   0.618   2.966   0.609
 3921SOL    HW212663   0.461   2.942   0.648
 3922SOL     OW12664   5.826   4.683   1.324
 3922SOL    HW112665   5.794   4.595   1.359
 3922SOL    HW212666   5.854   4.673   1.229
 3923SOL     OW12667   6.284   1.789   6.884
 3923SOL    HW112668   6.231   1.824   6.961
 3923SOL    HW212669   6.239   1.816   6.799
 3924SOL     OW12670   0.459   5.332   3.043
 3924SOL    HW112671   0.437   5.429   3.036
 3924SOL    HW212672   0.443   5.301   3.137
 3925SOL     OW12673   3.969   4.394   0.808
 3925SOL    HW112674   3.875   4.392   0.772
 3925SOL    HW212675   3.971   4.449   0.891
 3926SOL     OW12676   6.871   6.230   2.924
 3926SOL    HW112677   6.942   6.242   2.993
 3926SOL    HW212678   6.823   6.144   2.940
 3927SOL     OW12679   6.705   3.815   4.381
 3927SOL    HW112680   6.771   3.783   4.313
 3927SOL    HW212681   6.677   3.908   4.359
 3928SOL     OW12682   3.205   5.155   4.526
 3928SOL    HW112683   3.243   5.062   4.519
 3928SOL    HW212684   3.110   5.154   4.497
 3929SOL     OW12685   0.304   2.411   6.500
 3929SOL    HW112686   0.269   2.465   6.423
 3929SOL    HW212687   0.244   2.423   6.579
 3930SOL     OW12688   1.380   2.200   3.938
 3930SOL    HW112689   1.327   2.283   3.954
 3930SOL    HW212690   1.477   2.221   3.938
 3931SOL     OW12691   2.697   1.503   2.959
 3931SOL    HW112692   2.772   1.442   2.982
 3931SOL    HW212693   2.625   1.496   3.029
 3932SOL     OW12694   1.857   4.503   3.536
 3932SOL    HW112695   1.935   4.565   3.527
 3932SOL    HW212696   1.788   4.544   3.596
 3933SOL     OW12697   2.222   6.785   6.486
 3933SOL    HW112698   2.172   6.848   6.545
 3933SOL    HW212699   2.278   6.723   6.542
 3934SOL     OW12700   0.577   1.537   1.321
 3934SOL    HW112701   0.536   1.518   1.232
 3934SOL    HW212702   0.524   1.609   1.367
 3935SOL     OW12703   2.024   0.124   5.041
 3935SOL    HW112704   2.092   0.077   5.097
 3935SOL    HW212705   1.946   0.063   5.025
 3936SOL     OW12706   0.121   5.596   5.683
 3936SOL    HW112707   0.186   5.521   5.692
 3936SOL    HW212708   0.035   5.570   5.727
 3937SOL     OW12709   0.688   0.192   2.310
 3937SOL    HW112710   0.724   0.100   2.298
 3937SOL    HW212711   0.609   0.189   2.372
 3938SOL     OW12712   6.485   3.051   4.089
 3938SOL    HW112713   6.539   3.029   4.008
 3938SOL    HW212714   6.511   3.142   4.122
 3939SOL     OW12715   3.109   1.444   3.151
 3939SOL    HW112716   3.194   1.444   3.203
 3939SOL    HW212717   3.090   1.351   3.118
 3940SOL     OW12718   4.089   4.893   2.155
 3940SOL    HW112719   4.109   4.796   2.155
 3940SOL    HW212720   3.990   4.907   2.143
 3941SOL     OW12721   6.024   1.056   5.503
 3941SOL    HW112722   6.062   0.985   5.562
 3941SOL    HW212723   6.000   1.017   5.415
 3942SOL     OW12724   0.844   6.774   5.566
 3942SOL    HW112725   0.825   6.869   5.542
 3942SOL    HW212726   0.883   6.727   5.486
 3943SOL     OW12727   0.830   3.456   3.000
 3943SOL    HW112728   0.808   3.497   2.911
 3943SOL    HW212729   0.844   3.358   2.989
 3944SOL     OW12730   5.412   3.852   5.420
 3944SOL    HW112731   5.396   3.922   5.490
 3944SOL    HW212732   5.506   3.820   5.426
 3945SOL     OW12733   0.893   2.549   2.616
 3945SOL    HW112734   0.795   2.544   2.632
 3945SOL    HW212735   0.939   2.474   2.665
 3946SOL     OW12736   6.323   4.612   5.902
 3946SOL    HW112737   6.285   4.698   5.868
 3946SOL    HW212738   6.379   4.569   5.831
 3947SOL     OW12739   6.172   5.619   2.030
 3947SOL    HW112740   6.198   5.694   1.969
 3947SOL    HW212741   6.136   5.658   2.115
 3948SOL     OW12742   0.538   5.063   0.607
 3948SOL    HW112743   0.555   5.160   0.622
 3948SOL    HW212744   0.491   5.024   0.686
 3949SOL     OW12745   5.479   0.243   2.819
 3949SOL    HW112746   5.533   0.310   2.768
 3949SOL    HW212747   5.437   0.178   2.756
 3950SOL     OW12748   3.170   4.070   1.454
 3950SOL    HW112749   3.100   4.041   1.519
 3950SOL    HW212750   3.126   4.096   1.368
 3951SOL     OW12751   6.947   0.051   6.638
 3951SOL    HW112752   6.912   0.141   6.663
 3951SOL    HW212753   6.875   7.019   6.593
 3952SOL     OW12754   6.148   3.828   4.235
 3952SOL    HW112755   6.242   3.798   4.222
 3952SOL    HW212756   6.126   3.900   4.169
 3953SOL     OW12757   3.480   4.177   0.535
 3953SOL    HW112758   3.439   4.199   0.623
 3953SOL    HW212759   3.417   4.202   0.461
 3954SOL     OW12760   5.634   5.489   5.520
 3954SOL    HW112761   5.597   5.533   5.602
 3954SOL    HW212762   5.734   5.493   5.522
 3955SOL     OW12763   4.778   6.714   0.045
 3955SOL    HW112764   4.824   6.780   7.006
 3955SOL    HW212765   4.766   6.754   0.136
 3956SOL     OW12766   0.832   1.943   3.497
 3956SOL    HW112767   0.923   1.973   3.468
 3956SOL    HW212768   0.772   2.022   3.505
 3957SOL     OW12769   4.478   0.106   3.494
 3957SOL    HW112770   4.447   0.023   3.539
 3957SOL    HW212771   4.410   0.179   3.507
 3958SOL     OW12772   5.281   0.501   6.262
 3958SOL    HW112773   5.239   0.473   6.349
 3958SOL    HW212774   5.380   0.510   6.275
 3959SOL     OW12775   3.459   6.588   1.044
 3959SOL    HW112776   3.384   6.644   1.007
 3959SOL    HW212777   3.520   6.562   0.970
 3960SOL     OW12778   5.160   2.019   6.140
 3960SOL    HW112779   5.242   2.077   6.137
 3960SOL    HW212780   5.155   1.963   6.057
 3961SOL     OW12781   5.687   2.727   2.008
 3961SOL    HW112782   5.760   2.794   2.022
 3961SOL    HW212783   5.635   2.717   2.093
 3962SOL     OW12784   1.893   5.351   7.007
 3962SOL    HW112785   1.900   5.311   0.077
 3962SOL    HW212786   1.874   5.279   6.940
 3963SOL     OW12787   4.628   4.505   3.609
 3963SOL    HW112788   4.684   4.468   3.535
 3963SOL    HW212789   4.552   4.558   3.570
 3964SOL     OW12790   4.508   5.045   4.876
 3964SOL    HW112791   4.409   5.046   4.888
 3964SOL    HW212792   4.543   5.138   4.874
 3965SOL     OW12793   3.983   3.352   6.394
 3965SOL    HW112794   4.026   3.314   6.312
 3965SOL    HW212795   4.046   3.341   6.471
 3966SOL     OW12796   6.554   5.434   0.371
 3966SOL    HW112797   6.505   5.517   0.396
 3966SOL    HW212798   6.488   5.361   0.353
 3967SOL     OW12799   1.423   4.353   2.724
 3967SOL    HW112800   1.381   4.435   2.764
 3967SOL    HW212801   1.393   4.272   2.774
 3968SOL     OW12802   0.149   0.479   0.844
 3968SOL    HW112803   0.145   0.572   0.809
 3968SOL    HW212804   0.056   0.446   0.863
 3969SOL     OW12805   1.084   3.767   2.865
 3969SOL    HW112806   1.099   3.780   2.767
 3969SOL    HW212807   1.064   3.671   2.884
 3970SOL     OW12808   4.895   5.138   3.955
 3970SOL    HW112809   4.872   5.064   3.892
 3970SOL    HW212810   4.889   5.104   4.049
 3971SOL     OW12811   2.463   4.556   2.270
 3971SOL    HW112812   2.420   4.466   2.277
 3971SOL    HW212813   2.401   4.625   2.306
 3972SOL     OW12814   1.397   5.170   1.053
 3972SOL    HW112815   1.396   5.246   1.118
 3972SOL    HW212816   1.306   5.128   1.050
 3973SOL     OW12817   2.186   4.171   5.941
 3973SOL    HW112818   2.247   4.160   6.020
 3973SOL    HW212819   2.236   4.147   5.858
 3974SOL     OW12820   1.732   6.961   5.345
 3974SOL    HW112821   1.743   6.920   5.254
 3974SOL    HW212822   1.646   7.012   5.349
 3975SOL     OW12823   5.241   0.688   6.476
 3975SOL    HW112824   5.281   0.722   6.391
 3975SOL    HW212825   5.310   0.638   6.528
 3976SOL     OW12826   1.734   5.033   1.560
 3976SOL    HW112827   1.819   5.086   1.561
 3976SOL    HW212828   1.753   4.942   1.524
 3977SOL     OW12829   3.209   4.176   5.237
 3977SOL    HW112830   3.120   4.211   5.265
 3977SOL    HW212831   3.206   4.149   5.141
 3978SOL     OW12832   5.522   6.915   4.736
 3978SOL    HW112833   5.588   6.861   4.787
 3978SOL    HW212834   5.565   7.000   4.704
 3979SOL     OW12835   2.335   5.924   1.505
 3979SOL    HW112836   2.375   5.899   1.417
 3979SOL    HW212837   2.253   5.868   1.521
 3980SOL     OW12838   0.111   4.398   6.961
 3980SOL    HW112839   0.175   4.420   6.887
 3980SOL    HW212840   0.127   4.459   0.018
 3981SOL     OW12841   2.078   1.624   5.985
 3981SOL    HW112842   2.113   1.687   6.054
 3981SOL    HW212843   2.137   1.543   5.982
 3982SOL     OW12844   1.678   0.938   4.542
 3982SOL    HW112845   1.710   0.976   4.629
 3982SOL    HW212846   1.662   1.012   4.477
 3983SOL     OW12847   4.208   5.498   4.218
 3983SOL    HW112848   4.307   5.507   4.223
 3983SOL    HW212849   4.180   5.415   4.266
 3984SOL     OW12850   1.604   0.895   2.651
 3984SOL    HW112851   1.591   0.985   2.693
 3984SOL    HW212852   1.534   0.832   2.684
 3985SOL     OW12853   3.171   4.622   6.641
 3985SOL    HW112854   3.266   4.654   6.644
 3985SOL    HW212855   3.162   4.539   6.696
 3986SOL     OW12856   0.101   2.141   2.872
 3986SOL    HW112857   0.063   2.209   2.810
 3986SOL    HW212858   0.068   2.157   2.964
 3987SOL     OW12859   2.518   5.835   4.510
 3987SOL    HW112860   2.580   5.855   4.434
 3987SOL    HW212861   2.463   5.916   4.531
 3988SOL     OW12862   3.271   2.882   6.535
 3988SOL    HW112863   3.348   2.818   6.536
 3988SOL    HW212864   3.205   2.856   6.606
 3989SOL     OW12865   6.141   1.161   0.262
 3989SOL    HW112866   6.046   1.145   0.288
 3989SOL    HW212867   6.146   1.237   0.197
 3990SOL     OW12868   5.887   2.022   3.536
 3990SOL    HW112869   5.900   2.043   3.439
 3990SOL    HW212870   5.802   1.971   3.548
 3991SOL     OW12871   6.085   1.587   2.096
 3991SOL    HW112872   6.081   1.643   2.178
 3991SOL    HW212873   6.161   1.617   2.038
 3992SOL     OW12874   3.934   2.615   6.784
 3992SOL    HW112875   3.869   2.683   6.818
 3992SOL    HW212876   3.945   2.626   6.685
 3993SOL     OW12877   0.590   2.364   3.256
 3993SOL    HW112878   0.671   2.395   3.307
 3993SOL    HW212879   0.527   2.317   3.317
 3994SOL     OW12880   0.715   2.811   6.082
 3994SOL    HW112881   0.794   2.789   6.139
 3994SOL    HW212882   0.717   2.755   5.999
 3995SOL     OW12883   2.157   3.568   3.879
 3995SOL    HW112884   2.145   3.566   3.780
 3995SOL    HW212885   2.179   3.477   3.912
 3996SOL     OW12886   0.601   1.523   4.584
 3996SOL    HW112887   0.635   1.499   4.675
 3996SOL    HW212888   0.504   1.545   4.590
 3997SOL     OW12889   4.879   2.953   2.483
 3997SOL    HW112890   4.821   2.961   2.402
 3997SOL    HW212891   4.872   3.037   2.537
 3998SOL     OW12892   4.783   1.004   2.758
 3998SOL    HW112893   4.734   1.041   2.679
 3998SOL    HW212894   4.875   0.976   2.730
 3999SOL     OW12895   5.313   3.286   3.586
 3999SOL    HW112896   5.273   3.348   3.654
 3999SOL    HW212897   5.404   3.257   3.616
 4000SOL     OW12898   3.203   4.999   2.762
 4000SOL    HW112899   3.299   4.970   2.768
 4000SOL    HW212900   3.198   5.098   2.772
 4001SOL     OW12901   1.516   1.935   3.766
 4001SOL    HW112902   1.507   2.025   3.722
 4001SOL    HW212903   1.604   1.895   3.740
 4002SOL     OW12904   2.529   3.071   0.297
 4002SOL    HW112905   2.558   2.983   0.259
 4002SOL    HW212906   2.568   3.145   0.241
 4003SOL     OW12907   2.579   6.503   5.252
 4003SOL    HW112908   2.508   6.518   5.183
 4003SOL    HW212909   2.536   6.467   5.335
 4004SOL     OW12910   6.402   2.093   3.944
 4004SOL    HW112911   6.387   2.167   3.877
 4004SOL    HW212912   6.384   2.128   4.036
 4005SOL     OW12913   5.308   5.168   0.924
 4005SOL    HW112914   5.328   5.113   0.843
 4005SOL    HW212915   5.387   5.168   0.985
 4006SOL     OW12916   4.134   5.202   2.229
 4006SOL    HW112917   4.166   5.204   2.323
 4006SOL    HW212918   4.116   5.107   2.202
 4007SOL     OW12919   0.643   2.955   1.488
 4007SOL    HW112920   0.554   3.000   1.492
 4007SOL    HW212921   0.709   3.008   1.541
 4008SOL     OW12922   3.275   1.888   4.017
 4008SOL    HW112923   3.184   1.929   4.009
 4008SOL    HW212924   3.292   1.830   3.938
 4009SOL     OW12925   5.223   2.620   0.482
 4009SOL    HW112926   5.202   2.523   0.477
 4009SOL    HW212927   5.140   2.671   0.505
 4010SOL     OW12928   1.748   3.590   1.005
 4010SOL    HW112929   1.677   3.538   1.053
 4010SOL    HW212930   1.803   3.640   1.072
 4011SOL     OW12931   1.018   0.812   1.408
 4011SOL    HW112932   1.041   0.851   1.319
 4011SOL    HW212933   1.089   0.746   1.434
 4012SOL     OW12934   4.369   4.969   2.095
 4012SOL    HW112935   4.399   4.900   2.029
 4012SOL    HW212936   4.270   4.961   2.108
 4013SOL     OW12937   2.674   0.425   1.092
 4013SOL    HW112938   2.669   0.518   1.056
 4013SOL    HW212939   2.738   0.372   1.037
 4014SOL     OW12940   4.351   6.082   3.027
 4014SOL    HW112941   4.342   6.036   3.116
 4014SOL    HW212942   4.358   6.181   3.041
 4015SOL     OW12943   4.605   5.548   6.493
 4015SOL    HW112944   4.641   5.544   6.586
 4015SOL    HW212945   4.620   5.640   6.456
 4016SOL     OW12946   1.654   5.829   6.764
 4016SOL    HW112947   1.639   5.749   6.706
 4016SOL    HW212948   1.667   5.799   6.858
 4017SOL     OW12949   6.899   6.672   6.734
 4017SOL    HW112950   6.967   6.734   6.695
 4017SOL    HW212951   6.859   6.713   6.816
 4018SOL     OW12952   5.866   6.576   2.224
 4018SOL    HW112953   5.834   6.671   2.215
 4018SOL    HW212954   5.924   6.568   2.305
 4019SOL     OW12955   5.688   3.943   2.395
 4019SOL    HW112956   5.744   4.002   2.453
 4019SOL    HW212957   5.685   3.980   2.302
 4020SOL     OW12958   6.070   2.335   5.415
 4020SOL    HW112959   5.991   2.347   5.475
 4020SOL    HW212960   6.087   2.420   5.365
 4021SOL     OW12961   2.879   3.368   5.315
 4021SOL    HW112962   2.890   3.284   5.262
 4021SOL    HW212963   2.810   3.353   5.386
 4022SOL     OW12964   3.974   0.485   6.869
 4022SOL    HW112965   4.013   0.556   6.927
 4022SOL    HW212966   3.938   0.526   6.785
 4023SOL     OW12967   6.607   1.570   4.288
 4023SOL    HW112968   6.573   1.517   4.211
 4023SOL    HW212969   6.692   1.530   4.322
 4024SOL     OW12970   2.715   5.390   4.182
 4024SOL    HW112971   2.688   5.299   4.152
 4024SOL    HW212972   2.811   5.388   4.212
 4025SOL     OW12973   0.988   6.347   4.726
 4025SOL    HW112974   1.088   6.351   4.726
 4025SOL    HW212975   0.958   6.271   4.668
 4026SOL     OW12976   6.372   6.284   4.050
 4026SOL    HW112977   6.463   6.269   4.087
 4026SOL    HW212978   6.307   6.296   4.125
 4027SOL     OW12979   2.905   3.683   1.931
 4027SOL    HW112980   2.939   3.667   2.023
 4027SOL    HW212981   2.975   3.729   1.877
 4028SOL     OW12982   1.937   2.658   3.263
 4028SOL    HW112983   1.927   2.561   3.287
 4028SOL    HW212984   1.938   2.713   3.347
 4029SOL     OW12985   2.894   4.370   6.303
 4029SOL    HW112986   2.949   4.443   6.344
 4029SOL    HW212987   2.806   4.363   6.351
 4030SOL     OW12988   1.435   1.514   6.755
 4030SOL    HW112989   1.456   1.421   6.726
 4030SOL    HW212990   1.468   1.528   6.849
 4031SOL     OW12991   4.805   6.170   3.283
 4031SOL    HW112992   4.865   6.205   3.355
 4031SOL    HW212993   4.783   6.075   3.301
 4032SOL     OW12994   6.224   6.921   3.118
 4032SOL    HW112995   6.284   6.992   3.081
 4032SOL    HW212996   6.152   6.964   3.172
 4033SOL     OW12997   2.978   3.211   2.550
 4033SOL    HW112998   2.898   3.240   2.498
 4033SOL    HW212999   3.024   3.291   2.587
 4034SOL     OW13000   6.721   1.586   5.118
 4034SOL    HW113001   6.718   1.640   5.034
 4034SOL    HW213002   6.629   1.580   5.157
 4035SOL     OW13003   0.352   2.552   0.947
 4035SOL    HW113004   0.380   2.575   1.040
 4035SOL    HW213005   0.253   2.559   0.939
 4036SOL     OW13006   5.018   6.808   2.477
 4036SOL    HW113007   4.993   6.722   2.433
 4036SOL    HW213008   5.009   6.799   2.577
 4037SOL     OW13009   1.867   2.108   0.305
 4037SOL    HW113010   1.803   2.183   0.288
 4037SOL    HW213011   1.840   2.028   0.251
 4038SOL     OW13012   4.518   4.517   2.080
 4038SOL    HW113013   4.605   4.511   2.128
 4038SOL    HW213014   4.508   4.439   2.019
 4039SOL     OW13015   4.711   4.899   1.796
 4039SOL    HW113016   4.741   4.873   1.888
 4039SOL    HW213017   4.741   4.992   1.777
 4040SOL     OW13018   3.564   0.208   5.946
 4040SOL    HW113019   3.561   0.113   5.977
 4040SOL    HW213020   3.479   0.230   5.898
 4041SOL     OW13021   2.294   5.555   1.327
 4041SOL    HW113022   2.383   5.547   1.371
 4041SOL    HW213023   2.275   5.473   1.273
 4042SOL     OW13024   6.347   4.895   2.922
 4042SOL    HW113025   6.351   4.949   3.006
 4042SOL    HW213026   6.431   4.842   2.912
 4043SOL     OW13027   5.253   2.376   4.044
 4043SOL    HW113028   5.317   2.337   4.109
 4043SOL    HW213029   5.195   2.304   4.005
 4044SOL     OW13030   5.099   0.456   4.294
 4044SOL    HW113031   5.040   0.463   4.214
 4044SOL    HW213032   5.085   0.536   4.353
 4045SOL     OW13033   2.906   4.703   6.126
 4045SOL    HW113034   2.942   4.609   6.125
 4045SOL    HW213035   2.812   4.703   6.094
 4046SOL     OW13036   0.892   1.355   3.800
 4046SOL    HW113037   0.802   1.391   3.773
 4046SOL    HW213038   0.913   1.275   3.744
 4047SOL     OW13039   2.242   2.724   0.980
 4047SOL    HW113040   2.309   2.721   0.906
 4047SOL    HW213041   2.182   2.803   0.967
 4048SOL     OW13042   5.478   1.511   2.166
 4048SOL    HW113043   5.577   1.501   2.179
 4048SOL    HW213044   5.435   1.530   2.254
 4049SOL     OW13045   6.342   6.050   0.061
 4049SOL    HW113046   6.372   6.084   6.993
 4049SOL    HW213047   6.287   6.120   0.107
 4050SOL     OW13048   2.256   6.382   0.766
 4050SOL    HW113049   2.276   6.480   0.755
 4050SOL    HW213050   2.289   6.351   0.855
 4051SOL     OW13051   3.540   3.256   0.275
 4051SOL    HW113052   3.550   3.158   0.294
 4051SOL    HW213053   3.484   3.269   0.194
 4052SOL     OW13054   0.161   0.588   1.809
 4052SOL    HW113055   0.232   0.603   1.740
 4052SOL    HW213056   0.186   0.510   1.867
 4053SOL     OW13057   3.170   5.251   3.819
 4053SOL    HW113058   3.165   5.168   3.764
 4053SOL    HW213059   3.111   5.242   3.899
 4054SOL     OW13060   1.107   3.042   1.630
 4054SOL    HW113061   1.132   2.975   1.560
 4054SOL    HW213062   1.148   3.130   1.608
 4055SOL     OW13063   4.012   3.472   5.774
 4055SOL    HW113064   3.944   3.458   5.846
 4055SOL    HW213065   3.966   3.499   5.690
 4056SOL     OW13066   4.251   3.136   0.116
 4056SOL    HW113067   4.151   3.138   0.125
 4056SOL    HW213068   4.276   3.068   0.047
 4057SOL     OW13069   4.989   2.370   0.889
 4057SOL    HW113070   5.025   2.344   0.979
 4057SOL    HW213071   5.004   2.468   0.875
 4058SOL     OW13072   1.324   1.139   4.672
 4058SOL    HW113073   1.364   1.226   4.644
 4058SOL    HW213074   1.229   1.135   4.644
 4059SOL     OW13075   1.578   2.643   3.173
 4059SOL    HW113076   1.668   2.625   3.133
 4059SOL    HW213077   1.508   2.598   3.119
 4060SOL     OW13078   4.411   5.497   5.442
 4060SOL    HW113079   4.419   5.489   5.542
 4060SOL    HW213080   4.449   5.584   5.413
 4061SOL     OW13081   3.391   4.956   1.766
 4061SOL    HW113082   3.438   5.001   1.690
 4061SOL    HW213083   3.458   4.921   1.831
 4062SOL     OW13084   3.148   1.182   3.070
 4062SOL    HW113085   3.174   1.208   2.977
 4062SOL    HW213086   3.230   1.164   3.124
 4063SOL     OW13087   5.119   0.205   5.299
 4063SOL    HW113088   5.156   0.190   5.391
 4063SOL    HW213089   5.095   0.117   5.258
 4064SOL     OW13090   1.605   6.479   3.578
 4064SOL    HW113091   1.619   6.544   3.503
 4064SOL    HW213092   1.509   6.449   3.578
 4065SOL     OW13093   0.817   6.784   0.388
 4065SOL    HW113094   0.817   6.884   0.380
 4065SOL    HW213095   0.879   6.756   0.460
 4066SOL     OW13096   4.897   5.189   2.924
 4066SOL    HW113097   4.987   5.230   2.941
 4066SOL    HW213098   4.893   5.157   2.830
 4067SOL     OW13099   6.222   3.530   2.375
 4067SOL    HW113100   6.241   3.609   2.433
 4067SOL    HW213101   6.285   3.456   2.397
 4068SOL     OW13102   3.540   0.376   4.502
 4068SOL    HW113103   3.620   0.354   4.557
 4068SOL    HW213104   3.464   0.315   4.527
 4069SOL     OW13105   3.834   3.934   6.463
 4069SOL    HW113106   3.871   3.994   6.392
 4069SOL    HW213107   3.829   3.841   6.428
 4070SOL     OW13108   1.166   3.479   2.972
 4070SOL    HW113109   1.102   3.403   2.987
 4070SOL    HW213110   1.181   3.491   2.874
 4071SOL     OW13111   1.419   0.564   4.911
 4071SOL    HW113112   1.504   0.557   4.963
 4071SOL    HW213113   1.404   0.478   4.862
 4072SOL     OW13114   0.500   6.173   4.348
 4072SOL    HW113115   0.572   6.233   4.312
 4072SOL    HW213116   0.534   6.124   4.427
 4073SOL     OW13117   2.339   5.300   5.825
 4073SOL    HW113118   2.274   5.307   5.749
 4073SOL    HW213119   2.431   5.320   5.792
 4074SOL     OW13120   1.133   2.393   2.313
 4074SOL    HW113121   1.218   2.357   2.351
 4074SOL    HW213122   1.102   2.335   2.239
 4075SOL     OW13123   4.471   2.233   2.420
 4075SOL    HW113124   4.533   2.312   2.417
 4075SOL    HW213125   4.523   2.153   2.450
 4076SOL     OW13126   2.288   3.201   5.954
 4076SOL    HW113127   2.341   3.126   5.914
 4076SOL    HW213128   2.226   3.239   5.885
 4077SOL     OW13129   3.194   6.575   6.881
 4077SOL    HW113130   3.249   6.577   6.797
 4077SOL    HW213131   3.111   6.629   6.867
 4078SOL     OW13132   6.866   5.486   1.738
 4078SOL    HW113133   6.822   5.524   1.820
 4078SOL    HW213134   6.796   5.465   1.670
 4079SOL     OW13135   1.064   1.650   3.344
 4079SOL    HW113136   1.108   1.559   3.341
 4079SOL    HW213137   1.040   1.678   3.252
 4080SOL     OW13138   2.860   3.361   0.999
 4080SOL    HW113139   2.780   3.333   0.947
 4080SOL    HW213140   2.931   3.291   0.991
 4081SOL     OW13141   1.360   1.755   3.875
 4081SOL    HW113142   1.366   1.665   3.832
 4081SOL    HW213143   1.415   1.821   3.824
 4082SOL     OW13144   1.354   2.066   0.812
 4082SOL    HW113145   1.364   2.046   0.909
 4082SOL    HW213146   1.439   2.106   0.777
 4083SOL     OW13147   6.042   3.886   3.223
 4083SOL    HW113148   6.092   3.970   3.201
 4083SOL    HW213149   5.968   3.873   3.157
 4084SOL     OW13150   5.037   2.629   2.861
 4084SOL    HW113151   5.079   2.720   2.856
 4084SOL    HW213152   4.964   2.630   2.929
 4085SOL     OW13153   2.652   5.566   0.706
 4085SOL    HW113154   2.633   5.569   0.608
 4085SOL    HW213155   2.748   5.541   0.720
 4086SOL     OW13156   6.892   4.972   0.833
 4086SOL    HW113157   6.839   5.020   0.763
 4086SOL    HW213158   6.961   5.034   0.870
 4087SOL     OW13159   2.464   1.025   2.849
 4087SOL    HW113160   2.434   0.933   2.874
 4087SOL    HW213161   2.473   1.031   2.750
 4088SOL     OW13162   6.723   1.552   6.022
 4088SOL    HW113163   6.741   1.453   6.026
 4088SOL    HW213164   6.652   1.570   5.954
 4089SOL     OW13165   6.360   5.269   4.691
 4089SOL    HW113166   6.378   5.255   4.788
 4089SOL    HW213167   6.344   5.366   4.672
 4090SOL     OW13168   2.169   5.396   5.615
 4090SOL    HW113169   2.092   5.334   5.626
 4090SOL    HW213170   2.136   5.483   5.578
 4091SOL     OW13171   0.705   5.992   0.054
 4091SOL    HW113172   0.670   6.086   0.045
 4091SOL    HW213173   0.631   5.927   0.041
 4092SOL     OW13174   5.919   2.534   3.877
 4092SOL    HW113175   5.866   2.577   3.804
 4092SOL    HW213176   5.901   2.581   3.963
 4093SOL     OW13177   5.507   6.784   1.058
 4093SOL    HW113178   5.513   6.802   0.959
 4093SOL    HW213179   5.587   6.732   1.087
 4094SOL     OW13180   1.274   4.950   6.485
 4094SOL    HW113181   1.200   4.922   6.546
 4094SOL    HW213182   1.252   4.922   6.391
 4095SOL     OW13183   0.634   3.568   0.369
 4095SOL    HW113184   0.563   3.504   0.396
 4095SOL    HW213185   0.592   3.654   0.338
 4096SOL     OW13186   3.478   0.959   6.151
 4096SOL    HW113187   3.554   1.004   6.104
 4096SOL    HW213188   3.507   0.870   6.184
 4097SOL     OW13189   5.340   4.898   5.550
 4097SOL    HW113190   5.311   4.814   5.504
 4097SOL    HW213191   5.359   4.880   5.646
 4098SOL     OW13192   0.957   3.265   0.916
 4098SOL    HW113193   1.034   3.321   0.885
 4098SOL    HW213194   0.914   3.309   0.995
 4099SOL     OW13195   3.322   4.950   0.892
 4099SOL    HW113196   3.252   4.887   0.858
 4099SOL    HW213197   3.378   4.982   0.815
 4100SOL     OW13198   0.950   0.058   4.069
 4100SOL    HW113199   0.963   6.995   4.122
 4100SOL    HW213200   0.891   0.121   4.120
 4101SOL     OW13201   0.805   1.176   6.796
 4101SOL    HW113202   0.726   1.171   6.857
 4101SOL    HW213203   0.889   1.170   6.849
 4102SOL     OW13204   1.913   0.394   0.794
 4102SOL    HW113205   1.997   0.439   0.764
 4102SOL    HW213206   1.835   0.429   0.742
 4103SOL     OW13207   0.208   0.043   1.973
 4103SOL    HW113208   0.306   0.043   1.951
 4103SOL    HW213209   0.172   6.971   1.964
 4104SOL     OW13210   0.322   4.995   3.530
 4104SOL    HW113211   0.294   4.905   3.564
 4104SOL    HW213212   0.275   5.013   3.443
 4105SOL     OW13213   6.214   0.567   2.461
 4105SOL    HW113214   6.284   0.499   2.484
 4105SOL    HW213215   6.129   0.520   2.438
 4106SOL     OW13216   0.797   2.870   3.478
 4106SOL    HW113217   0.809   2.796   3.544
 4106SOL    HW213218   0.873   2.934   3.485
 4107SOL     OW13219   0.724   6.240   0.652
 4107SOL    HW113220   0.767   6.216   0.739
 4107SOL    HW213221   0.625   6.248   0.665
 4108SOL     OW13222   6.187   4.629   4.839
 4108SOL    HW113223   6.180   4.621   4.740
 4108SOL    HW213224   6.101   4.661   4.876
 4109SOL     OW13225   5.777   6.776   4.833
 4109SOL    HW113226   5.825   6.864   4.840
 4109SOL    HW213227   5.823   6.719   4.764
 4110SOL     OW13228   4.090   3.095   6.134
 4110SOL    HW113229   4.171   3.145   6.164
 4110SOL    HW213230   4.114   3.035   6.058
 4111SOL     OW13231   6.187   4.863   6.404
 4111SOL    HW113232   6.157   4.951   6.368
 4111SOL    HW213233   6.211   4.802   6.329
 4112SOL     OW13234   4.669   6.529   4.036
 4112SOL    HW113235   4.635   6.548   3.944
 4112SOL    HW213236   4.729   6.449   4.033
 4113SOL     OW13237   5.261   6.205   5.023
 4113SOL    HW113238   5.165   6.230   5.024
 4113SOL    HW213239   5.296   6.211   4.929
 4114SOL     OW13240   6.035   1.637   3.269
 4114SOL    HW113241   6.046   1.646   3.170
 4114SOL    HW213242   5.943   1.665   3.295
 4115SOL     OW13243   3.005   5.115   3.124
 4115SOL    HW113244   3.098   5.150   3.135
 4115SOL    HW213245   3.007   5.030   3.072
 4116SOL     OW13246   4.270   1.895   3.406
 4116SOL    HW113247   4.200   1.884   3.477
 4116SOL    HW213248   4.352   1.844   3.432
 4117SOL     OW13249   1.020   3.217   3.031
 4117SOL    HW113250   1.034   3.161   2.950
 4117SOL    HW213251   1.005   3.157   3.110
 4118SOL     OW13252   5.351   6.844   6.982
 4118SOL    HW113253   5.368   6.817   6.887
 4118SOL    HW213254   5.427   6.899   7.016
 4119SOL     OW13255   3.199   1.398   3.435
 4119SOL    HW113256   3.279   1.450   3.406
 4119SOL    HW213257   3.117   1.454   3.422
 4120SOL     OW13258   3.157   1.408   5.981
 4120SOL    HW113259   3.117   1.357   5.904
 4120SOL    HW213260   3.229   1.354   6.022
 4121SOL     OW13261   6.581   0.189   3.867
 4121SOL    HW113262   6.519   0.173   3.943
 4121SOL    HW213263   6.565   0.120   3.795
 4122SOL     OW13264   1.701   6.368   4.806
 4122SOL    HW113265   1.760   6.336   4.879
 4122SOL    HW213266   1.753   6.375   4.721
 4123SOL     OW13267   4.195   4.790   5.181
 4123SOL    HW113268   4.102   4.816   5.207
 4123SOL    HW213269   4.209   4.810   5.084
 4124SOL     OW13270   6.663   0.148   0.565
 4124SOL    HW113271   6.625   0.202   0.490
 4124SOL    HW213272   6.602   0.072   0.586
 4125SOL     OW13273   4.216   2.215   2.992
 4125SOL    HW113274   4.169   2.130   3.011
 4125SOL    HW213275   4.248   2.216   2.898
 4126SOL     OW13276   1.806   3.528   3.180
 4126SOL    HW113277   1.769   3.518   3.272
 4126SOL    HW213278   1.739   3.576   3.123
 4127SOL     OW13279   5.472   3.354   5.142
 4127SOL    HW113280   5.399   3.298   5.182
 4127SOL    HW213281   5.517   3.302   5.069
 4128SOL     OW13282   0.590   3.600   1.565
 4128SOL    HW113283   0.595   3.573   1.468
 4128SOL    HW213284   0.580   3.699   1.571
 4129SOL     OW13285   3.073   1.049   0.093
 4129SOL    HW113286   3.144   1.105   0.049
 4129SOL    HW213287   2.986   1.063   0.047
 4130SOL     OW13288   6.067   2.216   0.313
 4130SOL    HW113289   6.019   2.233   0.227
 4130SOL    HW213290   6.044   2.125   0.347
 4131SOL     OW13291   0.346   1.600   3.127
 4131SOL    HW113292   0.307   1.619   3.217
 4131SOL    HW213293   0.414   1.670   3.104
 4132SOL     OW13294   5.167   3.846   3.689
 4132SOL    HW113295   5.238   3.847   3.619
 4132SOL    HW213296   5.161   3.754   3.728
 4133SOL     OW13297   3.681   5.908   1.430
 4133SOL    HW113298   3.608   5.839   1.428
 4133SOL    HW213299   3.768   5.862   1.444
 4134SOL     OW13300   1.666   3.983   1.056
 4134SOL    HW113301   1.762   3.971   1.082
 4134SOL    HW213302   1.655   3.969   0.958
 4135SOL     OW13303   0.434   2.676   1.648
 4135SOL    HW113304   0.512   2.637   1.698
 4135SOL    HW213305   0.455   2.679   1.551
 4136SOL     OW13306   1.383   4.161   3.280
 4136SOL    HW113307   1.459   4.211   3.321
 4136SOL    HW213308   1.373   4.072   3.324
 4137SOL     OW13309   1.665   3.436   0.770
 4137SOL    HW113310   1.755   3.420   0.731
 4137SOL    HW213311   1.675   3.478   0.860
 4138SOL     OW13312   3.517   5.323   2.748
 4138SOL    HW113313   3.544   5.346   2.655
 4138SOL    HW213314   3.552   5.392   2.811
 4139SOL     OW13315   1.606   1.257   4.711
 4139SOL    HW113316   1.528   1.195   4.723
 4139SOL    HW213317   1.606   1.325   4.784
 4140SOL     OW13318   3.479   1.195   4.701
 4140SOL    HW113319   3.478   1.259   4.625
 4140SOL    HW213320   3.467   1.245   4.787
 4141SOL     OW13321   5.326   6.945   1.208
 4141SOL    HW113322   5.366   6.863   1.166
 4141SOL    HW213323   5.340   0.003   1.148
 4142SOL     OW13324   6.783   4.316   1.112
 4142SOL    HW113325   6.831   4.375   1.048
 4142SOL    HW213326   6.789   4.221   1.082
 4143SOL     OW13327   5.987   2.862   0.636
 4143SOL    HW113328   6.061   2.928   0.628
 4143SOL    HW213329   5.904   2.908   0.670
 4144SOL     OW13330   5.079   1.715   0.114
 4144SOL    HW113331   5.153   1.759   0.163
 4144SOL    HW213332   5.071   1.619   0.143
 4145SOL     OW13333   1.020   6.402   1.119
 4145SOL    HW113334   1.064   6.447   1.041
 4145SOL    HW213335   0.922   6.390   1.099
 4146SOL     OW13336   6.568   0.264   3.308
 4146SOL    HW113337   6.470   0.243   3.303
 4146SOL    HW213338   6.582   0.346   3.363
 4147SOL     OW13339   4.337   4.769   5.948
 4147SOL    HW113340   4.425   4.728   5.972
 4147SOL    HW213341   4.339   4.797   5.852
 4148SOL     OW13342   2.521   0.097   5.174
 4148SOL    HW113343   2.595   0.074   5.237
 4148SOL    HW213344   2.546   0.068   5.081
 4149SOL     OW13345   0.426   4.492   1.388
 4149SOL    HW113346   0.456   4.428   1.317
 4149SOL    HW213347   0.350   4.452   1.439
 4150SOL     OW13348   0.504   0.526   5.486
 4150SOL    HW113349   0.602   0.526   5.466
 4150SOL    HW213350   0.457   0.463   5.424
 4151SOL     OW13351   2.995   6.157   6.127
 4151SOL    HW113352   3.055   6.236   6.117
 4151SOL    HW213353   2.901   6.187   6.143
 4152SOL     OW13354   4.084   5.887   0.963
 4152SOL    HW113355   4.107   5.976   0.925
 4152SOL    HW213356   4.165   5.829   0.963
 4153SOL     OW13357   5.894   5.449   1.910
 4153SOL    HW113358   5.807   5.434   1.957
 4153SOL    HW213359   5.877   5.496   1.823
 4154SOL     OW13360   6.746   5.633   4.441
 4154SOL    HW113361   6.804   5.554   4.422
 4154SOL    HW213362   6.737   5.689   4.359
 4155SOL     OW13363   0.363   0.753   0.960
 4155SOL    HW113364   0.269   0.774   0.932
 4155SOL    HW213365   0.406   0.697   0.890
 4156SOL     OW13366   5.857   5.263   5.528
 4156SOL    HW113367   5.953   5.239   5.514
 4156SOL    HW213368   5.838   5.270   5.626
 4157SOL     OW13369   5.288   5.956   3.767
 4157SOL    HW113370   5.230   6.029   3.731
 4157SOL    HW213371   5.270   5.944   3.865
 4158SOL     OW13372   0.322   3.233   2.420
 4158SOL    HW113373   0.269   3.292   2.480
 4158SOL    HW213374   0.314   3.138   2.450
 4159SOL     OW13375   1.609   3.121   3.081
 4159SOL    HW113376   1.618   3.108   2.983
 4159SOL    HW213377   1.683   3.180   3.114
 4160SOL     OW13378   5.527   0.033   0.011
 4160SOL    HW113379   5.577   0.083   6.962
 4160SOL    HW213380   5.558   0.062   0.102
 4161SOL     OW13381   1.432   2.002   1.075
 4161SOL    HW113382   1.516   1.950   1.090
 4161SOL    HW213383   1.445   2.096   1.106
 4162SOL     OW13384   5.885   5.976   0.799
 4162SOL    HW113385   5.958   6.038   0.829
 4162SOL    HW213386   5.892   5.961   0.701
 4163SOL     OW13387   5.577   0.903   3.605
 4163SOL    HW113388   5.647   0.847   3.561
 4163SOL    HW213389   5.491   0.853   3.608
 4164SOL     OW13390   1.282   0.046   4.710
 4164SOL    HW113391   1.225   0.009   4.637
 4164SOL    HW213392   1.346   0.113   4.672
 4165SOL     OW13393   3.981   0.796   5.261
 4165SOL    HW113394   4.076   0.783   5.231
 4165SOL    HW213395   3.931   0.710   5.250
 4166SOL     OW13396   5.144   1.287   1.069
 4166SOL    HW113397   5.096   1.223   1.129
 4166SOL    HW213398   5.177   1.239   0.988
 4167SOL     OW13399   2.863   4.019   6.489
 4167SOL    HW113400   2.856   4.054   6.582
 4167SOL    HW213401   2.957   4.030   6.457
 4168SOL     OW13402   0.253   3.907   1.075
 4168SOL    HW113403   0.181   3.964   1.114
 4168SOL    HW213404   0.322   3.964   1.032
 4169SOL     OW13405   6.166   5.120   4.583
 4169SOL    HW113406   6.085   5.099   4.638
 4169SOL    HW213407   6.235   5.164   4.641
 4170SOL     OW13408   4.800   3.204   5.569
 4170SOL    HW113409   4.810   3.120   5.516
 4170SOL    HW213410   4.826   3.283   5.513
 4171SOL     OW13411   6.154   5.559   0.713
 4171SOL    HW113412   6.152   5.652   0.750
 4171SOL    HW213413   6.153   5.564   0.613
 4172SOL     OW13414   1.776   1.674   6.730
 4172SOL    HW113415   1.751   1.577   6.729
 4172SOL    HW213416   1.696   1.729   6.755
 4173SOL     OW13417   5.265   3.901   4.688
 4173SOL    HW113418   5.300   3.994   4.672
 4173SOL    HW213419   5.196   3.903   4.760
 4174SOL     OW13420   4.807   1.474   2.523
 4174SOL    HW113421   4.891   1.458   2.574
 4174SOL    HW213422   4.735   1.415   2.558
 4175SOL     OW13423   1.964   4.783   4.054
 4175SOL    HW113424   1.917   4.862   4.015
 4175SOL    HW213425   1.908   4.701   4.040
 4176SOL     OW13426   4.088   6.520   1.534
 4176SOL    HW113427   4.054   6.561   1.450
 4176SOL    HW213428   4.036   6.556   1.612
 4177SOL     OW13429   5.651   4.879   5.515
 4177SOL    HW113430   5.668   4.974   5.489
 4177SOL    HW213431   5.731   4.824   5.493
 4178SOL     OW13432   4.081   6.627   4.320
 4178SOL    HW113433   4.107   6.532   4.340
 4178SOL    HW213434   4.151   6.689   4.355
 4179SOL     OW13435   5.352   3.730   3.006
 4179SOL    HW113436   5.315   3.642   3.034
 4179SOL    HW213437   5.278   3.797   3.001
 4180SOL     OW13438   4.416   3.196   0.637
 4180SOL    HW113439   4.318   3.188   0.656
 4180SOL    HW213440   4.451   3.280   0.677
 4181SOL     OW13441   4.010   1.051   6.702
 4181SOL    HW113442   4.104   1.077   6.722
 4181SOL    HW213443   4.002   1.025   6.606
 4182SOL     OW13444   0.321   5.734   3.373
 4182SOL    HW113445   0.408   5.753   3.328
 4182SOL    HW213446   0.270   5.667   3.319
 4183SOL     OW13447   2.350   1.683   6.893
 4183SOL    HW113448   2.421   1.718   6.832
 4183SOL    HW213449   2.260   1.713   6.861
 4184SOL     OW13450   3.041   6.381   2.523
 4184SOL    HW113451   3.042   6.312   2.596
 4184SOL    HW213452   3.017   6.470   2.562
 4185SOL     OW13453   1.003   4.392   2.790
 4185SOL    HW113454   1.057   4.342   2.859
 4185SOL    HW213455   1.063   4.420   2.715
 4186SOL     OW13456   2.722   5.142   6.460
 4186SOL    HW113457   2.630   5.113   6.430
 4186SOL    HW213458   2.775   5.062   6.487
 4187SOL     OW13459   3.716   3.479   5.730
 4187SOL    HW113460   3.711   3.564   5.782
 4187SOL    HW213461   3.664   3.488   5.645
 4188SOL     OW13462   4.958   0.837   5.072
 4188SOL    HW113463   5.024   0.912   5.069
 4188SOL    HW213464   4.948   0.797   4.981
 4189SOL     OW13465   2.786   4.974   4.524
 4189SOL    HW113466   2.836   4.993   4.609
 4189SOL    HW213467   2.768   4.876   4.518
 4190SOL     OW13468   0.792   0.854   0.980
 4190SOL    HW113469   0.763   0.849   0.885
 4190SOL    HW213470   0.712   0.859   1.039
 4191SOL     OW13471   4.709   4.643   3.834
 4191SOL    HW113472   4.670   4.586   3.761
 4191SOL    HW213473   4.787   4.595   3.876
 4192SOL     OW13474   0.893   1.688   3.537
 4192SOL    HW113475   0.958   1.671   3.463
 4192SOL    HW213476   0.861   1.783   3.532
 4193SOL     OW13477   6.828   0.585   0.671
 4193SOL    HW113478   6.898   0.559   0.605
 4193SOL    HW213479   6.856   0.556   0.762
 4194SOL     OW13480   5.030   0.005   5.011
 4194SOL    HW113481   5.003   0.096   4.980
 4194SOL    HW213482   4.975   6.957   4.963
 4195SOL     OW13483   3.989   6.177   1.270
 4195SOL    HW113484   4.053   6.116   1.316
 4195SOL    HW213485   4.025   6.270   1.271
 4196SOL     OW13486   6.220   2.717   2.788
 4196SOL    HW113487   6.153   2.656   2.746
 4196SOL    HW213488   6.304   2.667   2.808
 4197SOL     OW13489   4.987   5.545   6.037
 4197SOL    HW113490   5.009   5.479   5.966
 4197SOL    HW213491   5.068   5.560   6.095
 4198SOL     OW13492   6.281   2.098   0.520
 4198SOL    HW113493   6.214   2.153   0.470
 4198SOL    HW213494   6.260   2.098   0.617
 4199SOL     OW13495   1.900   2.074   6.123
 4199SOL    HW113496   1.906   2.041   6.029
 4199SOL    HW213497   1.930   2.169   6.127
 4200SOL     OW13498   3.163   0.494   6.258
 4200SOL    HW113499   3.096   0.471   6.187
 4200SOL    HW213500   3.254   0.461   6.230
 4201SOL     OW13501   6.127   6.484   3.652
 4201SOL    HW113502   6.222   6.511   3.640
 4201SOL    HW213503   6.067   6.564   3.638
 4202SOL     OW13504   3.712   5.467   5.821
 4202SOL    HW113505   3.647   5.485   5.748
 4202SOL    HW213506   3.701   5.536   5.893
 4203SOL     OW13507   3.692   4.214   6.701
 4203SOL    HW113508   3.767   4.256   6.650
 4203SOL    HW213509   3.668   4.271   6.779
 4204SOL     OW13510   4.034   3.662   3.596
 4204SOL    HW113511   3.998   3.577   3.559
 4204SOL    HW213512   4.048   3.727   3.521
 4205SOL     OW13513   4.238   6.314   3.490
 4205SOL    HW113514   4.317   6.350   3.539
 4205SOL    HW213515   4.184   6.390   3.454
 4206SOL     OW13516   6.559   0.688   5.544
 4206SOL    HW113517   6.495   0.741   5.487
 4206SOL    HW213518   6.652   0.720   5.529
 4207SOL     OW13519   1.740   1.725   1.807
 4207SOL    HW113520   1.650   1.704   1.845
 4207SOL    HW213521   1.733   1.736   1.708
 4208SOL     OW13522   6.993   3.770   5.404
 4208SOL    HW113523   6.900   3.782   5.369
 4208SOL    HW213524   6.991   3.770   5.504
 4209SOL     OW13525   6.967   0.267   3.657
 4209SOL    HW113526   6.965   0.172   3.687
 4209SOL    HW213527   6.878   0.309   3.672
 4210SOL     OW13528   4.200   3.259   2.014
 4210SOL    HW113529   4.137   3.284   2.087
 4210SOL    HW213530   4.262   3.187   2.046
 4211SOL     OW13531   4.157   6.801   6.465
 4211SOL    HW113532   4.183   6.763   6.553
 4211SOL    HW213533   4.127   6.727   6.404
 4212SOL     OW13534   6.326   1.559   2.740
 4212SOL    HW113535   6.399   1.597   2.797
 4212SOL    HW213536   6.346   1.576   2.643
 4213SOL     OW13537   2.081   0.453   1.711
 4213SOL    HW113538   2.138   0.375   1.686
 4213SOL    HW213539   2.060   0.506   1.628
 4214SOL     OW13540   1.186   5.146   5.113
 4214SOL    HW113541   1.145   5.132   5.203
 4214SOL    HW213542   1.229   5.236   5.109
 4215SOL     OW13543   4.697   0.224   5.845
 4215SOL    HW113544   4.726   0.313   5.811
 4215SOL    HW213545   4.620   0.190   5.791
 4216SOL     OW13546   1.575   1.136   2.822
 4216SOL    HW113547   1.660   1.189   2.834
 4216SOL    HW213548   1.579   1.053   2.878
 4217SOL     OW13549   1.372   0.896   2.306
 4217SOL    HW113550   1.296   0.867   2.248
 4217SOL    HW213551   1.396   0.823   2.369
 4218SOL     OW13552   3.995   1.081   2.008
 4218SOL    HW113553   3.897   1.099   1.994
 4218SOL    HW213554   4.021   1.108   2.101
 4219SOL     OW13555   3.803   6.108   3.651
 4219SOL    HW113556   3.802   6.075   3.745
 4219SOL    HW213557   3.768   6.037   3.590
 4220SOL     OW13558   6.330   3.712   3.364
 4220SOL    HW113559   6.312   3.707   3.462
 4220SOL    HW213560   6.252   3.674   3.314
 4221SOL     OW13561   6.109   5.095   6.266
 4221SOL    HW113562   6.056   5.042   6.200
 4221SOL    HW213563   6.177   5.150   6.217
 4222SOL     OW13564   0.053   2.148   2.241
 4222SOL    HW113565   0.098   2.077   2.187
 4222SOL    HW213566   0.007   2.107   2.320
 4223SOL     OW13567   3.534   3.221   6.806
 4223SOL    HW113568   3.554   3.305   6.856
 4223SOL    HW213569   3.555   3.142   6.863
 4224SOL     OW13570   4.600   4.428   4.040
 4224SOL    HW113571   4.623   4.376   4.122
 4224SOL    HW213572   4.626   4.376   3.959
 4225SOL     OW13573   3.012   1.977   5.633
 4225SOL    HW113574   3.053   1.888   5.617
 4225SOL    HW213575   2.918   1.965   5.667
 4226SOL     OW13576   1.610   0.560   2.180
 4226SOL    HW113577   1.538   0.617   2.220
 4226SOL    HW213578   1.587   0.538   2.086
 4227SOL     OW13579   4.076   4.914   1.411
 4227SOL    HW113580   4.169   4.942   1.390
 4227SOL    HW213581   4.074   4.816   1.430
 4228SOL     OW13582   1.143   4.910   5.018
 4228SOL    HW113583   1.168   5.003   5.045
 4228SOL    HW213584   1.102   4.862   5.096
 4229SOL     OW13585   5.166   6.406   5.921
 4229SOL    HW113586   5.163   6.378   5.825
 4229SOL    HW213587   5.082   6.376   5.967
 4230SOL     OW13588   0.914   6.216   2.336
 4230SOL    HW113589   0.913   6.187   2.432
 4230SOL    HW213590   0.827   6.192   2.293
 4231SOL     OW13591   5.660   0.256   5.474
 4231SOL    HW113592   5.615   0.240   5.562
 4231SOL    HW213593   5.746   0.305   5.489
 4232SOL     OW13594   6.988   4.791   3.033
 4232SOL    HW113595   6.912   4.810   3.095
 4232SOL    HW213596   6.992   4.861   2.962
 4233SOL     OW13597   0.135   0.128   5.807
 4233SOL    HW113598   0.119   0.132   5.708
 4233SOL    HW213599   0.065   0.071   5.850
 4234SOL     OW13600   2.350   6.415   4.523
 4234SOL    HW113601   2.251   6.405   4.507
 4234SOL    HW213602   2.382   6.337   4.577
 4235SOL     OW13603   5.411   3.794   5.782
 4235SOL    HW113604   5.462   3.727   5.728
 4235SOL    HW213605   5.469   3.828   5.856
 4236SOL     OW13606   6.606   3.734   2.481
 4236SOL    HW113607   6.620   3.636   2.466
 4236SOL    HW213608   6.695   3.778   2.500
 4237SOL     OW13609   5.390   6.270   2.798
 4237SOL    HW113610   5.393   6.182   2.750
 4237SOL    HW213611   5.435   6.261   2.887
 4238SOL     OW13612   2.748   6.128   2.696
 4238SOL    HW113613   2.716   6.038   2.726
 4238SOL    HW213614   2.751   6.131   2.596
 4239SOL     OW13615   6.321   2.199   2.585
 4239SOL    HW113616   6.226   2.219   2.563
 4239SOL    HW213617   6.326   2.158   2.676
 4240SOL     OW13618   2.369   5.927   0.231
 4240SOL    HW113619   2.392   5.956   0.324
 4240SOL    HW213620   2.386   5.829   0.222
 4241SOL     OW13621   6.186   0.880   0.330
 4241SOL    HW113622   6.201   0.966   0.282
 4241SOL    HW213623   6.121   0.824   0.278
 4242SOL     OW13624   3.104   1.640   4.034
 4242SOL    HW113625   3.069   1.732   4.017
 4242SOL    HW213626   3.148   1.605   3.951
 4243SOL     OW13627   6.620   2.744   3.261
 4243SOL    HW113628   6.702   2.723   3.314
 4243SOL    HW213629   6.617   2.842   3.241
 4244SOL     OW13630   4.379   4.153   1.453
 4244SOL    HW113631   4.339   4.061   1.454
 4244SOL    HW213632   4.329   4.211   1.518
 4245SOL     OW13633   6.991   1.377   6.620
 4245SOL    HW113634   6.956   1.391   6.528
 4245SOL    HW213635   0.070   1.377   6.618
 4246SOL     OW13636   6.817   4.350   3.679
 4246SOL    HW113637   6.798   4.354   3.581
 4246SOL    HW213638   6.916   4.352   3.694
 4247SOL     OW13639   3.175   5.540   3.400
 4247SOL    HW113640   3.096   5.523   3.340
 4247SOL    HW213641   3.230   5.458   3.407
 4248SOL     OW13642   3.170   1.823   2.889
 4248SOL    HW113643   3.213   1.911   2.867
 4248SOL    HW213644   3.163   1.768   2.806
 4249SOL     OW13645   5.442   2.341   3.214
 4249SOL    HW113646   5.416   2.273   3.145
 4249SOL    HW213647   5.511   2.302   3.275
 4250SOL     OW13648   6.136   4.454   3.048
 4250SOL    HW113649   6.197   4.375   3.047
 4250SOL    HW213650   6.125   4.487   3.142
 4251SOL     OW13651   5.386   4.551   1.830
 4251SOL    HW113652   5.320   4.502   1.888
 4251SOL    HW213653   5.454   4.486   1.795
 4252SOL     OW13654   5.274   6.611   6.468
 4252SOL    HW113655   5.329   6.530   6.488
 4252SOL    HW213656   5.309   6.689   6.519
 4253SOL     OW13657   3.481   6.902   1.205
 4253SOL    HW113658   3.505   6.920   1.109
 4253SOL    HW213659   3.523   6.816   1.234
 4254SOL     OW13660   0.842   3.362   1.817
 4254SOL    HW113661   0.742   3.369   1.824
 4254SOL    HW213662   0.875   3.289   1.877
 4255SOL     OW13663   0.116   3.971   3.900
 4255SOL    HW113664   0.199   3.979   3.955
 4255SOL    HW213665   0.090   4.061   3.865
 4256SOL     OW13666   1.899   6.491   0.456
 4256SOL    HW113667   1.867   6.419   0.395
 4256SOL    HW213668   1.939   6.451   0.538
 4257SOL     OW13669   2.635   0.678   4.235
 4257SOL    HW113670   2.651   0.605   4.168
 4257SOL    HW213671   2.696   0.664   4.314
 4258SOL     OW13672   4.870   6.223   1.054
 4258SOL    HW113673   4.942   6.154   1.045
 4258SOL    HW213674   4.892   6.285   1.129
 4259SOL     OW13675   2.608   0.699   0.969
 4259SOL    HW113676   2.603   0.685   0.870
 4259SOL    HW213677   2.627   0.795   0.988
 4260SOL     OW13678   5.432   0.225   1.328
 4260SOL    HW113679   5.393   0.219   1.236
 4260SOL    HW213680   5.493   0.148   1.344
 4261SOL     OW13681   1.606   0.083   2.793
 4261SOL    HW113682   1.556   0.112   2.711
 4261SOL    HW213683   1.684   0.027   2.766
 4262SOL     OW13684   0.528   4.873   6.147
 4262SOL    HW113685   0.550   4.969   6.162
 4262SOL    HW213686   0.432   4.857   6.170
 4263SOL     OW13687   3.213   6.369   3.037
 4263SOL    HW113688   3.240   6.379   3.133
 4263SOL    HW213689   3.173   6.454   3.004
 4264SOL     OW13690   0.196   2.417   3.095
 4264SOL    HW113691   0.133   2.351   3.135
 4264SOL    HW213692   0.272   2.369   3.051
 4265SOL     OW13693   4.704   1.567   1.417
 4265SOL    HW113694   4.696   1.576   1.516
 4265SOL    HW213695   4.666   1.479   1.388
 4266SOL     OW13696   1.698   5.481   0.452
 4266SOL    HW113697   1.667   5.386   0.460
 4266SOL    HW213698   1.748   5.492   0.366
 4267SOL     OW13699   1.828   2.756   4.155
 4267SOL    HW113700   1.733   2.786   4.147
 4267SOL    HW213701   1.860   2.770   4.248
 4268SOL     OW13702   1.555   6.175   0.147
 4268SOL    HW113703   1.492   6.243   0.109
 4268SOL    HW213704   1.505   6.091   0.167
 4269SOL     OW13705   2.941   0.441   2.143
 4269SOL    HW113706   2.930   0.465   2.239
 4269SOL    HW213707   2.885   0.360   2.122
 4270SOL     OW13708   4.091   3.558   3.277
 4270SOL    HW113709   4.184   3.593   3.274
 4270SOL    HW213710   4.086   3.479   3.339
 4271SOL     OW13711   6.242   1.236   6.862
 4271SOL    HW113712   6.211   1.200   6.774
 4271SOL    HW213713   6.260   1.334   6.853
 4272SOL     OW13714   6.558   2.512   4.461
 4272SOL    HW113715   6.638   2.570   4.476
 4272SOL    HW213716   6.485   2.540   4.524
 4273SOL     OW13717   4.667   6.440   4.504
 4273SOL    HW113718   4.625   6.358   4.544
 4273SOL    HW213719   4.681   6.507   4.576
 4274SOL     OW13720   0.704   6.177   1.595
 4274SOL    HW113721   0.796   6.139   1.604
 4274SOL    HW213722   0.657   6.173   1.683
 4275SOL     OW13723   6.970   1.539   4.590
 4275SOL    HW113724   6.888   1.515   4.642
 4275SOL    HW213725   7.010   1.457   4.551
 4276SOL     OW13726   1.471   4.767   3.451
 4276SOL    HW113727   1.548   4.782   3.389
 4276SOL    HW213728   1.505   4.754   3.544
 4277SOL     OW13729   6.284   4.725   3.899
 4277SOL    HW113730   6.215   4.675   3.846
 4277SOL    HW213731   6.354   4.759   3.837
 4278SOL     OW13732   6.910   0.006   4.322
 4278SOL    HW113733   6.954   0.020   4.411
 4278SOL    HW213734   6.973   0.031   4.249
 4279SOL     OW13735   2.950   0.457   3.811
 4279SOL    HW113736   2.936   0.393   3.735
 4279SOL    HW213737   2.920   0.548   3.784
 4280SOL     OW13738   4.415   0.534   5.586
 4280SOL    HW113739   4.371   0.593   5.518
 4280SOL    HW213740   4.479   0.472   5.540
 4281SOL     OW13741   0.503   4.585   3.791
 4281SOL    HW113742   0.508   4.563   3.693
 4281SOL    HW213743   0.537   4.509   3.845
 4282SOL     OW13744   3.133   4.257   5.835
 4282SOL    HW113745   3.104   4.162   5.851
 4282SOL    HW213746   3.088   4.292   5.753
 4283SOL     OW13747   1.249   1.092   3.149
 4283SOL    HW113748   1.272   1.130   3.059
 4283SOL    HW213749   1.231   1.167   3.213
 4284SOL     OW13750   3.998   4.642   1.464
 4284SOL    HW113751   3.914   4.628   1.412
 4284SOL    HW213752   3.975   4.670   1.558
 4285SOL     OW13753   1.110   0.516   5.834
 4285SOL    HW113754   1.173   0.589   5.861
 4285SOL    HW213755   1.017   0.543   5.855
 4286SOL     OW13756   4.801   6.897   6.084
 4286SOL    HW113757   4.803   6.798   6.070
 4286SOL    HW213758   4.843   6.919   6.172
 4287SOL     OW13759   5.806   2.277   6.521
 4287SOL    HW113760   5.706   2.285   6.521
 4287SOL    HW213761   5.840   2.285   6.615
 4288SOL     OW13762   6.850   5.719   3.825
 4288SOL    HW113763   6.810   5.638   3.868
 4288SOL    HW213764   6.862   5.704   3.727
 4289SOL     OW13765   6.693   2.835   6.970
 4289SOL    HW113766   6.661   2.751   7.012
 4289SOL    HW213767   6.789   2.824   6.942
 4290SOL     OW13768   1.194   6.421   2.813
 4290SOL    HW113769   1.148   6.473   2.740
 4290SOL    HW213770   1.233   6.485   2.879
 4291SOL     OW13771   4.430   3.407   1.051
 4291SOL    HW113772   4.345   3.404   0.999
 4291SOL    HW213773   4.496   3.345   1.010
 4292SOL     OW13774   5.638   3.238   0.398
 4292SOL    HW113775   5.660   3.152   0.352
 4292SOL    HW213776   5.722   3.279   0.433
 4293SOL     OW13777   2.468   3.814   0.409
 4293SOL    HW113778   2.392   3.857   0.458
 4293SOL    HW213779   2.454   3.715   0.406
 4294SOL     OW13780   1.950   2.550   6.783
 4294SOL    HW113781   1.928   2.645   6.761
 4294SOL    HW213782   1.900   2.521   6.864
 4295SOL     OW13783   4.482   5.991   4.712
 4295SOL    HW113784   4.550   5.973   4.784
 4295SOL    HW213785   4.407   5.926   4.721
 4296SOL     OW13786   3.251   0.010   0.581
 4296SOL    HW113787   3.299   6.951   0.619
 4296SOL    HW213788   3.283   0.027   0.488
 4297SOL     OW13789   4.818   0.534   6.797
 4297SOL    HW113790   4.753   0.477   6.746
 4297SOL    HW213791   4.837   0.492   6.885
 4298SOL     OW13792   3.944   4.975   0.078
 4298SOL    HW113793   4.002   4.896   0.100
 4298SOL    HW213794   4.000   5.058   0.080
 4299SOL     OW13795   0.768   2.925   6.672
 4299SOL    HW113796   0.835   2.863   6.632
 4299SOL    HW213797   0.754   3.003   6.611
 4300SOL     OW13798   3.613   6.794   0.449
 4300SOL    HW113799   3.706   6.779   0.482
 4300SOL    HW213800   3.615   6.818   0.352
 4301SOL     OW13801   4.077   1.709   1.501
 4301SOL    HW113802   4.055   1.765   1.580
 4301SOL    HW213803   4.019   1.736   1.424
 4302SOL     OW13804   1.220   6.671   6.517
 4302SOL    HW113805   1.258   6.592   6.565
 4302SOL    HW213806   1.147   6.711   6.573
 4303SOL     OW13807   0.393   4.547   4.112
 4303SOL    HW113808   0.302   4.516   4.141
 4303SOL    HW213809   0.404   4.644   4.134
 4304SOL     OW13810   3.038   3.904   3.136
 4304SOL    HW113811   3.093   3.943   3.210
 4304SOL    HW213812   3.075   3.932   3.048
 4305SOL     OW13813   6.784   7.001   5.156
 4305SOL    HW113814   6.790   6.903   5.178
 4305SOL    HW213815   6.831   0.033   5.226
 4306SOL     OW13816   5.592   3.898   5.937
 4306SOL    HW113817   5.674   3.868   5.888
 4306SOL    HW213818   5.592   3.998   5.943
 4307SOL     OW13819   4.557   4.202   5.651
 4307SOL    HW113820   4.644   4.178   5.693
 4307SOL    HW213821   4.523   4.125   5.597
 4308SOL     OW13822   6.257   4.845   0.418
 4308SOL    HW113823   6.272   4.891   0.506
 4308SOL    HW213824   6.166   4.866   0.384
 4309SOL     OW13825   1.322   1.200   0.459
 4309SOL    HW113826   1.392   1.155   0.404
 4309SOL    HW213827   1.354   1.206   0.554
 4310SOL     OW13828   1.440   2.675   2.225
 4310SOL    HW113829   1.359   2.711   2.180
 4310SOL    HW213830   1.519   2.733   2.205
 4311SOL     OW13831   1.888   5.830   2.903
 4311SOL    HW113832   1.942   5.902   2.946
 4311SOL    HW213833   1.814   5.802   2.964
 4312SOL     OW13834   1.884   5.090   1.208
 4312SOL    HW113835   1.825   5.171   1.205
 4312SOL    HW213836   1.827   5.008   1.218
 4313SOL     OW13837   4.689   1.611   1.684
 4313SOL    HW113838   4.724   1.596   1.777
 4313SOL    HW213839   4.650   1.703   1.678
 4314SOL     OW13840   6.165   1.521   4.181
 4314SOL    HW113841   6.072   1.499   4.212
 4314SOL    HW213842   6.209   1.580   4.249
 4315SOL     OW13843   2.410   6.554   2.592
 4315SOL    HW113844   2.479   6.484   2.612
 4315SOL    HW213845   2.385   6.550   2.495
 4316SOL     OW13846   5.430   0.520   2.188
 4316SOL    HW113847   5.447   0.453   2.115
 4316SOL    HW213848   5.358   0.584   2.158
 4317SOL     OW13849   4.763   2.430   4.248
 4317SOL    HW113850   4.667   2.436   4.275
 4317SOL    HW213851   4.802   2.345   4.284
 4318SOL     OW13852   1.020   3.672   4.918
 4318SOL    HW113853   1.024   3.574   4.939
 4318SOL    HW213854   1.081   3.721   4.980
 4319SOL     OW13855   1.935   2.172   1.058
 4319SOL    HW113856   1.982   2.115   1.127
 4319SOL    HW213857   1.971   2.265   1.062
 4320SOL     OW13858   5.615   5.527   0.705
 4320SOL    HW113859   5.635   5.431   0.685
 4320SOL    HW213860   5.525   5.550   0.669
 4321SOL     OW13861   6.825   6.752   4.950
 4321SOL    HW113862   6.739   6.765   5.000
 4321SOL    HW213863   6.819   6.668   4.896
 4322SOL     OW13864   6.237   2.400   6.346
 4322SOL    HW113865   6.298   2.474   6.372
 4322SOL    HW213866   6.153   2.405   6.401
 4323SOL     OW13867   4.595   3.912   1.290
 4323SOL    HW113868   4.643   3.968   1.358
 4323SOL    HW213869   4.575   3.822   1.328
 4324SOL     OW13870   5.421   4.577   6.814
 4324SOL    HW113871   5.390   4.670   6.795
 4324SOL    HW213872   5.438   4.566   6.912
 4325SOL     OW13873   2.544   0.820   1.454
 4325SOL    HW113874   2.464   0.786   1.406
 4325SOL    HW213875   2.564   0.760   1.531
 4326SOL     OW13876   4.894   4.679   4.383
 4326SOL    HW113877   4.837   4.674   4.301
 4326SOL    HW213878   4.875   4.764   4.432
 4327SOL     OW13879   5.914   6.165   1.767
 4327SOL    HW113880   5.917   6.263   1.747
 4327SOL    HW213881   5.864   6.118   1.694
 4328SOL     OW13882   4.568   3.958   5.500
 4328SOL    HW113883   4.493   3.892   5.489
 4328SOL    HW213884   4.648   3.925   5.451
 4329SOL     OW13885   4.538   1.391   6.050
 4329SOL    HW113886   4.610   1.460   6.045
 4329SOL    HW213887   4.543   1.332   5.969
 4330SOL     OW13888   2.688   6.579   4.464
 4330SOL    HW113889   2.599   6.589   4.418
 4330SOL    HW213890   2.716   6.668   4.501
 4331SOL     OW13891   5.734   1.479   1.795
 4331SOL    HW113892   5.770   1.571   1.808
 4331SOL    HW213893   5.670   1.458   1.869
 4332SOL     OW13894   5.548   3.748   2.165
 4332SOL    HW113895   5.577   3.656   2.191
 4332SOL    HW213896   5.497   3.744   2.079
 4333SOL     OW13897   3.470   0.660   4.776
 4333SOL    HW113898   3.411   0.699   4.846
 4333SOL    HW213899   3.442   0.566   4.758
 4334SOL     OW13900   1.777   2.286   2.317
 4334SOL    HW113901   1.794   2.223   2.241
 4334SOL    HW213902   1.683   2.322   2.311
 4335SOL     OW13903   3.326   3.200   2.445
 4335SOL    HW113904   3.280   3.122   2.487
 4335SOL    HW213905   3.263   3.248   2.384
 4336SOL     OW13906   2.942   6.576   6.661
 4336SOL    HW113907   2.992   6.491   6.643
 4336SOL    HW213908   2.998   6.654   6.633
 4337SOL     OW13909   0.364   4.545   1.041
 4337SOL    HW113910   0.439   4.500   1.090
 4337SOL    HW213911   0.293   4.478   1.021
 4338SOL     OW13912   5.381   6.472   5.181
 4338SOL    HW113913   5.413   6.403   5.245
 4338SOL    HW213914   5.399   6.563   5.219
 4339SOL     OW13915   5.674   3.707   5.377
 4339SOL    HW113916   5.773   3.723   5.371
 4339SOL    HW213917   5.637   3.695   5.285
 4340SOL     OW13918   6.678   2.723   1.390
 4340SOL    HW113919   6.730   2.693   1.470
 4340SOL    HW213920   6.580   2.716   1.409
 4341SOL     OW13921   0.245   6.109   2.322
 4341SOL    HW113922   0.192   6.162   2.389
 4341SOL    HW213923   0.338   6.096   2.357
 4342SOL     OW13924   5.783   3.903   3.599
 4342SOL    HW113925   5.871   3.885   3.554
 4342SOL    HW213926   5.770   3.837   3.673
 4343SOL     OW13927   2.653   5.915   5.240
 4343SOL    HW113928   2.639   5.816   5.237
 4343SOL    HW213929   2.714   5.942   5.165
 4344SOL     OW13930   0.524   4.886   2.074
 4344SOL    HW113931   0.494   4.907   1.981
 4344SOL    HW213932   0.444   4.884   2.135
 4345SOL     OW13933   3.190   3.748   4.916
 4345SOL    HW113934   3.200   3.685   4.993
 4345SOL    HW213935   3.280   3.783   4.890
 4346SOL     OW13936   1.612   3.116   2.244
 4346SOL    HW113937   1.533   3.064   2.211
 4346SOL    HW213938   1.688   3.107   2.179
 4347SOL     OW13939   6.881   6.599   3.281
 4347SOL    HW113940   6.815   6.672   3.269
 4347SOL    HW213941   6.857   6.543   3.360
 4348SOL     OW13942   0.291   4.353   3.517
 4348SOL    HW113943   0.198   4.378   3.491
 4348SOL    HW213944   0.321   4.275   3.463
 4349SOL     OW13945   6.828   1.774   2.586
 4349SOL    HW113946   6.828   1.861   2.635
 4349SOL    HW213947   6.811   1.700   2.650
 4350SOL     OW13948   3.893   1.628   4.318
 4350SOL    HW113949   3.891   1.696   4.391
 4350SOL    HW213950   3.979   1.637   4.266
 4351SOL     OW13951   1.554   4.933   0.376
 4351SOL    HW113952   1.584   4.957   0.469
 4351SOL    HW213953   1.634   4.918   0.318
 4352SOL     OW13954   6.852   3.831   2.076
 4352SOL    HW113955   6.911   3.751   2.065
 4352SOL    HW213956   6.821   3.862   1.986
 4353SOL     OW13957   3.946   3.123   6.768
 4353SOL    HW113958   3.990   3.093   6.683
 4353SOL    HW213959   3.935   3.222   6.766
 4354SOL     OW13960   2.429   6.854   5.326
 4354SOL    HW113961   2.455   6.808   5.411
 4354SOL    HW213962   2.401   6.948   5.347
 4355SOL     OW13963   2.093   0.367   2.853
 4355SOL    HW113964   2.140   0.390   2.768
 4355SOL    HW213965   2.073   0.269   2.854
 4356SOL     OW13966   5.004   3.785   1.249
 4356SOL    HW113967   4.934   3.757   1.316
 4356SOL    HW213968   4.987   3.880   1.222
 4357SOL     OW13969   0.067   0.972   1.335
 4357SOL    HW113970   0.083   0.893   1.394
 4357SOL    HW213971   0.154   1.003   1.296
 4358SOL     OW13972   0.124   6.769   0.149
 4358SOL    HW113973   0.222   6.782   0.130
 4358SOL    HW213974   0.071   6.808   0.074
 4359SOL     OW13975   1.922   1.363   6.358
 4359SOL    HW113976   1.993   1.432   6.372
 4359SOL    HW213977   1.915   1.305   6.440
 4360SOL     OW13978   1.546   2.864   2.930
 4360SOL    HW113979   1.514   2.808   3.007
 4360SOL    HW213980   1.645   2.874   2.934
 4361SOL     OW13981   2.324   3.247   1.420
 4361SOL    HW113982   2.299   3.320   1.483
 4361SOL    HW213983   2.260   3.244   1.344
 4362SOL     OW13984   5.811   5.895   3.319
 4362SOL    HW113985   5.831   5.920   3.413
 4362SOL    HW213986   5.759   5.810   3.317
 4363SOL     OW13987   5.328   2.477   1.385
 4363SOL    HW113988   5.345   2.387   1.427
 4363SOL    HW213989   5.237   2.509   1.412
 4364SOL     OW13990   3.184   3.396   4.618
 4364SOL    HW113991   3.179   3.330   4.693
 4364SOL    HW213992   3.152   3.353   4.534
 4365SOL     OW13993   2.109   1.110   2.148
 4365SOL    HW113994   2.104   1.024   2.198
 4365SOL    HW213995   2.197   1.116   2.100
 4366SOL     OW13996   5.884   0.126   0.091
 4366SOL    HW113997   5.905   0.224   0.100
 4366SOL    HW213998   5.800   0.105   0.141
 4367SOL     OW13999   1.895   4.007   4.225
 4367SOL    HW114000   1.897   3.950   4.307
 4367SOL    HW214001   1.930   4.098   4.247
 4368SOL     OW14002   3.807   4.087   0.804
 4368SOL    HW114003   3.876   4.033   0.757
 4368SOL    HW214004   3.751   4.135   0.736
 4369SOL     OW14005   4.540   4.987   2.989
 4369SOL    HW114006   4.553   5.005   2.892
 4369SOL    HW214007   4.540   5.074   3.039
 4370SOL     OW14008   4.185   5.350   1.908
 4370SOL    HW114009   4.125   5.407   1.852
 4370SOL    HW214010   4.240   5.291   1.849
 4371SOL     OW14011   0.954   1.978   1.732
 4371SOL    HW114012   1.047   1.984   1.768
 4371SOL    HW214013   0.916   1.888   1.752
 4372SOL     OW14014   3.375   1.299   2.650
 4372SOL    HW114015   3.288   1.334   2.684
 4372SOL    HW214016   3.450   1.355   2.686
 4373SOL     OW14017   6.154   2.372   6.813
 4373SOL    HW114018   6.229   2.307   6.809
 4373SOL    HW214019   6.190   2.466   6.813
 4374SOL     OW14020   1.044   2.168   0.903
 4374SOL    HW114021   0.977   2.199   0.836
 4374SOL    HW214022   1.080   2.079   0.876
 4375SOL     OW14023   4.312   0.348   3.461
 4375SOL    HW114024   4.216   0.325   3.444
 4375SOL    HW214025   4.323   0.448   3.457
 4376SOL     OW14026   0.386   6.787   1.367
 4376SOL    HW114027   0.316   6.729   1.324
 4376SOL    HW214028   0.461   6.729   1.400
 4377SOL     OW14029   5.592   4.308   0.383
 4377SOL    HW114030   5.514   4.265   0.337
 4377SOL    HW214031   5.559   4.380   0.445
 4378SOL     OW14032   2.131   2.683   2.720
 4378SOL    HW114033   2.208   2.691   2.656
 4378SOL    HW214034   2.148   2.607   2.783
 4379SOL     OW14035   1.913   1.754   2.871
 4379SOL    HW114036   1.822   1.732   2.837
 4379SOL    HW214037   1.945   1.680   2.930
 4380SOL     OW14038   0.887   6.959   2.597
 4380SOL    HW114039   0.945   6.881   2.574
 4380SOL    HW214040   0.811   6.929   2.654
 4381SOL     OW14041   1.635   4.969   5.599
 4381SOL    HW114042   1.680   4.932   5.518
 4381SOL    HW214043   1.689   4.946   5.680
 4382SOL     OW14044   6.472   3.391   5.206
 4382SOL    HW114045   6.373   3.402   5.198
 4382SOL    HW214046   6.496   3.368   5.301
 4383SOL     OW14047   0.376   3.158   5.993
 4383SOL    HW114048   0.366   3.073   6.044
 4383SOL    HW214049   0.351   3.235   6.052
 4384SOL     OW14050   5.596   1.283   4.894
 4384SOL    HW114051   5.666   1.225   4.853
 4384SOL    HW214052   5.620   1.379   4.881
 4385SOL     OW14053   5.950   2.823   4.638
 4385SOL    HW114054   5.954   2.767   4.555
 4385SOL    HW214055   6.001   2.777   4.711
 4386SOL     OW14056   1.926   3.096   6.348
 4386SOL    HW114057   1.892   3.063   6.436
 4386SOL    HW214058   2.018   3.060   6.333
 4387SOL     OW14059   6.883   1.409   1.006
 4387SOL    HW114060   6.786   1.427   0.988
 4387SOL    HW214061   6.912   1.459   1.087
 4388SOL     OW14062   4.941   2.496   6.600
 4388SOL    HW114063   4.859   2.542   6.565
 4388SOL    HW214064   4.925   2.468   6.695
 4389SOL     OW14065   6.633   3.286   0.602
 4389SOL    HW114066   6.653   3.189   0.596
 4389SOL    HW214067   6.614   3.311   0.696
 4390SOL     OW14068   3.732   0.612   1.709
 4390SOL    HW114069   3.762   0.702   1.742
 4390SOL    HW214070   3.696   0.621   1.616
 4391SOL     OW14071   2.679   5.382   6.974
 4391SOL    HW114072   2.644   5.408   0.044
 4391SOL    HW214073   2.767   5.336   6.985
 4392SOL     OW14074   6.662   3.111   4.501
 4392SOL    HW114075   6.628   3.141   4.411
 4392SOL    HW214076   6.701   3.189   4.549
 4393SOL     OW14077   5.741   0.661   2.744
 4393SOL    HW114078   5.777   0.637   2.834
 4393SOL    HW214079   5.809   0.715   2.695
 4394SOL     OW14080   6.576   5.791   2.436
 4394SOL    HW114081   6.626   5.846   2.368
 4394SOL    HW214082   6.478   5.796   2.417
 4395SOL     OW14083   2.117   6.406   2.426
 4395SOL    HW114084   2.209   6.444   2.419
 4395SOL    HW214085   2.057   6.471   2.473
 4396SOL     OW14086   2.359   2.186   3.726
 4396SOL    HW114087   2.288   2.161   3.660
 4396SOL    HW214088   2.446   2.198   3.678
 4397SOL     OW14089   0.496   1.889   4.535
 4397SOL    HW114090   0.445   1.957   4.588
 4397SOL    HW214091   0.560   1.841   4.596
 4398SOL     OW14092   0.531   3.675   5.988
 4398SOL    HW114093   0.612   3.716   6.029
 4398SOL    HW214094   0.559   3.618   5.910
 4399SOL     OW14095   2.430   0.189   2.190
 4399SOL    HW114096   2.373   0.218   2.113
 4399SOL    HW214097   2.405   0.096   2.217
 4400SOL     OW14098   3.001   6.332   5.306
 4400SOL    HW114099   2.949   6.367   5.384
 4400SOL    HW214100   2.996   6.232   5.305
 4401SOL     OW14101   3.479   6.968   6.041
 4401SOL    HW114102   3.386   7.001   6.059
 4401SOL    HW214103   3.477   6.869   6.032
 4402SOL     OW14104   2.248   0.268   2.008
 4402SOL    HW114105   2.170   0.210   1.982
 4402SOL    HW214106   2.222   0.364   1.997
 4403SOL     OW14107   1.209   0.621   1.505
 4403SOL    HW114108   1.280   0.650   1.569
 4403SOL    HW214109   1.178   0.529   1.530
 4404SOL     OW14110   1.419   5.109   5.766
 4404SOL    HW114111   1.498   5.072   5.717
 4404SOL    HW214112   1.393   5.197   5.726
 4405SOL     OW14113   1.389   4.067   1.385
 4405SOL    HW114114   1.329   4.145   1.369
 4405SOL    HW214115   1.414   4.025   1.298
 4406SOL     OW14116   0.307   3.155   1.230
 4406SOL    HW114117   0.339   3.218   1.301
 4406SOL    HW214118   0.208   3.168   1.217
 4407SOL     OW14119   6.092   5.295   0.720
 4407SOL    HW114120   6.116   5.392   0.715
 4407SOL    HW214121   6.154   5.249   0.784
 4408SOL     OW14122   2.928   0.727   1.038
 4408SOL    HW114123   2.852   0.755   1.097
 4408SOL    HW214124   2.892   0.679   0.958
 4409SOL     OW14125   5.045   1.222   2.517
 4409SOL    HW114126   4.990   1.189   2.440
 4409SOL    HW214127   5.067   1.319   2.504
 4410SOL     OW14128   1.440   5.145   6.896
 4410SOL    HW114129   1.483   5.095   6.821
 4410SOL    HW214130   1.402   5.231   6.862
 4411SOL     OW14131   3.974   3.966   4.872
 4411SOL    HW114132   3.972   3.946   4.774
 4411SOL    HW214133   3.975   4.065   4.886
 4412SOL     OW14134   4.711   6.261   3.881
 4412SOL    HW114135   4.789   6.323   3.879
 4412SOL    HW214136   4.703   6.215   3.792
 4413SOL     OW14137   5.681   5.221   4.566
 4413SOL    HW114138   5.676   5.131   4.522
 4413SOL    HW214139   5.611   5.281   4.528
 4414SOL     OW14140   3.253   5.203   0.994
 4414SOL    HW114141   3.281   5.115   0.954
 4414SOL    HW214142   3.276   5.277   0.931
 4415SOL     OW14143   4.380   2.666   0.635
 4415SOL    HW114144   4.305   2.698   0.578
 4415SOL    HW214145   4.458   2.643   0.578
 4416SOL     OW14146   3.772   1.283   4.500
 4416SOL    HW114147   3.694   1.223   4.480
 4416SOL    HW214148   3.738   1.372   4.532
 4417SOL     OW14149   5.627   4.583   3.394
 4417SOL    HW114150   5.703   4.549   3.339
 4417SOL    HW214151   5.618   4.682   3.382
 4418SOL     OW14152   6.362   2.018   2.228
 4418SOL    HW114153   6.312   1.932   2.239
 4418SOL    HW214154   6.298   2.094   2.226
 4419SOL     OW14155   5.585   6.929   6.331
 4419SOL    HW114156   5.676   6.966   6.351
 4419SOL    HW214157   5.573   6.923   6.232
 4420SOL     OW14158   4.723   1.100   1.800
 4420SOL    HW114159   4.722   1.146   1.889
 4420SOL    HW214160   4.693   1.164   1.729
 4421SOL     OW14161   2.452   1.221   4.984
 4421SOL    HW114162   2.448   1.204   4.886
 4421SOL    HW214163   2.459   1.134   5.033
 4422SOL     OW14164   1.807   3.852   0.149
 4422SOL    HW114165   1.875   3.912   0.189
 4422SOL    HW214166   1.847   3.801   0.072
 4423SOL     OW14167   6.920   3.465   5.213
 4423SOL    HW114168   7.008   3.507   5.192
 4423SOL    HW214169   6.915   3.374   5.171
 4424SOL     OW14170   5.456   1.434   3.919
 4424SOL    HW114171   5.388   1.375   3.962
 4424SOL    HW214172   5.473   1.403   3.825
 4425SOL     OW14173   2.792   4.339   0.242
 4425SOL    HW114174   2.720   4.298   0.299
 4425SOL    HW214175   2.789   4.299   0.151
 4426SOL     OW14176   0.236   1.479   4.011
 4426SOL    HW114177   0.277   1.453   3.923
 4426SOL    HW214178   0.306   1.523   4.068
 4427SOL     OW14179   0.272   6.272   2.759
 4427SOL    HW114180   0.222   6.338   2.704
 4427SOL    HW214181   0.370   6.281   2.741
 4428SOL     OW14182   3.250   0.670   3.517
 4428SOL    HW114183   3.170   0.690   3.460
 4428SOL    HW214184   3.321   0.738   3.500
 4429SOL     OW14185   3.112   6.845   2.720
 4429SOL    HW114186   3.075   6.934   2.748
 4429SOL    HW214187   3.045   6.799   2.661
 4430SOL     OW14188   4.858   3.908   4.695
 4430SOL    HW114189   4.823   3.822   4.657
 4430SOL    HW214190   4.831   3.915   4.791
 4431SOL     OW14191   2.647   1.169   2.390
 4431SOL    HW114192   2.684   1.078   2.371
 4431SOL    HW214193   2.681   1.233   2.321
 4432SOL     OW14194   2.770   3.587   5.934
 4432SOL    HW114195   2.759   3.649   6.012
 4432SOL    HW214196   2.702   3.609   5.864
 4433SOL     OW14197   5.052   2.102   4.231
 4433SOL    HW114198   5.098   2.174   4.285
 4433SOL    HW214199   5.101   2.090   4.145
 4434SOL     OW14200   5.262   1.073   3.097
 4434SOL    HW114201   5.175   1.034   3.069
 4434SOL    HW214202   5.333   1.048   3.030
 4435SOL     OW14203   5.173   2.965   1.438
 4435SOL    HW114204   5.107   2.901   1.478
 4435SOL    HW214205   5.144   3.059   1.456
 4436SOL     OW14206   4.186   1.100   1.530
 4436SOL    HW114207   4.190   1.164   1.454
 4436SOL    HW214208   4.098   1.052   1.530
 4437SOL     OW14209   0.176   2.691   2.984
 4437SOL    HW114210   0.210   2.602   3.014
 4437SOL    HW214211   0.144   2.684   2.890
 4438SOL     OW14212   5.171   6.870   6.680
 4438SOL    HW114213   5.255   6.902   6.636
 4438SOL    HW214214   5.111   6.948   6.697
 4439SOL     OW14215   0.100   4.215   1.604
 4439SOL    HW114216   0.193   4.186   1.582
 4439SOL    HW214217   0.045   4.136   1.631
 4440SOL     OW14218   2.984   4.632   0.364
 4440SOL    HW114219   2.959   4.643   0.267
 4440SOL    HW214220   2.940   4.549   0.400
 4441SOL     OW14221   0.250   2.248   2.416
 4441SOL    HW114222   0.249   2.226   2.514
 4441SOL    HW214223   0.172   2.203   2.372
 4442SOL     OW14224   2.004   5.443   4.619
 4442SOL    HW114225   2.007   5.514   4.548
 4442SOL    HW214226   2.042   5.479   4.704
 4443SOL     OW14227   1.299   3.540   6.596
 4443SOL    HW114228   1.236   3.554   6.520
 4443SOL    HW214229   1.341   3.449   6.589
 4444SOL     OW14230   3.258   4.018   5.009
 4444SOL    HW114231   3.169   3.975   4.996
 4444SOL    HW214232   3.328   3.948   5.021
 4445SOL     OW14233   1.428   6.515   0.078
 4445SOL    HW114234   1.380   6.548   7.017
 4445SOL    HW214235   1.512   6.568   0.091
 4446SOL     OW14236   5.238   1.034   1.675
 4446SOL    HW114237   5.157   1.010   1.729
 4446SOL    HW214238   5.284   0.950   1.645
 4447SOL     OW14239   5.295   4.627   5.771
 4447SOL    HW114240   5.272   4.665   5.861
 4447SOL    HW214241   5.213   4.586   5.731
 4448SOL     OW14242   2.528   3.922   1.514
 4448SOL    HW114243   2.491   3.848   1.457
 4448SOL    HW214244   2.624   3.905   1.532
 4449SOL     OW14245   4.782   1.003   5.889
 4449SOL    HW114246   4.734   0.920   5.918
 4449SOL    HW214247   4.851   0.979   5.821
 4450SOL     OW14248   3.974   3.141   5.591
 4450SOL    HW114249   4.050   3.167   5.651
 4450SOL    HW214250   3.888   3.166   5.633
 4451SOL     OW14251   5.964   4.751   2.994
 4451SOL    HW114252   5.997   4.723   3.084
 4451SOL    HW214253   6.017   4.705   2.923
 4452SOL     OW14254   5.028   6.374   4.126
 4452SOL    HW114255   5.099   6.310   4.156
 4452SOL    HW214256   4.946   6.360   4.181
 4453SOL     OW14257   1.225   3.287   1.679
 4453SOL    HW114258   1.236   3.290   1.779
 4453SOL    HW214259   1.313   3.265   1.637
 4454SOL     OW14260   1.558   1.577   6.989
 4454SOL    HW114261   1.511   1.623   0.044
 4454SOL    HW214262   1.656   1.573   7.008
 4455SOL     OW14263   4.985   6.650   6.157
 4455SOL    HW114264   5.001   6.715   6.231
 4455SOL    HW214265   4.887   6.641   6.140
 4456SOL     OW14266   2.945   5.824   1.852
 4456SOL    HW114267   2.918   5.904   1.797
 4456SOL    HW214268   2.878   5.751   1.840
 4457SOL     OW14269   4.158   1.140   2.654
 4457SOL    HW114270   4.233   1.075   2.643
 4457SOL    HW214271   4.073   1.098   2.621
 4458SOL     OW14272   1.687   2.740   0.666
 4458SOL    HW114273   1.674   2.831   0.707
 4458SOL    HW214274   1.775   2.738   0.618
 4459SOL     OW14275   3.823   1.552   4.663
 4459SOL    HW114276   3.824   1.648   4.633
 4459SOL    HW214277   3.916   1.525   4.688
 4460SOL     OW14278   2.029   2.682   6.144
 4460SOL    HW114279   2.017   2.770   6.097
 4460SOL    HW214280   2.051   2.611   6.077
 4461SOL     OW14281   1.624   6.981   0.952
 4461SOL    HW114282   1.661   0.052   0.961
 4461SOL    HW214283   1.691   6.914   0.981
 4462SOL     OW14284   5.612   5.395   1.971
 4462SOL    HW114285   5.578   5.303   1.950
 4462SOL    HW214286   5.535   5.458   1.977
 4463SOL     OW14287   4.546   1.192   0.720
 4463SOL    HW114288   4.590   1.120   0.666
 4463SOL    HW214289   4.521   1.156   0.810
 4464SOL     OW14290   0.633   5.520   0.283
 4464SOL    HW114291   0.710   5.487   0.338
 4464SOL    HW214292   0.618   5.617   0.302
 4465SOL     OW14293   3.635   5.562   1.574
 4465SOL    HW114294   3.582   5.642   1.547
 4465SOL    HW214295   3.600   5.525   1.659
 4466SOL     OW14296   1.088   2.044   3.421
 4466SOL    HW114297   1.152   1.990   3.477
 4466SOL    HW214298   1.081   2.136   3.458
 4467SOL     OW14299   1.879   5.696   2.370
 4467SOL    HW114300   1.801   5.649   2.329
 4467SOL    HW214301   1.865   5.703   2.469
 4468SOL     OW14302   1.771   4.038   0.518
 4468SOL    HW114303   1.730   3.950   0.494
 4468SOL    HW214304   1.769   4.098   0.438
 4469SOL     OW14305   3.395   0.303   2.010
 4469SOL    HW114306   3.437   0.363   1.942
 4469SOL    HW214307   3.321   0.351   2.056
 4470SOL     OW14308   0.447   2.603   2.052
 4470SOL    HW114309   0.449   2.504   2.056
 4470SOL    HW214310   0.370   2.637   2.108
 4471SOL     OW14311   0.650   2.172   6.377
 4471SOL    HW114312   0.746   2.151   6.396
 4471SOL    HW214313   0.607   2.206   6.460
 4472SOL     OW14314   0.702   3.313   2.155
 4472SOL    HW114315   0.617   3.266   2.132
 4472SOL    HW214316   0.682   3.406   2.185
 4473SOL     OW14317   5.693   2.910   4.388
 4473SOL    HW114318   5.626   2.982   4.408
 4473SOL    HW214319   5.780   2.952   4.361
 4474SOL     OW14320   2.123   0.520   2.324
 4474SOL    HW114321   2.196   0.570   2.277
 4474SOL    HW214322   2.056   0.488   2.258
 4475SOL     OW14323   1.192   4.069   2.008
 4475SOL    HW114324   1.165   4.098   1.917
 4475SOL    HW214325   1.111   4.068   2.068
 4476SOL     OW14326   5.130   0.398   2.861
 4476SOL    HW114327   5.066   0.466   2.897
 4476SOL    HW214328   5.103   0.307   2.891
 4477SOL     OW14329   2.120   6.756   5.135
 4477SOL    HW114330   2.155   6.671   5.175
 4477SOL    HW214331   2.194   6.824   5.133
 4478SOL     OW14332   3.541   6.605   3.121
 4478SOL    HW114333   3.469   6.644   3.178
 4478SOL    HW214334   3.564   6.514   3.154
 4479SOL     OW14335   0.709   2.029   0.669
 4479SOL    HW114336   0.717   2.029   0.769
 4479SOL    HW214337   0.660   2.112   0.640
 4480SOL     OW14338   1.066   4.418   5.548
 4480SOL    HW114339   0.974   4.441   5.581
 4480SOL    HW214340   1.109   4.501   5.512
 4481SOL     OW14341   3.770   5.564   4.642
 4481SOL    HW114342   3.694   5.548   4.705
 4481SOL    HW214343   3.763   5.657   4.606
 4482SOL     OW14344   1.564   2.772   5.111
 4482SOL    HW114345   1.589   2.818   5.026
 4482SOL    HW214346   1.597   2.678   5.110
 4483SOL     OW14347   6.161   2.628   2.523
 4483SOL    HW114348   6.210   2.691   2.463
 4483SOL    HW214349   6.091   2.580   2.470
 4484SOL     OW14350   3.214   2.228   6.581
 4484SOL    HW114351   3.186   2.241   6.486
 4484SOL    HW214352   3.205   2.131   6.604
 4485SOL     OW14353   5.250   2.019   4.065
 4485SOL    HW114354   5.285   1.926   4.064
 4485SOL    HW214355   5.300   2.073   4.133
 4486SOL     OW14356   5.422   5.449   5.361
 4486SOL    HW114357   5.386   5.356   5.366
 4486SOL    HW214358   5.503   5.457   5.419
 4487SOL     OW14359   2.986   2.984   6.247
 4487SOL    HW114360   3.022   3.078   6.247
 4487SOL    HW214361   2.886   2.987   6.248
 4488SOL     OW14362   0.551   3.481   5.765
 4488SOL    HW114363   0.559   3.381   5.769
 4488SOL    HW214364   0.478   3.506   5.701
 4489SOL     OW14365   5.136   5.838   5.165
 4489SOL    HW114366   5.210   5.893   5.204
 4489SOL    HW214367   5.048   5.874   5.195
 4490SOL     OW14368   5.838   2.472   1.983
 4490SOL    HW114369   5.797   2.427   1.903
 4490SOL    HW214370   5.769   2.526   2.030
 4491SOL     OW14371   6.432   3.427   3.726
 4491SOL    HW114372   6.479   3.416   3.638
 4491SOL    HW214373   6.458   3.514   3.767
 4492SOL     OW14374   6.045   4.939   2.097
 4492SOL    HW114375   6.124   5.001   2.095
 4492SOL    HW214376   6.076   4.846   2.116
 4493SOL     OW14377   4.973   5.431   5.053
 4493SOL    HW114378   5.067   5.401   5.069
 4493SOL    HW214379   4.925   5.363   4.997
 4494SOL     OW14380   0.288   0.525   6.519
 4494SOL    HW114381   0.322   0.488   6.433
 4494SOL    HW214382   0.228   0.603   6.502
 4495SOL     OW14383   3.952   6.318   4.345
 4495SOL    HW114384   3.948   6.218   4.340
 4495SOL    HW214385   3.864   6.353   4.375
 4496SOL     OW14386   5.721   6.383   1.181
 4496SOL    HW114387   5.783   6.322   1.131
 4496SOL    HW214388   5.738   6.477   1.153
 4497SOL     OW14389   4.996   1.957   6.777
 4497SOL    HW114390   5.071   1.893   6.794
 4497SOL    HW214391   4.935   1.918   6.707
 4498SOL     OW14392   0.310   2.967   0.531
 4498SOL    HW114393   0.370   2.923   0.464
 4498SOL    HW214394   0.214   2.953   0.504
 4499SOL     OW14395   5.642   3.743   3.990
 4499SOL    HW114396   5.547   3.769   3.973
 4499SOL    HW214397   5.669   3.773   4.081
 4500SOL     OW14398   3.106   3.167   4.482
 4500SOL    HW114399   3.061   3.171   4.571
 4500SOL    HW214400   3.202   3.140   4.494
 4501SOL     OW14401   6.744   3.652   2.895
 4501SOL    HW114402   6.786   3.736   2.859
 4501SOL    HW214403   6.787   3.573   2.852
 4502SOL     OW14404   0.495   2.980   6.803
 4502SOL    HW114405   0.486   2.956   6.900
 4502SOL    HW214406   0.580   2.941   6.768
 4503SOL     OW14407   3.657   0.167   2.078
 4503SOL    HW114408   3.618   0.079   2.106
 4503SOL    HW214409   3.583   0.233   2.062
 4504SOL     OW14410   6.770   0.910   4.514
 4504SOL    HW114411   6.760   0.847   4.436
 4504SOL    HW214412   6.680   0.927   4.554
 4505SOL     OW14413   6.269   5.072   2.085
 4505SOL    HW114414   6.266   5.092   1.988
 4505SOL    HW214415   6.364   5.072   2.116
 4506SOL     OW14416   4.884   2.922   3.488
 4506SOL    HW114417   4.983   2.912   3.480
 4506SOL    HW214418   4.864   3.005   3.541
 4507SOL     OW14419   5.907   4.298   2.994
 4507SOL    HW114420   5.896   4.275   3.091
 4507SOL    HW214421   5.989   4.355   2.983
 4508SOL     OW14422   1.870   5.647   0.217
 4508SOL    HW114423   1.961   5.630   0.179
 4508SOL    HW214424   1.802   5.643   0.144
 4509SOL     OW14425   4.661   2.433   2.358
 4509SOL    HW114426   4.613   2.475   2.281
 4509SOL    HW214427   4.760   2.437   2.341
 4510SOL     OW14428   4.326   1.787   3.835
 4510SOL    HW114429   4.347   1.875   3.877
 4510SOL    HW214430   4.411   1.736   3.822
 4511SOL     OW14431   5.749   4.005   6.464
 4511SOL    HW114432   5.649   3.999   6.466
 4511SOL    HW214433   5.785   3.999   6.557
 4512SOL     OW14434   2.757   1.244   5.456
 4512SOL    HW114435   2.827   1.198   5.401
 4512SOL    HW214436   2.792   1.333   5.486
 4513SOL     OW14437   0.732   5.037   6.640
 4513SOL    HW114438   0.690   5.122   6.610
 4513SOL    HW214439   0.804   5.010   6.576
 4514SOL     OW14440   4.040   2.388   5.851
 4514SOL    HW114441   4.133   2.425   5.855
 4514SOL    HW214442   4.043   2.290   5.870
 4515SOL     OW14443   6.832   1.991   5.337
 4515SOL    HW114444   6.845   2.082   5.298
 4515SOL    HW214445   6.882   1.924   5.282
 4516SOL     OW14446   2.133   6.731   0.542
 4516SOL    HW114447   2.187   6.665   0.490
 4516SOL    HW214448   2.053   6.759   0.489
 4517SOL     OW14449   4.237   0.402   6.739
 4517SOL    HW114450   4.141   0.428   6.746
 4517SOL    HW214451   4.295   0.482   6.752
 4518SOL     OW14452   0.072   6.962   2.283
 4518SOL    HW114453   0.087   0.040   2.277
 4518SOL    HW214454   0.160   6.916   2.292
 4519SOL     OW14455   6.899   6.961   1.338
 4519SOL    HW114456   6.970   6.964   1.408
 4519SOL    HW214457   6.845   6.878   1.347
 4520SOL     OW14458   4.630   6.345   5.428
 4520SOL    HW114459   4.597   6.396   5.349
 4520SOL    HW214460   4.552   6.298   5.472
 4521SOL     OW14461   6.136   1.749   5.065
 4521SOL    HW114462   6.098   1.771   5.155
 4521SOL    HW214463   6.236   1.745   5.071
 4522SOL     OW14464   5.545   5.193   3.629
 4522SOL    HW114465   5.595   5.217   3.546
 4522SOL    HW214466   5.448   5.183   3.607
 4523SOL     OW14467   0.965   4.698   0.438
 4523SOL    HW114468   1.012   4.648   0.366
 4523SOL    HW214469   0.968   4.646   0.523
 4524SOL     OW14470   6.435   2.820   1.832
 4524SOL    HW114471   6.414   2.725   1.811
 4524SOL    HW214472   6.482   2.862   1.754
 4525SOL     OW14473   4.906   2.317   5.588
 4525SOL    HW114474   4.977   2.281   5.527
 4525SOL    HW214475   4.829   2.350   5.533
 4526SOL     OW14476   6.659   0.383   6.229
 4526SOL    HW114477   6.661   0.339   6.319
 4526SOL    HW214478   6.601   0.465   6.233
 4527SOL     OW14479   6.052   1.137   3.760
 4527SOL    HW114480   6.102   1.165   3.842
 4527SOL    HW214481   6.113   1.142   3.681
 4528SOL     OW14482   4.033   0.046   6.804
 4528SOL    HW114483   4.066   7.016   6.884
 4528SOL    HW214484   3.955   0.102   6.830
 4529SOL     OW14485   2.090   0.366   4.867
 4529SOL    HW114486   2.059   0.294   4.929
 4529SOL    HW214487   2.184   0.348   4.839
 4530SOL     OW14488   1.592   5.129   4.103
 4530SOL    HW114489   1.607   5.039   4.063
 4530SOL    HW214490   1.658   5.194   4.065
 4531SOL     OW14491   0.560   2.802   4.975
 4531SOL    HW114492   0.600   2.853   5.051
 4531SOL    HW214493   0.494   2.860   4.927
 4532SOL     OW14494   6.728   1.037   2.289
 4532SOL    HW114495   6.655   1.019   2.356
 4532SOL    HW214496   6.795   1.099   2.330
 4533SOL     OW14497   1.308   1.774   1.891
 4533SOL    HW114498   1.348   1.852   1.842
 4533SOL    HW214499   1.380   1.716   1.928
 4534SOL     OW14500   4.813   4.386   4.985
 4534SOL    HW114501   4.765   4.440   4.916
 4534SOL    HW214502   4.852   4.304   4.942
 4535SOL     OW14503   3.466   0.472   3.080
 4535SOL    HW114504   3.521   0.553   3.100
 4535SOL    HW214505   3.510   0.419   3.008
 4536SOL     OW14506   4.222   1.515   4.397
 4536SOL    HW114507   4.284   1.440   4.422
 4536SOL    HW214508   4.220   1.524   4.297
 4537SOL     OW14509   3.842   3.718   0.408
 4537SOL    HW114510   3.819   3.622   0.422
 4537SOL    HW214511   3.812   3.748   0.318
 4538SOL     OW14512   1.871   0.521   2.987
 4538SOL    HW114513   1.960   0.487   2.955
 4538SOL    HW214514   1.851   0.609   2.944
 4539SOL     OW14515   3.185   5.797   4.890
 4539SOL    HW114516   3.195   5.737   4.970
 4539SOL    HW214517   3.192   5.893   4.919
 4540SOL     OW14518   2.361   2.104   6.613
 4540SOL    HW114519   2.262   2.098   6.624
 4540SOL    HW214520   2.385   2.192   6.571
 4541SOL     OW14521   6.180   1.837   6.620
 4541SOL    HW114522   6.090   1.815   6.583
 4541SOL    HW214523   6.242   1.859   6.544
 4542SOL     OW14524   0.311   1.902   1.572
 4542SOL    HW114525   0.355   1.987   1.601
 4542SOL    HW214526   0.225   1.891   1.621
 4543SOL     OW14527   4.385   2.279   1.141
 4543SOL    HW114528   4.431   2.346   1.200
 4543SOL    HW214529   4.296   2.316   1.112
 4544SOL     OW14530   3.730   5.787   6.632
 4544SOL    HW114531   3.665   5.717   6.605
 4544SOL    HW214532   3.711   5.872   6.583
 4545SOL     OW14533   5.484   3.073   3.922
 4545SOL    HW114534   5.492   3.096   3.825
 4545SOL    HW214535   5.516   2.980   3.937
 4546SOL     OW14536   1.807   1.148   4.339
 4546SOL    HW114537   1.809   1.082   4.264
 4546SOL    HW214538   1.866   1.116   4.413
 4547SOL     OW14539   6.352   2.088   1.145
 4547SOL    HW114540   6.363   2.098   1.244
 4547SOL    HW214541   6.299   2.166   1.110
 4548SOL     OW14542   1.516   3.323   3.966
 4548SOL    HW114543   1.419   3.317   3.945
 4548SOL    HW214544   1.530   3.390   4.040
 4549SOL     OW14545   6.222   4.224   2.062
 4549SOL    HW114546   6.254   4.287   1.991
 4549SOL    HW214547   6.130   4.248   2.090
 4550SOL     OW14548   1.068   5.489   3.209
 4550SOL    HW114549   1.127   5.567   3.189
 4550SOL    HW214550   1.122   5.415   3.248
 4551SOL     OW14551   0.239   3.779   4.460
 4551SOL    HW114552   0.289   3.836   4.527
 4551SOL    HW214553   0.178   3.717   4.509
 4552SOL     OW14554   6.439   2.115   1.391
 4552SOL    HW114555   6.501   2.191   1.370
 4552SOL    HW214556   6.448   2.089   1.487
 4553SOL     OW14557   4.068   4.027   6.633
 4553SOL    HW114558   4.025   4.093   6.695
 4553SOL    HW214559   4.001   3.957   6.608
 4554SOL     OW14560   6.571   6.804   1.248
 4554SOL    HW114561   6.641   6.757   1.303
 4554SOL    HW214562   6.499   6.739   1.225
 4555SOL     OW14563   2.521   1.941   5.030
 4555SOL    HW114564   2.425   1.922   5.011
 4555SOL    HW214565   2.564   1.978   4.948
 4556SOL     OW14566   5.288   3.050   4.241
 4556SOL    HW114567   5.275   3.083   4.147
 4556SOL    HW214568   5.211   3.079   4.297
 4557SOL     OW14569   4.693   5.736   5.173
 4557SOL    HW114570   4.757   5.659   5.176
 4557SOL    HW214571   4.726   5.805   5.108
 4558SOL     OW14572   6.881   4.359   5.073
 4558SOL    HW114573   6.863   4.314   5.160
 4558SOL    HW214574   6.801   4.413   5.047
 4559SOL     OW14575   0.578   3.731   1.922
 4559SOL    HW114576   0.647   3.773   1.863
 4559SOL    HW214577   0.579   3.632   1.907
 4560SOL     OW14578   5.242   4.333   1.621
 4560SOL    HW114579   5.244   4.253   1.681
 4560SOL    HW214580   5.291   4.311   1.536
 4561SOL     OW14581   2.870   1.961   3.002
 4561SOL    HW114582   2.872   1.861   2.997
 4561SOL    HW214583   2.961   1.996   3.020
 4562SOL     OW14584   2.317   6.750   6.041
 4562SOL    HW114585   2.223   6.716   6.038
 4562SOL    HW214586   2.360   6.725   6.128
 4563SOL     OW14587   0.514   2.926   0.947
 4563SOL    HW114588   0.523   2.912   0.848
 4563SOL    HW214589   0.585   2.989   0.978
 4564SOL     OW14590   0.024   5.722   1.997
 4564SOL    HW114591   0.077   5.797   2.036
 4564SOL    HW214592   7.009   5.748   1.908
 4565SOL     OW14593   0.685   0.396   4.868
 4565SOL    HW114594   0.763   0.457   4.882
 4565SOL    HW214595   0.618   0.409   4.942
 4566SOL     OW14596   6.826   2.784   0.272
 4566SOL    HW114597   6.911   2.760   0.226
 4566SOL    HW214598   6.762   2.824   0.206
 4567SOL     OW14599   6.567   1.290   5.851
 4567SOL    HW114600   6.594   1.280   5.947
 4567SOL    HW214601   6.619   1.365   5.810
 4568SOL     OW14602   1.923   3.146   6.075
 4568SOL    HW114603   1.973   3.073   6.027
 4568SOL    HW214604   1.902   3.117   6.168
 4569SOL     OW14605   1.754   1.294   3.011
 4569SOL    HW114606   1.845   1.281   2.971
 4569SOL    HW214607   1.757   1.370   3.076
 4570SOL     OW14608   0.032   6.869   2.550
 4570SOL    HW114609   0.022   6.904   2.456
 4570SOL    HW214610   6.970   6.889   2.602
 4571SOL     OW14611   4.710   3.945   6.491
 4571SOL    HW114612   4.743   3.864   6.444
 4571SOL    HW214613   4.610   3.945   6.491
 4572SOL     OW14614   2.001   0.487   6.857
 4572SOL    HW114615   2.040   0.519   6.771
 4572SOL    HW214616   2.069   0.497   6.930
 4573SOL     OW14617   6.206   0.582   0.115
 4573SOL    HW114618   6.179   0.526   0.194
 4573SOL    HW214619   6.141   0.656   0.102
 4574SOL     OW14620   5.575   3.904   0.264
 4574SOL    HW114621   5.636   3.983   0.258
 4574SOL    HW214622   5.484   3.935   0.294
 4575SOL     OW14623   5.661   0.893   5.977
 4575SOL    HW114624   5.563   0.903   5.991
 4575SOL    HW214625   5.694   0.813   6.028
 4576SOL     OW14626   3.218   6.028   5.632
 4576SOL    HW114627   3.242   6.051   5.538
 4576SOL    HW214628   3.128   5.984   5.634
 4577SOL     OW14629   0.747   2.205   4.447
 4577SOL    HW114630   0.757   2.208   4.347
 4577SOL    HW214631   0.820   2.148   4.486
 4578SOL     OW14632   0.830   2.546   5.249
 4578SOL    HW114633   0.928   2.530   5.265
 4578SOL    HW214634   0.777   2.510   5.326
 4579SOL     OW14635   3.763   0.781   3.602
 4579SOL    HW114636   3.792   0.710   3.665
 4579SOL    HW214637   3.691   0.746   3.542
 4580SOL     OW14638   5.432   4.465   1.104
 4580SOL    HW114639   5.460   4.440   1.011
 4580SOL    HW214640   5.488   4.414   1.170
 4581SOL     OW14641   2.182   5.782   2.067
 4581SOL    HW114642   2.219   5.700   2.111
 4581SOL    HW214643   2.087   5.795   2.095
 4582SOL     OW14644   4.190   0.910   4.849
 4582SOL    HW114645   4.172   0.822   4.806
 4582SOL    HW214646   4.113   0.934   4.909
 4583SOL     OW14647   2.951   1.981   6.901
 4583SOL    HW114648   2.959   1.991   6.802
 4583SOL    HW214649   2.876   1.919   6.923
 4584SOL     OW14650   0.558   4.958   5.774
 4584SOL    HW114651   0.485   5.026   5.767
 4584SOL    HW214652   0.533   4.876   5.723
 4585SOL     OW14653   2.037   5.611   3.354
 4585SOL    HW114654   2.058   5.616   3.257
 4585SOL    HW214655   2.104   5.553   3.400
 4586SOL     OW14656   3.908   4.521   1.039
 4586SOL    HW114657   3.953   4.556   1.122
 4586SOL    HW214658   3.829   4.579   1.017
 4587SOL     OW14659   3.274   3.878   3.723
 4587SOL    HW114660   3.302   3.863   3.818
 4587SOL    HW214661   3.177   3.903   3.721
 4588SOL     OW14662   2.406   3.603   5.354
 4588SOL    HW114663   2.478   3.671   5.343
 4588SOL    HW214664   2.448   3.514   5.376
 4589SOL     OW14665   6.470   0.745   2.006
 4589SOL    HW114666   6.568   0.722   2.004
 4589SOL    HW214667   6.417   0.661   2.016
 4590SOL     OW14668   4.580   5.016   1.390
 4590SOL    HW114669   4.625   4.931   1.362
 4590SOL    HW214670   4.615   5.092   1.336
 4591SOL     OW14671   1.617   0.489   4.637
 4591SOL    HW114672   1.710   0.501   4.672
 4591SOL    HW214673   1.570   0.577   4.634
 4592SOL     OW14674   2.541   1.475   3.416
 4592SOL    HW114675   2.554   1.473   3.515
 4592SOL    HW214676   2.546   1.383   3.379
 4593SOL     OW14677   5.193   5.635   2.276
 4593SOL    HW114678   5.150   5.702   2.216
 4593SOL    HW214679   5.169   5.543   2.246
 4594SOL     OW14680   2.490   1.217   3.052
 4594SOL    HW114681   2.476   1.315   3.036
 4594SOL    HW214682   2.500   1.171   2.963
 4595SOL     OW14683   4.597   3.113   5.282
 4595SOL    HW114684   4.663   3.188   5.282
 4595SOL    HW214685   4.644   3.027   5.261
 4596SOL     OW14686   6.485   0.527   2.273
 4596SOL    HW114687   6.411   0.513   2.207
 4596SOL    HW214688   6.502   0.625   2.283
 4597SOL     OW14689   4.400   5.046   6.981
 4597SOL    HW114690   4.325   5.087   6.928
 4597SOL    HW214691   4.408   4.949   6.958
 4598SOL     OW14692   1.800   6.043   0.735
 4598SOL    HW114693   1.854   6.102   0.795
 4598SOL    HW214694   1.736   5.990   0.791
 4599SOL     OW14695   1.635   5.077   0.041
 4599SOL    HW114696   1.633   5.133   0.124
 4599SOL    HW214697   1.547   5.081   7.016
 4600SOL     OW14698   1.128   5.576   5.496
 4600SOL    HW114699   1.225   5.572   5.470
 4600SOL    HW214700   1.117   5.632   5.578
 4601SOL     OW14701   2.057   1.254   4.959
 4601SOL    HW114702   1.970   1.243   5.008
 4601SOL    HW214703   2.052   1.335   4.900
 4602SOL     OW14704   3.135   6.525   0.337
 4602SOL    HW114705   3.175   6.604   0.290
 4602SOL    HW214706   3.190   6.504   0.418
 4603SOL     OW14707   3.748   6.732   0.854
 4603SOL    HW114708   3.761   6.802   0.784
 4603SOL    HW214709   3.813   6.657   0.839
 4604SOL     OW14710   4.105   6.981   0.029
 4604SOL    HW114711   4.043   6.939   0.095
 4604SOL    HW214712   4.145   0.043   0.068
 4605SOL     OW14713   1.733   6.448   2.674
 4605SOL    HW114714   1.726   6.359   2.629
 4605SOL    HW214715   1.657   6.458   2.738
 4606SOL     OW14716   0.740   6.782   1.791
 4606SOL    HW114717   0.778   6.693   1.766
 4606SOL    HW214718   0.701   6.777   1.883
 4607SOL     OW14719   2.100   2.989   2.455
 4607SOL    HW114720   2.116   2.976   2.553
 4607SOL    HW214721   2.121   3.083   2.429
 4608SOL     OW14722   0.312   5.937   3.571
 4608SOL    HW114723   0.305   5.866   3.501
 4608SOL    HW214724   0.268   5.906   3.655
 4609SOL     OW14725   4.801   4.896   6.808
 4609SOL    HW114726   4.734   4.906   6.734
 4609SOL    HW214727   4.759   4.850   6.886
 4610SOL     OW14728   4.803   1.824   0.468
 4610SOL    HW114729   4.723   1.876   0.499
 4610SOL    HW214730   4.795   1.729   0.498
 4611SOL     OW14731   1.411   6.455   6.231
 4611SOL    HW114732   1.398   6.549   6.262
 4611SOL    HW214733   1.391   6.392   6.306
 4612SOL     OW14734   1.672   6.443   0.840
 4612SOL    HW114735   1.623   6.522   0.876
 4612SOL    HW214736   1.644   6.427   0.745
 4613SOL     OW14737   1.581   5.301   1.874
 4613SOL    HW114738   1.587   5.229   1.944
 4613SOL    HW214739   1.497   5.354   1.888
 4614SOL     OW14740   6.150   3.710   2.690
 4614SOL    HW114741   6.127   3.771   2.765
 4614SOL    HW214742   6.249   3.706   2.679
 4615SOL     OW14743   1.594   0.901   0.118
 4615SOL    HW114744   1.570   0.808   0.089
 4615SOL    HW214745   1.532   0.966   0.074
 4616SOL     OW14746   6.311   1.322   4.505
 4616SOL    HW114747   6.325   1.246   4.442
 4616SOL    HW214748   6.368   1.399   4.479
 4617SOL     OW14749   0.956   2.663   2.126
 4617SOL    HW114750   0.972   2.644   2.223
 4617SOL    HW214751   0.891   2.739   2.117
 4618SOL     OW14752   2.257   2.879   5.305
 4618SOL    HW114753   2.249   2.783   5.281
 4618SOL    HW214754   2.330   2.921   5.252
 4619SOL     OW14755   3.302   6.438   3.295
 4619SOL    HW114756   3.361   6.512   3.327
 4619SOL    HW214757   3.220   6.433   3.353
 4620SOL     OW14758   2.302   4.939   0.883
 4620SOL    HW114759   2.365   4.868   0.914
 4620SOL    HW214760   2.235   4.957   0.955
 4621SOL     OW14761   4.912   0.669   2.657
 4621SOL    HW114762   4.829   0.722   2.638
 4621SOL    HW214763   4.910   0.584   2.604
 4622SOL     OW14764   3.138   4.288   0.529
 4622SOL    HW114765   3.086   4.214   0.570
 4622SOL    HW214766   3.182   4.343   0.600
 4623SOL     OW14767   5.526   6.125   1.728
 4623SOL    HW114768   5.475   6.190   1.784
 4623SOL    HW214769   5.490   6.033   1.743
 4624SOL     OW14770   3.580   6.959   3.043
 4624SOL    HW114771   3.525   6.937   2.962
 4624SOL    HW214772   3.527   6.939   3.125
 4625SOL     OW14773   1.908   4.833   1.448
 4625SOL    HW114774   1.865   4.812   1.360
 4625SOL    HW214775   1.998   4.874   1.434
 4626SOL     OW14776   5.273   4.317   2.290
 4626SOL    HW114777   5.366   4.352   2.284
 4626SOL    HW214778   5.215   4.384   2.337
 4627SOL     OW14779   1.781   4.523   5.152
 4627SOL    HW114780   1.765   4.424   5.149
 4627SOL    HW214781   1.754   4.564   5.065
 4628SOL     OW14782   4.674   4.289   4.298
 4628SOL    HW114783   4.738   4.248   4.363
 4628SOL    HW214784   4.618   4.357   4.345
 4629SOL     OW14785   2.955   5.116   5.184
 4629SOL    HW114786   2.986   5.101   5.090
 4629SOL    HW214787   2.969   5.033   5.237
 4630SOL     OW14788   2.614   6.049   1.891
 4630SOL    HW114789   2.674   6.015   1.964
 4630SOL    HW214790   2.548   5.978   1.867
 4631SOL     OW14791   1.288   5.998   3.265
 4631SOL    HW114792   1.243   6.087   3.268
 4631SOL    HW214793   1.351   5.995   3.187
 4632SOL     OW14794   2.573   4.681   2.968
 4632SOL    HW114795   2.541   4.648   3.057
 4632SOL    HW214796   2.621   4.768   2.980
 4633SOL     OW14797   6.002   0.829   4.906
 4633SOL    HW114798   5.929   0.793   4.965
 4633SOL    HW214799   6.085   0.841   4.961
 4634SOL     OW14800   2.617   3.779   5.319
 4634SOL    HW114801   2.558   3.852   5.285
 4634SOL    HW214802   2.692   3.819   5.372
 4635SOL     OW14803   5.015   3.683   1.764
 4635SOL    HW114804   4.985   3.629   1.685
 4635SOL    HW214805   5.017   3.780   1.738
 4636SOL     OW14806   2.140   4.429   0.138
 4636SOL    HW114807   2.167   4.525   0.150
 4636SOL    HW214808   2.183   4.373   0.209
 4637SOL     OW14809   0.933   6.767   0.992
 4637SOL    HW114810   0.914   6.864   0.977
 4637SOL    HW214811   0.984   6.756   1.077
 4638SOL     OW14812   4.322   4.020   0.156
 4638SOL    HW114813   4.363   4.070   0.232
 4638SOL    HW214814   4.280   3.936   0.191
 4639SOL     OW14815   3.300   3.207   6.088
 4639SOL    HW114816   3.353   3.277   6.040
 4639SOL    HW214817   3.275   3.134   6.023
 4640SOL     OW14818   4.868   3.859   3.653
 4640SOL    HW114819   4.778   3.815   3.649
 4640SOL    HW214820   4.939   3.789   3.662
 4641SOL     OW14821   2.562   0.412   4.954
 4641SOL    HW114822   2.530   0.474   4.883
 4641SOL    HW214823   2.484   0.373   5.003
 4642SOL     OW14824   0.745   6.666   3.774
 4642SOL    HW114825   0.713   6.604   3.703
 4642SOL    HW214826   0.700   6.755   3.764
 4643SOL     OW14827   6.811   2.106   0.680
 4643SOL    HW114828   6.806   2.156   0.767
 4643SOL    HW214829   6.719   2.081   0.650
 4644SOL     OW14830   0.433   5.745   5.197
 4644SOL    HW114831   0.447   5.832   5.149
 4644SOL    HW214832   0.510   5.684   5.180
 4645SOL     OW14833   0.614   0.280   3.801
 4645SOL    HW114834   0.520   0.270   3.769
 4645SOL    HW214835   0.667   0.333   3.735
 4646SOL     OW14836   2.244   5.393   3.395
 4646SOL    HW114837   2.231   5.299   3.362
 4646SOL    HW214838   2.321   5.396   3.458
 4647SOL     OW14839   1.836   0.301   3.151
 4647SOL    HW114840   1.856   0.385   3.101
 4647SOL    HW214841   1.920   0.247   3.160
 4648SOL     OW14842   3.511   0.266   3.259
 4648SOL    HW114843   3.528   0.356   3.220
 4648SOL    HW214844   3.577   0.248   3.332
 4649SOL     OW14845   5.462   0.823   6.727
 4649SOL    HW114846   5.391   0.793   6.663
 4649SOL    HW214847   5.520   0.745   6.751
 4650SOL     OW14848   4.812   5.642   2.579
 4650SOL    HW114849   4.811   5.722   2.640
 4650SOL    HW214850   4.718   5.617   2.556
 4651SOL     OW14851   6.297   3.599   7.003
 4651SOL    HW114852   6.261   3.615   0.074
 4651SOL    HW214853   6.394   3.574   7.009
 4652SOL     OW14854   5.583   6.467   4.298
 4652SOL    HW114855   5.600   6.554   4.344
 4652SOL    HW214856   5.646   6.398   4.334
 4653SOL     OW14857   4.927   5.513   0.839
 4653SOL    HW114858   4.907   5.483   0.933
 4653SOL    HW214859   4.889   5.447   0.775
 4654SOL     OW14860   0.695   6.329   6.778
 4654SOL    HW114861   0.639   6.412   6.789
 4654SOL    HW214862   0.769   6.331   6.845
 4655SOL     OW14863   6.141   3.814   1.046
 4655SOL    HW114864   6.145   3.900   1.099
 4655SOL    HW214865   6.132   3.836   0.949
 4656SOL     OW14866   1.250   0.527   2.075
 4656SOL    HW114867   1.221   0.622   2.091
 4656SOL    HW214868   1.183   0.481   2.016
 4657SOL     OW14869   4.372   5.703   1.415
 4657SOL    HW114870   4.346   5.657   1.500
 4657SOL    HW214871   4.446   5.767   1.434
 4658SOL     OW14872   3.295   0.240   3.729
 4658SOL    HW114873   3.346   0.252   3.814
 4658SOL    HW214874   3.262   0.146   3.722
 4659SOL     OW14875   3.247   3.969   5.393
 4659SOL    HW114876   3.200   3.892   5.351
 4659SOL    HW214877   3.249   4.045   5.328
 4660SOL     OW14878   0.577   5.311   5.259
 4660SOL    HW114879   0.664   5.335   5.302
 4660SOL    HW214880   0.581   5.217   5.226
 4661SOL     OW14881   3.318   4.232   6.074
 4661SOL    HW114882   3.301   4.316   6.124
 4661SOL    HW214883   3.243   4.215   6.010
 4662SOL     OW14884   3.212   0.116   5.306
 4662SOL    HW114885   3.252   0.036   5.262
 4662SOL    HW214886   3.175   0.177   5.236
 4663SOL     OW14887   0.284   1.492   1.288
 4663SOL    HW114888   0.300   1.397   1.260
 4663SOL    HW214889   0.257   1.494   1.384
 4664SOL     OW14890   1.721   1.285   0.965
 4664SOL    HW114891   1.658   1.354   0.930
 4664SOL    HW214892   1.784   1.258   0.892
 4665SOL     OW14893   4.018   6.080   6.362
 4665SOL    HW114894   3.936   6.072   6.306
 4665SOL    HW214895   4.045   6.176   6.369
 4666SOL     OW14896   2.418   2.480   6.780
 4666SOL    HW114897   2.337   2.506   6.727
 4666SOL    HW214898   2.410   2.383   6.806
 4667SOL     OW14899   6.709   4.028   1.905
 4667SOL    HW114900   6.688   4.102   1.842
 4667SOL    HW214901   6.631   4.013   1.966
 4668SOL     OW14902   4.793   2.200   3.298
 4668SOL    HW114903   4.792   2.205   3.398
 4668SOL    HW214904   4.699   2.186   3.265
 4669SOL     OW14905   5.308   6.210   0.711
 4669SOL    HW114906   5.224   6.161   0.685
 4669SOL    HW214907   5.386   6.148   0.704
 4670SOL     OW14908   1.782   2.750   5.868
 4670SOL    HW114909   1.764   2.651   5.872
 4670SOL    HW214910   1.761   2.791   5.957
 4671SOL     OW14911   0.284   3.325   0.001
 4671SOL    HW114912   0.282   3.381   6.938
 4671SOL    HW214913   0.190   3.306   0.030
 4672SOL     OW14914   2.691   5.212   5.292
 4672SOL    HW114915   2.662   5.116   5.290
 4672SOL    HW214916   2.788   5.219   5.270
 4673SOL     OW14917   4.858   7.018   2.062
 4673SOL    HW114918   4.904   6.930   2.069
 4673SOL    HW214919   4.861   0.043   2.151
 4674SOL     OW14920   4.755   0.762   6.408
 4674SOL    HW114921   4.779   0.844   6.357
 4674SOL    HW214922   4.832   0.699   6.409
 4675SOL     OW14923   1.953   1.260   6.627
 4675SOL    HW114924   2.038   1.311   6.638
 4675SOL    HW214925   1.949   1.186   6.693
 4676SOL     OW14926   6.222   6.294   4.280
 4676SOL    HW114927   6.127   6.281   4.250
 4676SOL    HW214928   6.246   6.224   4.347
 4677SOL     OW14929   2.376   1.058   6.519
 4677SOL    HW114930   2.430   1.141   6.528
 4677SOL    HW214931   2.430   0.988   6.471
 4678SOL     OW14932   2.084   4.495   2.847
 4678SOL    HW114933   2.051   4.587   2.865
 4678SOL    HW214934   2.171   4.481   2.895
 4679SOL     OW14935   3.247   1.234   6.994
 4679SOL    HW114936   3.164   1.269   6.951
 4679SOL    HW214937   3.270   1.291   0.052
 4680SOL     OW14938   2.492   1.622   0.880
 4680SOL    HW114939   2.478   1.523   0.881
 4680SOL    HW214940   2.518   1.652   0.972
 4681SOL     OW14941   5.361   6.083   6.186
 4681SOL    HW114942   5.296   6.145   6.231
 4681SOL    HW214943   5.408   6.131   6.112
 4682SOL     OW14944   4.040   4.891   5.809
 4682SOL    HW114945   4.028   4.878   5.908
 4682SOL    HW214946   4.137   4.878   5.786
 4683SOL     OW14947   4.600   4.700   2.947
 4683SOL    HW114948   4.574   4.792   2.918
 4683SOL    HW214949   4.656   4.705   3.030
 4684SOL     OW14950   6.637   1.966   5.637
 4684SOL    HW114951   6.579   1.978   5.717
 4684SOL    HW214952   6.649   1.868   5.620
 4685SOL     OW14953   0.515   5.978   5.026
 4685SOL    HW114954   0.610   5.999   5.049
 4685SOL    HW214955   0.459   6.060   5.039
 4686SOL     OW14956   4.868   5.340   0.481
 4686SOL    HW114957   4.835   5.375   0.393
 4686SOL    HW214958   4.968   5.330   0.477
 4687SOL     OW14959   6.546   4.191   5.199
 4687SOL    HW114960   6.494   4.159   5.119
 4687SOL    HW214961   6.550   4.291   5.198
 4688SOL     OW14962   6.131   3.996   5.600
 4688SOL    HW114963   6.199   3.957   5.538
 4688SOL    HW214964   6.120   3.936   5.679
 4689SOL     OW14965   5.800   0.515   0.316
 4689SOL    HW114966   5.717   0.480   0.360
 4689SOL    HW214967   5.852   0.568   0.383
 4690SOL     OW14968   1.301   0.591   0.142
 4690SOL    HW114969   1.321   0.506   0.093
 4690SOL    HW214970   1.316   0.669   0.082
 4691SOL     OW14971   2.848   4.793   2.254
 4691SOL    HW114972   2.865   4.731   2.178
 4691SOL    HW214973   2.789   4.749   2.321
 4692SOL     OW14974   6.033   5.632   2.308
 4692SOL    HW114975   5.968   5.565   2.272
 4692SOL    HW214976   6.119   5.587   2.328
 4693SOL     OW14977   0.981   0.974   3.345
 4693SOL    HW114978   1.075   0.981   3.378
 4693SOL    HW214979   0.948   0.881   3.361
 4694SOL     OW14980   2.613   0.138   0.205
 4694SOL    HW114981   2.629   0.134   0.106
 4694SOL    HW214982   2.690   0.097   0.254
 4695SOL     OW14983   2.232   3.413   1.608
 4695SOL    HW114984   2.252   3.411   1.706
 4695SOL    HW214985   2.141   3.453   1.594
 4696SOL     OW14986   0.089   3.885   6.337
 4696SOL    HW114987   0.148   3.881   6.256
 4696SOL    HW214988   0.021   3.958   6.324
 4697SOL     OW14989   2.404   3.525   0.877
 4697SOL    HW114990   2.475   3.456   0.885
 4697SOL    HW214991   2.421   3.599   0.942
 4698SOL     OW14992   4.533   5.823   2.976
 4698SOL    HW114993   4.471   5.894   2.943
 4698SOL    HW214994   4.492   5.776   3.054
 4699SOL     OW14995   1.986   6.680   1.732
 4699SOL    HW114996   1.899   6.645   1.767
 4699SOL    HW214997   2.023   6.616   1.665
 4700SOL     OW14998   6.586   1.274   2.475
 4700SOL    HW114999   6.578   1.294   2.572
 4700SOL    HW215000   6.681   1.289   2.445
 4701SOL     OW15001   2.288   2.246   0.423
 4701SOL    HW115002   2.211   2.309   0.415
 4701SOL    HW215003   2.267   2.175   0.490
 4702SOL     OW15004   5.932   4.993   0.050
 4702SOL    HW115005   5.889   4.917   0.001
 4702SOL    HW215006   5.873   5.073   0.047
 4703SOL     OW15007   1.110   2.268   1.422
 4703SOL    HW115008   1.088   2.201   1.351
 4703SOL    HW215009   1.172   2.337   1.384
 4704SOL     OW15010   1.104   6.921   6.912
 4704SOL    HW115011   1.096   6.902   6.814
 4704SOL    HW215012   1.153   6.845   6.957
 4705SOL     OW15013   3.342   3.477   2.502
 4705SOL    HW115014   3.435   3.512   2.501
 4705SOL    HW215015   3.343   3.378   2.488
 4706SOL     OW15016   3.987   6.357   6.361
 4706SOL    HW115017   4.065   6.418   6.347
 4706SOL    HW215018   3.903   6.403   6.331
 4707SOL     OW15019   2.654   5.714   1.137
 4707SOL    HW115020   2.628   5.622   1.166
 4707SOL    HW215021   2.617   5.732   1.045
 4708SOL     OW15022   1.399   2.140   6.727
 4708SOL    HW115023   1.489   2.169   6.695
 4708SOL    HW215024   1.329   2.201   6.690
 4709SOL     OW15025   4.524   6.024   6.132
 4709SOL    HW115026   4.511   5.956   6.059
 4709SOL    HW215027   4.438   6.035   6.182
 4710SOL     OW15028   3.757   1.391   5.326
 4710SOL    HW115029   3.780   1.314   5.267
 4710SOL    HW215030   3.813   1.470   5.301
 4711SOL     OW15031   6.174   1.201   2.048
 4711SOL    HW115032   6.144   1.280   1.995
 4711SOL    HW215033   6.215   1.133   1.987
 4712SOL     OW15034   3.119   4.378   7.014
 4712SOL    HW115035   3.217   4.388   7.001
 4712SOL    HW215036   3.099   4.374   0.091
 4713SOL     OW15037   3.696   3.382   1.097
 4713SOL    HW115038   3.687   3.329   1.012
 4713SOL    HW215039   3.786   3.426   1.099
 4714SOL     OW15040   1.435   2.503   6.887
 4714SOL    HW115041   1.355   2.529   6.832
 4714SOL    HW215042   1.441   2.404   6.893
 4715SOL     OW15043   6.786   3.004   1.826
 4715SOL    HW115044   6.727   2.962   1.757
 4715SOL    HW215045   6.816   2.935   1.891
 4716SOL     OW15046   4.614   5.829   6.423
 4716SOL    HW115047   4.704   5.848   6.382
 4716SOL    HW215048   4.577   5.912   6.463
 4717SOL     OW15049   0.651   6.503   3.388
 4717SOL    HW115050   0.661   6.599   3.414
 4717SOL    HW215051   0.554   6.477   3.393
 4718SOL     OW15052   5.559   2.820   0.615
 4718SOL    HW115053   5.529   2.782   0.702
 4718SOL    HW215054   5.571   2.747   0.548
 4719SOL     OW15055   5.602   3.022   2.194
 4719SOL    HW115056   5.686   3.007   2.142
 4719SOL    HW215057   5.582   3.119   2.200
 4720SOL     OW15058   2.016   5.681   5.759
 4720SOL    HW115059   2.054   5.612   5.821
 4720SOL    HW215060   2.039   5.658   5.665
 4721SOL     OW15061   6.441   2.558   1.750
 4721SOL    HW115062   6.352   2.512   1.742
 4721SOL    HW215063   6.510   2.492   1.779
 4722SOL     OW15064   0.689   5.901   6.498
 4722SOL    HW115065   0.765   5.909   6.563
 4722SOL    HW215066   0.725   5.900   6.404
 4723SOL     OW15067   2.178   4.228   6.413
 4723SOL    HW115068   2.082   4.211   6.393
 4723SOL    HW215069   2.220   4.144   6.448
 4724SOL     OW15070   5.067   6.111   2.990
 4724SOL    HW115071   5.026   6.047   2.926
 4724SOL    HW215072   4.998   6.177   3.021
 4725SOL     OW15073   6.262   6.474   2.569
 4725SOL    HW115074   6.241   6.484   2.667
 4725SOL    HW215075   6.219   6.391   2.534
 4726SOL     OW15076   1.421   2.369   6.503
 4726SOL    HW115077   1.456   2.446   6.450
 4726SOL    HW215078   1.496   2.321   6.547
 4727SOL     OW15079   1.143   6.314   0.400
 4727SOL    HW115080   1.054   6.359   0.405
 4727SOL    HW215081   1.138   6.227   0.449
 4728SOL     OW15082   5.078   0.699   1.302
 4728SOL    HW115083   5.010   0.695   1.229
 4728SOL    HW215084   5.129   0.612   1.305
 4729SOL     OW15085   2.417   1.539   1.483
 4729SOL    HW115086   2.431   1.610   1.551
 4729SOL    HW215087   2.320   1.513   1.481
 4730SOL     OW15088   3.464   5.661   4.516
 4730SOL    HW115089   3.500   5.663   4.423
 4730SOL    HW215090   3.437   5.568   4.540
 4731SOL     OW15091   4.415   6.846   6.340
 4731SOL    HW115092   4.432   6.924   6.400
 4731SOL    HW215093   4.326   6.806   6.361
 4732SOL     OW15094   0.726   3.569   5.539
 4732SOL    HW115095   0.742   3.636   5.612
 4732SOL    HW215096   0.692   3.484   5.580
 4733SOL     OW15097   1.761   4.575   3.834
 4733SOL    HW115098   1.697   4.536   3.900
 4733SOL    HW215099   1.848   4.526   3.839
 4734SOL     OW15100   4.983   2.686   0.053
 4734SOL    HW115101   5.010   2.776   0.087
 4734SOL    HW215102   5.065   2.629   0.044
 4735SOL     OW15103   0.140   5.754   4.636
 4735SOL    HW115104   0.107   5.666   4.669
 4735SOL    HW215105   0.123   5.760   4.537
 4736SOL     OW15106   0.057   2.373   6.658
 4736SOL    HW115107   0.064   2.278   6.626
 4736SOL    HW215108   7.010   2.378   6.731
 4737SOL     OW15109   2.017   4.411   1.939
 4737SOL    HW115110   1.962   4.330   1.918
 4737SOL    HW215111   1.964   4.494   1.922
 4738SOL     OW15112   0.007   6.522   3.016
 4738SOL    HW115113   0.030   6.618   3.000
 4738SOL    HW215114   6.953   6.516   3.082
 4739SOL     OW15115   4.273   6.630   3.161
 4739SOL    HW115116   4.186   6.613   3.116
 4739SOL    HW215117   4.312   6.716   3.126
 4740SOL     OW15118   1.003   1.569   0.811
 4740SOL    HW115119   0.957   1.611   0.733
 4740SOL    HW215120   0.937   1.520   0.866
 4741SOL     OW15121   3.781   3.128   1.286
 4741SOL    HW115122   3.795   3.223   1.314
 4741SOL    HW215123   3.690   3.117   1.247
 4742SOL     OW15124   3.026   6.419   5.798
 4742SOL    HW115125   3.040   6.410   5.896
 4742SOL    HW215126   2.970   6.343   5.765
 4743SOL     OW15127   1.556   4.087   3.044
 4743SOL    HW115128   1.635   4.041   3.085
 4743SOL    HW215129   1.482   4.091   3.111
 4744SOL     OW15130   2.105   4.608   0.827
 4744SOL    HW115131   2.200   4.595   0.798
 4744SOL    HW215132   2.057   4.662   0.758
 4745SOL     OW15133   2.915   3.431   5.763
 4745SOL    HW115134   2.861   3.466   5.840
 4745SOL    HW215135   2.971   3.354   5.795
 4746SOL     OW15136   5.219   6.023   3.429
 4746SOL    HW115137   5.133   5.974   3.412
 4746SOL    HW215138   5.240   6.082   3.351
 4747SOL     OW15139   1.712   4.067   6.965
 4747SOL    HW115140   1.749   4.024   0.027
 4747SOL    HW215141   1.664   3.999   6.910
 4748SOL     OW15142   2.416   5.331   1.549
 4748SOL    HW115143   2.440   5.280   1.632
 4748SOL    HW215144   2.491   5.394   1.526
 4749SOL     OW15145   2.392   6.271   5.976
 4749SOL    HW115146   2.373   6.177   6.003
 4749SOL    HW215147   2.490   6.281   5.957
 4750SOL     OW15148   6.985   4.429   4.671
 4750SOL    HW115149   0.003   4.495   4.736
 4750SOL    HW215150   6.967   4.343   4.718
 4751SOL     OW15151   4.087   1.936   3.201
 4751SOL    HW115152   4.170   1.943   3.257
 4751SOL    HW215153   4.024   2.011   3.224
 4752SOL     OW15154   4.459   1.203   7.018
 4752SOL    HW115155   4.429   1.298   0.006
 4752SOL    HW215156   4.401   1.144   0.053
 4753SOL     OW15157   6.989   0.136   4.546
 4753SOL    HW115158   0.014   0.073   4.608
 4753SOL    HW215159   0.035   0.202   4.511
 4754SOL     OW15160   5.415   4.081   4.942
 4754SOL    HW115161   5.443   4.173   4.971
 4754SOL    HW215162   5.315   4.079   4.932
 4755SOL     OW15163   2.455   1.007   0.205
 4755SOL    HW115164   2.360   0.977   0.213
 4755SOL    HW215165   2.514   0.928   0.189
 4756SOL     OW15166   5.692   3.349   5.911
 4756SOL    HW115167   5.698   3.299   5.825
 4756SOL    HW215168   5.716   3.289   5.987
 4757SOL     OW15169   2.557   2.095   1.615
 4757SOL    HW115170   2.471   2.115   1.569
 4757SOL    HW215171   2.551   2.006   1.660
 4758SOL     OW15172   1.451   6.823   3.207
 4758SOL    HW115173   1.466   6.914   3.167
 4758SOL    HW215174   1.359   6.791   3.183
 4759SOL     OW15175   0.172   5.159   6.141
 4759SOL    HW115176   0.195   5.090   6.071
 4759SOL    HW215177   0.074   5.158   6.158
 4760SOL     OW15178   2.201   1.999   0.537
 4760SOL    HW115179   2.293   1.969   0.511
 4760SOL    HW215180   2.179   1.963   0.628
 4761SOL     OW15181   0.905   6.464   0.650
 4761SOL    HW115182   0.972   6.430   0.716
 4761SOL    HW215183   0.826   6.402   0.648
 4762SOL     OW15184   1.219   5.242   1.682
 4762SOL    HW115185   1.295   5.194   1.639
 4762SOL    HW215186   1.255   5.312   1.744
 4763SOL     OW15187   5.987   0.440   2.533
 4763SOL    HW115188   5.967   0.343   2.532
 4763SOL    HW215189   5.964   0.479   2.622
 4764SOL     OW15190   4.639   4.169   5.301
 4764SOL    HW115191   4.641   4.083   5.351
 4764SOL    HW215192   4.545   4.199   5.287
 4765SOL     OW15193   3.752   0.858   5.466
 4765SOL    HW115194   3.689   0.826   5.395
 4765SOL    HW215195   3.845   0.861   5.429
 4766SOL     OW15196   5.648   5.534   3.592
 4766SOL    HW115197   5.551   5.532   3.616
 4766SOL    HW215198   5.669   5.457   3.532
 4767SOL     OW15199   2.896   5.119   4.791
 4767SOL    HW115200   2.959   5.089   4.863
 4767SOL    HW215201   2.831   5.184   4.829
 4768SOL     OW15202   4.429   1.993   6.377
 4768SOL    HW115203   4.393   2.028   6.291
 4768SOL    HW215204   4.447   2.069   6.439
 4769SOL     OW15205   5.024   6.278   0.335
 4769SOL    HW115206   4.966   6.330   0.273
 4769SOL    HW215207   5.118   6.312   0.331
 4770SOL     OW15208   6.755   1.396   4.796
 4770SOL    HW115209   6.676   1.376   4.854
 4770SOL    HW215210   6.782   1.314   4.747
 4771SOL     OW15211   3.320   6.357   5.959
 4771SOL    HW115212   3.410   6.330   5.994
 4771SOL    HW215213   3.297   6.301   5.880
 4772SOL     OW15214   3.628   4.684   0.150
 4772SOL    HW115215   3.668   4.604   0.196
 4772SOL    HW215216   3.567   4.732   0.213
 4773SOL     OW15217   6.776   5.088   5.582
 4773SOL    HW115218   6.719   5.078   5.664
 4773SOL    HW215219   6.848   5.155   5.600
 4774SOL     OW15220   1.425   3.928   1.160
 4774SOL    HW115221   1.511   3.962   1.121
 4774SOL    HW215222   1.393   3.849   1.107
 4775SOL     OW15223   4.963   6.591   3.431
 4775SOL    HW115224   4.890   6.531   3.463
 4775SOL    HW215225   5.049   6.540   3.428
 4776SOL     OW15226   0.823   0.139   5.033
 4776SOL    HW115227   0.790   0.046   5.018
 4776SOL    HW215228   0.763   0.203   4.985
 4777SOL     OW15229   1.325   4.791   1.111
 4777SOL    HW115230   1.411   4.841   1.115
 4777SOL    HW215231   1.321   4.738   1.026
 4778SOL     OW15232   6.580   3.284   4.267
 4778SOL    HW115233   6.629   3.356   4.217
 4778SOL    HW215234   6.503   3.324   4.317
 4779SOL     OW15235   5.309   0.536   2.690
 4779SOL    HW115236   5.262   0.459   2.733
 4779SOL    HW215237   5.384   0.501   2.634
 4780SOL     OW15238   6.293   2.511   0.164
 4780SOL    HW115239   6.369   2.554   0.116
 4780SOL    HW215240   6.304   2.412   0.161
 4781SOL     OW15241   2.364   5.223   2.626
 4781SOL    HW115242   2.453   5.209   2.582
 4781SOL    HW215243   2.295   5.242   2.557
 4782SOL     OW15244   6.240   5.529   6.856
 4782SOL    HW115245   6.171   5.457   6.848
 4782SOL    HW215246   6.194   5.618   6.856
 4783SOL     OW15247   5.089   3.534   0.166
 4783SOL    HW115248   5.002   3.493   0.140
 4783SOL    HW215249   5.084   3.633   0.152
 4784SOL     OW15250   6.096   2.173   6.598
 4784SOL    HW115251   6.108   2.272   6.601
 4784SOL    HW215252   6.174   2.128   6.642
 4785SOL     OW15253   0.551   5.775   3.185
 4785SOL    HW115254   0.492   5.695   3.177
 4785SOL    HW215255   0.646   5.748   3.171
 4786SOL     OW15256   2.452   0.009   0.463
 4786SOL    HW115257   2.542   7.010   0.422
 4786SOL    HW215258   2.462   0.017   0.562
 4787SOL     OW15259   4.084   1.382   3.067
 4787SOL    HW115260   4.094   1.478   3.091
 4787SOL    HW215261   4.137   1.362   2.985
 4788SOL     OW15262   6.810   6.794   0.131
 4788SOL    HW115263   6.739   6.843   0.180
 4788SOL    HW215264   6.862   6.858   0.074
 4789SOL     OW15265   5.745   1.805   2.191
 4789SOL    HW115266   5.772   1.709   2.195
 4789SOL    HW215267   5.659   1.813   2.140
 4790SOL     OW15268   5.833   1.699   5.738
 4790SOL    HW115269   5.771   1.620   5.739
 4790SOL    HW215270   5.794   1.772   5.793
 4791SOL     OW15271   0.374   2.875   1.189
 4791SOL    HW115272   0.420   2.886   1.101
 4791SOL    HW215273   0.344   2.964   1.222
 4792SOL     OW15274   2.532   4.576   3.843
 4792SOL    HW115275   2.454   4.539   3.894
 4792SOL    HW215276   2.513   4.571   3.745
 4793SOL     OW15277   1.761   2.411   5.363
 4793SOL    HW115278   1.732   2.478   5.431
 4793SOL    HW215279   1.861   2.407   5.363
 4794SOL     OW15280   4.869   6.864   4.876
 4794SOL    HW115281   4.771   6.879   4.888
 4794SOL    HW215282   4.893   6.872   4.779
 4795SOL     OW15283   6.379   2.196   4.185
 4795SOL    HW115284   6.411   2.107   4.219
 4795SOL    HW215285   6.365   2.258   4.262
 4796SOL     OW15286   3.976   0.944   5.030
 4796SOL    HW115287   4.018   1.034   5.032
 4796SOL    HW215288   3.985   0.900   5.119
 4797SOL     OW15289   0.498   6.804   4.886
 4797SOL    HW115290   0.419   6.763   4.930
 4797SOL    HW215291   0.497   6.780   4.789
 4798SOL     OW15292   0.455   4.433   5.784
 4798SOL    HW115293   0.535   4.377   5.764
 4798SOL    HW215294   0.389   4.426   5.709
 4799SOL     OW15295   4.158   1.680   0.719
 4799SOL    HW115296   4.132   1.678   0.815
 4799SOL    HW215297   4.132   1.594   0.675
 4800SOL     OW15298   2.436   2.934   6.605
 4800SOL    HW115299   2.478   2.867   6.666
 4800SOL    HW215300   2.481   2.932   6.516
 4801SOL     OW15301   3.099   2.468   6.827
 4801SOL    HW115302   3.160   2.546   6.843
 4801SOL    HW215303   3.153   2.384   6.824
 4802SOL     OW15304   0.305   6.484   1.494
 4802SOL    HW115305   0.355   6.498   1.580
 4802SOL    HW215306   0.265   6.393   1.494
 4803SOL     OW15307   0.697   4.313   0.321
 4803SOL    HW115308   0.682   4.244   0.251
 4803SOL    HW215309   0.794   4.315   0.345
 4804SOL     OW15310   6.691   6.470   1.226
 4804SOL    HW115311   6.617   6.478   1.160
 4804SOL    HW215312   6.774   6.439   1.180
 4805SOL     OW15313   6.376   0.721   2.674
 4805SOL    HW115314   6.355   0.767   2.588
 4805SOL    HW215315   6.398   0.625   2.657
 4806SOL     OW15316   1.224   4.149   2.468
 4806SOL    HW115317   1.275   4.070   2.435
 4806SOL    HW215318   1.159   4.119   2.539
 4807SOL     OW15319   0.504   4.619   6.871
 4807SOL    HW115320   0.539   4.644   6.961
 4807SOL    HW215321   0.531   4.688   6.804
 4808SOL     OW15322   4.334   5.510   0.209
 4808SOL    HW115323   4.354   5.419   0.245
 4808SOL    HW215324   4.376   5.521   0.120
 4809SOL     OW15325   3.231   4.488   0.716
 4809SOL    HW115326   3.258   4.554   0.646
 4809SOL    HW215327   3.259   4.521   0.806
 4810SOL     OW15328   1.133   4.138   3.144
 4810SOL    HW115329   1.059   4.107   3.203
 4810SOL    HW215330   1.216   4.151   3.199
 4811SOL     OW15331   3.365   3.882   2.387
 4811SOL    HW115332   3.297   3.951   2.362
 4811SOL    HW215333   3.454   3.910   2.351
 4812SOL     OW15334   0.827   6.490   2.584
 4812SOL    HW115335   0.917   6.484   2.540
 4812SOL    HW215336   0.770   6.556   2.535
 4813SOL     OW15337   6.018   1.334   6.277
 4813SOL    HW115338   5.965   1.298   6.354
 4813SOL    HW215339   5.961   1.395   6.223
 4814SOL     OW15340   6.991   2.925   1.214
 4814SOL    HW115341   7.015   3.010   1.261
 4814SOL    HW215342   0.032   2.852   1.244
 4815SOL     OW15343   5.473   4.214   2.847
 4815SOL    HW115344   5.392   4.176   2.802
 4815SOL    HW215345   5.511   4.288   2.792
 4816SOL     OW15346   2.580   5.137   1.150
 4816SOL    HW115347   2.566   5.154   1.052
 4816SOL    HW215348   2.620   5.047   1.163
 4817SOL     OW15349   2.466   1.419   0.480
 4817SOL    HW115350   2.416   1.368   0.550
 4817SOL    HW215351   2.508   1.354   0.416
 4818SOL     OW15352   0.453   0.544   4.055
 4818SOL    HW115353   0.412   0.453   4.043
 4818SOL    HW215354   0.380   0.612   4.064
 4819SOL     OW15355   2.258   2.220   1.378
 4819SOL    HW115356   2.262   2.315   1.407
 4819SOL    HW215357   2.304   2.210   1.289
 4820SOL     OW15358   6.223   2.036   0.784
 4820SOL    HW115359   6.320   2.043   0.809
 4820SOL    HW215360   6.197   1.939   0.784
 4821SOL     OW15361   0.454   0.076   1.884
 4821SOL    HW115362   0.481   0.003   1.821
 4821SOL    HW215363   0.515   0.154   1.872
 4822SOL     OW15364   1.888   3.371   4.075
 4822SOL    HW115365   1.983   3.377   4.044
 4822SOL    HW215366   1.835   3.447   4.037
 4823SOL     OW15367   1.063   0.776   4.070
 4823SOL    HW115368   1.097   0.728   3.989
 4823SOL    HW215369   1.137   0.786   4.136
 4824SOL     OW15370   5.436   1.797   4.058
 4824SOL    HW115371   5.457   1.820   4.153
 4824SOL    HW215372   5.498   1.847   3.997
 4825SOL     OW15373   1.892   2.227   5.009
 4825SOL    HW115374   1.792   2.214   5.005
 4825SOL    HW215375   1.936   2.156   4.955
 4826SOL     OW15376   0.292   0.378   6.296
 4826SOL    HW115377   0.249   0.288   6.304
 4826SOL    HW215378   0.251   0.428   6.220
 4827SOL     OW15379   5.706   2.325   1.763
 4827SOL    HW115380   5.680   2.347   1.669
 4827SOL    HW215381   5.636   2.265   1.803
 4828SOL     OW15382   5.604   2.576   1.430
 4828SOL    HW115383   5.642   2.659   1.472
 4828SOL    HW215384   5.505   2.578   1.436
 4829SOL     OW15385   3.722   6.267   6.964
 4829SOL    HW115386   3.696   6.341   6.902
 4829SOL    HW215387   3.641   6.213   6.987
 4830SOL     OW15388   4.369   6.674   3.409
 4830SOL    HW115389   4.403   6.598   3.464
 4830SOL    HW215390   4.334   6.638   3.322
 4831SOL     OW15391   0.233   5.117   6.637
 4831SOL    HW115392   0.247   5.104   6.539
 4831SOL    HW215393   0.135   5.124   6.656
 4832SOL     OW15394   3.110   2.522   5.937
 4832SOL    HW115395   3.141   2.489   5.847
 4832SOL    HW215396   3.181   2.506   6.005
 4833SOL     OW15397   5.429   1.977   3.368
 4833SOL    HW115398   5.437   1.995   3.270
 4833SOL    HW215399   5.377   2.051   3.411
 4834SOL     OW15400   4.047   6.865   0.705
 4834SOL    HW115401   4.106   6.928   0.755
 4834SOL    HW215402   3.956   6.903   0.697
 4835SOL     OW15403   0.447   1.569   6.282
 4835SOL    HW115404   0.523   1.628   6.257
 4835SOL    HW215405   0.439   1.495   6.214
 4836SOL     OW15406   5.001   3.101   3.916
 4836SOL    HW115407   4.928   3.050   3.960
 4836SOL    HW215408   4.980   3.113   3.819
 4837SOL     OW15409   5.530   4.425   2.282
 4837SOL    HW115410   5.620   4.389   2.308
 4837SOL    HW215411   5.543   4.503   2.220
 4838SOL     OW15412   0.814   4.645   1.137
 4838SOL    HW115413   0.792   4.635   1.234
 4838SOL    HW215414   0.902   4.692   1.127
 4839SOL     OW15415   1.282   2.673   6.366
 4839SOL    HW115416   1.264   2.582   6.331
 4839SOL    HW215417   1.200   2.729   6.359
 4840SOL     OW15418   0.647   5.570   5.747
 4840SOL    HW115419   0.603   5.502   5.688
 4840SOL    HW215420   0.746   5.553   5.749
 4841SOL     OW15421   3.273   6.056   1.890
 4841SOL    HW115422   3.245   6.121   1.960
 4841SOL    HW215423   3.348   5.999   1.924
 4842SOL     OW15424   3.304   4.931   2.172
 4842SOL    HW115425   3.255   4.871   2.236
 4842SOL    HW215426   3.238   4.982   2.117
 4843SOL     OW15427   6.109   3.136   0.455
 4843SOL    HW115428   6.121   3.040   0.430
 4843SOL    HW215429   6.146   3.151   0.547
 4844SOL     OW15430   6.286   3.899   5.392
 4844SOL    HW115431   6.288   3.815   5.446
 4844SOL    HW215432   6.377   3.941   5.390
 4845SOL     OW15433   5.473   5.594   5.149
 4845SOL    HW115434   5.439   5.533   5.221
 4845SOL    HW215435   5.396   5.628   5.095
 4846SOL     OW15436   6.762   2.772   3.547
 4846SOL    HW115437   6.731   2.727   3.631
 4846SOL    HW215438   6.811   2.706   3.491
 4847SOL     OW15439   2.714   1.095   6.252
 4847SOL    HW115440   2.811   1.087   6.231
 4847SOL    HW215441   2.701   1.161   6.326
 4848SOL     OW15442   1.683   0.977   3.872
 4848SOL    HW115443   1.740   1.059   3.873
 4848SOL    HW215444   1.731   0.904   3.823
 4849SOL     OW15445   1.848   6.836   6.963
 4849SOL    HW115446   1.791   6.895   6.905
 4849SOL    HW215447   1.877   6.886   0.023
 4850SOL     OW15448   4.238   1.307   2.863
 4850SOL    HW115449   4.336   1.304   2.878
 4850SOL    HW215450   4.214   1.249   2.784
 4851SOL     OW15451   3.887   5.876   5.922
 4851SOL    HW115452   3.830   5.908   5.847
 4851SOL    HW215453   3.947   5.803   5.891
 4852SOL     OW15454   0.991   6.859   5.054
 4852SOL    HW115455   1.023   6.943   5.097
 4852SOL    HW215456   0.892   6.854   5.059
 4853SOL     OW15457   2.917   0.917   3.568
 4853SOL    HW115458   2.921   0.971   3.652
 4853SOL    HW215459   2.830   0.869   3.563
 4854SOL     OW15460   4.469   0.212   1.847
 4854SOL    HW115461   4.459   0.190   1.944
 4854SOL    HW215462   4.392   0.269   1.818
 4855SOL     OW15463   6.530   3.266   2.103
 4855SOL    HW115464   6.528   3.166   2.093
 4855SOL    HW215465   6.474   3.293   2.181
 4856SOL     OW15466   1.600   3.731   2.436
 4856SOL    HW115467   1.552   3.707   2.521
 4856SOL    HW215468   1.657   3.654   2.407
 4857SOL     OW15469   1.967   2.059   4.814
 4857SOL    HW115470   2.056   2.050   4.770
 4857SOL    HW215471   1.895   2.044   4.745
 4858SOL     OW15472   0.930   0.881   4.313
 4858SOL    HW115473   0.958   0.796   4.357
 4858SOL    HW215474   0.931   0.868   4.214
 4859SOL     OW15475   0.526   0.769   4.288
 4859SOL    HW115476   0.592   0.843   4.303
 4859SOL    HW215477   0.572   0.681   4.293
 4860SOL     OW15478   3.721   4.581   1.395
 4860SOL    HW115479   3.675   4.669   1.384
 4860SOL    HW215480   3.706   4.525   1.314
 4861SOL     OW15481   5.269   4.820   6.835
 4861SOL    HW115482   5.217   4.770   6.765
 4861SOL    HW215483   5.249   4.782   6.925
 4862SOL     OW15484   2.521   4.567   4.289
 4862SOL    HW115485   2.474   4.647   4.326
 4862SOL    HW215486   2.563   4.591   4.202
 4863SOL     OW15487   6.097   3.561   1.484
 4863SOL    HW115488   6.097   3.488   1.551
 4863SOL    HW215489   6.003   3.582   1.457
 4864SOL     OW15490   3.932   1.226   3.304
 4864SOL    HW115491   3.932   1.127   3.315
 4864SOL    HW215492   3.977   1.250   3.218
 4865SOL     OW15493   2.319   0.252   5.061
 4865SOL    HW115494   2.386   0.208   5.121
 4865SOL    HW215495   2.291   0.188   4.990
 4866SOL     OW15496   6.156   2.241   1.448
 4866SOL    HW115497   6.111   2.153   1.458
 4866SOL    HW215498   6.090   2.315   1.461
 4867SOL     OW15499   3.500   5.395   2.239
 4867SOL    HW115500   3.546   5.483   2.237
 4867SOL    HW215501   3.566   5.323   2.260
 4868SOL     OW15502   6.555   5.464   2.654
 4868SOL    HW115503   6.643   5.512   2.646
 4868SOL    HW215504   6.492   5.519   2.708
 4869SOL     OW15505   1.371   1.395   1.208
 4869SOL    HW115506   1.390   1.438   1.296
 4869SOL    HW215507   1.287   1.434   1.169
 4870SOL     OW15508   0.024   6.391   2.006
 4870SOL    HW115509   6.975   6.434   1.949
 4870SOL    HW215510   0.042   6.299   1.973
 4871SOL     OW15511   1.586   0.560   3.800
 4871SOL    HW115512   1.667   0.617   3.783
 4871SOL    HW215513   1.538   0.546   3.713
 4872SOL     OW15514   6.362   6.790   3.653
 4872SOL    HW115515   6.377   6.773   3.750
 4872SOL    HW215516   6.383   6.707   3.601
 4873SOL     OW15517   6.545   5.491   2.995
 4873SOL    HW115518   6.466   5.544   2.964
 4873SOL    HW215519   6.627   5.522   2.947
 4874SOL     OW15520   6.614   3.460   2.487
 4874SOL    HW115521   6.623   3.371   2.443
 4874SOL    HW215522   6.566   3.449   2.574
 4875SOL     OW15523   6.225   2.313   1.073
 4875SOL    HW115524   6.126   2.300   1.086
 4875SOL    HW215525   6.249   2.407   1.096
 4876SOL     OW15526   6.077   1.839   3.676
 4876SOL    HW115527   6.027   1.898   3.612
 4876SOL    HW215528   6.061   1.743   3.651
 4877SOL     OW15529   1.371   1.976   6.400
 4877SOL    HW115530   1.332   1.905   6.458
 4877SOL    HW215531   1.463   1.999   6.432
 4878SOL     OW15532   6.161   1.286   2.472
 4878SOL    HW115533   6.087   1.238   2.424
 4878SOL    HW215534   6.132   1.307   2.565
 4879SOL     OW15535   3.947   0.415   2.739
 4879SOL    HW115536   3.914   0.320   2.737
 4879SOL    HW215537   3.879   0.475   2.698
 4880SOL     OW15538   5.408   3.272   0.536
 4880SOL    HW115539   5.382   3.362   0.502
 4880SOL    HW215540   5.494   3.244   0.492
 4881SOL     OW15541   1.513   0.551   0.303
 4881SOL    HW115542   1.435   0.550   0.241
 4881SOL    HW215543   1.497   0.488   0.379
 4882SOL     OW15544   4.969   0.731   4.813
 4882SOL    HW115545   4.990   0.773   4.725
 4882SOL    HW215546   5.030   0.653   4.828
 4883SOL     OW15547   4.858   4.852   2.024
 4883SOL    HW115548   4.893   4.778   2.081
 4883SOL    HW215549   4.866   4.939   2.072
 4884SOL     OW15550   2.891   6.772   1.028
 4884SOL    HW115551   2.807   6.730   1.063
 4884SOL    HW215552   2.876   6.803   0.934
 4885SOL     OW15553   2.732   5.359   1.866
 4885SOL    HW115554   2.755   5.381   1.961
 4885SOL    HW215555   2.804   5.302   1.827
 4886SOL     OW15556   1.171   6.093   1.391
 4886SOL    HW115557   1.109   6.095   1.470
 4886SOL    HW215558   1.118   6.107   1.307
 4887SOL     OW15559   0.648   0.650   2.502
 4887SOL    HW115560   0.627   0.725   2.565
 4887SOL    HW215561   0.692   0.687   2.420
 4888SOL     OW15562   2.776   7.019   3.839
 4888SOL    HW115563   2.828   6.977   3.765
 4888SOL    HW215564   2.678   7.007   3.821
 4889SOL     OW15565   0.058   1.523   5.666
 4889SOL    HW115566   0.063   1.593   5.595
 4889SOL    HW215567   0.151   1.500   5.697
 4890SOL     OW15568   0.242   1.020   6.647
 4890SOL    HW115569   0.336   0.997   6.620
 4890SOL    HW215570   0.244   1.091   6.718
 4891SOL     OW15571   2.208   4.638   6.896
 4891SOL    HW115572   2.221   4.552   6.847
 4891SOL    HW215573   2.266   4.709   6.853
 4892SOL     OW15574   3.775   6.079   1.779
 4892SOL    HW115575   3.678   6.105   1.782
 4892SOL    HW215576   3.832   6.160   1.792
 4893SOL     OW15577   6.876   3.292   1.489
 4893SOL    HW115578   6.798   3.340   1.451
 4893SOL    HW215579   6.874   3.298   1.589
 4894SOL     OW15580   2.558   1.387   3.734
 4894SOL    HW115581   2.551   1.291   3.761
 4894SOL    HW215582   2.550   1.445   3.816
 4895SOL     OW15583   0.988   4.606   3.917
 4895SOL    HW115584   0.944   4.517   3.908
 4895SOL    HW215585   1.063   4.600   3.983
 4896SOL     OW15586   1.768   4.714   1.954
 4896SOL    HW115587   1.825   4.743   1.877
 4896SOL    HW215588   1.827   4.693   2.033
 4897SOL     OW15589   2.013   3.603   5.726
 4897SOL    HW115590   2.107   3.590   5.695
 4897SOL    HW215591   2.008   3.684   5.785
 4898SOL     OW15592   4.163   0.685   4.256
 4898SOL    HW115593   4.139   0.754   4.188
 4898SOL    HW215594   4.225   0.617   4.214
 4899SOL     OW15595   5.375   5.393   3.328
 4899SOL    HW115596   5.339   5.313   3.377
 4899SOL    HW215597   5.305   5.464   3.325
 4900SOL     OW15598   3.436   6.088   4.721
 4900SOL    HW115599   3.391   5.999   4.716
 4900SOL    HW215600   3.378   6.152   4.771
 4901SOL     OW15601   2.909   0.558   5.091
 4901SOL    HW115602   2.841   0.602   5.032
 4901SOL    HW215603   2.974   0.627   5.124
 4902SOL     OW15604   2.186   1.670   4.732
 4902SOL    HW115605   2.217   1.742   4.795
 4902SOL    HW215606   2.214   1.693   4.639
 4903SOL     OW15607   3.994   5.617   6.907
 4903SOL    HW115608   3.959   5.523   6.903
 4903SOL    HW215609   4.093   5.615   6.902
 4904SOL     OW15610   2.515   0.316   4.504
 4904SOL    HW115611   2.424   0.336   4.542
 4904SOL    HW215612   2.512   0.323   4.404
 4905SOL     OW15613   3.690   6.802   2.687
 4905SOL    HW115614   3.655   6.801   2.593
 4905SOL    HW215615   3.614   6.811   2.751
 4906SOL     OW15616   5.108   2.282   6.273
 4906SOL    HW115617   5.109   2.194   6.226
 4906SOL    HW215618   5.075   2.353   6.210
 4907SOL     OW15619   4.257   5.999   2.096
 4907SOL    HW115620   4.185   6.067   2.111
 4907SOL    HW215621   4.344   6.045   2.082
 4908SOL     OW15622   5.325   5.536   0.553
 4908SOL    HW115623   5.258   5.503   0.619
 4908SOL    HW215624   5.327   5.636   0.554
 4909SOL     OW15625   0.242   6.685   3.975
 4909SOL    HW115626   0.204   6.735   3.897
 4909SOL    HW215627   0.328   6.727   4.003
 4910SOL     OW15628   5.711   0.920   4.645
 4910SOL    HW115629   5.625   0.903   4.694
 4910SOL    HW215630   5.761   0.993   4.690
 4911SOL     OW15631   1.476   4.126   3.996
 4911SOL    HW115632   1.386   4.139   4.037
 4911SOL    HW215633   1.510   4.034   4.017
 4912SOL     OW15634   5.508   1.798   6.270
 4912SOL    HW115635   5.600   1.758   6.277
 4912SOL    HW215636   5.440   1.727   6.286
 4913SOL     OW15637   3.820   2.920   5.152
 4913SOL    HW115638   3.746   2.882   5.096
 4913SOL    HW215639   3.865   2.993   5.102
 4914SOL     OW15640   3.186   0.396   4.352
 4914SOL    HW115641   3.117   0.461   4.320
 4914SOL    HW215642   3.155   0.303   4.333
 4915SOL     OW15643   3.577   6.293   6.112
 4915SOL    HW115644   3.620   6.382   6.104
 4915SOL    HW215645   3.569   6.268   6.209
 4916SOL     OW15646   1.141   0.453   4.025
 4916SOL    HW115647   1.240   0.463   4.024
 4916SOL    HW215648   1.099   0.535   4.064
 4917SOL     OW15649   2.581   5.524   1.498
 4917SOL    HW115650   2.598   5.554   1.404
 4917SOL    HW215651   2.579   5.603   1.559
 4918SOL     OW15652   4.972   5.196   3.348
 4918SOL    HW115653   4.951   5.130   3.275
 4918SOL    HW215654   4.940   5.287   3.322
 4919SOL     OW15655   2.869   2.922   0.524
 4919SOL    HW115656   2.843   2.838   0.477
 4919SOL    HW215657   2.787   2.967   0.561
 4920SOL     OW15658   6.010   1.000   4.071
 4920SOL    HW115659   6.008   0.988   4.171
 4920SOL    HW215660   6.088   0.951   4.034
 4921SOL     OW15661   0.995   4.946   0.463
 4921SOL    HW115662   0.925   4.988   0.405
 4921SOL    HW215663   0.977   4.849   0.473
 4922SOL     OW15664   2.493   2.492   4.964
 4922SOL    HW115665   2.448   2.577   4.991
 4922SOL    HW215666   2.580   2.483   5.012
 4923SOL     OW15667   3.851   1.896   2.847
 4923SOL    HW115668   3.903   1.862   2.768
 4923SOL    HW215669   3.805   1.982   2.823
 4924SOL     OW15670   3.391   1.011   4.987
 4924SOL    HW115671   3.369   1.105   4.961
 4924SOL    HW215672   3.399   1.005   5.086
 4925SOL     OW15673   6.518   6.781   2.173
 4925SOL    HW115674   6.595   6.800   2.234
 4925SOL    HW215675   6.445   6.737   2.225
 4926SOL     OW15676   4.853   1.198   0.633
 4926SOL    HW115677   4.886   1.106   0.654
 4926SOL    HW215678   4.761   1.192   0.594
 4927SOL     OW15679   3.537   3.784   4.327
 4927SOL    HW115680   3.454   3.840   4.327
 4927SOL    HW215681   3.515   3.693   4.293
 4928SOL     OW15682   2.149   6.440   0.018
 4928SOL    HW115683   2.105   6.414   6.953
 4928SOL    HW215684   2.234   6.488   7.019
 4929SOL     OW15685   6.992   6.192   4.107
 4929SOL    HW115686   0.004   6.284   4.087
 4929SOL    HW215687   6.900   6.180   4.068
 4930SOL     OW15688   5.331   0.888   3.342
 4930SOL    HW115689   5.238   0.872   3.308
 4930SOL    HW215690   5.339   0.855   3.436
 4931SOL     OW15691   0.058   6.644   0.800
 4931SOL    HW115692   0.026   6.654   0.707
 4931SOL    HW215693   0.154   6.672   0.806
 4932SOL     OW15694   3.060   3.072   2.156
 4932SOL    HW115695   3.159   3.081   2.148
 4932SOL    HW215696   3.037   3.026   2.242
 4933SOL     OW15697   2.419   0.162   2.931
 4933SOL    HW115698   2.374   0.228   2.991
 4933SOL    HW215699   2.497   0.206   2.886
 4934SOL     OW15700   2.925   5.853   2.706
 4934SOL    HW115701   2.925   5.767   2.656
 4934SOL    HW215702   2.947   5.928   2.643
 4935SOL     OW15703   2.032   1.606   6.403
 4935SOL    HW115704   2.106   1.637   6.462
 4935SOL    HW215705   1.946   1.651   6.430
 4936SOL     OW15706   2.263   4.176   1.353
 4936SOL    HW115707   2.170   4.215   1.352
 4936SOL    HW215708   2.260   4.084   1.392
 4937SOL     OW15709   6.343   3.278   5.748
 4937SOL    HW115710   6.437   3.307   5.769
 4937SOL    HW215711   6.279   3.339   5.794
 4938SOL     OW15712   2.561   5.240   5.542
 4938SOL    HW115713   2.596   5.303   5.611
 4938SOL    HW215714   2.638   5.194   5.497
 4939SOL     OW15715   5.982   2.034   4.648
 4939SOL    HW115716   6.071   2.053   4.607
 4939SOL    HW215717   5.990   1.959   4.713
 4940SOL     OW15718   0.168   1.248   4.871
 4940SOL    HW115719   0.202   1.190   4.797
 4940SOL    HW215720   0.226   1.329   4.879
 4941SOL     OW15721   5.426   2.477   5.298
 4941SOL    HW115722   5.509   2.508   5.343
 4941SOL    HW215723   5.357   2.456   5.367
 4942SOL     OW15724   5.286   2.085   5.699
 4942SOL    HW115725   5.294   2.024   5.778
 4942SOL    HW215726   5.247   2.173   5.728
 4943SOL     OW15727   4.839   3.322   6.595
 4943SOL    HW115728   4.900   3.390   6.635
 4943SOL    HW215729   4.761   3.307   6.656
 4944SOL     OW15730   2.021   4.447   1.463
 4944SOL    HW115731   1.957   4.501   1.519
 4944SOL    HW215732   2.108   4.496   1.458
 4945SOL     OW15733   1.191   0.209   4.213
 4945SOL    HW115734   1.154   0.299   4.191
 4945SOL    HW215735   1.206   0.157   4.129
 4946SOL     OW15736   1.362   4.731   6.934
 4946SOL    HW115737   1.432   4.713   6.865
 4946SOL    HW215738   1.306   4.649   6.947
 4947SOL     OW15739   2.305   1.079   1.112
 4947SOL    HW115740   2.325   1.010   1.042
 4947SOL    HW215741   2.389   1.124   1.140
 4948SOL     OW15742   1.336   2.357   2.515
 4948SOL    HW115743   1.359   2.289   2.584
 4948SOL    HW215744   1.328   2.447   2.558
 4949SOL     OW15745   4.934   6.854   6.339
 4949SOL    HW115746   4.865   6.834   6.408
 4949SOL    HW215747   4.997   6.923   6.374
 4950SOL     OW15748   2.366   5.904   4.114
 4950SOL    HW115749   2.279   5.949   4.092
 4950SOL    HW215750   2.438   5.973   4.118
 4951SOL     OW15751   5.428   1.517   4.362
 4951SOL    HW115752   5.345   1.570   4.379
 4951SOL    HW215753   5.476   1.555   4.283
 4952SOL     OW15754   0.359   0.561   5.871
 4952SOL    HW115755   0.283   0.508   5.908
 4952SOL    HW215756   0.446   0.516   5.892
 4953SOL     OW15757   2.620   6.397   2.638
 4953SOL    HW115758   2.670   6.392   2.551
 4953SOL    HW215759   2.636   6.312   2.689
 4954SOL     OW15760   4.050   3.382   0.173
 4954SOL    HW115761   4.028   3.311   0.106
 4954SOL    HW215762   4.093   3.459   0.127
 4955SOL     OW15763   2.701   6.308   6.823
 4955SOL    HW115764   2.738   6.343   6.909
 4955SOL    HW215765   2.656   6.220   6.839
 4956SOL     OW15766   2.410   6.639   4.661
 4956SOL    HW115767   2.492   6.618   4.714
 4956SOL    HW215768   2.377   6.556   4.616
 4957SOL     OW15769   6.828   1.921   2.139
 4957SOL    HW115770   6.916   1.881   2.165
 4957SOL    HW215771   6.843   1.990   2.068
 4958SOL     OW15772   6.998   5.271   5.584
 4958SOL    HW115773   6.992   5.328   5.666
 4958SOL    HW215774   0.038   5.315   5.517
 4959SOL     OW15775   6.282   1.361   6.517
 4959SOL    HW115776   6.284   1.403   6.426
 4959SOL    HW215777   6.210   1.405   6.572
 4960SOL     OW15778   3.696   5.341   3.149
 4960SOL    HW115779   3.783   5.323   3.102
 4960SOL    HW215780   3.707   5.321   3.246
 4961SOL     OW15781   4.976   1.309   5.845
 4961SOL    HW115782   5.049   1.375   5.830
 4961SOL    HW215783   5.011   1.232   5.899
 4962SOL     OW15784   6.437   1.930   0.146
 4962SOL    HW115785   6.502   1.857   0.169
 4962SOL    HW215786   6.344   1.900   0.168
 4963SOL     OW15787   6.415   5.731   6.559
 4963SOL    HW115788   6.497   5.759   6.509
 4963SOL    HW215789   6.404   5.789   6.639
 4964SOL     OW15790   3.006   6.696   3.885
 4964SOL    HW115791   3.049   6.767   3.940
 4964SOL    HW215792   3.071   6.621   3.871
 4965SOL     OW15793   0.115   0.435   3.042
 4965SOL    HW115794   0.192   0.434   3.107
 4965SOL    HW215795   0.071   0.525   3.044
 4966SOL     OW15796   2.275   0.103   4.838
 4966SOL    HW115797   2.329   0.019   4.829
 4966SOL    HW215798   2.197   0.100   4.775
 4967SOL     OW15799   3.847   4.352   6.498
 4967SOL    HW115800   3.773   4.340   6.432
 4967SOL    HW215801   3.935   4.327   6.455
 4968SOL     OW15802   6.571   2.293   3.734
 4968SOL    HW115803   6.492   2.252   3.689
 4968SOL    HW215804   6.544   2.377   3.780
 4969SOL     OW15805   2.562   0.400   2.382
 4969SOL    HW115806   2.632   0.432   2.318
 4969SOL    HW215807   2.511   0.325   2.342
 4970SOL     OW15808   1.824   2.097   3.376
 4970SOL    HW115809   1.794   2.057   3.290
 4970SOL    HW215810   1.794   2.192   3.382
 4971SOL     OW15811   6.962   6.595   4.371
 4971SOL    HW115812   0.036   6.624   4.359
 4971SOL    HW215813   6.903   6.652   4.314
 4972SOL     OW15814   2.429   2.870   6.999
 4972SOL    HW115815   2.408   2.968   6.997
 4972SOL    HW215816   2.398   2.831   0.064
 4973SOL     OW15817   1.427   0.630   2.486
 4973SOL    HW115818   1.521   0.619   2.453
 4973SOL    HW215819   1.427   0.632   2.586
 4974SOL     OW15820   6.155   5.033   1.550
 4974SOL    HW115821   6.208   5.081   1.480
 4974SOL    HW215822   6.065   5.010   1.514
 4975SOL     OW15823   5.381   5.177   5.482
 4975SOL    HW115824   5.339   5.092   5.514
 4975SOL    HW215825   5.480   5.165   5.476
 4976SOL     OW15826   2.722   6.769   4.032
 4976SOL    HW115827   2.767   6.806   3.950
 4976SOL    HW215828   2.637   6.724   4.005
 4977SOL     OW15829   4.165   3.990   0.511
 4977SOL    HW115830   4.148   4.053   0.588
 4977SOL    HW215831   4.239   3.928   0.535
 4978SOL     OW15832   0.258   4.354   5.605
 4978SOL    HW115833   0.202   4.316   5.679
 4978SOL    HW215834   0.201   4.372   5.525
 4979SOL     OW15835   0.396   0.062   5.532
 4979SOL    HW115836   0.450   0.078   5.615
 4979SOL    HW215837   0.402   6.986   5.507
 4980SOL     OW15838   4.417   6.064   3.594
 4980SOL    HW115839   4.385   6.120   3.670
 4980SOL    HW215840   4.397   5.968   3.613
 4981SOL     OW15841   5.275   6.312   6.453
 4981SOL    HW115842   5.206   6.281   6.388
 4981SOL    HW215843   5.245   6.292   6.547
 4982SOL     OW15844   2.349   1.505   5.894
 4982SOL    HW115845   2.347   1.451   5.810
 4982SOL    HW215846   2.335   1.446   5.973
 4983SOL     OW15847   5.373   2.197   4.611
 4983SOL    HW115848   5.409   2.270   4.552
 4983SOL    HW215849   5.283   2.224   4.646
 4984SOL     OW15850   5.812   4.511   4.336
 4984SOL    HW115851   5.736   4.470   4.386
 4984SOL    HW215852   5.874   4.555   4.400
 4985SOL     OW15853   6.324   6.025   3.396
 4985SOL    HW115854   6.402   5.965   3.381
 4985SOL    HW215855   6.328   6.102   3.332
 4986SOL     OW15856   6.042   4.416   2.503
 4986SOL    HW115857   6.066   4.491   2.441
 4986SOL    HW215858   5.999   4.453   2.585
 4987SOL     OW15859   0.975   1.251   1.114
 4987SOL    HW115860   0.980   1.178   1.046
 4987SOL    HW215861   0.980   1.212   1.206
 4988SOL     OW15862   5.825   1.138   3.179
 4988SOL    HW115863   5.776   1.193   3.111
 4988SOL    HW215864   5.763   1.069   3.217
 4989SOL     OW15865   5.232   0.484   1.291
 4989SOL    HW115866   5.331   0.496   1.301
 4989SOL    HW215867   5.202   0.404   1.343
 4990SOL     OW15868   1.999   1.386   5.336
 4990SOL    HW115869   1.934   1.322   5.376
 4990SOL    HW215870   2.092   1.351   5.346
 4991SOL     OW15871   6.703   4.105   4.364
 4991SOL    HW115872   6.777   4.102   4.431
 4991SOL    HW215873   6.638   4.177   4.388
 4992SOL     OW15874   4.674   0.966   5.036
 4992SOL    HW115875   4.695   0.897   5.106
 4992SOL    HW215876   4.575   0.976   5.029
 4993SOL     OW15877   3.370   4.939   4.115
 4993SOL    HW115878   3.437   5.010   4.135
 4993SOL    HW215879   3.290   4.951   4.175
 4994SOL     OW15880   1.844   0.018   2.635
 4994SOL    HW115881   1.848   0.099   2.577
 4994SOL    HW215882   1.848   6.956   2.578
 4995SOL     OW15883   6.591   3.133   5.409
 4995SOL    HW115884   6.567   3.100   5.500
 4995SOL    HW215885   6.630   3.058   5.356
 4996SOL     OW15886   1.553   1.345   2.626
 4996SOL    HW115887   1.525   1.261   2.671
 4996SOL    HW215888   1.583   1.325   2.533
 4997SOL     OW15889   5.775   2.002   3.246
 4997SOL    HW115890   5.771   1.907   3.277
 4997SOL    HW215891   5.824   2.006   3.159
 4998SOL     OW15892   2.013   3.944   5.170
 4998SOL    HW115893   2.087   3.912   5.229
 4998SOL    HW215894   2.046   4.020   5.114
 4999SOL     OW15895   6.285   4.282   1.490
 4999SOL    HW115896   6.199   4.264   1.441
 4999SOL    HW215897   6.356   4.220   1.458
 5000SOL     OW15898   2.665   6.344   3.978
 5000SOL    HW115899   2.606   6.422   4.003
 5000SOL    HW215900   2.608   6.270   3.943
 5001SOL     OW15901   1.307   4.440   0.772
 5001SOL    HW115902   1.396   4.407   0.740
 5001SOL    HW215903   1.304   4.540   0.764
 5002SOL     OW15904   1.415   3.159   3.273
 5002SOL    HW115905   1.494   3.121   3.225
 5002SOL    HW215906   1.441   3.181   3.367
 5003SOL     OW15907   2.387   6.315   2.928
 5003SOL    HW115908   2.441   6.288   3.008
 5003SOL    HW215909   2.407   6.253   2.852
 5004SOL     OW15910   3.436   4.763   5.575
 5004SOL    HW115911   3.529   4.767   5.539
 5004SOL    HW215912   3.435   4.796   5.669
 5005SOL     OW15913   3.428   1.991   0.661
 5005SOL    HW115914   3.368   2.021   0.587
 5005SOL    HW215915   3.382   2.005   0.749
 5006SOL     OW15916   4.732   6.989   6.853
 5006SOL    HW115917   4.702   6.997   6.948
 5006SOL    HW215918   4.832   6.986   6.850
 5007SOL     OW15919   1.805   0.195   7.006
 5007SOL    HW115920   1.857   0.173   6.923
 5007SOL    HW215921   1.708   0.185   6.989
 5008SOL     OW15922   6.036   0.039   3.257
 5008SOL    HW115923   6.049   0.126   3.305
 5008SOL    HW215924   5.945   0.036   3.217
 5009SOL     OW15925   2.170   6.361   1.403
 5009SOL    HW115926   2.219   6.371   1.316
 5009SOL    HW215927   2.150   6.264   1.418
 5010SOL     OW15928   3.912   3.009   3.119
 5010SOL    HW115929   3.982   2.938   3.126
 5010SOL    HW215930   3.872   3.006   3.027
 5011SOL     OW15931   1.691   3.865   2.732
 5011SOL    HW115932   1.651   3.956   2.721
 5011SOL    HW215933   1.731   3.858   2.824
 5012SOL     OW15934   5.142   3.673   6.477
 5012SOL    HW115935   5.117   3.751   6.419
 5012SOL    HW215936   5.136   3.589   6.423
 5013SOL     OW15937   5.158   1.450   6.751
 5013SOL    HW115938   5.101   1.436   6.832
 5013SOL    HW215939   5.179   1.362   6.709
 5014SOL     OW15940   5.180   4.043   0.764
 5014SOL    HW115941   5.185   4.084   0.672
 5014SOL    HW215942   5.238   3.962   0.766
 5015SOL     OW15943   4.709   2.268   3.553
 5015SOL    HW115944   4.723   2.292   3.648
 5015SOL    HW215945   4.624   2.309   3.520
 5016SOL     OW15946   2.557   2.423   0.874
 5016SOL    HW115947   2.651   2.458   0.872
 5016SOL    HW215948   2.556   2.327   0.847
 5017SOL     OW15949   1.634   2.052   6.469
 5017SOL    HW115950   1.647   2.042   6.567
 5017SOL    HW215951   1.714   2.096   6.429
 5018SOL     OW15952   0.724   4.121   1.600
 5018SOL    HW115953   0.681   4.042   1.556
 5018SOL    HW215954   0.700   4.122   1.697
 5019SOL     OW15955   2.016   5.033   6.867
 5019SOL    HW115956   1.982   4.938   6.871
 5019SOL    HW215957   1.953   5.088   6.813
 5020SOL     OW15958   4.897   0.107   5.996
 5020SOL    HW115959   4.841   0.161   5.933
 5020SOL    HW215960   4.839   0.040   6.043
 5021SOL     OW15961   1.405   1.852   5.847
 5021SOL    HW115962   1.467   1.828   5.773
 5021SOL    HW215963   1.455   1.852   5.934
 5022SOL     OW15964   1.554   0.119   0.389
 5022SOL    HW115965   1.602   0.033   0.373
 5022SOL    HW215966   1.479   0.128   0.323
 5023SOL     OW15967   6.294   2.549   1.173
 5023SOL    HW115968   6.386   2.576   1.145
 5023SOL    HW215969   6.293   2.531   1.272
 5024SOL     OW15970   6.503   5.866   2.694
 5024SOL    HW115971   6.520   5.837   2.600
 5024SOL    HW215972   6.591   5.877   2.742
 5025SOL     OW15973   3.924   2.112   2.452
 5025SOL    HW115974   3.947   2.148   2.361
 5025SOL    HW215975   3.869   2.029   2.441
 5026SOL     OW15976   5.894   6.222   6.747
 5026SOL    HW115977   5.916   6.272   6.663
 5026SOL    HW215978   5.973   6.166   6.774
 5027SOL     OW15979   0.557   6.756   2.335
 5027SOL    HW115980   0.480   6.809   2.300
 5027SOL    HW215981   0.526   6.700   2.412
 5028SOL     OW15982   0.371   6.489   3.360
 5028SOL    HW115983   0.375   6.408   3.302
 5028SOL    HW215984   0.285   6.539   3.342
 5029SOL     OW15985   6.984   3.689   3.168
 5029SOL    HW115986   0.036   3.738   3.216
 5029SOL    HW215987   7.011   3.673   3.073
 5030SOL     OW15988   0.109   1.160   6.312
 5030SOL    HW115989   0.055   1.106   6.376
 5030SOL    HW215990   0.199   1.118   6.300
 5031SOL     OW15991   5.777   0.253   4.906
 5031SOL    HW115992   5.794   0.343   4.867
 5031SOL    HW215993   5.754   0.262   5.003
 5032SOL     OW15994   1.362   3.887   0.807
 5032SOL    HW115995   1.390   3.809   0.863
 5032SOL    HW215996   1.443   3.935   0.774
 5033SOL     OW15997   2.151   5.477   6.814
 5033SOL    HW115998   2.081   5.545   6.790
 5033SOL    HW215999   2.116   5.417   6.886
 5034SOL     OW16000   6.279   1.584   3.074
 5034SOL    HW116001   6.330   1.504   3.105
 5034SOL    HW216002   6.342   1.661   3.064
 5035SOL     OW16003   6.292   4.573   0.487
 5035SOL    HW116004   6.338   4.539   0.405
 5035SOL    HW216005   6.247   4.660   0.467
 5036SOL     OW16006   0.286   4.918   6.842
 5036SOL    HW116007   0.362   4.853   6.848
 5036SOL    HW216008   0.287   4.962   6.752
 5037SOL     OW16009   5.557   2.559   2.519
 5037SOL    HW116010   5.576   2.548   2.422
 5037SOL    HW216011   5.558   2.470   2.564
 5038SOL     OW16012   1.907   4.120   5.985
 5038SOL    HW116013   1.847   4.171   5.925
 5038SOL    HW216014   2.002   4.146   5.969
 5039SOL     OW16015   2.628   3.239   5.889
 5039SOL    HW116016   2.556   3.308   5.883
 5039SOL    HW216017   2.670   3.227   5.799
 5040SOL     OW16018   2.151   4.908   6.450
 5040SOL    HW116019   2.144   4.951   6.540
 5040SOL    HW216020   2.241   4.866   6.440
 5041SOL     OW16021   1.886   2.474   1.397
 5041SOL    HW116022   1.792   2.441   1.405
 5041SOL    HW216023   1.919   2.457   1.304
 5042SOL     OW16024   6.319   3.084   0.180
 5042SOL    HW116025   6.346   2.988   0.193
 5042SOL    HW216026   6.292   3.122   0.268
 5043SOL     OW16027   2.707   1.304   5.818
 5043SOL    HW116028   2.700   1.403   5.831
 5043SOL    HW216029   2.657   1.257   5.892
 5044SOL     OW16030   6.138   6.407   2.173
 5044SOL    HW116031   6.184   6.471   2.112
 5044SOL    HW216032   6.068   6.455   2.225
 5045SOL     OW16033   5.822   3.045   6.861
 5045SOL    HW116034   5.791   3.080   6.773
 5045SOL    HW216035   5.920   3.064   6.872
 5046SOL     OW16036   3.364   4.154   4.688
 5046SOL    HW116037   3.447   4.100   4.673
 5046SOL    HW216038   3.379   4.248   4.657
 5047SOL     OW16039   0.447   2.811   2.367
 5047SOL    HW116040   0.535   2.834   2.327
 5047SOL    HW216041   0.460   2.755   2.449
 5048SOL     OW16042   0.317   1.121   1.255
 5048SOL    HW116043   0.286   1.131   1.349
 5048SOL    HW216044   0.417   1.119   1.252
 5049SOL     OW16045   6.282   1.718   4.388
 5049SOL    HW116046   6.309   1.758   4.300
 5049SOL    HW216047   6.233   1.787   4.442
 5050SOL     OW16048   0.947   0.790   1.952
 5050SOL    HW116049   0.943   0.773   1.854
 5050SOL    HW216050   0.855   0.783   1.991
 5051SOL     OW16051   4.426   3.328   0.275
 5051SOL    HW116052   4.382   3.264   0.212
 5051SOL    HW216053   4.468   3.402   0.223
 5052SOL     OW16054   2.881   5.269   5.696
 5052SOL    HW116055   2.865   5.336   5.623
 5052SOL    HW216056   2.837   5.300   5.780
 5053SOL     OW16057   1.548   4.254   3.743
 5053SOL    HW116058   1.635   4.255   3.694
 5053SOL    HW216059   1.553   4.189   3.819
 5054SOL     OW16060   3.585   5.411   5.563
 5054SOL    HW116061   3.646   5.333   5.546
 5054SOL    HW216062   3.495   5.378   5.590
 5055SOL     OW16063   1.212   0.012   5.663
 5055SOL    HW116064   1.175   0.105   5.660
 5055SOL    HW216065   1.166   6.976   5.594
 5056SOL     OW16066   6.373   3.737   0.664
 5056SOL    HW116067   6.314   3.814   0.689
 5056SOL    HW216068   6.323   3.677   0.601
 5057SOL     OW16069   0.497   5.429   4.607
 5057SOL    HW116070   0.546   5.496   4.550
 5057SOL    HW216071   0.494   5.461   4.701
 5058SOL     OW16072   2.450   3.443   5.842
 5058SOL    HW116073   2.386   3.436   5.766
 5058SOL    HW216074   2.401   3.425   5.928
 5059SOL     OW16075   5.545   3.147   3.676
 5059SOL    HW116076   5.530   3.069   3.616
 5059SOL    HW216077   5.642   3.172   3.675
 5060SOL     OW16078   0.324   2.801   5.381
 5060SOL    HW116079   0.311   2.748   5.465
 5060SOL    HW216080   0.374   2.885   5.402
 5061SOL     OW16081   3.321   3.055   3.518
 5061SOL    HW116082   3.407   3.005   3.522
 5061SOL    HW216083   3.339   3.152   3.497
 5062SOL     OW16084   5.683   1.458   2.783
 5062SOL    HW116085   5.666   1.506   2.696
 5062SOL    HW216086   5.766   1.402   2.774
 5063SOL     OW16087   1.631   6.585   2.102
 5063SOL    HW116088   1.640   6.488   2.126
 5063SOL    HW216089   1.624   6.639   2.186
 5064SOL     OW16090   4.571   4.341   1.682
 5064SOL    HW116091   4.512   4.271   1.642
 5064SOL    HW216092   4.571   4.332   1.782
 5065SOL     OW16093   1.347   1.617   3.234
 5065SOL    HW116094   1.400   1.690   3.192
 5065SOL    HW216095   1.331   1.637   3.331
 5066SOL     OW16096   3.801   3.790   1.218
 5066SOL    HW116097   3.740   3.812   1.294
 5066SOL    HW216098   3.884   3.846   1.225
 5067SOL     OW16099   2.989   1.148   2.570
 5067SOL    HW116100   3.046   1.169   2.491
 5067SOL    HW216101   2.959   1.053   2.566
 5068SOL     OW16102   3.436   5.037   0.310
 5068SOL    HW116103   3.366   5.094   0.354
 5068SOL    HW216104   3.424   5.039   0.211
 5069SOL     OW16105   1.720   2.487   5.885
 5069SOL    HW116106   1.766   2.423   5.824
 5069SOL    HW216107   1.683   2.437   5.963
 5070SOL     OW16108   5.063   4.875   4.675
 5070SOL    HW116109   5.124   4.865   4.754
 5070SOL    HW216110   5.051   4.972   4.655
 5071SOL     OW16111   3.804   1.693   3.783
 5071SOL    HW116112   3.873   1.647   3.726
 5071SOL    HW216113   3.742   1.745   3.725
 5072SOL     OW16114   1.891   1.361   1.152
 5072SOL    HW116115   1.876   1.353   1.250
 5072SOL    HW216116   1.805   1.350   1.103
 5073SOL     OW16117   1.205   4.732   0.682
 5073SOL    HW116118   1.121   4.770   0.720
 5073SOL    HW216119   1.230   4.783   0.600
 5074SOL     OW16120   3.403   2.042   2.084
 5074SOL    HW116121   3.459   2.117   2.048
 5074SOL    HW216122   3.311   2.076   2.104
 5075SOL     OW16123   1.200   2.360   6.636
 5075SOL    HW116124   1.274   2.351   6.569
 5075SOL    HW216125   1.196   2.454   6.669
 5076SOL     OW16126   5.422   0.129   1.053
 5076SOL    HW116127   5.396   0.118   0.957
 5076SOL    HW216128   5.520   0.148   1.059
 5077SOL     OW16129   1.354   4.364   5.778
 5077SOL    HW116130   1.269   4.313   5.766
 5077SOL    HW216131   1.389   4.350   5.870
 5078SOL     OW16132   0.647   0.807   3.937
 5078SOL    HW116133   0.560   0.771   3.905
 5078SOL    HW216134   0.700   0.733   3.979
 5079SOL     OW16135   2.377   2.716   5.046
 5079SOL    HW116136   2.392   2.815   5.055
 5079SOL    HW216137   2.324   2.683   5.125
 5080SOL     OW16138   6.235   6.186   5.737
 5080SOL    HW116139   6.158   6.156   5.680
 5080SOL    HW216140   6.314   6.203   5.679
 5081SOL     OW16141   2.252   3.608   5.604
 5081SOL    HW116142   2.293   3.690   5.645
 5081SOL    HW216143   2.303   3.583   5.522
 5082SOL     OW16144   4.896   6.970   1.296
 5082SOL    HW116145   4.969   6.935   1.354
 5082SOL    HW216146   4.927   6.976   1.202
 5083SOL     OW16147   2.937   0.308   2.757
 5083SOL    HW116148   2.993   0.278   2.680
 5083SOL    HW216149   2.931   0.408   2.758
 5084SOL     OW16150   0.502   5.099   3.717
 5084SOL    HW116151   0.571   5.155   3.671
 5084SOL    HW216152   0.435   5.067   3.649
 5085SOL     OW16153   6.750   2.625   5.469
 5085SOL    HW116154   6.819   2.660   5.406
 5085SOL    HW216155   6.676   2.582   5.416
 5086SOL     OW16156   1.581   4.850   2.853
 5086SOL    HW116157   1.637   4.865   2.934
 5086SOL    HW216158   1.497   4.801   2.878
 5087SOL     OW16159   1.076   5.254   2.151
 5087SOL    HW116160   1.003   5.261   2.219
 5087SOL    HW216161   1.148   5.319   2.173
 5088SOL     OW16162   6.011   6.783   3.966
 5088SOL    HW116163   5.974   6.875   3.975
 5088SOL    HW216164   6.017   6.758   3.870
 5089SOL     OW16165   6.161   4.834   4.137
 5089SOL    HW116166   6.228   4.799   4.071
 5089SOL    HW216167   6.208   4.867   4.218
 5090SOL     OW16168   1.704   2.790   2.436
 5090SOL    HW116169   1.666   2.847   2.509
 5090SOL    HW216170   1.800   2.769   2.455
 5091SOL     OW16171   6.641   1.217   1.688
 5091SOL    HW116172   6.657   1.201   1.590
 5091SOL    HW216173   6.609   1.132   1.730
 5092SOL     OW16174   3.344   3.336   3.485
 5092SOL    HW116175   3.291   3.421   3.491
 5092SOL    HW216176   3.433   3.350   3.528
 5093SOL     OW16177   2.816   1.362   0.424
 5093SOL    HW116178   2.802   1.450   0.379
 5093SOL    HW216179   2.810   1.289   0.356
 5094SOL     OW16180   2.335   5.581   6.118
 5094SOL    HW116181   2.337   5.680   6.128
 5094SOL    HW216182   2.279   5.557   6.038
 5095SOL     OW16183   0.073   2.715   2.703
 5095SOL    HW116184   7.006   2.745   2.740
 5095SOL    HW216185   0.058   2.673   2.613
 5096SOL     OW16186   4.761   4.599   6.527
 5096SOL    HW116187   4.836   4.550   6.483
 5096SOL    HW216188   4.790   4.692   6.550
 5097SOL     OW16189   0.974   0.044   6.296
 5097SOL    HW116190   1.049   0.100   6.330
 5097SOL    HW216191   1.009   6.975   6.270
 5098SOL     OW16192   2.646   0.786   1.856
 5098SOL    HW116193   2.634   0.732   1.772
 5098SOL    HW216194   2.713   0.742   1.915
 5099SOL     OW16195   0.902   6.989   1.347
 5099SOL    HW116196   0.838   7.010   1.272
 5099SOL    HW216197   0.927   6.892   1.343
 5100SOL     OW16198   3.153   5.597   4.436
 5100SOL    HW116199   3.090   5.673   4.421
 5100SOL    HW216200   3.209   5.584   4.354
 5101SOL     OW16201   4.102   6.841   5.991
 5101SOL    HW116202   4.085   6.933   6.025
 5101SOL    HW216203   4.201   6.829   5.977
 5102SOL     OW16204   4.749   5.938   4.769
 5102SOL    HW116205   4.802   5.921   4.686
 5102SOL    HW216206   4.811   5.955   4.846
 5103SOL     OW16207   6.742   1.334   4.381
 5103SOL    HW116208   6.689   1.260   4.340
 5103SOL    HW216209   6.764   1.310   4.476
 5104SOL     OW16210   1.658   6.304   1.897
 5104SOL    HW116211   1.735   6.299   1.833
 5104SOL    HW216212   1.574   6.276   1.851
 5105SOL     OW16213   2.838   2.530   6.861
 5105SOL    HW116214   2.831   2.605   6.795
 5105SOL    HW216215   2.934   2.503   6.870
 5106SOL     OW16216   4.422   1.626   1.087
 5106SOL    HW116217   4.512   1.666   1.068
 5106SOL    HW216218   4.389   1.660   1.175
 5107SOL     OW16219   4.397   2.383   1.524
 5107SOL    HW116220   4.450   2.423   1.448
 5107SOL    HW216221   4.395   2.284   1.515
 5108SOL     OW16222   4.185   4.111   5.424
 5108SOL    HW116223   4.124   4.039   5.391
 5108SOL    HW216224   4.133   4.194   5.443
 5109SOL     OW16225   0.882   1.999   6.661
 5109SOL    HW116226   0.939   1.962   6.734
 5109SOL    HW216227   0.887   1.940   6.581
 5110SOL     OW16228   0.779   0.258   6.207
 5110SOL    HW116229   0.850   0.263   6.278
 5110SOL    HW216230   0.698   0.307   6.238
 5111SOL     OW16231   0.886   0.998   5.000
 5111SOL    HW116232   0.817   0.947   4.948
 5111SOL    HW216233   0.863   1.095   4.999
 5112SOL     OW16234   1.045   0.150   2.761
 5112SOL    HW116235   1.114   0.223   2.756
 5112SOL    HW216236   0.997   0.143   2.674
 5113SOL     OW16237   2.304   6.070   1.170
 5113SOL    HW116238   2.219   6.044   1.215
 5113SOL    HW216239   2.379   6.016   1.208
 5114SOL     OW16240   3.982   0.010   6.535
 5114SOL    HW116241   4.012   6.944   6.496
 5114SOL    HW216242   4.003   0.012   6.633
 5115SOL     OW16243   1.144   5.247   3.309
 5115SOL    HW116244   1.086   5.202   3.377
 5115SOL    HW216245   1.112   5.223   3.218
 5116SOL     OW16246   0.874   6.617   0.181
 5116SOL    HW116247   0.843   6.698   0.230
 5116SOL    HW216248   0.878   6.539   0.244
 5117SOL     OW16249   1.669   3.699   4.292
 5117SOL    HW116250   1.598   3.718   4.359
 5117SOL    HW216251   1.668   3.770   4.221
 5118SOL     OW16252   5.478   0.937   0.275
 5118SOL    HW116253   5.455   1.021   0.325
 5118SOL    HW216254   5.478   0.957   0.177
 5119SOL     OW16255   5.252   0.779   2.406
 5119SOL    HW116256   5.199   0.708   2.360
 5119SOL    HW216257   5.233   0.776   2.504
 5120SOL     OW16258   4.450   7.005   4.642
 5120SOL    HW116259   4.378   6.935   4.643
 5120SOL    HW216260   4.525   6.975   4.583
 5121SOL     OW16261   3.087   2.836   6.744
 5121SOL    HW116262   3.070   2.933   6.764
 5121SOL    HW216263   3.004   2.783   6.766
 5122SOL     OW16264   3.111   6.107   3.114
 5122SOL    HW116265   3.139   6.199   3.085
 5122SOL    HW216266   3.163   6.039   3.063
 5123SOL     OW16267   4.435   2.394   4.206
 5123SOL    HW116268   4.342   2.359   4.198
 5123SOL    HW216269   4.449   2.467   4.138
 5124SOL     OW16270   2.149   5.693   5.100
 5124SOL    HW116271   2.060   5.681   5.057
 5124SOL    HW216272   2.208   5.747   5.040
 5125SOL     OW16273   6.669   4.000   3.961
 5125SOL    HW116274   6.643   4.021   3.867
 5125SOL    HW216275   6.588   4.007   4.020
 5126SOL     OW16276   6.305   5.227   6.121
 5126SOL    HW116277   6.252   5.301   6.080
 5126SOL    HW216278   6.386   5.264   6.166
 5127SOL     OW16279   0.451   3.774   0.291
 5127SOL    HW116280   0.461   3.807   0.386
 5127SOL    HW216281   0.387   3.834   0.242
 5128SOL     OW16282   0.136   0.150   6.273
 5128SOL    HW116283   0.042   0.163   6.302
 5128SOL    HW216284   0.142   0.072   6.210
 5129SOL     OW16285   6.602   0.153   2.504
 5129SOL    HW116286   6.651   0.235   2.532
 5129SOL    HW216287   6.663   0.094   2.450
 5130SOL     OW16288   0.474   5.651   3.625
 5130SOL    HW116289   0.409   5.673   3.553
 5130SOL    HW216290   0.484   5.729   3.686
 5131SOL     OW16291   2.183   4.699   4.192
 5131SOL    HW116292   2.239   4.764   4.244
 5131SOL    HW216293   2.103   4.745   4.155
 5132SOL     OW16294   3.591   3.013   6.981
 5132SOL    HW116295   3.514   2.951   6.994
 5132SOL    HW216296   3.656   3.002   0.036
 5133SOL     OW16297   2.512   5.407   0.177
 5133SOL    HW116298   2.550   5.344   0.244
 5133SOL    HW216299   2.412   5.395   0.174
 5134SOL     OW16300   0.651   3.532   2.717
 5134SOL    HW116301   0.624   3.449   2.668
 5134SOL    HW216302   0.570   3.581   2.749
 5135SOL     OW16303   5.906   3.068   4.339
 5135SOL    HW116304   5.849   3.150   4.347
 5135SOL    HW216305   5.979   3.071   4.406
 5136SOL     OW16306   3.646   0.765   5.895
 5136SOL    HW116307   3.647   0.864   5.906
 5136SOL    HW216308   3.629   0.742   5.799
 5137SOL     OW16309   5.148   2.960   5.468
 5137SOL    HW116310   5.161   2.869   5.508
 5137SOL    HW216311   5.139   3.028   5.541
 5138SOL     OW16312   3.068   2.750   5.447
 5138SOL    HW116313   3.167   2.739   5.458
 5138SOL    HW216314   3.031   2.672   5.396
 5139SOL     OW16315   1.239   0.548   3.002
 5139SOL    HW116316   1.333   0.571   2.977
 5139SOL    HW216317   1.239   0.467   3.060
 5140SOL     OW16318   4.100   2.400   0.047
 5140SOL    HW116319   4.133   2.312   0.012
 5140SOL    HW216320   4.112   2.403   0.146
 5141SOL     OW16321   6.918   3.663   0.249
 5141SOL    HW116322   6.849   3.615   0.304
 5141SOL    HW216323   6.881   3.680   0.158
 5142SOL     OW16324   5.857   0.466   3.610
 5142SOL    HW116325   5.825   0.454   3.704
 5142SOL    HW216326   5.940   0.521   3.610
 5143SOL     OW16327   6.513   4.605   4.045
 5143SOL    HW116328   6.424   4.636   4.012
 5143SOL    HW216329   6.507   4.509   4.073
 5144SOL     OW16330   0.530   4.845   6.718
 5144SOL    HW116331   0.463   4.856   6.645
 5144SOL    HW216332   0.621   4.869   6.684
 5145SOL     OW16333   2.950   4.809   5.565
 5145SOL    HW116334   2.900   4.891   5.593
 5145SOL    HW216335   2.904   4.767   5.486
 5146SOL     OW16336   3.762   4.053   5.072
 5146SOL    HW116337   3.672   4.038   5.114
 5146SOL    HW216338   3.751   4.083   4.978
 5147SOL     OW16339   6.919   5.093   2.542
 5147SOL    HW116340   6.821   5.072   2.533
 5147SOL    HW216341   6.971   5.007   2.541
 5148SOL     OW16342   6.619   6.340   1.462
 5148SOL    HW116343   6.677   6.346   1.380
 5148SOL    HW216344   6.579   6.429   1.482
 5149SOL     OW16345   6.357   5.818   3.170
 5149SOL    HW116346   6.259   5.822   3.189
 5149SOL    HW216347   6.378   5.877   3.092
 5150SOL     OW16348   2.237   5.397   2.832
 5150SOL    HW116349   2.265   5.391   2.928
 5150SOL    HW216350   2.288   5.330   2.778
 5151SOL     OW16351   5.619   2.405   0.825
 5151SOL    HW116352   5.682   2.480   0.804
 5151SOL    HW216353   5.671   2.324   0.853
 5152SOL     OW16354   2.650   4.960   0.222
 5152SOL    HW116355   2.687   5.034   0.166
 5152SOL    HW216356   2.713   4.941   0.298
 5153SOL     OW16357   2.118   0.052   6.880
 5153SOL    HW116358   2.217   0.045   6.893
 5153SOL    HW216359   2.082   0.126   6.937
 5154SOL     OW16360   1.299   3.571   6.117
 5154SOL    HW116361   1.396   3.551   6.104
 5154SOL    HW216362   1.244   3.497   6.078
 5155SOL     OW16363   4.303   6.723   2.331
 5155SOL    HW116364   4.373   6.698   2.397
 5155SOL    HW216365   4.346   6.739   2.242
 5156SOL     OW16366   5.783   3.555   5.744
 5156SOL    HW116367   5.859   3.507   5.701
 5156SOL    HW216368   5.757   3.507   5.828
 5157SOL     OW16369   3.677   2.128   3.757
 5157SOL    HW116370   3.696   2.167   3.847
 5157SOL    HW216371   3.757   2.078   3.724
 5158SOL     OW16372   3.726   1.338   1.985
 5158SOL    HW116373   3.667   1.413   1.956
 5158SOL    HW216374   3.811   1.374   2.024
 5159SOL     OW16375   6.946   3.425   3.808
 5159SOL    HW116376   6.949   3.349   3.742
 5159SOL    HW216377   0.008   3.480   3.799
 5160SOL     OW16378   0.222   5.009   3.273
 5160SOL    HW116379   0.230   4.979   3.178
 5160SOL    HW216380   0.159   4.949   3.322
 5161SOL     OW16381   1.606   3.735   5.756
 5161SOL    HW116382   1.566   3.818   5.795
 5161SOL    HW216383   1.604   3.740   5.656
 5162SOL     OW16384   1.375   5.221   2.725
 5162SOL    HW116385   1.459   5.174   2.696
 5162SOL    HW216386   1.363   5.212   2.824
 5163SOL     OW16387   3.375   6.414   0.203
 5163SOL    HW116388   3.444   6.394   0.273
 5163SOL    HW216389   3.302   6.346   0.207
 5164SOL     OW16390   4.753   2.504   0.138
 5164SOL    HW116391   4.740   2.432   0.070
 5164SOL    HW216392   4.827   2.564   0.109
 5165SOL     OW16393   6.022   4.407   6.214
 5165SOL    HW116394   6.074   4.374   6.293
 5165SOL    HW216395   5.940   4.455   6.246
 5166SOL     OW16396   0.810   5.421   3.130
 5166SOL    HW116397   0.903   5.415   3.166
 5166SOL    HW216398   0.781   5.330   3.098
 5167SOL     OW16399   6.251   6.478   5.724
 5167SOL    HW116400   6.280   6.478   5.628
 5167SOL    HW216401   6.267   6.388   5.763
 5168SOL     OW16402   5.391   4.208   2.539
 5168SOL    HW116403   5.355   4.236   2.450
 5168SOL    HW216404   5.374   4.111   2.553
 5169SOL     OW16405   3.739   1.811   4.945
 5169SOL    HW116406   3.703   1.823   5.037
 5169SOL    HW216407   3.674   1.759   4.890
 5170SOL     OW16408   0.900   4.312   5.880
 5170SOL    HW116409   0.981   4.254   5.892
 5170SOL    HW216410   0.891   4.373   5.958
 5171SOL     OW16411   1.069   5.904   4.628
 5171SOL    HW116412   1.011   5.828   4.598
 5171SOL    HW216413   1.164   5.873   4.633
 5172SOL     OW16414   0.747   2.216   2.012
 5172SOL    HW116415   0.847   2.210   2.011
 5172SOL    HW216416   0.714   2.208   2.106
 5173SOL     OW16417   5.315   4.888   6.511
 5173SOL    HW116418   5.283   4.983   6.501
 5173SOL    HW216419   5.414   4.888   6.525
 5174SOL     OW16420   2.269   4.596   3.403
 5174SOL    HW116421   2.255   4.612   3.306
 5174SOL    HW216422   2.195   4.639   3.455
 5175SOL     OW16423   2.038   3.748   6.745
 5175SOL    HW116424   2.053   3.844   6.767
 5175SOL    HW216425   2.122   3.710   6.706
 5176SOL     OW16426   4.671   2.576   6.588
 5176SOL    HW116427   4.632   2.497   6.636
 5176SOL    HW216428   4.598   2.626   6.542
 5177SOL     OW16429   4.841   0.435   0.034
 5177SOL    HW116430   4.763   0.497   0.042
 5177SOL    HW216431   4.921   0.477   0.077
 5178SOL     OW16432   0.875   4.390   1.983
 5178SOL    HW116433   0.856   4.448   1.904
 5178SOL    HW216434   0.811   4.410   2.056
 5179SOL     OW16435   3.828   6.071   3.933
 5179SOL    HW116436   3.886   6.051   4.012
 5179SOL    HW216437   3.771   6.151   3.952
 5180SOL     OW16438   3.201   2.970   0.503
 5180SOL    HW116439   3.237   2.972   0.596
 5180SOL    HW216440   3.205   3.061   0.463
 5181SOL     OW16441   6.234   1.829   1.941
 5181SOL    HW116442   6.175   1.768   1.888
 5181SOL    HW216443   6.323   1.835   1.897
 5182SOL     OW16444   3.781   4.551   1.666
 5182SOL    HW116445   3.762   4.547   1.568
 5182SOL    HW216446   3.697   4.568   1.716
 5183SOL     OW16447   4.701   1.690   2.374
 5183SOL    HW116448   4.630   1.630   2.340
 5183SOL    HW216449   4.778   1.636   2.408
 5184SOL     OW16450   7.005   2.948   4.500
 5184SOL    HW116451   6.931   2.925   4.437
 5184SOL    HW216452   0.030   2.864   4.529
 5185SOL     OW16453   5.570   0.948   2.649
 5185SOL    HW116454   5.579   0.937   2.550
 5185SOL    HW216455   5.545   0.860   2.690
 5186SOL     OW16456   6.208   3.036   0.712
 5186SOL    HW116457   6.173   3.018   0.804
 5186SOL    HW216458   6.307   3.021   0.710
 5187SOL     OW16459   0.552   0.021   4.150
 5187SOL    HW116460   0.569   6.951   4.186
 5187SOL    HW216461   0.630   0.050   4.095
 5188SOL     OW16462   0.859   5.877   0.906
 5188SOL    HW116463   0.779   5.826   0.938
 5188SOL    HW216464   0.911   5.822   0.842
 5189SOL     OW16465   4.580   4.821   0.508
 5189SOL    HW116466   4.612   4.728   0.525
 5189SOL    HW216467   4.604   4.847   0.414
 5190SOL     OW16468   0.133   3.373   4.453
 5190SOL    HW116469   0.086   3.377   4.542
 5190SOL    HW216470   0.154   3.278   4.432
 5191SOL     OW16471   4.097   0.764   1.712
 5191SOL    HW116472   4.184   0.810   1.694
 5191SOL    HW216473   4.099   0.723   1.803
 5192SOL     OW16474   2.660   5.241   2.570
 5192SOL    HW116475   2.742   5.223   2.514
 5192SOL    HW216476   2.688   5.266   2.662
 5193SOL     OW16477   4.704   4.303   4.647
 5193SOL    HW116478   4.692   4.223   4.587
 5193SOL    HW216479   4.626   4.365   4.636
 5194SOL     OW16480   3.904   1.501   0.020
 5194SOL    HW116481   3.844   1.422   0.006
 5194SOL    HW216482   3.865   1.561   0.089
 5195SOL     OW16483   5.994   6.287   4.774
 5195SOL    HW116484   6.022   6.348   4.849
 5195SOL    HW216485   5.975   6.196   4.811
 5196SOL     OW16486   3.314   4.133   0.779
 5196SOL    HW116487   3.234   4.074   0.772
 5196SOL    HW216488   3.343   4.139   0.875
 5197SOL     OW16489   2.203   5.742   5.366
 5197SOL    HW116490   2.164   5.725   5.275
 5197SOL    HW216491   2.302   5.727   5.363
 5198SOL     OW16492   4.043   6.598   3.015
 5198SOL    HW116493   3.969   6.606   3.081
 5198SOL    HW216494   4.010   6.621   2.924
 5199SOL     OW16495   1.404   6.108   0.529
 5199SOL    HW116496   1.424   6.206   0.537
 5199SOL    HW216497   1.313   6.090   0.566
 5200SOL     OW16498   1.283   1.997   5.475
 5200SOL    HW116499   1.305   1.900   5.464
 5200SOL    HW216500   1.195   2.006   5.522
 5201SOL     OW16501   6.662   6.219   4.339
 5201SOL    HW116502   6.623   6.309   4.318
 5201SOL    HW216503   6.707   6.223   4.428
 5202SOL     OW16504   5.918   4.338   5.593
 5202SOL    HW116505   5.910   4.250   5.545
 5202SOL    HW216506   5.967   4.324   5.679
 5203SOL     OW16507   2.128   0.962   6.516
 5203SOL    HW116508   2.227   0.972   6.519
 5203SOL    HW216509   2.087   1.019   6.587
 5204SOL     OW16510   4.233   6.759   6.961
 5204SOL    HW116511   4.189   6.847   6.942
 5204SOL    HW216512   4.293   6.769   0.020
 5205SOL     OW16513   6.659   6.126   0.051
 5205SOL    HW116514   6.611   6.075   7.000
 5205SOL    HW216515   6.594   6.151   0.123
 5206SOL     OW16516   0.095   5.053   0.297
 5206SOL    HW116517   0.078   5.150   0.314
 5206SOL    HW216518   0.188   5.041   0.262
 5207SOL     OW16519   1.281   6.668   3.660
 5207SOL    HW116520   1.185   6.672   3.688
 5207SOL    HW216521   1.340   6.683   3.739
 5208SOL     OW16522   5.227   1.771   6.875
 5208SOL    HW116523   5.263   1.863   6.890
 5208SOL    HW216524   5.177   1.741   6.957
 5209SOL     OW16525   5.404   0.345   1.592
 5209SOL    HW116526   5.463   0.288   1.649
 5209SOL    HW216527   5.394   0.304   1.502
 5210SOL     OW16528   4.869   3.410   0.604
 5210SOL    HW116529   4.939   3.389   0.671
 5210SOL    HW216530   4.908   3.403   0.512
 5211SOL     OW16531   4.107   2.181   5.556
 5211SOL    HW116532   4.164   2.103   5.584
 5211SOL    HW216533   4.011   2.160   5.572
 5212SOL     OW16534   1.086   3.299   0.414
 5212SOL    HW116535   1.101   3.205   0.383
 5212SOL    HW216536   1.021   3.300   0.490
 5213SOL     OW16537   3.987   3.460   0.981
 5213SOL    HW116538   3.930   3.508   0.915
 5213SOL    HW216539   4.078   3.444   0.942
 5214SOL     OW16540   5.033   2.683   6.226
 5214SOL    HW116541   5.023   2.659   6.322
 5214SOL    HW216542   4.963   2.748   6.199
 5215SOL     OW16543   0.823   5.066   4.119
 5215SOL    HW116544   0.869   5.001   4.058
 5215SOL    HW216545   0.885   5.091   4.194
 5216SOL     OW16546   3.940   4.326   1.695
 5216SOL    HW116547   3.883   4.406   1.715
 5216SOL    HW216548   3.952   4.317   1.597
 5217SOL     OW16549   3.683   5.421   4.401
 5217SOL    HW116550   3.591   5.387   4.422
 5217SOL    HW216551   3.713   5.481   4.475
 5218SOL     OW16552   0.573   1.170   1.236
 5218SOL    HW116553   0.656   1.115   1.228
 5218SOL    HW216554   0.597   1.267   1.242
 5219SOL     OW16555   3.379   1.316   4.945
 5219SOL    HW116556   3.336   1.320   5.036
 5219SOL    HW216557   3.336   1.383   4.885
 5220SOL     OW16558   1.288   6.126   2.317
 5220SOL    HW116559   1.250   6.044   2.276
 5220SOL    HW216560   1.386   6.113   2.333
 5221SOL     OW16561   6.016   1.611   2.958
 5221SOL    HW116562   5.976   1.527   2.920
 5221SOL    HW216563   6.092   1.587   3.018
 5222SOL     OW16564   3.610   6.833   2.396
 5222SOL    HW116565   3.568   6.745   2.375
 5222SOL    HW216566   3.708   6.830   2.373
 5223SOL     OW16567   6.521   2.784   0.237
 5223SOL    HW116568   6.565   2.724   0.304
 5223SOL    HW216569   6.539   2.750   0.145
 5224SOL     OW16570   6.153   3.060   4.516
 5224SOL    HW116571   6.179   3.042   4.421
 5224SOL    HW216572   6.209   3.134   4.552
 5225SOL     OW16573   0.215   0.977   3.766
 5225SOL    HW116574   0.194   0.965   3.863
 5225SOL    HW216575   0.130   0.984   3.713
 5226SOL     OW16576   6.818   6.822   4.541
 5226SOL    HW116577   6.823   6.723   4.550
 5226SOL    HW216578   6.901   6.863   4.580
 5227SOL     OW16579   0.574   3.785   5.418
 5227SOL    HW116580   0.636   3.714   5.452
 5227SOL    HW216581   0.528   3.751   5.336
 5228SOL     OW16582   0.119   2.531   0.715
 5228SOL    HW116583   0.181   2.605   0.688
 5228SOL    HW216584   0.025   2.564   0.710
 5229SOL     OW16585   2.675   6.803   0.315
 5229SOL    HW116586   2.742   6.731   0.333
 5229SOL    HW216587   2.585   6.774   0.346
 5230SOL     OW16588   0.114   6.145   1.922
 5230SOL    HW116589   0.052   6.147   1.843
 5230SOL    HW216590   0.114   6.054   1.963
 5231SOL     OW16591   4.460   2.509   3.935
 5231SOL    HW116592   4.501   2.548   3.853
 5231SOL    HW216593   4.364   2.490   3.918
 5232SOL     OW16594   1.628   3.603   6.302
 5232SOL    HW116595   1.623   3.504   6.297
 5232SOL    HW216596   1.695   3.637   6.236
 5233SOL     OW16597   4.614   1.299   2.593
 5233SOL    HW116598   4.612   1.201   2.572
 5233SOL    HW216599   4.593   1.312   2.690
 5234SOL     OW16600   2.659   2.191   5.912
 5234SOL    HW116601   2.649   2.209   6.009
 5234SOL    HW216602   2.668   2.277   5.862
 5235SOL     OW16603   1.718   2.697   1.056
 5235SOL    HW116604   1.771   2.690   1.140
 5235SOL    HW216605   1.646   2.766   1.067
 5236SOL     OW16606   4.329   5.515   2.292
 5236SOL    HW116607   4.299   5.422   2.268
 5236SOL    HW216608   4.311   5.577   2.215
 5237SOL     OW16609   0.878   0.595   4.917
 5237SOL    HW116610   0.799   0.627   4.969
 5237SOL    HW216611   0.961   0.610   4.970
 5238SOL     OW16612   0.736   5.052   0.346
 5238SOL    HW116613   0.733   5.108   0.429
 5238SOL    HW216614   0.760   5.110   0.268
 5239SOL     OW16615   3.795   2.524   5.983
 5239SOL    HW116616   3.881   2.495   5.942
 5239SOL    HW216617   3.779   2.621   5.963
 5240SOL     OW16618   3.220   2.353   5.440
 5240SOL    HW116619   3.270   2.274   5.477
 5240SOL    HW216620   3.198   2.337   5.344
 5241SOL     OW16621   6.935   5.429   4.399
 5241SOL    HW116622   6.878   5.351   4.373
 5241SOL    HW216623   7.011   5.397   4.456
 5242SOL     OW16624   6.659   0.170   0.003
 5242SOL    HW116625   6.662   0.264   6.991
 5242SOL    HW216626   6.597   0.165   0.082
 5243SOL     OW16627   1.861   5.802   1.509
 5243SOL    HW116628   1.954   5.770   1.489
 5243SOL    HW216629   1.863   5.866   1.585
 5244SOL     OW16630   3.419   4.374   5.787
 5244SOL    HW116631   3.348   4.304   5.776
 5244SOL    HW216632   3.464   4.361   5.876
 5245SOL     OW16633   3.968   3.996   0.082
 5245SOL    HW116634   4.008   4.062   0.018
 5245SOL    HW216635   3.949   4.042   0.169
 5246SOL     OW16636   6.033   2.707   1.141
 5246SOL    HW116637   6.116   2.671   1.182
 5246SOL    HW216638   5.954   2.657   1.175
 5247SOL     OW16639   2.588   0.583   6.327
 5247SOL    HW116640   2.653   0.512   6.352
 5247SOL    HW216641   2.633   0.672   6.331
 5248SOL     OW16642   6.156   1.363   2.851
 5248SOL    HW116643   6.220   1.431   2.814
 5248SOL    HW216644   6.174   1.350   2.948
 5249SOL     OW16645   0.669   5.503   6.355
 5249SOL    HW116646   0.747   5.565   6.364
 5249SOL    HW216647   0.641   5.498   6.259
 5250SOL     OW16648   2.241   5.777   6.966
 5250SOL    HW116649   2.260   5.875   6.968
 5250SOL    HW216650   2.317   5.730   6.920
 5251SOL     OW16651   0.738   3.410   6.684
 5251SOL    HW116652   0.691   3.419   6.772
 5251SOL    HW216653   0.773   3.317   6.674
 5252SOL     OW16654   2.069   6.181   0.483
 5252SOL    HW116655   2.067   6.222   0.392
 5252SOL    HW216656   1.997   6.222   0.539
 5253SOL     OW16657   6.506   4.349   4.409
 5253SOL    HW116658   6.423   4.386   4.367
 5253SOL    HW216659   6.577   4.419   4.409
 5254SOL     OW16660   5.041   0.968   2.969
 5254SOL    HW116661   5.001   0.956   2.878
 5254SOL    HW216662   5.083   0.881   2.998
 5255SOL     OW16663   5.671   2.209   5.132
 5255SOL    HW116664   5.702   2.145   5.062
 5255SOL    HW216665   5.571   2.208   5.138
 5256SOL     OW16666   4.823   1.757   3.921
 5256SOL    HW116667   4.786   1.848   3.905
 5256SOL    HW216668   4.885   1.733   3.846
 5257SOL     OW16669   5.602   0.101   2.056
 5257SOL    HW116670   5.546   0.024   2.088
 5257SOL    HW216671   5.596   0.106   1.956
 5258SOL     OW16672   6.251   3.036   1.758
 5258SOL    HW116673   6.280   2.944   1.785
 5258SOL    HW216674   6.252   3.096   1.838
 5259SOL     OW16675   4.684   6.590   2.388
 5259SOL    HW116676   4.651   6.632   2.303
 5259SOL    HW216677   4.635   6.628   2.466
 5260SOL     OW16678   4.909   3.619   0.821
 5260SOL    HW116679   4.896   3.556   0.898
 5260SOL    HW216680   4.820   3.639   0.780
 5261SOL     OW16681   0.971   4.022   6.348
 5261SOL    HW116682   1.017   4.111   6.355
 5261SOL    HW216683   1.009   3.971   6.270
 5262SOL     OW16684   2.543   1.319   4.150
 5262SOL    HW116685   2.520   1.379   4.074
 5262SOL    HW216686   2.633   1.277   4.134
 5263SOL     OW16687   1.807   1.268   3.520
 5263SOL    HW116688   1.863   1.348   3.541
 5263SOL    HW216689   1.714   1.297   3.498
 5264SOL     OW16690   0.136   2.402   2.029
 5264SOL    HW116691   0.186   2.452   1.958
 5264SOL    HW216692   0.059   2.353   1.987
 5265SOL     OW16693   6.251   4.008   3.904
 5265SOL    HW116694   6.194   4.054   3.973
 5265SOL    HW216695   6.202   4.008   3.817
 5266SOL     OW16696   3.210   5.032   6.877
 5266SOL    HW116697   3.171   4.962   6.817
 5266SOL    HW216698   3.235   5.112   6.822
 5267SOL     OW16699   5.183   3.028   4.691
 5267SOL    HW116700   5.234   3.081   4.759
 5267SOL    HW216701   5.226   2.938   4.681
 5268SOL     OW16702   5.405   1.506   0.248
 5268SOL    HW116703   5.484   1.455   0.283
 5268SOL    HW216704   5.321   1.461   0.276
 5269SOL     OW16705   1.145   5.860   2.542
 5269SOL    HW116706   1.046   5.867   2.535
 5269SOL    HW216707   1.187   5.947   2.517
 5270SOL     OW16708   5.932   0.986   1.147
 5270SOL    HW116709   5.837   0.984   1.178
 5270SOL    HW216710   5.939   1.040   1.064
 5271SOL     OW16711   6.297   5.557   5.763
 5271SOL    HW116712   6.238   5.617   5.709
 5271SOL    HW216713   6.331   5.483   5.704
 5272SOL     OW16714   3.360   5.676   1.784
 5272SOL    HW116715   3.433   5.723   1.734
 5272SOL    HW216716   3.343   5.722   1.871
 5273SOL     OW16717   0.052   2.810   4.103
 5273SOL    HW116718   7.014   2.832   4.180
 5273SOL    HW216719   0.138   2.861   4.111
 5274SOL     OW16720   5.793   6.833   2.633
 5274SOL    HW116721   5.729   6.864   2.703
 5274SOL    HW216722   5.746   6.771   2.571
 5275SOL     OW16723   3.931   1.904   0.992
 5275SOL    HW116724   3.840   1.946   0.998
 5275SOL    HW216725   3.986   1.952   0.924
 5276SOL     OW16726   2.059   6.863   0.820
 5276SOL    HW116727   1.993   6.795   0.788
 5276SOL    HW216728   2.020   6.955   0.810
 5277SOL     OW16729   1.974   1.559   2.285
 5277SOL    HW116730   2.058   1.548   2.340
 5277SOL    HW216731   1.914   1.480   2.301
 5278SOL     OW16732   6.261   6.633   3.972
 5278SOL    HW116733   6.174   6.673   3.945
 5278SOL    HW216734   6.251   6.587   4.060
 5279SOL     OW16735   2.701   5.330   6.218
 5279SOL    HW116736   2.755   5.266   6.273
 5279SOL    HW216737   2.605   5.304   6.221
 5280SOL     OW16738   2.688   6.066   4.779
 5280SOL    HW116739   2.656   5.972   4.781
 5280SOL    HW216740   2.666   6.107   4.690
 5281SOL     OW16741   0.322   2.521   2.405
 5281SOL    HW116742   0.308   2.422   2.412
 5281SOL    HW216743   0.284   2.554   2.319
 5282SOL     OW16744   3.009   1.875   3.907
 5282SOL    HW116745   2.969   1.955   3.951
 5282SOL    HW216746   2.976   1.868   3.813
 5283SOL     OW16747   4.428   6.824   1.472
 5283SOL    HW116748   4.341   6.844   1.516
 5283SOL    HW216749   4.412   6.771   1.388
 5284SOL     OW16750   4.975   3.920   3.250
 5284SOL    HW116751   4.942   4.011   3.227
 5284SOL    HW216752   5.065   3.927   3.293
 5285SOL     OW16753   2.388   4.982   4.017
 5285SOL    HW116754   2.390   4.900   3.960
 5285SOL    HW216755   2.379   4.955   4.113
 5286SOL     OW16756   1.776   4.856   0.214
 5286SOL    HW116757   1.756   4.945   0.172
 5286SOL    HW216758   1.875   4.843   0.217
 5287SOL     OW16759   3.263   6.730   0.947
 5287SOL    HW116760   3.171   6.701   0.919
 5287SOL    HW216761   3.257   6.817   0.995
 5288SOL     OW16762   3.363   0.042   2.136
 5288SOL    HW116763   3.398   0.043   2.230
 5288SOL    HW216764   3.387   0.127   2.091
 5289SOL     OW16765   1.796   5.191   6.805
 5289SOL    HW116766   1.754   5.105   6.834
 5289SOL    HW216767   1.789   5.200   6.706
 5290SOL     OW16768   2.113   5.983   4.821
 5290SOL    HW116769   2.017   5.999   4.845
 5290SOL    HW216770   2.131   5.885   4.821
 5291SOL     OW16771   2.821   5.362   5.954
 5291SOL    HW116772   2.801   5.350   6.051
 5291SOL    HW216773   2.920   5.371   5.941
 5292SOL     OW16774   6.640   3.017   6.566
 5292SOL    HW116775   6.556   3.054   6.526
 5292SOL    HW216776   6.718   3.071   6.536
 5293SOL     OW16777   0.300   0.606   4.726
 5293SOL    HW116778   0.250   0.669   4.785
 5293SOL    HW216779   0.319   0.650   4.638
 5294SOL     OW16780   4.582   3.607   5.870
 5294SOL    HW116781   4.649   3.551   5.821
 5294SOL    HW216782   4.593   3.703   5.845
 5295SOL     OW16783   6.406   0.413   2.643
 5295SOL    HW116784   6.503   0.392   2.650
 5295SOL    HW216785   6.360   0.388   2.729
 5296SOL     OW16786   1.995   5.056   0.119
 5296SOL    HW116787   2.089   5.063   0.152
 5296SOL    HW216788   1.995   5.043   0.020
 5297SOL     OW16789   2.073   1.888   1.490
 5297SOL    HW116790   2.158   1.929   1.524
 5297SOL    HW216791   2.044   1.816   1.554
 5298SOL     OW16792   0.320   5.842   1.192
 5298SOL    HW116793   0.222   5.829   1.178
 5298SOL    HW216794   0.341   5.838   1.290
 5299SOL     OW16795   2.563   2.114   0.661
 5299SOL    HW116796   2.651   2.160   0.652
 5299SOL    HW216797   2.535   2.114   0.757
 5300SOL     OW16798   0.627   5.737   2.774
 5300SOL    HW116799   0.674   5.763   2.858
 5300SOL    HW216800   0.600   5.819   2.724
 5301SOL     OW16801   4.436   1.184   0.399
 5301SOL    HW116802   4.360   1.180   0.334
 5301SOL    HW216803   4.491   1.101   0.391
 5302SOL     OW16804   5.619   4.857   3.402
 5302SOL    HW116805   5.567   4.854   3.487
 5302SOL    HW216806   5.675   4.940   3.399
 5303SOL     OW16807   0.031   5.886   3.941
 5303SOL    HW116808   0.009   5.949   4.015
 5303SOL    HW216809   6.968   5.842   3.909
 5304SOL     OW16810   6.232   2.446   5.836
 5304SOL    HW116811   6.160   2.472   5.900
 5304SOL    HW216812   6.320   2.440   5.884
 5305SOL     OW16813   1.423   6.587   4.394
 5305SOL    HW116814   1.360   6.634   4.456
 5305SOL    HW216815   1.397   6.491   4.387
 5306SOL     OW16816   1.434   5.429   4.851
 5306SOL    HW116817   1.521   5.400   4.811
 5306SOL    HW216818   1.437   5.415   4.950
 5307SOL     OW16819   4.055   6.316   0.197
 5307SOL    HW116820   4.063   6.407   0.156
 5307SOL    HW216821   4.141   6.291   0.240
 5308SOL     OW16822   0.609   0.015   4.771
 5308SOL    HW116823   0.604   6.948   4.819
 5308SOL    HW216824   0.704   0.036   4.749
 5309SOL     OW16825   3.143   4.022   2.357
 5309SOL    HW116826   3.127   4.046   2.261
 5309SOL    HW216827   3.077   3.952   2.385
 5310SOL     OW16828   5.409   2.859   2.292
 5310SOL    HW116829   5.494   2.900   2.257
 5310SOL    HW216830   5.339   2.930   2.299
 5311SOL     OW16831   0.036   6.096   0.739
 5311SOL    HW116832   0.049   6.099   0.838
 5311SOL    HW216833   0.104   6.036   0.698
 5312SOL     OW16834   6.910   4.642   1.847
 5312SOL    HW116835   6.920   4.552   1.889
 5312SOL    HW216836   6.902   4.712   1.918
 5313SOL     OW16837   1.151   5.479   0.024
 5313SOL    HW116838   1.165   5.459   0.121
 5313SOL    HW216839   1.054   5.491   0.005
 5314SOL     OW16840   4.345   4.881   0.629
 5314SOL    HW116841   4.316   4.812   0.695
 5314SOL    HW216842   4.434   4.855   0.591
 5315SOL     OW16843   4.290   4.549   1.705
 5315SOL    HW116844   4.298   4.586   1.613
 5315SOL    HW216845   4.261   4.453   1.700
 5316SOL     OW16846   6.035   5.283   4.943
 5316SOL    HW116847   6.011   5.378   4.920
 5316SOL    HW216848   6.015   5.225   4.864
 5317SOL     OW16849   6.143   1.453   4.680
 5317SOL    HW116850   6.129   1.419   4.773
 5317SOL    HW216851   6.181   1.379   4.623
 5318SOL     OW16852   0.299   1.861   5.725
 5318SOL    HW116853   0.324   1.778   5.677
 5318SOL    HW216854   0.248   1.838   5.808
 5319SOL     OW16855   4.625   0.018   0.076
 5319SOL    HW116856   4.533   0.040   0.042
 5319SOL    HW216857   4.617   6.991   0.164
 5320SOL     OW16858   5.808   5.230   6.998
 5320SOL    HW116859   5.754   5.302   0.022
 5320SOL    HW216860   5.748   5.170   6.947
 5321SOL     OW16861   1.036   5.590   2.303
 5321SOL    HW116862   0.944   5.561   2.330
 5321SOL    HW216863   1.104   5.534   2.351
 5322SOL     OW16864   4.089   6.617   6.206
 5322SOL    HW116865   4.118   6.659   6.121
 5322SOL    HW216866   4.141   6.532   6.221
 5323SOL     OW16867   3.953   3.035   0.803
 5323SOL    HW116868   3.973   2.938   0.814
 5323SOL    HW216869   3.970   3.083   0.889
 5324SOL     OW16870   3.697   2.561   1.702
 5324SOL    HW116871   3.606   2.596   1.725
 5324SOL    HW216872   3.717   2.482   1.759
 5325SOL     OW16873   5.747   6.386   3.483
 5325SOL    HW116874   5.822   6.330   3.519
 5325SOL    HW216875   5.782   6.476   3.458
 5326SOL     OW16876   5.996   5.182   2.701
 5326SOL    HW116877   5.968   5.118   2.774
 5326SOL    HW216878   6.084   5.154   2.664
 5327SOL     OW16879   0.691   6.014   5.807
 5327SOL    HW116880   0.783   6.035   5.776
 5327SOL    HW216881   0.663   5.925   5.771
 5328SOL     OW16882   3.768   2.252   5.717
 5328SOL    HW116883   3.695   2.219   5.657
 5328SOL    HW216884   3.839   2.182   5.724
 5329SOL     OW16885   0.468   3.857   6.584
 5329SOL    HW116886   0.387   3.910   6.564
 5329SOL    HW216887   0.451   3.760   6.565
 5330SOL     OW16888   3.400   4.002   6.988
 5330SOL    HW116889   3.408   3.906   7.014
 5330SOL    HW216890   3.410   4.059   0.048
 5331SOL     OW16891   5.140   1.222   1.479
 5331SOL    HW116892   5.172   1.160   1.551
 5331SOL    HW216893   5.219   1.259   1.430
 5332SOL     OW16894   6.536   4.308   7.011
 5332SOL    HW116895   6.476   4.387   7.001
 5332SOL    HW216896   6.482   4.224   7.004
 5333SOL     OW16897   1.209   0.683   3.846
 5333SOL    HW116898   1.163   0.627   3.776
 5333SOL    HW216899   1.291   0.635   3.877
 5334SOL     OW16900   4.165   5.161   5.140
 5334SOL    HW116901   4.089   5.185   5.079
 5334SOL    HW216902   4.129   5.122   5.225
 5335SOL     OW16903   0.222   4.788   1.962
 5335SOL    HW116904   0.271   4.705   1.935
 5335SOL    HW216905   0.179   4.829   1.881
 5336SOL     OW16906   2.327   1.896   3.463
 5336SOL    HW116907   2.396   1.871   3.531
 5336SOL    HW216908   2.257   1.824   3.460
 5337SOL     OW16909   5.907   5.370   2.340
 5337SOL    HW116910   5.834   5.425   2.298
 5337SOL    HW216911   5.879   5.341   2.431
 5338SOL     OW16912   5.406   1.551   6.909
 5338SOL    HW116913   5.360   1.486   6.848
 5338SOL    HW216914   5.351   1.634   6.916
 5339SOL     OW16915   5.786   1.519   2.166
 5339SOL    HW116916   5.768   1.421   2.154
 5339SOL    HW216917   5.869   1.543   2.116
 5340SOL     OW16918   5.630   3.411   1.370
 5340SOL    HW116919   5.710   3.470   1.387
 5340SOL    HW216920   5.549   3.453   1.410
 5341SOL     OW16921   3.525   4.957   5.003
 5341SOL    HW116922   3.491   4.888   5.068
 5341SOL    HW216923   3.611   4.996   5.038
 5342SOL     OW16924   4.537   6.259   4.690
 5342SOL    HW116925   4.530   6.159   4.689
 5342SOL    HW216926   4.594   6.287   4.767
 5343SOL     OW16927   3.697   3.621   4.979
 5343SOL    HW116928   3.638   3.659   5.050
 5343SOL    HW216929   3.651   3.545   4.934
 5344SOL     OW16930   0.478   1.279   6.716
 5344SOL    HW116931   0.552   1.326   6.669
 5344SOL    HW216932   0.472   1.185   6.682
 5345SOL     OW16933   4.902   0.769   6.882
 5345SOL    HW116934   4.851   0.789   6.966
 5345SOL    HW216935   4.863   0.687   6.839
 5346SOL     OW16936   2.298   4.949   4.303
 5346SOL    HW116937   2.379   4.987   4.349
 5346SOL    HW216938   2.216   4.976   4.353
 5347SOL     OW16939   6.845   4.097   3.521
 5347SOL    HW116940   6.876   4.003   3.503
 5347SOL    HW216941   6.921   4.151   3.556
 5348SOL     OW16942   0.372   0.978   5.830
 5348SOL    HW116943   0.302   0.928   5.779
 5348SOL    HW216944   0.458   0.976   5.780
 5349SOL     OW16945   2.581   3.407   1.316
 5349SOL    HW116946   2.576   3.472   1.391
 5349SOL    HW216947   2.494   3.358   1.308
 5350SOL     OW16948   2.242   6.253   5.293
 5350SOL    HW116949   2.209   6.168   5.334
 5350SOL    HW216950   2.327   6.234   5.243
 5351SOL     OW16951   0.352   5.410   2.080
 5351SOL    HW116952   0.366   5.366   1.992
 5351SOL    HW216953   0.408   5.365   2.150
 5352SOL     OW16954   2.237   4.251   3.027
 5352SOL    HW116955   2.223   4.213   2.935
 5352SOL    HW216956   2.291   4.334   3.021
 5353SOL     OW16957   4.202   5.053   3.179
 5353SOL    HW116958   4.188   4.955   3.185
 5353SOL    HW216959   4.276   5.081   3.240
 5354SOL     OW16960   2.762   4.217   0.008
 5354SOL    HW116961   2.696   4.256   6.965
 5354SOL    HW216962   2.739   4.121   0.026
 5355SOL     OW16963   5.583   4.323   4.962
 5355SOL    HW116964   5.508   4.362   4.908
 5355SOL    HW216965   5.658   4.300   4.901
 5356SOL     OW16966   6.895   3.617   1.836
 5356SOL    HW116967   6.805   3.638   1.875
 5356SOL    HW216968   6.893   3.629   1.737
 5357SOL     OW16969   4.174   4.460   1.324
 5357SOL    HW116970   4.150   4.529   1.392
 5357SOL    HW216971   4.116   4.379   1.337
 5358SOL     OW16972   4.580   1.942   0.551
 5358SOL    HW116973   4.482   1.928   0.560
 5358SOL    HW216974   4.606   2.029   0.594
 5359SOL     OW16975   1.843   1.804   6.484
 5359SOL    HW116976   1.813   1.778   6.576
 5359SOL    HW216977   1.863   1.902   6.482
 5360SOL     OW16978   5.366   5.526   3.662
 5360SOL    HW116979   5.322   5.609   3.628
 5360SOL    HW216980   5.305   5.448   3.648
 5361SOL     OW16981   1.833   6.413   3.985
 5361SOL    HW116982   1.776   6.468   3.924
 5361SOL    HW216983   1.929   6.424   3.960
 5362SOL     OW16984   6.238   6.803   2.629
 5362SOL    HW116985   6.317   6.747   2.650
 5362SOL    HW216986   6.201   6.843   2.713
 5363SOL     OW16987   5.124   6.504   5.280
 5363SOL    HW116988   5.095   6.599   5.271
 5363SOL    HW216989   5.217   6.495   5.244
 5364SOL     OW16990   6.007   0.197   2.367
 5364SOL    HW116991   6.056   0.110   2.380
 5364SOL    HW216992   6.026   0.232   2.276
 5365SOL     OW16993   3.585   3.151   2.366
 5365SOL    HW116994   3.492   3.155   2.402
 5365SOL    HW216995   3.603   3.059   2.331
 5366SOL     OW16996   6.975   0.534   2.453
 5366SOL    HW116997   6.977   0.454   2.513
 5366SOL    HW216998   6.880   0.555   2.429
 5367SOL     OW16999   6.663   0.130   1.020
 5367SOL    HW117000   6.665   0.055   0.954
 5367SOL    HW217001   6.756   0.148   1.053
 5368SOL     OW17002   6.293   6.021   2.255
 5368SOL    HW117003   6.291   5.940   2.313
 5368SOL    HW217004   6.200   6.042   2.224
 5369SOL     OW17005   2.972   5.670   1.371
 5369SOL    HW117006   3.034   5.672   1.450
 5369SOL    HW217007   3.014   5.719   1.295
 5370SOL     OW17008   4.524   3.656   1.390
 5370SOL    HW117009   4.499   3.563   1.362
 5370SOL    HW217010   4.557   3.654   1.484
 5371SOL     OW17011   6.994   4.787   5.659
 5371SOL    HW117012   6.901   4.755   5.642
 5371SOL    HW217013   6.995   4.844   5.741
 5372SOL     OW17014   1.388   6.632   2.778
 5372SOL    HW117015   1.444   6.552   2.799
 5372SOL    HW217016   1.426   6.712   2.824
 5373SOL     OW17017   3.786   6.894   5.805
 5373SOL    HW117018   3.718   6.832   5.766
 5373SOL    HW217019   3.748   6.986   5.812
 5374SOL     OW17020   2.629   4.135   1.034
 5374SOL    HW117021   2.659   4.200   0.965
 5374SOL    HW217022   2.692   4.057   1.035
 5375SOL     OW17023   0.470   5.452   5.581
 5375SOL    HW117024   0.446   5.368   5.531
 5375SOL    HW217025   0.419   5.529   5.544
 5376SOL     OW17026   1.391   2.207   2.217
 5376SOL    HW117027   1.449   2.288   2.223
 5376SOL    HW217028   1.430   2.134   2.274
 5377SOL     OW17029   1.424   0.697   2.768
 5377SOL    HW117030   1.331   0.713   2.801
 5377SOL    HW217031   1.481   0.667   2.845
 5378SOL     OW17032   6.823   0.512   1.809
 5378SOL    HW117033   6.816   0.604   1.849
 5378SOL    HW217034   6.882   0.455   1.865
 5379SOL     OW17035   1.188   3.109   5.097
 5379SOL    HW117036   1.101   3.118   5.049
 5379SOL    HW217037   1.247   3.187   5.074
 5380SOL     OW17038   3.041   0.254   1.149
 5380SOL    HW117039   3.036   0.173   1.090
 5380SOL    HW217040   3.137   0.281   1.160
 5381SOL     OW17041   6.144   6.248   2.521
 5381SOL    HW117042   6.058   6.209   2.489
 5381SOL    HW217043   6.209   6.175   2.542
 5382SOL     OW17044   3.059   2.212   2.758
 5382SOL    HW117045   2.965   2.182   2.775
 5382SOL    HW217046   3.073   2.225   2.660
 5383SOL     OW17047   1.749   2.781   4.590
 5383SOL    HW117048   1.788   2.706   4.538
 5383SOL    HW217049   1.788   2.868   4.558
 5384SOL     OW17050   4.852   5.646   4.930
 5384SOL    HW117051   4.922   5.592   4.976
 5384SOL    HW217052   4.762   5.605   4.946
 5385SOL     OW17053   5.785   3.251   4.638
 5385SOL    HW117054   5.755   3.324   4.699
 5385SOL    HW217055   5.771   3.280   4.543
 5386SOL     OW17056   5.695   1.545   3.968
 5386SOL    HW117057   5.599   1.518   3.981
 5386SOL    HW217058   5.728   1.509   3.880
 5387SOL     OW17059   2.581   6.711   3.695
 5387SOL    HW117060   2.570   6.637   3.629
 5387SOL    HW217061   2.671   6.754   3.683
 5388SOL     OW17062   1.676   6.731   2.984
 5388SOL    HW117063   1.649   6.635   2.984
 5388SOL    HW217064   1.609   6.784   2.932
 5389SOL     OW17065   4.021   1.795   4.816
 5389SOL    HW117066   3.941   1.786   4.875
 5389SOL    HW217067   4.028   1.888   4.782
 5390SOL     OW17068   5.157   4.086   3.936
 5390SOL    HW117069   5.178   4.167   3.990
 5390SOL    HW217070   5.176   4.004   3.990
 5391SOL     OW17071   2.826   1.951   0.538
 5391SOL    HW117072   2.770   1.948   0.455
 5391SOL    HW217073   2.829   1.861   0.580
 5392SOL     OW17074   4.964   3.706   2.037
 5392SOL    HW117075   4.939   3.798   2.009
 5392SOL    HW217076   4.956   3.644   1.960
 5393SOL     OW17077   4.085   1.235   5.266
 5393SOL    HW117078   4.066   1.305   5.335
 5393SOL    HW217079   4.118   1.152   5.312
 5394SOL     OW17080   0.524   6.383   0.891
 5394SOL    HW117081   0.598   6.374   0.958
 5394SOL    HW217082   0.473   6.297   0.886
 5395SOL     OW17083   4.663   1.223   1.090
 5395SOL    HW117084   4.744   1.245   1.036
 5395SOL    HW217085   4.667   1.127   1.119
 5396SOL     OW17086   5.389   5.882   1.737
 5396SOL    HW117087   5.318   5.922   1.679
 5396SOL    HW217088   5.452   5.830   1.679
 5397SOL     OW17089   0.028   1.871   1.660
 5397SOL    HW117090   6.988   1.888   1.737
 5397SOL    HW217091   7.016   1.921   1.580
 5398SOL     OW17092   3.439   2.110   3.639
 5398SOL    HW117093   3.355   2.124   3.692
 5398SOL    HW217094   3.518   2.120   3.699
 5399SOL     OW17095   2.766   6.595   5.995
 5399SOL    HW117096   2.703   6.663   6.032
 5399SOL    HW217097   2.840   6.642   5.946
 5400SOL     OW17098   3.219   3.396   0.990
 5400SOL    HW117099   3.160   3.450   0.929
 5400SOL    HW217100   3.170   3.314   1.020
 5401SOL     OW17101   5.573   4.372   2.651
 5401SOL    HW117102   5.504   4.319   2.601
 5401SOL    HW217103   5.608   4.445   2.593
 5402SOL     OW17104   3.245   6.454   0.579
 5402SOL    HW117105   3.170   6.419   0.635
 5402SOL    HW217106   3.332   6.433   0.623
 5403SOL     OW17107   5.320   3.112   6.728
 5403SOL    HW117108   5.222   3.094   6.729
 5403SOL    HW217109   5.351   3.135   6.820
 5404SOL     OW17110   1.053   1.058   0.674
 5404SOL    HW117111   1.148   1.086   0.664
 5404SOL    HW217112   1.011   1.049   0.583
 5405SOL     OW17113   6.429   5.199   0.351
 5405SOL    HW117114   6.407   5.150   0.435
 5405SOL    HW217115   6.479   5.139   0.289
 5406SOL     OW17116   2.229   1.107   4.813
 5406SOL    HW117117   2.178   1.148   4.888
 5406SOL    HW217118   2.201   1.012   4.802
 5407SOL     OW17119   2.971   1.530   0.817
 5407SOL    HW117120   3.038   1.487   0.756
 5407SOL    HW217121   3.008   1.616   0.853
 5408SOL     OW17122   3.195   1.492   4.829
 5408SOL    HW117123   3.217   1.525   4.737
 5408SOL    HW217124   3.097   1.503   4.846
 5409SOL     OW17125   6.546   1.602   1.980
 5409SOL    HW117126   6.479   1.528   1.987
 5409SOL    HW217127   6.580   1.625   2.071
 5410SOL     OW17128   0.559   3.008   0.083
 5410SOL    HW117129   0.648   2.988   0.042
 5410SOL    HW217130   0.546   3.107   0.088
 5411SOL     OW17131   5.381   4.615   0.349
 5411SOL    HW117132   5.333   4.702   0.350
 5411SOL    HW217133   5.469   4.626   0.302
 5412SOL     OW17134   2.580   1.206   6.021
 5412SOL    HW117135   2.612   1.155   6.101
 5412SOL    HW217136   2.532   1.288   6.052
 5413SOL     OW17137   6.975   6.732   6.355
 5413SOL    HW117138   0.030   6.797   6.353
 5413SOL    HW217139   6.910   6.757   6.427
 5414SOL     OW17140   6.753   4.569   5.510
 5414SOL    HW117141   6.740   4.660   5.551
 5414SOL    HW217142   6.759   4.578   5.410
 5415SOL     OW17143   3.230   5.814   0.307
 5415SOL    HW117144   3.152   5.809   0.369
 5415SOL    HW217145   3.234   5.732   0.251
 5416SOL     OW17146   2.647   5.205   4.881
 5416SOL    HW117147   2.612   5.277   4.820
 5416SOL    HW217148   2.585   5.194   4.959
 5417SOL     OW17149   3.624   6.855   4.176
 5417SOL    HW117150   3.716   6.882   4.149
 5417SOL    HW217151   3.626   6.765   4.218
 5418SOL     OW17152   5.372   5.529   4.792
 5418SOL    HW117153   5.450   5.582   4.761
 5418SOL    HW217154   5.319   5.584   4.857
 5419SOL     OW17155   4.616   6.365   0.234
 5419SOL    HW117156   4.559   6.417   0.298
 5419SOL    HW217157   4.622   6.270   0.264
 5420SOL     OW17158   2.070   1.972   0.790
 5420SOL    HW117159   1.995   2.030   0.758
 5420SOL    HW217160   2.084   1.986   0.888
 5421SOL     OW17161   3.270   5.306   1.682
 5421SOL    HW117162   3.197   5.321   1.749
 5421SOL    HW217163   3.353   5.277   1.728
 5422SOL     OW17164   2.209   5.772   4.299
 5422SOL    HW117165   2.277   5.806   4.234
 5422SOL    HW217166   2.155   5.849   4.335
 5423SOL     OW17167   6.198   5.469   1.164
 5423SOL    HW117168   6.226   5.519   1.082
 5423SOL    HW217169   6.133   5.397   1.138
 5424SOL     OW17170   4.876   3.811   4.216
 5424SOL    HW117171   4.956   3.753   4.223
 5424SOL    HW217172   4.810   3.787   4.287
 5425SOL     OW17173   6.290   2.835   4.610
 5425SOL    HW117174   6.381   2.856   4.574
 5425SOL    HW217175   6.221   2.882   4.555
 5426SOL     OW17176   4.286   5.799   2.436
 5426SOL    HW117177   4.257   5.757   2.350
 5426SOL    HW217178   4.350   5.873   2.416
 5427SOL     OW17179   4.804   3.021   0.262
 5427SOL    HW117180   4.748   2.949   0.304
 5427SOL    HW217181   4.753   3.065   0.189
 5428SOL     OW17182   5.024   6.817   2.152
 5428SOL    HW117183   5.062   6.897   2.199
 5428SOL    HW217184   5.032   6.737   2.211
 5429SOL     OW17185   2.085   0.056   4.652
 5429SOL    HW117186   2.117   6.984   4.633
 5429SOL    HW217187   1.989   0.064   4.624
 5430SOL     OW17188   2.154   2.860   5.704
 5430SOL    HW117189   2.082   2.828   5.643
 5430SOL    HW217190   2.242   2.823   5.675
 5431SOL     OW17191   3.218   4.500   6.221
 5431SOL    HW117192   3.169   4.478   6.136
 5431SOL    HW217193   3.160   4.556   6.280
 5432SOL     OW17194   5.205   5.530   0.086
 5432SOL    HW117195   5.159   5.473   0.154
 5432SOL    HW217196   5.297   5.496   0.070
 5433SOL     OW17197   1.766   0.227   0.954
 5433SOL    HW117198   1.682   0.273   0.984
 5433SOL    HW217199   1.814   0.285   0.889
 5434SOL     OW17200   4.604   0.717   4.809
 5434SOL    HW117201   4.584   0.629   4.853
 5434SOL    HW217202   4.540   0.786   4.844
 5435SOL     OW17203   6.526   3.714   1.075
 5435SOL    HW117204   6.460   3.643   1.097
 5435SOL    HW217205   6.569   3.694   0.988
 5436SOL     OW17206   6.619   5.168   4.190
 5436SOL    HW117207   6.695   5.110   4.219
 5436SOL    HW217208   6.588   5.139   4.099
 5437SOL     OW17209   3.866   4.582   5.550
 5437SOL    HW117210   3.825   4.521   5.618
 5437SOL    HW217211   3.901   4.528   5.474
 5438SOL     OW17212   4.864   5.100   2.145
 5438SOL    HW117213   4.950   5.140   2.176
 5438SOL    HW217214   4.788   5.147   2.190
 5439SOL     OW17215   1.152   3.646   0.147
 5439SOL    HW117216   1.077   3.617   0.206
 5439SOL    HW217217   1.117   3.666   0.056
 5440SOL     OW17218   5.745   6.516   3.751
 5440SOL    HW117219   5.806   6.465   3.811
 5440SOL    HW217220   5.733   6.465   3.665
 5441SOL     OW17221   5.507   3.360   2.946
 5441SOL    HW117222   5.525   3.365   2.848
 5441SOL    HW217223   5.450   3.280   2.966
 5442SOL     OW17224   3.796   6.923   3.179
 5442SOL    HW117225   3.839   6.838   3.148
 5442SOL    HW217226   3.720   6.946   3.118
 5443SOL     OW17227   4.261   6.430   4.069
 5443SOL    HW117228   4.203   6.512   4.074
 5443SOL    HW217229   4.234   6.375   3.990
 5444SOL     OW17230   6.847   1.407   4.112
 5444SOL    HW117231   6.773   1.403   4.045
 5444SOL    HW217232   6.812   1.381   4.202
 5445SOL     OW17233   5.186   4.355   3.745
 5445SOL    HW117234   5.222   4.342   3.837
 5445SOL    HW217235   5.227   4.287   3.683
 5446SOL     OW17236   5.925   4.532   4.604
 5446SOL    HW117237   6.005   4.478   4.631
 5446SOL    HW217238   5.843   4.474   4.607
 5447SOL     OW17239   1.899   1.745   0.838
 5447SOL    HW117240   1.958   1.819   0.806
 5447SOL    HW217241   1.949   1.687   0.902
 5448SOL     OW17242   4.823   5.406   3.958
 5448SOL    HW117243   4.902   5.467   3.945
 5448SOL    HW217244   4.855   5.317   3.990
 5449SOL     OW17245   2.535   1.165   1.592
 5449SOL    HW117246   2.537   1.097   1.519
 5449SOL    HW217247   2.440   1.194   1.608
 5450SOL     OW17248   3.987   6.435   1.154
 5450SOL    HW117249   4.021   6.517   1.108
 5450SOL    HW217250   3.888   6.430   1.144
 5451SOL     OW17251   1.524   6.045   3.441
 5451SOL    HW117252   1.499   6.101   3.520
 5451SOL    HW217253   1.450   6.048   3.373
 5452SOL     OW17254   2.457   4.425   1.003
 5452SOL    HW117255   2.526   4.408   1.073
 5452SOL    HW217256   2.367   4.404   1.040
 5453SOL     OW17257   4.968   4.233   1.902
 5453SOL    HW117258   4.989   4.145   1.944
 5453SOL    HW217259   4.958   4.221   1.803
 5454SOL     OW17260   5.445   6.267   1.947
 5454SOL    HW117261   5.484   6.181   1.978
 5454SOL    HW217262   5.425   6.325   2.026
 5455SOL     OW17263   0.166   1.808   3.408
 5455SOL    HW117264   0.113   1.837   3.487
 5455SOL    HW217265   0.250   1.764   3.438
 5456SOL     OW17266   4.080   1.378   6.487
 5456SOL    HW117267   3.997   1.331   6.457
 5456SOL    HW217268   4.088   1.371   6.586
 5457SOL     OW17269   6.097   1.430   0.585
 5457SOL    HW117270   6.168   1.440   0.655
 5457SOL    HW217271   6.123   1.356   0.523
 5458SOL     OW17272   6.646   4.936   1.241
 5458SOL    HW117273   6.675   5.007   1.306
 5458SOL    HW217274   6.716   4.925   1.170
 5459SOL     OW17275   2.153   4.670   4.694
 5459SOL    HW117276   2.085   4.690   4.623
 5459SOL    HW217277   2.156   4.746   4.759
 5460SOL     OW17278   2.599   0.592   2.136
 5460SOL    HW117279   2.647   0.521   2.084
 5460SOL    HW217280   2.639   0.681   2.115
 5461SOL     OW17281   0.867   1.518   5.108
 5461SOL    HW117282   0.895   1.430   5.146
 5461SOL    HW217283   0.796   1.504   5.039
 5462SOL     OW17284   5.427   6.542   6.863
 5462SOL    HW117285   5.433   6.444   6.848
 5462SOL    HW217286   5.340   6.576   6.824
 5463SOL     OW17287   6.786   1.981   6.669
 5463SOL    HW117288   6.752   2.074   6.685
 5463SOL    HW217289   6.709   1.922   6.647
 5464SOL     OW17290   6.128   5.401   5.391
 5464SOL    HW117291   6.211   5.400   5.336
 5464SOL    HW217292   6.051   5.428   5.334
 5465SOL     OW17293   6.958   6.988   3.242
 5465SOL    HW117294   6.928   6.932   3.165
 5465SOL    HW217295   6.878   0.003   3.290
 5466SOL     OW17296   6.427   2.657   5.512
 5466SOL    HW117297   6.456   2.572   5.467
 5466SOL    HW217298   6.344   2.640   5.564
 5467SOL     OW17299   5.784   3.800   3.090
 5467SOL    HW117300   5.738   3.889   3.095
 5467SOL    HW217301   5.724   3.734   3.045
 5468SOL     OW17302   6.811   2.873   4.234
 5468SOL    HW117303   6.743   2.809   4.196
 5468SOL    HW217304   6.785   2.966   4.211
 5469SOL     OW17305   3.442   5.781   6.185
 5469SOL    HW117306   3.484   5.691   6.178
 5469SOL    HW217307   3.482   5.842   6.116
 5470SOL     OW17308   3.743   5.299   3.438
 5470SOL    HW117309   3.647   5.280   3.456
 5470SOL    HW217310   3.800   5.257   3.508
 5471SOL     OW17311   5.621   0.101   2.445
 5471SOL    HW117312   5.673   0.088   2.529
 5471SOL    HW217313   5.626   0.196   2.417
 5472SOL     OW17314   3.035   3.513   6.394
 5472SOL    HW117315   3.129   3.536   6.419
 5472SOL    HW217316   3.030   3.493   6.296
 5473SOL     OW17317   1.977   4.054   0.249
 5473SOL    HW117318   2.037   4.127   0.282
 5473SOL    HW217319   1.884   4.069   0.284
 5474SOL     OW17320   0.253   5.888   4.153
 5474SOL    HW117321   0.279   5.824   4.226
 5474SOL    HW217322   0.188   5.844   4.091
 5475SOL     OW17323   1.856   2.139   0.798
 5475SOL    HW117324   1.849   2.236   0.775
 5475SOL    HW217325   1.867   2.128   0.897
 5476SOL     OW17326   2.404   4.601   4.939
 5476SOL    HW117327   2.461   4.582   5.018
 5476SOL    HW217328   2.324   4.654   4.967
 5477SOL     OW17329   1.580   3.661   3.042
 5477SOL    HW117330   1.499   3.697   3.089
 5477SOL    HW217331   1.638   3.738   3.015
 5478SOL     OW17332   5.139   6.342   5.651
 5478SOL    HW117333   5.184   6.364   5.564
 5478SOL    HW217334   5.041   6.332   5.635
 5479SOL     OW17335   4.260   1.714   4.816
 5479SOL    HW117336   4.162   1.734   4.809
 5479SOL    HW217337   4.297   1.757   4.898
 5480SOL     OW17338   5.775   4.846   5.129
 5480SOL    HW117339   5.867   4.807   5.121
 5480SOL    HW217340   5.707   4.774   5.127
 5481SOL     OW17341   4.803   1.008   4.682
 5481SOL    HW117342   4.727   1.044   4.628
 5481SOL    HW217343   4.781   0.916   4.714
 5482SOL     OW17344   3.166   3.957   2.921
 5482SOL    HW117345   3.162   3.978   2.824
 5482SOL    HW217346   3.213   3.869   2.935
 5483SOL     OW17347   6.557   1.914   5.237
 5483SOL    HW117348   6.621   1.912   5.314
 5483SOL    HW217349   6.463   1.925   5.271
 5484SOL     OW17350   6.327   0.397   3.525
 5484SOL    HW117351   6.426   0.409   3.516
 5484SOL    HW217352   6.301   0.403   3.621
 5485SOL     OW17353   3.248   6.284   4.826
 5485SOL    HW117354   3.246   6.372   4.872
 5485SOL    HW217355   3.199   6.291   4.739
 5486SOL     OW17356   1.352   6.326   4.368
 5486SOL    HW117357   1.439   6.277   4.374
 5486SOL    HW217358   1.280   6.262   4.343
 5487SOL     OW17359   5.523   3.326   6.629
 5487SOL    HW117360   5.431   3.355   6.602
 5487SOL    HW217361   5.517   3.265   6.708
 5488SOL     OW17362   5.270   1.603   1.411
 5488SOL    HW117363   5.327   1.531   1.373
 5488SOL    HW217364   5.248   1.669   1.339
 5489SOL     OW17365   0.913   4.318   1.466
 5489SOL    HW117366   0.986   4.262   1.426
 5489SOL    HW217367   0.848   4.259   1.514
 5490SOL     OW17368   3.305   0.332   1.130
 5490SOL    HW117369   3.365   0.329   1.050
 5490SOL    HW217370   3.247   0.413   1.124
 5491SOL     OW17371   1.705   3.333   6.287
 5491SOL    HW117372   1.741   3.328   6.380
 5491SOL    HW217373   1.780   3.325   6.222
 5492SOL     OW17374   0.928   2.366   6.548
 5492SOL    HW117375   0.911   2.328   6.457
 5492SOL    HW217376   1.017   2.334   6.582
 5493SOL     OW17377   4.088   3.763   4.137
 5493SOL    HW117378   4.053   3.714   4.057
 5493SOL    HW217379   4.148   3.702   4.190
 5494SOL     OW17380   6.056   2.463   0.040
 5494SOL    HW117381   6.058   2.474   6.962
 5494SOL    HW217382   6.132   2.514   0.081
 5495SOL     OW17383   3.230   2.535   1.313
 5495SOL    HW117384   3.320   2.578   1.315
 5495SOL    HW217385   3.194   2.529   1.406
 5496SOL     OW17386   2.498   6.962   3.778
 5496SOL    HW117387   2.404   6.981   3.806
 5496SOL    HW217388   2.515   6.863   3.786
 5497SOL     OW17389   0.076   1.819   3.655
 5497SOL    HW117390   0.011   1.883   3.696
 5497SOL    HW217391   0.160   1.818   3.709
 5498SOL     OW17392   5.122   0.242   1.391
 5498SOL    HW117393   5.105   0.172   1.322
 5498SOL    HW217394   5.062   0.227   1.470
 5499SOL     OW17395   0.988   0.803   3.611
 5499SOL    HW117396   0.889   0.809   3.622
 5499SOL    HW217397   1.009   0.768   3.519
 5500SOL     OW17398   2.061   6.372   6.802
 5500SOL    HW117399   1.978   6.321   6.780
 5500SOL    HW217400   2.132   6.351   6.736
 5501SOL     OW17401   3.793   0.063   0.993
 5501SOL    HW117402   3.717   0.021   1.044
 5501SOL    HW217403   3.806   0.015   0.906
 5502SOL     OW17404   5.496   4.217   6.952
 5502SOL    HW117405   5.560   4.159   6.903
 5502SOL    HW217406   5.429   4.255   6.888
 5503SOL     OW17407   0.238   5.188   2.963
 5503SOL    HW117408   0.266   5.099   2.928
 5503SOL    HW217409   0.314   5.231   3.012
 5504SOL     OW17410   3.838   1.404   5.616
 5504SOL    HW117411   3.806   1.365   5.529
 5504SOL    HW217412   3.928   1.446   5.603
 5505SOL     OW17413   2.185   5.506   4.251
 5505SOL    HW117414   2.282   5.485   4.240
 5505SOL    HW217415   2.176   5.595   4.297
 5506SOL     OW17416   0.379   1.130   6.228
 5506SOL    HW117417   0.427   1.142   6.140
 5506SOL    HW217418   0.417   1.193   6.295
 5507SOL     OW17419   2.385   6.897   2.885
 5507SOL    HW117420   2.448   6.824   2.910
 5507SOL    HW217421   2.424   6.985   2.911
 5508SOL     OW17422   1.827   0.991   0.043
 5508SOL    HW117423   1.858   1.027   0.131
 5508SOL    HW217424   1.732   0.960   0.051
 5509SOL     OW17425   1.098   6.447   0.845
 5509SOL    HW117426   1.190   6.408   0.841
 5509SOL    HW217427   1.100   6.541   0.810
 5510SOL     OW17428   5.292   6.481   0.637
 5510SOL    HW117429   5.340   6.413   0.693
 5510SOL    HW217430   5.194   6.472   0.651
 5511SOL     OW17431   2.938   0.234   4.216
 5511SOL    HW117432   2.938   0.334   4.214
 5511SOL    HW217433   2.892   0.199   4.135
 5512SOL     OW17434   5.717   2.324   1.482
 5512SOL    HW117435   5.673   2.414   1.490
 5512SOL    HW217436   5.684   2.278   1.400
 5513SOL     OW17437   3.897   3.779   6.105
 5513SOL    HW117438   3.987   3.744   6.079
 5513SOL    HW217439   3.866   3.734   6.188
 5514SOL     OW17440   4.803   5.850   2.198
 5514SOL    HW117441   4.804   5.920   2.127
 5514SOL    HW217442   4.862   5.880   2.274
 5515SOL     OW17443   0.068   5.135   1.228
 5515SOL    HW117444   0.004   5.150   1.153
 5515SOL    HW217445   0.021   5.147   1.315
 5516SOL     OW17446   1.372   3.628   6.881
 5516SOL    HW117447   1.343   3.614   6.787
 5516SOL    HW217448   1.292   3.641   6.939
 5517SOL     OW17449   2.277   2.821   2.285
 5517SOL    HW117450   2.203   2.771   2.241
 5517SOL    HW217451   2.246   2.913   2.310
 5518SOL     OW17452   6.326   6.741   6.125
 5518SOL    HW117453   6.280   6.801   6.190
 5518SOL    HW217454   6.306   6.770   6.031
 5519SOL     OW17455   5.201   3.388   2.724
 5519SOL    HW117456   5.136   3.383   2.800
 5519SOL    HW217457   5.192   3.477   2.679
 5520SOL     OW17458   0.273   5.858   2.494
 5520SOL    HW117459   0.212   5.887   2.568
 5520SOL    HW217460   0.236   5.888   2.406
 5521SOL     OW17461   4.232   0.016   1.933
 5521SOL    HW117462   4.137   0.038   1.910
 5521SOL    HW217463   4.261   0.069   2.012
 5522SOL     OW17464   0.070   5.586   0.730
 5522SOL    HW117465   0.079   5.615   0.635
 5522SOL    HW217466   0.158   5.550   0.762
 5523SOL     OW17467   2.951   6.662   2.580
 5523SOL    HW117468   2.981   6.647   2.486
 5523SOL    HW217469   2.856   6.692   2.580
 5524SOL     OW17470   5.153   5.605   4.650
 5524SOL    HW117471   5.239   5.573   4.691
 5524SOL    HW217472   5.076   5.561   4.696
 5525SOL     OW17473   6.764   3.123   6.980
 5525SOL    HW117474   6.786   3.151   0.054
 5525SOL    HW217475   6.741   3.026   6.979
 5526SOL     OW17476   5.481   4.603   4.580
 5526SOL    HW117477   5.390   4.645   4.578
 5526SOL    HW217478   5.550   4.675   4.578
 5527SOL     OW17479   6.921   3.740   4.195
 5527SOL    HW117480   6.917   3.763   4.097
 5527SOL    HW217481   6.951   3.646   4.206
 5528SOL     OW17482   1.262   1.918   6.726
 5528SOL    HW117483   1.319   2.001   6.725
 5528SOL    HW217484   1.262   1.877   6.635
 5529SOL     OW17485   1.630   0.605   4.151
 5529SOL    HW117486   1.575   0.597   4.234
 5529SOL    HW217487   1.709   0.545   4.158
 5530SOL     OW17488   0.566   2.195   2.257
 5530SOL    HW117489   0.599   2.230   2.344
 5530SOL    HW217490   0.483   2.244   2.230
 5531SOL     OW17491   3.837   3.316   2.333
 5531SOL    HW117492   3.842   3.345   2.238
 5531SOL    HW217493   3.766   3.246   2.344
 5532SOL     OW17494   1.391   1.739   0.196
 5532SOL    HW117495   1.382   1.839   0.197
 5532SOL    HW217496   1.390   1.705   0.290
 5533SOL     OW17497   3.032   0.748   3.378
 5533SOL    HW117498   2.997   0.826   3.430
 5533SOL    HW217499   3.050   0.777   3.284
 5534SOL     OW17500   0.480   2.179   5.343
 5534SOL    HW117501   0.466   2.113   5.417
 5534SOL    HW217502   0.518   2.132   5.263
 5535SOL     OW17503   0.568   3.363   4.563
 5535SOL    HW117504   0.524   3.312   4.638
 5535SOL    HW217505   0.498   3.400   4.503
 5536SOL     OW17506   2.959   0.846   4.406
 5536SOL    HW117507   2.988   0.768   4.350
 5536SOL    HW217508   2.990   0.931   4.364
 5537SOL     OW17509   3.149   0.508   3.989
 5537SOL    HW117510   3.191   0.570   3.922
 5537SOL    HW217511   3.076   0.457   3.945
 5538SOL     OW17512   3.314   6.940   5.142
 5538SOL    HW117513   3.341   6.850   5.176
 5538SOL    HW217514   3.265   6.929   5.055
 5539SOL     OW17515   1.740   2.773   0.213
 5539SOL    HW117516   1.742   2.825   0.128
 5539SOL    HW217517   1.649   2.735   0.228
 5540SOL     OW17518   6.131   3.319   3.084
 5540SOL    HW117519   6.079   3.371   3.016
 5540SOL    HW217520   6.100   3.224   3.086
 5541SOL     OW17521   5.852   1.218   6.447
 5541SOL    HW117522   5.795   1.137   6.433
 5541SOL    HW217523   5.806   1.282   6.509
 5542SOL     OW17524   6.061   6.357   6.065
 5542SOL    HW117525   6.157   6.331   6.061
 5542SOL    HW217526   6.053   6.456   6.068
 5543SOL     OW17527   3.102   5.430   6.004
 5543SOL    HW117528   3.053   5.516   6.015
 5543SOL    HW217529   3.196   5.449   5.974
 5544SOL     OW17530   5.456   6.636   5.987
 5544SOL    HW117531   5.552   6.665   5.979
 5544SOL    HW217532   5.416   6.679   6.068
 5545SOL     OW17533   4.560   1.807   3.481
 5545SOL    HW117534   4.586   1.773   3.391
 5545SOL    HW217535   4.520   1.733   3.535
 5546SOL     OW17536   1.492   6.262   4.652
 5546SOL    HW117537   1.566   6.301   4.707
 5546SOL    HW217538   1.528   6.230   4.565
 5547SOL     OW17539   3.703   0.716   4.661
 5547SOL    HW117540   3.734   0.802   4.703
 5547SOL    HW217541   3.629   0.677   4.717
 5548SOL     OW17542   5.690   3.493   4.762
 5548SOL    HW117543   5.630   3.571   4.744
 5548SOL    HW217544   5.782   3.513   4.731
 5549SOL     OW17545   4.153   4.152   0.806
 5549SOL    HW117546   4.225   4.218   0.830
 5549SOL    HW217547   4.064   4.196   0.816
 5550SOL     OW17548   2.297   4.247   2.371
 5550SOL    HW117549   2.300   4.284   2.464
 5550SOL    HW217550   2.216   4.281   2.323
 5551SOL     OW17551   1.934   5.859   3.522
 5551SOL    HW117552   1.957   5.945   3.477
 5551SOL    HW217553   1.970   5.782   3.469
 5552SOL     OW17554   6.593   0.302   6.471
 5552SOL    HW117555   6.651   0.276   6.548
 5552SOL    HW217556   6.542   0.384   6.494
 5553SOL     OW17557   4.827   6.714   0.854
 5553SOL    HW117558   4.862   6.795   0.807
 5553SOL    HW217559   4.786   6.651   0.788
 5554SOL     OW17560   4.467   2.106   6.071
 5554SOL    HW117561   4.562   2.135   6.067
 5554SOL    HW217562   4.450   2.036   6.002
 5555SOL     OW17563   1.227   3.917   3.824
 5555SOL    HW117564   1.199   3.990   3.762
 5555SOL    HW217565   1.195   3.938   3.916
 5556SOL     OW17566   6.635   1.532   3.105
 5556SOL    HW117567   6.605   1.437   3.092
 5556SOL    HW217568   6.601   1.588   3.029
 5557SOL     OW17569   3.385   6.907   2.765
 5557SOL    HW117570   3.286   6.895   2.757
 5557SOL    HW217571   3.423   6.831   2.818
 5558SOL     OW17572   4.072   3.584   5.502
 5558SOL    HW117573   4.157   3.564   5.551
 5558SOL    HW217574   4.058   3.515   5.431
 5559SOL     OW17575   1.499   0.455   1.688
 5559SOL    HW117576   1.520   0.381   1.752
 5559SOL    HW217577   1.550   0.441   1.603
 5560SOL     OW17578   0.667   6.190   2.248
 5560SOL    HW117579   0.691   6.154   2.157
 5560SOL    HW217580   0.601   6.129   2.291
 5561SOL     OW17581   1.101   1.918   4.139
 5561SOL    HW117582   1.112   1.832   4.088
 5561SOL    HW217583   1.011   1.919   4.182
 5562SOL     OW17584   4.245   2.280   6.405
 5562SOL    HW117585   4.214   2.222   6.329
 5562SOL    HW217586   4.240   2.229   6.491
 5563SOL     OW17587   3.854   5.186   2.132
 5563SOL    HW117588   3.787   5.180   2.206
 5563SOL    HW217589   3.931   5.243   2.160
 5564SOL     OW17590   4.500   0.572   1.294
 5564SOL    HW117591   4.523   0.609   1.204
 5564SOL    HW217592   4.563   0.608   1.362
 5565SOL     OW17593   4.762   1.532   5.968
 5565SOL    HW117594   4.808   1.496   5.886
 5565SOL    HW217595   4.826   1.589   6.019
 5566SOL     OW17596   1.518   5.050   6.665
 5566SOL    HW117597   1.602   5.018   6.621
 5566SOL    HW217598   1.442   5.042   6.601
 5567SOL     OW17599   6.953   2.296   1.102
 5567SOL    HW117600   7.017   2.252   1.165
 5567SOL    HW217601   6.897   2.362   1.151
 5568SOL     OW17602   4.480   2.075   3.666
 5568SOL    HW117603   4.505   2.012   3.593
 5568SOL    HW217604   4.403   2.132   3.637
 5569SOL     OW17605   1.338   1.727   2.787
 5569SOL    HW117606   1.251   1.738   2.738
 5569SOL    HW217607   1.380   1.817   2.801
 5570SOL     OW17608   6.295   4.366   4.830
 5570SOL    HW117609   6.378   4.384   4.776
 5570SOL    HW217610   6.251   4.453   4.852
 5571SOL     OW17611   6.923   6.044   0.147
 5571SOL    HW117612   6.893   5.995   0.229
 5571SOL    HW217613   6.844   6.085   0.102
 5572SOL     OW17614   1.045   2.464   5.551
 5572SOL    HW117615   1.093   2.431   5.470
 5572SOL    HW217616   1.101   2.534   5.596
 5573SOL     OW17617   2.080   4.447   4.824
 5573SOL    HW117618   2.164   4.408   4.861
 5573SOL    HW217619   2.102   4.511   4.750
 5574SOL     OW17620   0.147   1.988   2.623
 5574SOL    HW117621   0.129   2.031   2.712
 5574SOL    HW217622   0.243   1.960   2.619
 5575SOL     OW17623   6.979   1.183   0.868
 5575SOL    HW117624   6.913   1.213   0.936
 5575SOL    HW217625   0.051   1.197   0.902
 5576SOL     OW17626   0.947   5.471   1.824
 5576SOL    HW117627   0.951   5.422   1.738
 5576SOL    HW217628   0.921   5.408   1.897
 5577SOL     OW17629   2.939   3.280   4.943
 5577SOL    HW117630   2.908   3.373   4.960
 5577SOL    HW217631   3.005   3.253   5.013
 5578SOL     OW17632   3.537   3.761   0.851
 5578SOL    HW117633   3.575   3.843   0.892
 5578SOL    HW217634   3.449   3.784   0.809
 5579SOL     OW17635   0.959   3.784   6.544
 5579SOL    HW117636   0.931   3.843   6.468
 5579SOL    HW217637   1.044   3.820   6.583
 5580SOL     OW17638   5.449   2.652   5.583
 5580SOL    HW117639   5.497   2.627   5.667
 5580SOL    HW217640   5.508   2.712   5.528
 5581SOL     OW17641   1.920   0.093   1.639
 5581SOL    HW117642   1.842   0.062   1.694
 5581SOL    HW217643   1.986   0.019   1.629
 5582SOL     OW17644   3.186   3.676   4.637
 5582SOL    HW117645   3.167   3.578   4.632
 5582SOL    HW217646   3.187   3.705   4.733
 5583SOL     OW17647   4.665   0.743   2.329
 5583SOL    HW117648   4.587   0.733   2.266
 5583SOL    HW217649   4.744   0.777   2.278
 5584SOL     OW17650   5.567   4.319   4.004
 5584SOL    HW117651   5.511   4.393   3.965
 5584SOL    HW217652   5.535   4.299   4.096
 5585SOL     OW17653   4.929   6.419   3.881
 5585SOL    HW117654   4.970   6.397   3.970
 5585SOL    HW217655   5.001   6.450   3.819
 5586SOL     OW17656   6.969   2.362   6.929
 5586SOL    HW117657   0.041   2.400   6.922
 5586SOL    HW217658   6.947   2.346   0.004
 5587SOL     OW17659   3.944   6.273   1.846
 5587SOL    HW117660   3.988   6.297   1.760
 5587SOL    HW217661   3.868   6.337   1.863
 5588SOL     OW17662   1.691   6.086   2.867
 5588SOL    HW117663   1.604   6.095   2.915
 5588SOL    HW217664   1.766   6.087   2.933
 5589SOL     OW17665   5.712   4.051   5.657
 5589SOL    HW117666   5.743   3.983   5.723
 5589SOL    HW217667   5.786   4.070   5.592
 5590SOL     OW17668   6.393   5.798   4.218
 5590SOL    HW117669   6.308   5.843   4.191
 5590SOL    HW217670   6.444   5.856   4.281
 5591SOL     OW17671   5.634   1.964   0.401
 5591SOL    HW117672   5.571   1.899   0.444
 5591SOL    HW217673   5.724   1.954   0.443
 5592SOL     OW17674   6.764   4.679   2.534
 5592SOL    HW117675   6.686   4.741   2.536
 5592SOL    HW217676   6.819   4.692   2.617
 5593SOL     OW17677   0.132   2.878   6.778
 5593SOL    HW117678   0.186   2.796   6.760
 5593SOL    HW217679   0.192   2.958   6.785
 5594SOL     OW17680   3.417   0.826   6.563
 5594SOL    HW117681   3.443   0.730   6.566
 5594SOL    HW217682   3.480   0.876   6.503
 5595SOL     OW17683   6.492   0.711   5.108
 5595SOL    HW117684   6.537   0.627   5.077
 5595SOL    HW217685   6.560   0.772   5.147
 5596SOL     OW17686   4.679   0.635   3.516
 5596SOL    HW117687   4.641   0.665   3.603
 5596SOL    HW217688   4.625   0.673   3.441
 5597SOL     OW17689   5.720   2.475   5.351
 5597SOL    HW117690   5.783   2.473   5.273
 5597SOL    HW217691   5.769   2.448   5.434
 5598SOL     OW17692   6.255   3.778   3.647
 5598SOL    HW117693   6.170   3.729   3.668
 5598SOL    HW217694   6.324   3.756   3.716
 5599SOL     OW17695   1.151   3.002   1.902
 5599SOL    HW117696   1.184   3.094   1.925
 5599SOL    HW217697   1.148   2.992   1.802
 5600SOL     OW17698   2.181   0.361   2.553
 5600SOL    HW117699   2.233   0.276   2.560
 5600SOL    HW217700   2.172   0.387   2.457
 5601SOL     OW17701   2.645   0.835   6.058
 5601SOL    HW117702   2.547   0.824   6.073
 5601SOL    HW217703   2.693   0.817   6.144
 5602SOL     OW17704   0.079   0.786   1.521
 5602SOL    HW117705   0.023   0.833   1.588
 5602SOL    HW217706   0.031   0.704   1.489
 5603SOL     OW17707   5.675   2.396   0.147
 5603SOL    HW117708   5.650   2.318   0.205
 5603SOL    HW217709   5.729   2.461   0.199
 5604SOL     OW17710   6.434   2.177   4.767
 5604SOL    HW117711   6.404   2.194   4.861
 5604SOL    HW217712   6.462   2.082   4.757
 5605SOL     OW17713   0.666   0.882   4.811
 5605SOL    HW117714   0.605   0.915   4.738
 5605SOL    HW217715   0.617   0.816   4.867
 5606SOL     OW17716   5.187   0.009   0.909
 5606SOL    HW117717   5.196   6.943   0.861
 5606SOL    HW217718   5.128   7.018   0.989
 5607SOL     OW17719   5.813   1.238   3.819
 5607SOL    HW117720   5.812   1.331   3.782
 5607SOL    HW217721   5.900   1.195   3.799
 5608SOL     OW17722   6.645   0.942   3.718
 5608SOL    HW117723   6.588   0.992   3.653
 5608SOL    HW217724   6.690   1.006   3.780
 5609SOL     OW17725   4.264   5.934   1.774
 5609SOL    HW117726   4.206   5.892   1.704
 5609SOL    HW217727   4.220   5.926   1.863
 5610SOL     OW17728   4.489   4.928   1.641
 5610SOL    HW117729   4.562   4.906   1.706
 5610SOL    HW217730   4.529   4.975   1.562
 5611SOL     OW17731   0.762   5.174   2.981
 5611SOL    HW117732   0.719   5.087   3.004
 5611SOL    HW217733   0.709   5.220   2.910
 5612SOL     OW17734   4.412   2.996   6.128
 5612SOL    HW117735   4.357   2.982   6.045
 5612SOL    HW217736   4.419   3.093   6.148
 5613SOL     OW17737   5.577   5.864   5.136
 5613SOL    HW117738   5.672   5.866   5.165
 5613SOL    HW217739   5.541   5.771   5.146
 5614SOL     OW17740   5.038   2.578   4.635
 5614SOL    HW117741   5.033   2.583   4.536
 5614SOL    HW217742   5.133   2.569   4.664
 5615SOL     OW17743   6.568   1.619   3.812
 5615SOL    HW117744   6.470   1.625   3.793
 5615SOL    HW217745   6.616   1.694   3.767
 5616SOL     OW17746   2.527   2.257   5.351
 5616SOL    HW117747   2.518   2.166   5.310
 5616SOL    HW217748   2.542   2.248   5.449
 5617SOL     OW17749   2.435   5.882   5.784
 5617SOL    HW117750   2.346   5.886   5.828
 5617SOL    HW217751   2.449   5.965   5.729
 5618SOL     OW17752   6.659   4.585   4.469
 5618SOL    HW117753   6.568   4.592   4.511
 5618SOL    HW217754   6.660   4.635   4.383
 5619SOL     OW17755   3.975   3.919   4.610
 5619SOL    HW117756   4.048   3.852   4.626
 5619SOL    HW217757   3.971   3.940   4.512
 5620SOL     OW17758   3.904   3.899   0.584
 5620SOL    HW117759   3.991   3.931   0.547
 5620SOL    HW217760   3.867   3.827   0.525
 5621SOL     OW17761   2.023   2.370   0.098
 5621SOL    HW117762   2.044   2.310   0.174
 5621SOL    HW217763   2.069   2.337   0.015
 5622SOL     OW17764   4.261   0.122   5.766
 5622SOL    HW117765   4.257   0.169   5.854
 5622SOL    HW217766   4.210   0.176   5.698
 5623SOL     OW17767   4.580   6.428   5.177
 5623SOL    HW117768   4.535   6.338   5.181
 5623SOL    HW217769   4.615   6.442   5.084
 5624SOL     OW17770   0.986   4.359   3.702
 5624SOL    HW117771   0.902   4.327   3.746
 5624SOL    HW217772   0.976   4.455   3.676
 5625SOL     OW17773   6.411   7.002   5.480
 5625SOL    HW117774   6.330   0.039   5.491
 5625SOL    HW217775   6.491   0.029   5.517
 5626SOL     OW17776   2.465   6.120   3.905
 5626SOL    HW117777   2.515   6.039   3.877
 5626SOL    HW217778   2.377   6.123   3.858
 5627SOL     OW17779   1.109   5.206   6.744
 5627SOL    HW117780   1.024   5.245   6.706
 5627SOL    HW217781   1.086   5.141   6.816
 5628SOL     OW17782   2.169   2.345   2.241
 5628SOL    HW117783   2.249   2.403   2.227
 5628SOL    HW217784   2.088   2.402   2.253
 5629SOL     OW17785   4.330   3.190   1.682
 5629SOL    HW117786   4.321   3.286   1.709
 5629SOL    HW217787   4.378   3.139   1.754
 5630SOL     OW17788   1.944   3.570   6.283
 5630SOL    HW117789   1.908   3.501   6.221
 5630SOL    HW217790   1.922   3.546   6.377
 5631SOL     OW17791   4.770   1.561   1.942
 5631SOL    HW117792   4.837   1.487   1.947
 5631SOL    HW217793   4.699   1.547   2.011
 5632SOL     OW17794   3.270   2.432   5.708
 5632SOL    HW117795   3.228   2.403   5.622
 5632SOL    HW217796   3.367   2.451   5.692
 5633SOL     OW17797   5.764   4.972   4.341
 5633SOL    HW117798   5.668   4.975   4.366
 5633SOL    HW217799   5.785   5.046   4.277
 5634SOL     OW17800   2.258   4.620   3.924
 5634SOL    HW117801   2.267   4.699   3.864
 5634SOL    HW217802   2.236   4.651   4.016
 5635SOL     OW17803   2.136   5.615   0.156
 5635SOL    HW117804   2.179   5.684   0.097
 5635SOL    HW217805   2.182   5.528   0.144
 5636SOL     OW17806   4.883   6.834   4.612
 5636SOL    HW117807   4.932   6.911   4.572
 5636SOL    HW217808   4.804   6.812   4.555
 5637SOL     OW17809   4.691   6.781   3.501
 5637SOL    HW117810   4.603   6.818   3.528
 5637SOL    HW217811   4.729   6.834   3.425
 5638SOL     OW17812   0.179   3.675   0.795
 5638SOL    HW117813   0.167   3.773   0.814
 5638SOL    HW217814   0.146   3.654   0.703
 5639SOL     OW17815   1.927   0.138   2.245
 5639SOL    HW117816   1.891   0.189   2.323
 5639SOL    HW217817   1.978   0.058   2.278
 5640SOL     OW17818   3.045   0.461   3.251
 5640SOL    HW117819   3.090   0.513   3.324
 5640SOL    HW217820   3.107   0.389   3.219
 5641SOL     OW17821   0.556   4.917   5.403
 5641SOL    HW117822   0.466   4.953   5.380
 5641SOL    HW217823   0.545   4.835   5.459
 5642SOL     OW17824   1.422   6.034   4.793
 5642SOL    HW117825   1.450   6.115   4.740
 5642SOL    HW217826   1.323   6.037   4.808
 5643SOL     OW17827   4.271   1.387   4.064
 5643SOL    HW117828   4.271   1.306   4.122
 5643SOL    HW217829   4.353   1.441   4.081
 5644SOL     OW17830   3.318   6.652   5.294
 5644SOL    HW117831   3.299   6.708   5.375
 5644SOL    HW217832   3.376   6.575   5.319
 5645SOL     OW17833   5.911   5.052   2.925
 5645SOL    HW117834   5.894   4.955   2.942
 5645SOL    HW217835   5.826   5.104   2.935
 5646SOL     OW17836   0.914   6.100   4.161
 5646SOL    HW117837   0.849   6.042   4.209
 5646SOL    HW217838   0.901   6.090   4.062
 5647SOL     OW17839   4.658   6.240   0.882
 5647SOL    HW117840   4.726   6.215   0.951
 5647SOL    HW217841   4.572   6.194   0.902
 5648SOL     OW17842   1.502   0.074   3.393
 5648SOL    HW117843   1.452   0.136   3.453
 5648SOL    HW217844   1.507   7.005   3.436
 5649SOL     OW17845   0.506   0.941   4.583
 5649SOL    HW117846   0.569   0.964   4.509
 5649SOL    HW217847   0.460   0.854   4.562
 5650SOL     OW17848   0.461   5.509   0.494
 5650SOL    HW117849   0.521   5.499   0.414
 5650SOL    HW217850   0.405   5.427   0.503
 5651SOL     OW17851   1.673   1.282   1.387
 5651SOL    HW117852   1.617   1.239   1.317
 5651SOL    HW217853   1.687   1.219   1.463
 5652SOL     OW17854   6.169   6.877   2.146
 5652SOL    HW117855   6.202   6.922   2.229
 5652SOL    HW217856   6.079   6.914   2.121
 5653SOL     OW17857   6.710   5.968   6.732
 5653SOL    HW117858   6.751   5.913   6.659
 5653SOL    HW217859   6.743   5.936   6.820
 5654SOL     OW17860   6.407   6.911   5.212
 5654SOL    HW117861   6.389   6.937   5.307
 5654SOL    HW217862   6.348   6.965   5.152
 5655SOL     OW17863   1.053   3.799   4.677
 5655SOL    HW117864   1.009   3.887   4.692
 5655SOL    HW217865   1.027   3.735   4.749
 5656SOL     OW17866   0.130   3.527   6.513
 5656SOL    HW117867   0.104   3.457   6.579
 5656SOL    HW217868   0.058   3.596   6.508
 5657SOL     OW17869   5.999   1.990   0.455
 5657SOL    HW117870   5.950   1.950   0.377
 5657SOL    HW217871   6.055   1.920   0.498
 5658SOL     OW17872   3.699   3.549   6.667
 5658SOL    HW117873   3.697   3.495   6.583
 5658SOL    HW217874   3.641   3.630   6.656
 5659SOL     OW17875   3.996   3.255   4.776
 5659SOL    HW117876   3.958   3.323   4.713
 5659SOL    HW217877   4.059   3.300   4.839
 5660SOL     OW17878   4.848   6.832   0.320
 5660SOL    HW117879   4.926   6.774   0.343
 5660SOL    HW217880   4.880   6.924   0.297
 5661SOL     OW17881   1.668   5.546   5.308
 5661SOL    HW117882   1.643   5.551   5.212
 5661SOL    HW217883   1.750   5.489   5.318
 5662SOL     OW17884   2.594   6.146   3.516
 5662SOL    HW117885   2.662   6.219   3.509
 5662SOL    HW217886   2.641   6.058   3.519
 5663SOL     OW17887   1.489   3.280   6.931
 5663SOL    HW117888   1.453   3.353   6.989
 5663SOL    HW217889   1.589   3.288   6.926
 5664SOL     OW17890   6.829   4.207   4.132
 5664SOL    HW117891   6.784   4.162   4.054
 5664SOL    HW217892   6.782   4.181   4.216
 5665SOL     OW17893   2.204   0.898   0.224
 5665SOL    HW117894   2.214   0.812   0.274
 5665SOL    HW217895   2.118   0.897   0.173
 5666SOL     OW17896   6.084   6.780   2.938
 5666SOL    HW117897   6.037   6.721   3.003
 5666SOL    HW217898   6.148   6.840   2.987
 5667SOL     OW17899   1.556   5.214   4.551
 5667SOL    HW117900   1.490   5.195   4.478
 5667SOL    HW217901   1.541   5.150   4.627
 5668SOL     OW17902   4.923   2.455   3.621
 5668SOL    HW117903   4.887   2.537   3.577
 5668SOL    HW217904   4.878   2.374   3.584
 5669SOL     OW17905   6.892   3.431   6.895
 5669SOL    HW117906   6.828   3.385   6.956
 5669SOL    HW217907   6.842   3.496   6.837
 5670SOL     OW17908   6.783   3.141   4.145
 5670SOL    HW117909   6.749   3.226   4.186
 5670SOL    HW217910   6.882   3.148   4.131
 5671SOL     OW17911   6.457   6.161   6.356
 5671SOL    HW117912   6.550   6.138   6.327
 5671SOL    HW217913   6.457   6.248   6.404
 5672SOL     OW17914   4.333   3.935   6.688
 5672SOL    HW117915   4.242   3.971   6.667
 5672SOL    HW217916   4.395   4.010   6.710
 5673SOL     OW17917   1.179   0.792   2.094
 5673SOL    HW117918   1.235   0.854   2.039
 5673SOL    HW217919   1.092   0.776   2.048
 5674SOL     OW17920   0.402   5.012   4.910
 5674SOL    HW117921   0.414   5.111   4.896
 5674SOL    HW217922   0.317   4.997   4.962
 5675SOL     OW17923   4.309   2.844   6.650
 5675SOL    HW117924   4.392   2.795   6.623
 5675SOL    HW217925   4.242   2.841   6.576
 5676SOL     OW17926   2.631   2.391   2.368
 5676SOL    HW117927   2.627   2.367   2.271
 5676SOL    HW217928   2.566   2.465   2.386
 5677SOL     OW17929   1.153   1.565   0.414
 5677SOL    HW117930   1.239   1.599   0.450
 5677SOL    HW217931   1.133   1.476   0.454
 5678SOL     OW17932   4.135   6.717   2.659
 5678SOL    HW117933   4.156   6.636   2.604
 5678SOL    HW217934   4.050   6.702   2.710
 5679SOL     OW17935   0.132   0.993   4.076
 5679SOL    HW117936   0.138   1.092   4.065
 5679SOL    HW217937   0.224   0.954   4.081
 5680SOL     OW17938   1.679   5.019   6.277
 5680SOL    HW117939   1.769   5.035   6.236
 5680SOL    HW217940   1.679   4.933   6.326
 5681SOL     OW17941   0.443   4.087   0.970
 5681SOL    HW117942   0.417   4.178   1.004
 5681SOL    HW217943   0.526   4.095   0.915
 5682SOL     OW17944   2.435   4.873   5.453
 5682SOL    HW117945   2.399   4.804   5.390
 5682SOL    HW217946   2.473   4.949   5.401
 5683SOL     OW17947   4.730   1.030   6.265
 5683SOL    HW117948   4.792   1.103   6.236
 5683SOL    HW217949   4.660   1.016   6.195
 5684SOL     OW17950   2.881   3.647   5.206
 5684SOL    HW117951   2.883   3.557   5.248
 5684SOL    HW217952   2.787   3.673   5.185
 5685SOL     OW17953   2.336   1.991   2.535
 5685SOL    HW117954   2.422   2.042   2.525
 5685SOL    HW217955   2.311   1.988   2.632
 5686SOL     OW17956   2.778   1.189   6.578
 5686SOL    HW117957   2.830   1.156   6.657
 5686SOL    HW217958   2.823   1.269   6.539
 5687SOL     OW17959   0.805   5.249   0.180
 5687SOL    HW117960   0.823   5.346   0.194
 5687SOL    HW217961   0.787   5.233   0.083
 5688SOL     OW17962   0.250   2.500   1.799
 5688SOL    HW117963   0.195   2.453   1.730
 5688SOL    HW217964   0.323   2.551   1.754
 5689SOL     OW17965   3.250   1.280   0.785
 5689SOL    HW117966   3.344   1.263   0.814
 5689SOL    HW217967   3.251   1.335   0.701
 5690SOL     OW17968   2.521   5.689   0.186
 5690SOL    HW117969   2.572   5.688   0.100
 5690SOL    HW217970   2.470   5.604   0.196
 5691SOL     OW17971   3.332   0.305   2.359
 5691SOL    HW117972   3.270   0.337   2.287
 5691SOL    HW217973   3.281   0.253   2.427
 5692SOL     OW17974   5.448   3.702   1.037
 5692SOL    HW117975   5.474   3.619   1.087
 5692SOL    HW217976   5.469   3.690   0.940
 5693SOL     OW17977   5.233   2.255   2.675
 5693SOL    HW117978   5.159   2.251   2.743
 5693SOL    HW217979   5.278   2.344   2.680
 5694SOL     OW17980   0.701   1.787   3.302
 5694SOL    HW117981   0.741   1.843   3.374
 5694SOL    HW217982   0.772   1.762   3.236
 5695SOL     OW17983   1.531   1.797   3.161
 5695SOL    HW117984   1.582   1.774   3.244
 5695SOL    HW217985   1.492   1.889   3.171
 5696SOL     OW17986   0.797   1.105   3.154
 5696SOL    HW117987   0.827   1.114   3.060
 5696SOL    HW217988   0.877   1.104   3.215
 5697SOL     OW17989   5.368   2.425   0.903
 5697SOL    HW117990   5.383   2.473   0.989
 5697SOL    HW217991   5.455   2.402   0.861
 5698SOL     OW17992   1.384   4.777   3.991
 5698SOL    HW117993   1.374   4.731   4.079
 5698SOL    HW217994   1.325   4.733   3.923
 5699SOL     OW17995   0.719   2.803   3.182
 5699SOL    HW117996   0.762   2.829   3.269
 5699SOL    HW217997   0.636   2.751   3.200
 5700SOL     OW17998   6.673   6.774   3.214
 5700SOL    HW117999   6.655   6.679   3.188
 5700SOL    HW218000   6.586   6.819   3.234
 5701SOL     OW18001   1.612   0.804   1.820
 5701SOL    HW118002   1.595   0.720   1.873
 5701SOL    HW218003   1.600   0.883   1.880
 5702SOL     OW18004   2.687   5.530   4.429
 5702SOL    HW118005   2.589   5.548   4.433
 5702SOL    HW218006   2.710   5.485   4.343
 5703SOL     OW18007   6.537   4.640   2.024
 5703SOL    HW118008   6.516   4.577   2.099
 5703SOL    HW218009   6.552   4.587   1.940
 5704SOL     OW18010   4.712   4.457   2.855
 5704SOL    HW118011   4.677   4.542   2.893
 5704SOL    HW218012   4.783   4.477   2.787
 5705SOL     OW18013   5.073   7.021   0.116
 5705SOL    HW118014   4.985   0.016   0.161
 5705SOL    HW218015   5.069   6.936   0.062
 5706SOL     OW18016   7.018   4.056   1.183
 5706SOL    HW118017   6.953   4.055   1.106
 5706SOL    HW218018   0.054   4.138   1.177
 5707SOL     OW18019   0.293   6.350   0.234
 5707SOL    HW118020   0.285   6.294   0.152
 5707SOL    HW218021   0.384   6.390   0.239
 5708SOL     OW18022   5.160   5.577   1.987
 5708SOL    HW118023   5.108   5.519   2.050
 5708SOL    HW218024   5.107   5.660   1.968
 5709SOL     OW18025   1.239   1.108   2.452
 5709SOL    HW118026   1.321   1.073   2.406
 5709SOL    HW218027   1.167   1.122   2.384
 5710SOL     OW18028   2.303   2.815   0.515
 5710SOL    HW118029   2.247   2.733   0.513
 5710SOL    HW218030   2.251   2.890   0.558
 5711SOL     OW18031   5.530   0.853   2.381
 5711SOL    HW118032   5.445   0.813   2.348
 5711SOL    HW218033   5.608   0.806   2.339
 5712SOL     OW18034   6.372   1.035   6.251
 5712SOL    HW118035   6.406   1.128   6.234
 5712SOL    HW218036   6.400   1.005   6.342
 5713SOL     OW18037   3.933   2.881   1.881
 5713SOL    HW118038   3.898   2.825   1.957
 5713SOL    HW218039   3.895   2.846   1.795
 5714SOL     OW18040   0.603   5.785   0.349
 5714SOL    HW118041   0.700   5.798   0.369
 5714SOL    HW218042   0.566   5.870   0.311
 5715SOL     OW18043   1.080   0.930   2.586
 5715SOL    HW118044   1.115   0.875   2.661
 5715SOL    HW218045   1.148   0.999   2.560
 5716SOL     OW18046   1.887   4.330   6.387
 5716SOL    HW118047   1.884   4.416   6.438
 5716SOL    HW218048   1.871   4.254   6.450
 5717SOL     OW18049   1.738   4.821   1.217
 5717SOL    HW118050   1.674   4.877   1.166
 5717SOL    HW218051   1.696   4.732   1.236
 5718SOL     OW18052   0.224   3.624   5.342
 5718SOL    HW118053   0.228   3.611   5.441
 5718SOL    HW218054   0.155   3.693   5.321
 5719SOL     OW18055   2.537   2.055   6.319
 5719SOL    HW118056   2.588   2.047   6.405
 5719SOL    HW218057   2.581   2.124   6.261
 5720SOL     OW18058   1.836   6.011   4.906
 5720SOL    HW118059   1.869   5.972   4.992
 5720SOL    HW218060   1.758   5.957   4.873
 5721SOL     OW18061   6.698   3.117   1.311
 5721SOL    HW118062   6.788   3.077   1.329
 5721SOL    HW218063   6.690   3.204   1.359
 5722SOL     OW18064   0.041   1.594   4.965
 5722SOL    HW118065   0.004   1.502   4.976
 5722SOL    HW218066   0.100   1.616   5.043
 5723SOL     OW18067   4.746   2.885   0.673
 5723SOL    HW118068   4.798   2.969   0.660
 5723SOL    HW218069   4.658   2.907   0.717
 5724SOL     OW18070   5.694   2.844   4.797
 5724SOL    HW118071   5.786   2.848   4.758
 5724SOL    HW218072   5.641   2.922   4.766
 5725SOL     OW18073   5.014   5.802   4.466
 5725SOL    HW118074   5.063   5.727   4.512
 5725SOL    HW218075   5.013   5.882   4.526
 5726SOL     OW18076   0.128   5.295   4.540
 5726SOL    HW118077   0.135   5.200   4.568
 5726SOL    HW218078   0.210   5.321   4.490
 5727SOL     OW18079   6.895   1.673   4.367
 5727SOL    HW118080   6.956   1.655   4.290
 5727SOL    HW218081   6.930   1.626   4.448
 5728SOL     OW18082   3.896   0.545   5.961
 5728SOL    HW118083   3.960   0.595   5.902
 5728SOL    HW218084   3.884   0.594   6.047
 5729SOL     OW18085   1.335   0.857   0.611
 5729SOL    HW118086   1.415   0.896   0.565
 5729SOL    HW218087   1.365   0.798   0.686
 5730SOL     OW18088   5.390   5.053   6.755
 5730SOL    HW118089   5.402   5.071   6.657
 5730SOL    HW218090   5.339   4.967   6.767
 5731SOL     OW18091   0.165   6.375   3.782
 5731SOL    HW118092   0.104   6.450   3.756
 5731SOL    HW218093   0.154   6.299   3.717
 5732SOL     OW18094   6.628   5.660   4.894
 5732SOL    HW118095   6.680   5.603   4.830
 5732SOL    HW218096   6.595   5.742   4.846
 5733SOL     OW18097   4.209   6.423   5.606
 5733SOL    HW118098   4.256   6.505   5.575
 5733SOL    HW218099   4.117   6.420   5.565
 5734SOL     OW18100   1.416   6.545   5.462
 5734SOL    HW118101   1.339   6.551   5.525
 5734SOL    HW218102   1.457   6.454   5.468
 5735SOL     OW18103   4.181   2.036   1.903
 5735SOL    HW118104   4.126   2.115   1.874
 5735SOL    HW218105   4.121   1.960   1.924
 5736SOL     OW18106   6.415   4.023   0.036
 5736SOL    HW118107   6.446   3.951   0.098
 5736SOL    HW218108   6.320   4.046   0.057
 5737SOL     OW18109   5.923   6.783   1.299
 5737SOL    HW118110   5.945   6.749   1.391
 5737SOL    HW218111   5.875   6.871   1.307
 5738SOL     OW18112   2.566   2.214   5.613
 5738SOL    HW118113   2.528   2.141   5.670
 5738SOL    HW218114   2.638   2.262   5.663
 5739SOL     OW18115   1.517   0.514   6.125
 5739SOL    HW118116   1.446   0.480   6.187
 5739SOL    HW218117   1.543   0.442   6.061
 5740SOL     OW18118   4.250   3.651   1.415
 5740SOL    HW118119   4.344   3.674   1.392
 5740SOL    HW218120   4.205   3.607   1.337
 5741SOL     OW18121   0.798   4.571   4.364
 5741SOL    HW118122   0.758   4.541   4.450
 5741SOL    HW218123   0.867   4.505   4.334
 5742SOL     OW18124   5.161   6.880   1.902
 5742SOL    HW118125   5.127   6.796   1.944
 5742SOL    HW218126   5.117   6.892   1.812
 5743SOL     OW18127   2.463   5.208   5.069
 5743SOL    HW118128   2.431   5.290   5.118
 5743SOL    HW218129   2.402   5.191   4.992
 5744SOL     OW18130   4.855   0.865   2.169
 5744SOL    HW118131   4.765   0.880   2.130
 5744SOL    HW218132   4.921   0.850   2.096
 5745SOL     OW18133   2.234   1.056   3.848
 5745SOL    HW118134   2.150   1.088   3.803
 5745SOL    HW218135   2.255   0.963   3.818
 5746SOL     OW18136   6.238   6.925   1.444
 5746SOL    HW118137   6.253   6.887   1.536
 5746SOL    HW218138   6.308   6.994   1.425
 5747SOL     OW18139   6.616   4.774   2.902
 5747SOL    HW118140   6.706   4.813   2.920
 5747SOL    HW218141   6.572   4.752   2.989
 5748SOL     OW18142   1.880   6.093   1.132
 5748SOL    HW118143   1.792   6.045   1.139
 5748SOL    HW218144   1.932   6.080   1.216
 5749SOL     OW18145   1.466   0.262   4.816
 5749SOL    HW118146   1.523   0.261   4.899
 5749SOL    HW218147   1.514   0.313   4.744
 5750SOL     OW18148   5.078   6.582   4.430
 5750SOL    HW118149   5.138   6.561   4.353
 5750SOL    HW218150   4.992   6.620   4.396
 5751SOL     OW18151   2.261   2.835   4.797
 5751SOL    HW118152   2.333   2.851   4.864
 5751SOL    HW218153   2.175   2.815   4.845
 5752SOL     OW18154   6.335   0.790   6.807
 5752SOL    HW118155   6.379   0.863   6.754
 5752SOL    HW218156   6.236   0.792   6.789
 5753SOL     OW18157   3.886   4.048   5.673
 5753SOL    HW118158   3.922   3.977   5.612
 5753SOL    HW218159   3.899   4.021   5.768
 5754SOL     OW18160   6.044   4.237   1.682
 5754SOL    HW118161   6.046   4.283   1.593
 5754SOL    HW218162   5.951   4.238   1.718
 5755SOL     OW18163   2.241   3.098   6.246
 5755SOL    HW118164   2.255   3.146   6.159
 5755SOL    HW218165   2.235   2.999   6.229
 5756SOL     OW18166   5.947   6.383   3.925
 5756SOL    HW118167   5.916   6.448   3.995
 5756SOL    HW218168   6.014   6.321   3.965
 5757SOL     OW18169   6.732   6.802   2.674
 5757SOL    HW118170   6.648   6.793   2.620
 5757SOL    HW218171   6.756   6.714   2.713
 5758SOL     OW18172   2.545   1.008   4.317
 5758SOL    HW118173   2.463   1.012   4.374
 5758SOL    HW218174   2.620   1.055   4.364
 5759SOL     OW18175   5.267   1.212   6.568
 5759SOL    HW118176   5.311   1.267   6.497
 5759SOL    HW218177   5.336   1.156   6.614
 5760SOL     OW18178   0.871   4.880   0.997
 5760SOL    HW118179   0.856   4.978   0.980
 5760SOL    HW218180   0.915   4.839   0.918
 5761SOL     OW18181   5.680   0.097   6.539
 5761SOL    HW118182   5.605   0.087   6.474
 5761SOL    HW218183   5.766   0.070   6.496
 5762SOL     OW18184   4.494   6.321   0.511
 5762SOL    HW118185   4.516   6.390   0.581
 5762SOL    HW218186   4.522   6.231   0.543
 5763SOL     OW18187   0.014   0.877   6.940
 5763SOL    HW118188   7.010   0.966   6.900
 5763SOL    HW218189   6.993   0.804   6.886
 5764SOL     OW18190   4.594   4.355   6.338
 5764SOL    HW118191   4.691   4.347   6.315
 5764SOL    HW218192   4.566   4.451   6.329
 5765SOL     OW18193   6.986   4.161   6.664
 5765SOL    HW118194   6.980   4.150   6.763
 5765SOL    HW218195   6.894   4.161   6.625
 5766SOL     OW18196   2.489   2.565   0.386
 5766SOL    HW118197   2.435   2.538   0.466
 5766SOL    HW218198   2.561   2.498   0.370
 5767SOL     OW18199   2.444   6.308   0.338
 5767SOL    HW118200   2.345   6.295   0.346
 5767SOL    HW218201   2.487   6.298   0.428
 5768SOL     OW18202   0.847   0.371   3.106
 5768SOL    HW118203   0.864   0.451   3.047
 5768SOL    HW218204   0.752   0.343   3.097
 5769SOL     OW18205   2.038   6.307   4.251
 5769SOL    HW118206   2.040   6.406   4.240
 5769SOL    HW218207   1.944   6.276   4.263
 5770SOL     OW18208   6.061   0.256   6.329
 5770SOL    HW118209   6.117   0.307   6.264
 5770SOL    HW218210   6.030   0.318   6.401
 5771SOL     OW18211   1.158   6.165   2.792
 5771SOL    HW118212   1.242   6.138   2.745
 5771SOL    HW218213   1.159   6.263   2.810
 5772SOL     OW18214   6.565   2.607   0.430
 5772SOL    HW118215   6.548   2.509   0.435
 5772SOL    HW218216   6.482   2.656   0.458
 5773SOL     OW18217   4.932   0.983   4.100
 5773SOL    HW118218   4.932   0.952   4.195
 5773SOL    HW218219   5.026   1.002   4.071
 5774SOL     OW18220   2.810   5.165   3.816
 5774SOL    HW118221   2.727   5.149   3.870
 5774SOL    HW218222   2.818   5.262   3.796
 5775SOL     OW18223   1.491   0.565   1.938
 5775SOL    HW118224   1.402   0.546   1.977
 5775SOL    HW218225   1.495   0.529   1.845
 5776SOL     OW18226   6.765   1.303   6.059
 5776SOL    HW118227   6.846   1.245   6.064
 5776SOL    HW218228   6.721   1.307   6.149
 5777SOL     OW18229   6.339   0.815   4.273
 5777SOL    HW118230   6.241   0.798   4.260
 5777SOL    HW218231   6.376   0.748   4.337
 5778SOL     OW18232   2.232   0.257   1.605
 5778SOL    HW118233   2.229   0.160   1.630
 5778SOL    HW218234   2.211   0.267   1.508
 5779SOL     OW18235   4.058   1.078   0.614
 5779SOL    HW118236   3.967   1.065   0.654
 5779SOL    HW218237   4.121   1.013   0.655
 5780SOL     OW18238   5.673   5.514   3.069
 5780SOL    HW118239   5.658   5.579   2.994
 5780SOL    HW218240   5.769   5.487   3.071
 5781SOL     OW18241   1.232   3.953   4.516
 5781SOL    HW118242   1.229   3.886   4.591
 5781SOL    HW218243   1.316   4.007   4.523
 5782SOL     OW18244   1.762   0.995   1.015
 5782SOL    HW118245   1.678   1.005   0.961
 5782SOL    HW218246   1.820   1.076   1.001
 5783SOL     OW18247   2.045   1.189   1.007
 5783SOL    HW118248   1.992   1.250   1.066
 5783SOL    HW218249   2.138   1.181   1.042
 5784SOL     OW18250   0.181   6.557   6.657
 5784SOL    HW118251   0.208   6.555   6.754
 5784SOL    HW218252   0.130   6.641   6.639
 5785SOL     OW18253   2.023   1.768   1.748
 5785SOL    HW118254   2.089   1.805   1.814
 5785SOL    HW218255   1.933   1.807   1.766
 5786SOL     OW18256   0.655   4.044   0.821
 5786SOL    HW118257   0.717   4.056   0.744
 5786SOL    HW218258   0.622   3.949   0.823
 5787SOL     OW18259   4.523   2.544   4.700
 5787SOL    HW118260   4.495   2.555   4.604
 5787SOL    HW218261   4.623   2.541   4.705
 5788SOL     OW18262   3.293   0.791   1.765
 5788SOL    HW118263   3.222   0.860   1.753
 5788SOL    HW218264   3.287   0.724   1.691
 5789SOL     OW18265   3.253   3.005   5.918
 5789SOL    HW118266   3.246   3.009   5.818
 5789SOL    HW218267   3.320   2.934   5.943
 5790SOL     OW18268   0.375   4.911   4.639
 5790SOL    HW118269   0.395   4.956   4.725
 5790SOL    HW218270   0.320   4.971   4.581
 5791SOL     OW18271   2.965   2.234   2.297
 5791SOL    HW118272   2.959   2.265   2.202
 5791SOL    HW218273   2.879   2.254   2.344
 5792SOL     OW18274   5.440   4.000   2.186
 5792SOL    HW118275   5.512   4.060   2.151
 5792SOL    HW218276   5.479   3.911   2.211
 5793SOL     OW18277   5.632   0.566   4.595
 5793SOL    HW118278   5.710   0.628   4.602
 5793SOL    HW218279   5.572   0.578   4.674
 5794SOL     OW18280   3.245   6.863   6.940
 5794SOL    HW118281   3.327   6.842   6.887
 5794SOL    HW218282   3.226   6.961   6.933
 5795SOL     OW18283   0.041   0.024   0.772
 5795SOL    HW118284   6.978   6.994   0.795
 5795SOL    HW218285   0.019   0.097   0.707
 5796SOL     OW18286   4.358   0.672   6.707
 5796SOL    HW118287   4.335   0.702   6.614
 5796SOL    HW218288   4.440   0.721   6.738
 5797SOL     OW18289   5.175   1.373   0.432
 5797SOL    HW118290   5.158   1.333   0.522
 5797SOL    HW218291   5.094   1.424   0.403
 5798SOL     OW18292   6.988   4.118   4.487
 5798SOL    HW118293   7.000   4.081   4.394
 5798SOL    HW218294   0.050   4.167   4.514
 5799SOL     OW18295   0.208   0.376   3.695
 5799SOL    HW118296   0.119   0.339   3.669
 5799SOL    HW218297   0.203   0.410   3.789
 5800SOL     OW18298   1.092   0.037   1.732
 5800SOL    HW118299   1.005   0.050   1.779
 5800SOL    HW218300   1.119   6.961   1.738
 5801SOL     OW18301   2.003   2.388   3.357
 5801SOL    HW118302   2.034   2.380   3.452
 5801SOL    HW218303   2.076   2.427   3.301
 5802SOL     OW18304   6.228   3.452   2.772
 5802SOL    HW118305   6.175   3.529   2.736
 5802SOL    HW218306   6.177   3.367   2.757
 5803SOL     OW18307   1.435   5.168   3.816
 5803SOL    HW118308   1.391   5.184   3.728
 5803SOL    HW218309   1.482   5.079   3.815
 5804SOL     OW18310   6.639   6.100   3.160
 5804SOL    HW118311   6.554   6.062   3.123
 5804SOL    HW218312   6.629   6.198   3.174
 5805SOL     OW18313   1.472   2.650   0.565
 5805SOL    HW118314   1.559   2.684   0.601
 5805SOL    HW218315   1.461   2.554   0.592
 5806SOL     OW18316   0.179   4.947   5.084
 5806SOL    HW118317   0.130   5.035   5.080
 5806SOL    HW218318   0.115   4.873   5.064
 5807SOL     OW18319   1.316   5.448   1.287
 5807SOL    HW118320   1.254   5.430   1.210
 5807SOL    HW218321   1.300   5.541   1.321
 5808SOL     OW18322   6.562   6.892   4.698
 5808SOL    HW118323   6.612   6.871   4.614
 5808SOL    HW218324   6.622   6.943   4.760
 5809SOL     OW18325   6.298   1.927   5.348
 5809SOL    HW118326   6.217   1.878   5.316
 5809SOL    HW218327   6.272   1.992   5.419
 5810SOL     OW18328   4.589   1.193   5.851
 5810SOL    HW118329   4.663   1.126   5.859
 5810SOL    HW218330   4.584   1.226   5.757
 5811SOL     OW18331   3.062   1.549   5.306
 5811SOL    HW118332   2.978   1.568   5.256
 5811SOL    HW218333   3.138   1.541   5.241
 5812SOL     OW18334   4.926   3.249   5.825
 5812SOL    HW118335   4.904   3.235   5.728
 5812SOL    HW218336   4.923   3.161   5.873
 5813SOL     OW18337   2.822   0.326   0.849
 5813SOL    HW118338   2.735   0.287   0.818
 5813SOL    HW218339   2.890   0.253   0.857
 5814SOL     OW18340   0.125   2.958   2.104
 5814SOL    HW118341   0.184   2.934   2.027
 5814SOL    HW218342   0.097   3.053   2.097
 5815SOL     OW18343   4.775   1.745   4.200
 5815SOL    HW118344   4.775   1.739   4.100
 5815SOL    HW218345   4.711   1.679   4.238
 5816SOL     OW18346   6.260   4.890   0.736
 5816SOL    HW118347   6.176   4.838   0.719
 5816SOL    HW218348   6.326   4.833   0.785
 5817SOL     OW18349   6.015   4.968   5.651
 5817SOL    HW118350   5.928   4.997   5.690
 5817SOL    HW218351   6.023   4.869   5.656
 5818SOL     OW18352   6.965   5.564   5.310
 5818SOL    HW118353   0.018   5.500   5.330
 5818SOL    HW218354   6.943   5.560   5.212
 5819SOL     OW18355   3.256   5.263   6.733
 5819SOL    HW118356   3.284   5.350   6.775
 5819SOL    HW218357   3.177   5.279   6.675
 5820SOL     OW18358   4.454   4.513   2.539
 5820SOL    HW118359   4.414   4.545   2.453
 5820SOL    HW218360   4.490   4.421   2.527
 5821SOL     OW18361   6.883   0.429   0.918
 5821SOL    HW118362   6.814   0.377   0.869
 5821SOL    HW218363   6.856   0.438   1.014
 5822SOL     OW18364   1.930   2.614   1.630
 5822SOL    HW118365   1.934   2.540   1.563
 5822SOL    HW218366   1.975   2.585   1.714
 5823SOL     OW18367   2.714   6.707   4.786
 5823SOL    HW118368   2.697   6.767   4.707
 5823SOL    HW218369   2.710   6.761   4.870
 5824SOL     OW18370   0.713   6.271   3.556
 5824SOL    HW118371   0.618   6.260   3.584
 5824SOL    HW218372   0.717   6.312   3.465
 5825SOL     OW18373   0.155   5.956   5.043
 5825SOL    HW118374   0.244   5.996   5.066
 5825SOL    HW218375   0.119   5.906   5.121
 5826SOL     OW18376   0.751   6.071   6.060
 5826SOL    HW118377   0.780   6.166   6.072
 5826SOL    HW218378   0.736   6.052   5.963
 5827SOL     OW18379   1.359   3.303   5.047
 5827SOL    HW118380   1.442   3.309   4.990
 5827SOL    HW218381   1.352   3.385   5.104
 5828SOL     OW18382   4.912   1.232   3.034
 5828SOL    HW118383   4.903   1.280   2.946
 5828SOL    HW218384   4.964   1.148   3.020
 5829SOL     OW18385   1.273   0.760   4.781
 5829SOL    HW118386   1.358   0.731   4.824
 5829SOL    HW218387   1.244   0.848   4.818
 5830SOL     OW18388   4.555   0.305   5.415
 5830SOL    HW118389   4.653   0.313   5.401
 5830SOL    HW218390   4.536   0.262   5.503
 5831SOL     OW18391   1.706   1.232   5.880
 5831SOL    HW118392   1.638   1.244   5.807
 5831SOL    HW218393   1.677   1.284   5.960
 5832SOL     OW18394   3.874   4.173   0.275
 5832SOL    HW118395   3.841   4.171   0.369
 5832SOL    HW218396   3.959   4.226   0.271
 5833SOL     OW18397   4.178   3.458   5.177
 5833SOL    HW118398   4.263   3.460   5.230
 5833SOL    HW218399   4.109   3.405   5.226
 5834SOL     OW18400   6.727   4.150   6.579
 5834SOL    HW118401   6.645   4.109   6.540
 5834SOL    HW218402   6.702   4.220   6.645
 5835SOL     OW18403   5.963   2.140   2.633
 5835SOL    HW118404   5.991   2.190   2.551
 5835SOL    HW218405   5.982   2.043   2.622
 5836SOL     OW18406   3.010   6.667   2.301
 5836SOL    HW118407   2.994   6.766   2.299
 5836SOL    HW218408   3.085   6.644   2.239
 5837SOL     OW18409   3.565   3.460   6.964
 5837SOL    HW118410   3.635   3.502   6.905
 5837SOL    HW218411   3.553   3.516   0.025
 5838SOL     OW18412   3.428   2.062   1.444
 5838SOL    HW118413   3.457   2.080   1.538
 5838SOL    HW218414   3.386   2.144   1.406
 5839SOL     OW18415   0.656   1.797   0.552
 5839SOL    HW118416   0.690   1.860   0.622
 5839SOL    HW218417   0.598   1.847   0.488
 5840SOL     OW18418   0.607   3.769   0.823
 5840SOL    HW118419   0.537   3.737   0.888
 5840SOL    HW218420   0.629   3.696   0.759
 5841SOL     OW18421   5.267   0.693   1.733
 5841SOL    HW118422   5.295   0.738   1.818
 5841SOL    HW218423   5.229   0.603   1.754
 5842SOL     OW18424   4.826   2.307   2.086
 5842SOL    HW118425   4.880   2.247   2.027
 5842SOL    HW218426   4.755   2.352   2.031
 5843SOL     OW18427   1.038   4.207   1.802
 5843SOL    HW118428   0.972   4.275   1.772
 5843SOL    HW218429   1.028   4.123   1.748
 5844SOL     OW18430   1.337   6.039   5.425
 5844SOL    HW118431   1.403   6.108   5.396
 5844SOL    HW218432   1.364   6.003   5.514
 5845SOL     OW18433   0.953   0.377   2.088
 5845SOL    HW118434   0.854   0.387   2.081
 5845SOL    HW218435   0.979   0.362   2.184
 5846SOL     OW18436   5.589   3.332   5.493
 5846SOL    HW118437   5.530   3.407   5.520
 5846SOL    HW218438   5.535   3.263   5.444
 5847SOL     OW18439   2.698   2.507   1.786
 5847SOL    HW118440   2.712   2.470   1.694
 5847SOL    HW218441   2.783   2.500   1.838
 5848SOL     OW18442   1.586   5.633   3.309
 5848SOL    HW118443   1.652   5.564   3.338
 5848SOL    HW218444   1.509   5.636   3.372
 5849SOL     OW18445   2.053   6.644   4.851
 5849SOL    HW118446   2.070   6.697   4.934
 5849SOL    HW218447   2.140   6.629   4.803
 5850SOL     OW18448   0.069   3.238   1.874
 5850SOL    HW118449   6.999   3.246   1.833
 5850SOL    HW218450   0.060   3.226   1.973
 5851SOL     OW18451   5.186   3.819   4.063
 5851SOL    HW118452   5.092   3.814   4.029
 5851SOL    HW218453   5.198   3.754   4.138
 5852SOL     OW18454   4.722   5.874   2.750
 5852SOL    HW118455   4.727   5.971   2.773
 5852SOL    HW218456   4.667   5.826   2.819
 5853SOL     OW18457   4.418   5.120   5.962
 5853SOL    HW118458   4.464   5.039   5.923
 5853SOL    HW218459   4.471   5.201   5.940
 5854SOL     OW18460   4.408   4.624   5.636
 5854SOL    HW118461   4.379   4.545   5.691
 5854SOL    HW218462   4.506   4.618   5.619
 5855SOL     OW18463   1.312   1.455   4.861
 5855SOL    HW118464   1.409   1.440   4.879
 5855SOL    HW218465   1.294   1.439   4.764
 5856SOL     OW18466   1.123   6.334   3.189
 5856SOL    HW118467   1.208   6.384   3.171
 5856SOL    HW218468   1.106   6.331   3.288
 5857SOL     OW18469   6.465   3.776   4.797
 5857SOL    HW118470   6.445   3.686   4.837
 5857SOL    HW218471   6.518   3.830   4.861
 5858SOL     OW18472   2.203   2.456   3.200
 5858SOL    HW118473   2.265   2.526   3.236
 5858SOL    HW218474   2.249   2.367   3.200
 5859SOL     OW18475   6.360   6.243   1.291
 5859SOL    HW118476   6.425   6.262   1.218
 5859SOL    HW218477   6.409   6.241   1.379
 5860SOL     OW18478   0.310   4.944   2.730
 5860SOL    HW118479   0.388   4.988   2.685
 5860SOL    HW218480   0.340   4.897   2.813
 5861SOL     OW18481   5.388   0.882   4.237
 5861SOL    HW118482   5.461   0.949   4.224
 5861SOL    HW218483   5.375   0.829   4.152
 5862SOL     OW18484   6.099   5.179   1.851
 5862SOL    HW118485   6.122   5.182   1.754
 5862SOL    HW218486   6.004   5.148   1.861
 5863SOL     OW18487   2.892   2.224   4.651
 5863SOL    HW118488   2.945   2.140   4.637
 5863SOL    HW218489   2.899   2.252   4.747
 5864SOL     OW18490   3.156   3.342   2.286
 5864SOL    HW118491   3.148   3.441   2.296
 5864SOL    HW218492   3.074   3.305   2.243
 5865SOL     OW18493   5.747   0.698   5.075
 5865SOL    HW118494   5.675   0.765   5.057
 5865SOL    HW218495   5.798   0.726   5.156
 5866SOL     OW18496   3.351   2.838   1.337
 5866SOL    HW118497   3.392   2.760   1.384
 5866SOL    HW218498   3.327   2.811   1.244
 5867SOL     OW18499   1.918   3.343   1.222
 5867SOL    HW118500   1.881   3.389   1.303
 5867SOL    HW218501   1.883   3.250   1.218
 5868SOL     OW18502   1.642   1.450   6.063
 5868SOL    HW118503   1.706   1.508   6.013
 5868SOL    HW218504   1.644   1.474   6.160
 5869SOL     OW18505   1.817   4.665   2.672
 5869SOL    HW118506   1.773   4.576   2.684
 5869SOL    HW218507   1.750   4.733   2.642
 5870SOL     OW18508   4.710   6.356   4.902
 5870SOL    HW118509   4.775   6.291   4.942
 5870SOL    HW218510   4.745   6.449   4.911
 5871SOL     OW18511   3.974   3.159   1.902
 5871SOL    HW118512   3.971   3.059   1.894
 5871SOL    HW218513   4.067   3.188   1.924
 5872SOL     OW18514   4.202   6.748   1.245
 5872SOL    HW118515   4.209   6.843   1.214
 5872SOL    HW218516   4.114   6.734   1.290
 5873SOL     OW18517   3.351   6.198   2.243
 5873SOL    HW118518   3.391   6.141   2.316
 5873SOL    HW218519   3.412   6.197   2.164
 5874SOL     OW18520   2.278   4.262   4.648
 5874SOL    HW118521   2.301   4.263   4.745
 5874SOL    HW218522   2.333   4.331   4.600
 5875SOL     OW18523   3.869   1.604   0.280
 5875SOL    HW118524   3.879   1.704   0.281
 5875SOL    HW218525   3.774   1.580   0.297
 5876SOL     OW18526   4.089   3.376   1.714
 5876SOL    HW118527   4.141   3.438   1.654
 5876SOL    HW218528   4.086   3.413   1.806
 5877SOL     OW18529   6.433   6.476   0.964
 5877SOL    HW118530   6.481   6.402   0.918
 5877SOL    HW218531   6.360   6.510   0.904
 5878SOL     OW18532   0.059   5.716   4.371
 5878SOL    HW118533   0.007   5.633   4.390
 5878SOL    HW218534   7.020   5.784   4.329
 5879SOL     OW18535   1.353   4.013   0.065
 5879SOL    HW118536   1.366   4.095   0.010
 5879SOL    HW218537   1.255   3.996   0.077
 5880SOL     OW18538   4.215   3.819   0.297
 5880SOL    HW118539   4.168   3.865   0.372
 5880SOL    HW218540   4.182   3.726   0.288
 5881SOL     OW18541   0.338   5.573   3.070
 5881SOL    HW118542   0.255   5.530   3.107
 5881SOL    HW218543   0.314   5.627   2.990
 5882SOL     OW18544   6.944   6.391   0.856
 5882SOL    HW118545   6.995   6.476   0.844
 5882SOL    HW218546   6.969   6.327   0.784
 5883SOL     OW18547   0.888   1.643   6.330
 5883SOL    HW118548   0.974   1.596   6.312
 5883SOL    HW218549   0.840   1.597   6.404
 5884SOL     OW18550   3.021   1.593   4.471
 5884SOL    HW118551   3.053   1.654   4.398
 5884SOL    HW218552   2.941   1.634   4.516
 5885SOL     OW18553   0.539   0.414   2.608
 5885SOL    HW118554   0.476   0.423   2.686
 5885SOL    HW218555   0.543   0.500   2.558
 5886SOL     OW18556   0.229   2.558   4.703
 5886SOL    HW118557   0.206   2.592   4.794
 5886SOL    HW218558   0.234   2.458   4.706
 5887SOL     OW18559   2.885   1.470   3.602
 5887SOL    HW118560   2.829   1.389   3.587
 5887SOL    HW218561   2.922   1.502   3.515
 5888SOL     OW18562   3.068   0.879   2.093
 5888SOL    HW118563   3.132   0.852   2.022
 5888SOL    HW218564   3.107   0.953   2.147
 5889SOL     OW18565   1.566   6.762   1.493
 5889SOL    HW118566   1.558   6.859   1.516
 5889SOL    HW218567   1.576   6.708   1.577
 5890SOL     OW18568   2.042   0.483   4.404
 5890SOL    HW118569   2.014   0.479   4.500
 5890SOL    HW218570   1.965   0.459   4.345
 5891SOL     OW18571   3.064   3.234   5.843
 5891SOL    HW118572   3.023   3.169   5.779
 5891SOL    HW218573   3.147   3.194   5.883
 5892SOL     OW18574   0.232   5.514   1.283
 5892SOL    HW118575   0.295   5.557   1.347
 5892SOL    HW218576   0.278   5.437   1.237
 5893SOL     OW18577   1.693   4.201   4.483
 5893SOL    HW118578   1.712   4.288   4.528
 5893SOL    HW218579   1.695   4.213   4.384
 5894SOL     OW18580   6.599   5.306   4.559
 5894SOL    HW118581   6.592   5.398   4.521
 5894SOL    HW218582   6.513   5.283   4.606
 5895SOL     OW18583   5.213   3.369   4.223
 5895SOL    HW118584   5.304   3.383   4.186
 5895SOL    HW218585   5.170   3.291   4.176
 5896SOL     OW18586   4.340   1.009   0.132
 5896SOL    HW118587   4.340   0.961   0.044
 5896SOL    HW218588   4.247   1.009   0.170
 5897SOL     OW18589   3.990   0.696   1.467
 5897SOL    HW118590   4.066   0.644   1.430
 5897SOL    HW218591   4.004   0.712   1.565
 5898SOL     OW18592   2.705   6.645   3.362
 5898SOL    HW118593   2.754   6.665   3.277
 5898SOL    HW218594   2.637   6.574   3.346
 5899SOL     OW18595   5.108   6.696   5.918
 5899SOL    HW118596   5.127   6.601   5.892
 5899SOL    HW218597   5.079   6.699   6.014
 5900SOL     OW18598   4.945   5.245   3.605
 5900SOL    HW118599   4.929   5.161   3.658
 5900SOL    HW218600   4.963   5.221   3.510
 5901SOL     OW18601   2.437   0.478   0.258
 5901SOL    HW118602   2.518   0.477   0.200
 5901SOL    HW218603   2.421   0.386   0.294
 5902SOL     OW18604   6.848   2.581   6.026
 5902SOL    HW118605   6.880   2.643   5.955
 5902SOL    HW218606   6.854   2.487   5.993
 5903SOL     OW18607   3.908   3.728   0.121
 5903SOL    HW118608   3.827   3.702   0.068
 5903SOL    HW218609   3.923   3.826   0.113
 5904SOL     OW18610   0.854   3.552   2.028
 5904SOL    HW118611   0.814   3.522   1.941
 5904SOL    HW218612   0.782   3.563   2.096
 5905SOL     OW18613   6.282   6.180   2.827
 5905SOL    HW118614   6.313   6.151   2.737
 5905SOL    HW218615   6.240   6.271   2.820
 5906SOL     OW18616   4.267   2.210   3.570
 5906SOL    HW118617   4.182   2.165   3.599
 5906SOL    HW218618   4.257   2.240   3.475
 5907SOL     OW18619   1.052   5.194   0.938
 5907SOL    HW118620   1.113   5.202   0.859
 5907SOL    HW218621   1.080   5.116   0.994
 5908SOL     OW18622   0.303   2.668   6.773
 5908SOL    HW118623   0.342   2.585   6.812
 5908SOL    HW218624   0.369   2.711   6.712
 5909SOL     OW18625   6.750   5.557   0.941
 5909SOL    HW118626   6.843   5.519   0.945
 5909SOL    HW218627   6.684   5.485   0.960
 5910SOL     OW18628   0.269   3.076   3.953
 5910SOL    HW118629   0.275   3.035   3.862
 5910SOL    HW218630   0.311   3.015   4.020
 5911SOL     OW18631   6.483   6.691   6.412
 5911SOL    HW118632   6.457   6.699   6.316
 5911SOL    HW218633   6.421   6.746   6.468
 5912SOL     OW18634   0.078   0.546   5.716
 5912SOL    HW118635   0.169   0.586   5.725
 5912SOL    HW218636   0.049   0.550   5.620
 5913SOL     OW18637   4.802   2.822   6.424
 5913SOL    HW118638   4.749   2.787   6.502
 5913SOL    HW218639   4.824   2.918   6.440
 5914SOL     OW18640   1.671   5.449   0.114
 5914SOL    HW118641   1.746   5.413   0.059
 5914SOL    HW218642   1.616   5.512   0.059
 5915SOL     OW18643   4.748   5.774   1.305
 5915SOL    HW118644   4.711   5.726   1.225
 5915SOL    HW218645   4.786   5.862   1.276
 5916SOL     OW18646   6.211   6.113   3.655
 5916SOL    HW118647   6.310   6.119   3.668
 5916SOL    HW218648   6.190   6.089   3.561
 5917SOL     OW18649   3.461   4.103   4.380
 5917SOL    HW118650   3.509   4.088   4.466
 5917SOL    HW218651   3.367   4.069   4.389
 5918SOL     OW18652   2.480   4.196   5.381
 5918SOL    HW118653   2.487   4.115   5.323
 5918SOL    HW218654   2.387   4.202   5.417
 5919SOL     OW18655   3.963   3.244   3.246
 5919SOL    HW118656   3.949   3.329   3.197
 5919SOL    HW218657   3.953   3.167   3.183
 5920SOL     OW18658   4.979   0.629   6.409
 5920SOL    HW118659   4.980   0.568   6.330
 5920SOL    HW218660   5.064   0.680   6.413
 5921SOL     OW18661   4.088   5.085   6.393
 5921SOL    HW118662   4.115   5.064   6.299
 5921SOL    HW218663   4.063   5.181   6.400
 5922SOL     OW18664   5.634   3.480   3.560
 5922SOL    HW118665   5.581   3.437   3.487
 5922SOL    HW218666   5.732   3.467   3.543
 5923SOL     OW18667   0.145   1.538   1.908
 5923SOL    HW118668   0.057   1.581   1.889
 5923SOL    HW218669   0.218   1.593   1.867
 5924SOL     OW18670   6.847   0.039   2.780
 5924SOL    HW118671   6.784   0.092   2.836
 5924SOL    HW218672   6.795   6.993   2.726
 5925SOL     OW18673   3.906   6.604   1.717
 5925SOL    HW118674   3.849   6.670   1.667
 5925SOL    HW218675   3.856   6.572   1.797
 5926SOL     OW18676   3.896   5.124   2.508
 5926SOL    HW118677   3.864   5.114   2.602
 5926SOL    HW218678   3.969   5.058   2.491
 5927SOL     OW18679   0.938   4.913   2.331
 5927SOL    HW118680   0.990   4.959   2.403
 5927SOL    HW218681   0.854   4.965   2.312
 5928SOL     OW18682   3.105   6.338   0.840
 5928SOL    HW118683   3.101   6.390   0.925
 5928SOL    HW218684   3.013   6.312   0.812
 5929SOL     OW18685   6.305   0.814   6.063
 5929SOL    HW118686   6.358   0.865   6.131
 5929SOL    HW218687   6.264   0.734   6.107
 5930SOL     OW18688   6.882   4.045   3.100
 5930SOL    HW118689   6.948   3.984   3.057
 5930SOL    HW218690   6.791   4.003   3.097
 5931SOL     OW18691   6.219   6.474   2.850
 5931SOL    HW118692   6.129   6.477   2.894
 5931SOL    HW218693   6.287   6.518   2.909
 5932SOL     OW18694   3.199   6.915   1.136
 5932SOL    HW118695   3.147   6.853   1.196
 5932SOL    HW218696   3.288   6.933   1.177
 5933SOL     OW18697   6.376   4.803   4.334
 5933SOL    HW118698   6.468   4.792   4.296
 5933SOL    HW218699   6.372   4.889   4.385
 5934SOL     OW18700   3.518   3.023   5.042
 5934SOL    HW118701   3.464   2.941   5.024
 5934SOL    HW218702   3.516   3.043   5.140
 5935SOL     OW18703   0.050   5.525   6.320
 5935SOL    HW118704   0.022   5.439   6.364
 5935SOL    HW218705   0.003   5.602   6.363
 5936SOL     OW18706   3.479   2.630   1.446
 5936SOL    HW118707   3.483   2.574   1.529
 5936SOL    HW218708   3.571   2.643   1.410
 5937SOL     OW18709   6.302   3.228   1.932
 5937SOL    HW118710   6.389   3.210   1.978
 5937SOL    HW218711   6.266   3.316   1.963
 5938SOL     OW18712   6.584   5.678   3.545
 5938SOL    HW118713   6.568   5.716   3.636
 5938SOL    HW218714   6.596   5.752   3.479
 5939SOL     OW18715   2.003   6.015   3.089
 5939SOL    HW118716   1.986   6.054   3.180
 5939SOL    HW218717   2.058   6.079   3.035
 5940SOL     OW18718   4.656   5.272   2.536
 5940SOL    HW118719   4.617   5.362   2.519
 5940SOL    HW218720   4.628   5.209   2.464
 5941SOL     OW18721   6.105   3.997   1.980
 5941SOL    HW118722   6.068   3.956   2.063
 5941SOL    HW218723   6.145   4.086   2.002
 5942SOL     OW18724   4.895   3.732   6.957
 5942SOL    HW118725   4.957   3.778   7.020
 5942SOL    HW218726   4.844   3.800   6.904
 5943SOL     OW18727   3.470   4.067   5.890
 5943SOL    HW118728   3.453   3.970   5.906
 5943SOL    HW218729   3.425   4.121   5.962
 5944SOL     OW18730   6.938   2.321   0.178
 5944SOL    HW118731   6.983   2.381   0.245
 5944SOL    HW218732   6.987   2.233   0.175
 5945SOL     OW18733   6.274   4.749   5.078
 5945SOL    HW118734   6.237   4.710   4.994
 5945SOL    HW218735   6.322   4.677   5.129
 5946SOL     OW18736   3.289   3.478   6.014
 5946SOL    HW118737   3.258   3.504   5.923
 5946SOL    HW218738   3.328   3.558   6.061
 5947SOL     OW18739   3.680   3.518   2.938
 5947SOL    HW118740   3.744   3.521   3.014
 5947SOL    HW218741   3.703   3.442   2.877
 5948SOL     OW18742   4.154   4.784   2.659
 5948SOL    HW118743   4.249   4.756   2.673
 5948SOL    HW218744   4.150   4.858   2.592
 5949SOL     OW18745   5.272   4.091   1.779
 5949SOL    HW118746   5.365   4.115   1.807
 5949SOL    HW218747   5.217   4.068   1.859
 5950SOL     OW18748   4.956   1.638   5.084
 5950SOL    HW118749   5.055   1.643   5.071
 5950SOL    HW218750   4.919   1.559   5.036
 5951SOL     OW18751   1.432   5.129   4.332
 5951SOL    HW118752   1.491   5.127   4.251
 5951SOL    HW218753   1.401   5.036   4.353
 5952SOL     OW18754   5.192   5.637   3.334
 5952SOL    HW118755   5.262   5.686   3.283
 5952SOL    HW218756   5.179   5.681   3.423
 5953SOL     OW18757   6.715   3.828   5.373
 5953SOL    HW118758   6.641   3.893   5.360
 5953SOL    HW218759   6.694   3.768   5.450
 5954SOL     OW18760   6.215   5.937   5.845
 5954SOL    HW118761   6.255   6.020   5.806
 5954SOL    HW218762   6.164   5.888   5.774
 5955SOL     OW18763   4.656   5.659   1.725
 5955SOL    HW118764   4.578   5.622   1.776
 5955SOL    HW218765   4.666   5.610   1.639
 5956SOL     OW18766   4.762   2.343   3.828
 5956SOL    HW118767   4.683   2.354   3.888
 5956SOL    HW218768   4.822   2.423   3.838
 5957SOL     OW18769   3.123   1.213   4.498
 5957SOL    HW118770   3.165   1.295   4.460
 5957SOL    HW218771   3.190   1.166   4.557
 5958SOL     OW18772   4.283   0.087   2.918
 5958SOL    HW118773   4.336   0.085   2.834
 5958SOL    HW218774   4.219   0.164   2.915
 5959SOL     OW18775   4.163   2.995   5.409
 5959SOL    HW118776   4.108   3.042   5.478
 5959SOL    HW218777   4.232   3.058   5.374
 5960SOL     OW18778   3.994   5.184   4.892
 5960SOL    HW118779   3.909   5.134   4.909
 5960SOL    HW218780   3.979   5.281   4.909
 5961SOL     OW18781   4.261   2.284   2.724
 5961SOL    HW118782   4.254   2.377   2.689
 5961SOL    HW218783   4.171   2.240   2.721
 5962SOL     OW18784   6.484   6.412   6.498
 5962SOL    HW118785   6.541   6.404   6.580
 5962SOL    HW218786   6.459   6.508   6.484
 5963SOL     OW18787   3.275   3.751   6.161
 5963SOL    HW118788   3.190   3.783   6.119
 5963SOL    HW218789   3.268   3.759   6.261
 5964SOL     OW18790   1.271   6.618   4.988
 5964SOL    HW118791   1.351   6.583   4.941
 5964SOL    HW218792   1.227   6.689   4.932
 5965SOL     OW18793   1.795   1.701   0.091
 5965SOL    HW118794   1.780   1.621   0.149
 5965SOL    HW218795   1.891   1.726   0.093
 5966SOL     OW18796   2.648   5.794   6.090
 5966SOL    HW118797   2.670   5.741   6.172
 5966SOL    HW218798   2.559   5.838   6.101
 5967SOL     OW18799   2.731   0.002   5.995
 5967SOL    HW118800   2.744   0.088   6.044
 5967SOL    HW218801   2.671   0.017   5.917
 5968SOL     OW18802   5.055   2.287   0.181
 5968SOL    HW118803   5.065   2.276   0.280
 5968SOL    HW218804   4.960   2.271   0.155
 5969SOL     OW18805   6.058   0.598   6.681
 5969SOL    HW118806   6.123   0.641   6.619
 5969SOL    HW218807   6.038   0.505   6.650
 5970SOL     OW18808   0.176   4.158   2.618
 5970SOL    HW118809   0.272   4.151   2.591
 5970SOL    HW218810   0.130   4.224   2.559
 5971SOL     OW18811   0.216   1.360   2.119
 5971SOL    HW118812   0.172   1.271   2.106
 5971SOL    HW218813   0.195   1.420   2.042
 5972SOL     OW18814   5.126   5.718   6.459
 5972SOL    HW118815   5.129   5.709   6.360
 5972SOL    HW218816   5.040   5.762   6.486
 5973SOL     OW18817   1.743   2.985   1.790
 5973SOL    HW118818   1.736   3.041   1.707
 5973SOL    HW218819   1.708   2.894   1.770
 5974SOL     OW18820   5.721   5.933   7.007
 5974SOL    HW118821   5.765   5.951   6.919
 5974SOL    HW218822   5.638   5.988   7.015
 5975SOL     OW18823   4.267   6.990   1.126
 5975SOL    HW118824   4.330   6.998   1.049
 5975SOL    HW218825   4.236   0.060   1.154
 5976SOL     OW18826   4.101   2.644   6.034
 5976SOL    HW118827   4.168   2.577   6.001
 5976SOL    HW218828   4.071   2.702   5.958
 5977SOL     OW18829   1.123   6.155   0.835
 5977SOL    HW118830   1.183   6.230   0.863
 5977SOL    HW218831   1.029   6.177   0.860
 5978SOL     OW18832   3.899   5.369   1.585
 5978SOL    HW118833   3.835   5.358   1.509
 5978SOL    HW218834   3.986   5.325   1.562
 5979SOL     OW18835   6.340   0.422   2.921
 5979SOL    HW118836   6.397   0.500   2.945
 5979SOL    HW218837   6.302   0.381   3.004
 5980SOL     OW18838   3.960   4.044   1.805
 5980SOL    HW118839   3.946   4.142   1.789
 5980SOL    HW218840   3.899   4.013   1.877
 5981SOL     OW18841   5.331   2.142   0.838
 5981SOL    HW118842   5.340   2.108   0.745
 5981SOL    HW218843   5.301   2.237   0.836
 5982SOL     OW18844   6.429   2.070   1.938
 5982SOL    HW118845   6.371   2.009   1.992
 5982SOL    HW218846   6.509   2.098   1.992
 5983SOL     OW18847   1.037   1.166   4.285
 5983SOL    HW118848   1.032   1.199   4.191
 5983SOL    HW218849   0.985   1.081   4.293
 5984SOL     OW18850   5.468   6.114   3.429
 5984SOL    HW118851   5.389   6.060   3.458
 5984SOL    HW218852   5.552   6.070   3.461
 5985SOL     OW18853   6.566   2.980   3.818
 5985SOL    HW118854   6.574   2.977   3.718
 5985SOL    HW218855   6.551   2.887   3.852
 5986SOL     OW18856   3.195   4.029   4.367
 5986SOL    HW118857   3.205   3.930   4.378
 5986SOL    HW218858   3.148   4.066   4.447
 5987SOL     OW18859   6.016   0.463   4.116
 5987SOL    HW118860   6.041   0.387   4.055
 5987SOL    HW218861   5.926   0.445   4.156
 5988SOL     OW18862   4.119   0.980   5.435
 5988SOL    HW118863   4.059   0.908   5.399
 5988SOL    HW218864   4.067   1.037   5.499
 5989SOL     OW18865   2.163   5.660   6.359
 5989SOL    HW118866   2.179   5.562   6.346
 5989SOL    HW218867   2.132   5.700   6.273
 5990SOL     OW18868   3.058   3.179   0.997
 5990SOL    HW118869   3.044   3.142   0.905
 5990SOL    HW218870   3.122   3.120   1.047
 5991SOL     OW18871   4.296   5.371   6.732
 5991SOL    HW118872   4.233   5.300   6.764
 5991SOL    HW218873   4.268   5.460   6.769
 5992SOL     OW18874   3.644   0.238   2.381
 5992SOL    HW118875   3.585   0.313   2.350
 5992SOL    HW218876   3.726   0.235   2.324
 5993SOL     OW18877   3.617   4.176   6.404
 5993SOL    HW118878   3.527   4.137   6.384
 5993SOL    HW218879   3.650   4.140   6.491
 5994SOL     OW18880   6.788   2.225   0.401
 5994SOL    HW118881   6.777   2.178   0.489
 5994SOL    HW218882   6.862   2.292   0.408
 5995SOL     OW18883   4.898   3.494   2.261
 5995SOL    HW118884   4.945   3.441   2.190
 5995SOL    HW218885   4.865   3.580   2.223
 5996SOL     OW18886   0.317   6.735   0.821
 5996SOL    HW118887   0.384   6.688   0.763
 5996SOL    HW218888   0.357   6.752   0.910
 5997SOL     OW18889   0.257   5.251   2.370
 5997SOL    HW118890   0.213   5.319   2.429
 5997SOL    HW218891   0.187   5.195   2.326
 5998SOL     OW18892   6.557   1.567   2.345
 5998SOL    HW118893   6.518   1.484   2.385
 5998SOL    HW218894   6.655   1.570   2.363
 5999SOL     OW18895   2.937   2.894   1.713
 5999SOL    HW118896   2.981   2.815   1.757
 5999SOL    HW218897   2.932   2.877   1.615
 6000SOL     OW18898   2.387   6.457   6.901
 6000SOL    HW118899   2.449   6.470   6.979
 6000SOL    HW218900   2.367   6.360   6.892
 6001SOL     OW18901   0.004   4.840   6.834
 6001SOL    HW118902   6.977   4.920   6.797
 6001SOL    HW218903   0.103   4.855   6.826
 6002SOL     OW18904   5.941   0.374   0.145
 6002SOL    HW118905   5.951   0.442   0.072
 6002SOL    HW218906   5.892   0.414   0.222
 6003SOL     OW18907   5.251   2.003   4.948
 6003SOL    HW118908   5.203   1.989   4.861
 6003SOL    HW218909   5.350   2.003   4.932
 6004SOL     OW18910   0.235   3.904   3.066
 6004SOL    HW118911   0.169   3.903   3.141
 6004SOL    HW218912   0.208   3.972   2.998
 6005SOL     OW18913   5.199   5.639   4.987
 6005SOL    HW118914   5.171   5.708   5.054
 6005SOL    HW218915   5.149   5.555   5.003
 6006SOL     OW18916   2.483   0.495   5.642
 6006SOL    HW118917   2.504   0.407   5.683
 6006SOL    HW218918   2.450   0.481   5.548
 6007SOL     OW18919   5.561   3.602   5.615
 6007SOL    HW118920   5.592   3.637   5.526
 6007SOL    HW218921   5.637   3.556   5.661
 6008SOL     OW18922   2.799   4.709   5.351
 6008SOL    HW118923   2.757   4.782   5.296
 6008SOL    HW218924   2.843   4.643   5.289
 6009SOL     OW18925   2.455   0.802   3.600
 6009SOL    HW118926   2.540   0.766   3.561
 6009SOL    HW218927   2.431   0.887   3.553
 6010SOL     OW18928   1.132   5.493   3.952
 6010SOL    HW118929   1.209   5.430   3.951
 6010SOL    HW218930   1.158   5.579   3.908
 6011SOL     OW18931   5.919   2.689   3.423
 6011SOL    HW118932   6.003   2.701   3.475
 6011SOL    HW218933   5.844   2.738   3.468
 6012SOL     OW18934   5.743   1.061   0.793
 6012SOL    HW118935   5.711   0.969   0.815
 6012SOL    HW218936   5.821   1.084   0.852
 6013SOL     OW18937   5.500   1.103   2.875
 6013SOL    HW118938   5.471   1.190   2.836
 6013SOL    HW218939   5.540   1.046   2.804
 6014SOL     OW18940   3.665   4.079   3.199
 6014SOL    HW118941   3.612   4.091   3.282
 6014SOL    HW218942   3.607   4.095   3.119
 6015SOL     OW18943   5.479   4.021   4.429
 6015SOL    HW118944   5.571   4.050   4.406
 6015SOL    HW218945   5.443   4.079   4.503
 6016SOL     OW18946   6.522   2.334   5.876
 6016SOL    HW118947   6.542   2.375   5.787
 6016SOL    HW218948   6.558   2.393   5.948
 6017SOL     OW18949   6.011   4.878   3.539
 6017SOL    HW118950   6.084   4.847   3.600
 6017SOL    HW218951   5.937   4.811   3.538
 6018SOL     OW18952   3.982   0.799   6.231
 6018SOL    HW118953   3.890   0.774   6.202
 6018SOL    HW218954   4.038   0.821   6.151
 6019SOL     OW18955   0.691   2.930   4.454
 6019SOL    HW118956   0.734   2.840   4.457
 6019SOL    HW218957   0.726   2.986   4.529
 6020SOL     OW18958   0.729   5.514   0.692
 6020SOL    HW118959   0.652   5.546   0.637
 6020SOL    HW218960   0.710   5.529   0.789
 6021SOL     OW18961   4.498   0.625   3.039
 6021SOL    HW118962   4.592   0.638   3.071
 6021SOL    HW218963   4.485   0.529   3.015
 6022SOL     OW18964   6.290   1.733   3.354
 6022SOL    HW118965   6.322   1.772   3.268
 6022SOL    HW218966   6.212   1.673   3.336
 6023SOL     OW18967   6.008   1.001   1.627
 6023SOL    HW118968   6.048   1.034   1.713
 6023SOL    HW218969   5.967   1.078   1.578
 6024SOL     OW18970   1.415   4.667   2.077
 6024SOL    HW118971   1.473   4.722   2.016
 6024SOL    HW218972   1.344   4.622   2.023
 6025SOL     OW18973   3.228   1.853   3.397
 6025SOL    HW118974   3.214   1.769   3.451
 6025SOL    HW218975   3.323   1.882   3.406
 6026SOL     OW18976   0.459   4.743   5.640
 6026SOL    HW118977   0.370   4.747   5.594
 6026SOL    HW218978   0.508   4.661   5.612
 6027SOL     OW18979   0.457   3.620   5.214
 6027SOL    HW118980   0.498   3.529   5.204
 6027SOL    HW218981   0.366   3.612   5.253
 6028SOL     OW18982   5.994   4.819   0.667
 6028SOL    HW118983   5.942   4.879   0.728
 6028SOL    HW218984   5.972   4.841   0.572
 6029SOL     OW18985   2.251   6.822   4.536
 6029SOL    HW118986   2.186   6.762   4.489
 6029SOL    HW218987   2.310   6.768   4.596
 6030SOL     OW18988   4.233   5.057   2.790
 6030SOL    HW118989   4.193   4.982   2.842
 6030SOL    HW218990   4.283   5.117   2.852
 6031SOL     OW18991   3.434   5.274   4.456
 6031SOL    HW118992   3.365   5.235   4.517
 6031SOL    HW218993   3.393   5.294   4.367
 6032SOL     OW18994   2.075   4.301   2.229
 6032SOL    HW118995   2.079   4.348   2.140
 6032SOL    HW218996   1.990   4.250   2.236
 6033SOL     OW18997   2.380   2.700   3.256
 6033SOL    HW118998   2.445   2.651   3.314
 6033SOL    HW218999   2.400   2.681   3.160
 6034SOL     OW19000   1.245   0.125   5.202
 6034SOL    HW119001   1.220   0.106   5.107
 6034SOL    HW219002   1.242   0.224   5.218
 6035SOL     OW19003   1.186   1.463   1.956
 6035SOL    HW119004   1.146   1.412   1.880
 6035SOL    HW219005   1.141   1.552   1.963
 6036SOL     OW19006   5.198   5.019   3.095
 6036SOL    HW119007   5.099   5.013   3.101
 6036SOL    HW219008   5.230   4.975   3.011
 6037SOL     OW19009   4.120   6.861   0.393
 6037SOL    HW119010   4.028   6.829   0.369
 6037SOL    HW219011   4.131   6.856   0.493
 6038SOL     OW19012   1.233   2.916   5.803
 6038SOL    HW119013   1.292   2.913   5.722
 6038SOL    HW219014   1.281   2.875   5.881
 6039SOL     OW19015   3.937   3.056   2.481
 6039SOL    HW119016   3.910   2.992   2.554
 6039SOL    HW219017   3.888   3.033   2.398
 6040SOL     OW19018   1.644   2.214   1.108
 6040SOL    HW119019   1.743   2.202   1.107
 6040SOL    HW219020   1.618   2.267   1.189
 6041SOL     OW19021   2.919   1.032   5.310
 6041SOL    HW119022   2.856   1.033   5.233
 6041SOL    HW219023   2.932   0.938   5.342
 6042SOL     OW19024   4.249   6.941   2.542
 6042SOL    HW119025   4.204   6.879   2.607
 6042SOL    HW219026   4.276   6.890   2.461
 6043SOL     OW19027   1.064   6.026   5.492
 6043SOL    HW119028   1.004   6.094   5.450
 6043SOL    HW219029   1.153   6.028   5.448
 6044SOL     OW19030   1.544   2.650   1.344
 6044SOL    HW119031   1.636   2.688   1.343
 6044SOL    HW219032   1.478   2.724   1.355
 6045SOL     OW19033   6.478   4.063   2.063
 6045SOL    HW119034   6.525   4.147   2.089
 6045SOL    HW219035   6.380   4.073   2.078
 6046SOL     OW19036   3.607   2.489   0.882
 6046SOL    HW119037   3.613   2.535   0.970
 6046SOL    HW219038   3.535   2.420   0.885
 6047SOL     OW19039   5.408   1.648   1.890
 6047SOL    HW119040   5.410   1.614   1.797
 6047SOL    HW219041   5.401   1.571   1.954
 6048SOL     OW19042   4.634   5.336   5.370
 6048SOL    HW119043   4.689   5.287   5.438
 6048SOL    HW219044   4.553   5.374   5.414
 6049SOL     OW19045   4.865   3.384   0.108
 6049SOL    HW119046   4.769   3.409   0.110
 6049SOL    HW219047   4.877   3.299   0.055
 6050SOL     OW19048   3.348   4.688   5.962
 6050SOL    HW119049   3.406   4.739   5.899
 6050SOL    HW219050   3.259   4.670   5.919
 6051SOL     OW19051   1.439   0.263   3.811
 6051SOL    HW119052   1.507   0.261   3.738
 6051SOL    HW219053   1.459   0.339   3.874
 6052SOL     OW19054   5.256   1.518   0.861
 6052SOL    HW119055   5.181   1.558   0.913
 6052SOL    HW219056   5.260   1.420   0.878
 6053SOL     OW19057   4.541   1.286   6.327
 6053SOL    HW119058   4.550   1.318   6.233
 6053SOL    HW219059   4.586   1.198   6.338
 6054SOL     OW19060   2.506   2.733   6.781
 6054SOL    HW119061   2.505   2.633   6.777
 6054SOL    HW219062   2.471   2.763   6.870
 6055SOL     OW19063   5.268   6.964   5.423
 6055SOL    HW119064   5.316   6.934   5.505
 6055SOL    HW219065   5.332   7.010   5.361
 6056SOL     OW19066   4.990   3.491   4.931
 6056SOL    HW119067   4.972   3.395   4.951
 6056SOL    HW219068   4.921   3.548   4.974
 6057SOL     OW19069   7.017   1.403   2.620
 6057SOL    HW119070   0.031   1.496   2.628
 6057SOL    HW219071   0.015   1.352   2.704
 6058SOL     OW19072   4.758   3.891   1.698
 6058SOL    HW119073   4.793   3.871   1.607
 6058SOL    HW219074   4.665   3.927   1.692
 6059SOL     OW19075   5.123   5.422   6.331
 6059SOL    HW119076   5.128   5.419   6.431
 6059SOL    HW219077   5.049   5.362   6.300
 6060SOL     OW19078   3.042   3.444   6.131
 6060SOL    HW119079   2.972   3.470   6.064
 6060SOL    HW219080   3.130   3.437   6.085
 6061SOL     OW19081   4.724   3.263   1.201
 6061SOL    HW119082   4.704   3.223   1.291
 6061SOL    HW219083   4.733   3.190   1.133
 6062SOL     OW19084   2.869   1.469   5.546
 6062SOL    HW119085   2.830   1.554   5.510
 6062SOL    HW219086   2.930   1.490   5.622
 6063SOL     OW19087   4.793   2.496   6.151
 6063SOL    HW119088   4.711   2.551   6.165
 6063SOL    HW219089   4.866   2.554   6.116
 6064SOL     OW19090   1.135   0.064   1.437
 6064SOL    HW119091   1.045   0.024   1.419
 6064SOL    HW219092   1.130   0.121   1.518
 6065SOL     OW19093   0.756   6.565   3.099
 6065SOL    HW119094   0.742   6.494   3.030
 6065SOL    HW219095   0.720   6.533   3.187
 6066SOL     OW19096   4.638   1.838   5.183
 6066SOL    HW119097   4.644   1.927   5.228
 6066SOL    HW219098   4.665   1.767   5.247
 6067SOL     OW19099   5.769   1.012   5.736
 6067SOL    HW119100   5.739   0.981   5.826
 6067SOL    HW219101   5.868   1.007   5.731
 6068SOL     OW19102   4.672   2.800   4.319
 6068SOL    HW119103   4.645   2.817   4.224
 6068SOL    HW219104   4.724   2.878   4.353
 6069SOL     OW19105   6.139   2.800   5.233
 6069SOL    HW119106   6.084   2.858   5.172
 6069SOL    HW219107   6.235   2.829   5.228
 6070SOL     OW19108   2.972   1.998   1.434
 6070SOL    HW119109   2.911   2.005   1.355
 6070SOL    HW219110   3.006   1.905   1.441
 6071SOL     OW19111   5.912   5.501   5.236
 6071SOL    HW119112   5.896   5.589   5.281
 6071SOL    HW219113   5.855   5.495   5.154
 6072SOL     OW19114   6.771   0.194   1.487
 6072SOL    HW119115   6.801   0.103   1.458
 6072SOL    HW219116   6.846   0.240   1.534
 6073SOL     OW19117   5.728   3.008   0.729
 6073SOL    HW119118   5.656   2.954   0.684
 6073SOL    HW219119   5.687   3.079   0.785
 6074SOL     OW19120   1.028   6.273   1.973
 6074SOL    HW119121   1.017   6.319   1.886
 6074SOL    HW219122   1.084   6.329   2.035
 6075SOL     OW19123   4.764   0.538   5.829
 6075SOL    HW119124   4.748   0.558   5.733
 6075SOL    HW219125   4.808   0.616   5.872
 6076SOL     OW19126   3.496   5.623   3.214
 6076SOL    HW119127   3.570   5.658   3.272
 6076SOL    HW219128   3.504   5.523   3.207
 6077SOL     OW19129   6.464   5.646   0.740
 6077SOL    HW119130   6.514   5.561   0.757
 6077SOL    HW219131   6.452   5.659   0.642
 6078SOL     OW19132   4.673   5.574   0.556
 6078SOL    HW119133   4.640   5.580   0.462
 6078SOL    HW219134   4.718   5.486   0.570
 6079SOL     OW19135   4.545   3.667   6.159
 6079SOL    HW119136   4.623   3.609   6.182
 6079SOL    HW219137   4.537   3.673   6.059
 6080SOL     OW19138   0.150   6.318   0.561
 6080SOL    HW119139   0.072   6.268   0.598
 6080SOL    HW219140   0.120   6.377   0.487
 6081SOL     OW19141   6.733   2.397   4.863
 6081SOL    HW119142   6.724   2.303   4.895
 6081SOL    HW219143   6.754   2.397   4.765
 6082SOL     OW19144   2.594   1.131   3.773
 6082SOL    HW119145   2.689   1.126   3.742
 6082SOL    HW219146   2.566   1.042   3.809
 6083SOL     OW19147   6.069   6.103   0.301
 6083SOL    HW119148   6.013   6.027   0.266
 6083SOL    HW219149   6.094   6.163   0.225
 6084SOL     OW19150   0.971   6.870   3.277
 6084SOL    HW119151   0.925   6.927   3.209
 6084SOL    HW219152   0.903   6.818   3.329
 6085SOL     OW19153   0.002   6.861   6.939
 6085SOL    HW119154   0.070   6.865   6.866
 6085SOL    HW219155   6.978   6.950   6.949
 6086SOL     OW19156   3.023   1.106   5.629
 6086SOL    HW119157   2.995   1.029   5.686
 6086SOL    HW219158   3.015   1.080   5.532
 6087SOL     OW19159   3.825   5.834   1.125
 6087SOL    HW119160   3.884   5.874   1.055
 6087SOL    HW219161   3.767   5.906   1.164
 6088SOL     OW19162   5.363   6.601   4.587
 6088SOL    HW119163   5.269   6.620   4.559
 6088SOL    HW219164   5.424   6.672   4.551
 6089SOL     OW19165   5.799   2.703   2.377
 6089SOL    HW119166   5.710   2.691   2.334
 6089SOL    HW219167   5.787   2.737   2.470
 6090SOL     OW19168   2.263   5.501   4.775
 6090SOL    HW119169   2.346   5.468   4.821
 6090SOL    HW219170   2.226   5.578   4.827
 6091SOL     OW19171   1.931   1.107   0.243
 6091SOL    HW119172   1.954   1.027   0.299
 6091SOL    HW219173   1.979   1.187   0.276
 6092SOL     OW19174   4.535   0.533   2.495
 6092SOL    HW119175   4.580   0.622   2.484
 6092SOL    HW219176   4.543   0.504   2.591
 6093SOL     OW19177   2.243   2.846   1.785
 6093SOL    HW119178   2.306   2.924   1.788
 6093SOL    HW219179   2.157   2.874   1.744
 6094SOL     OW19180   1.745   6.057   2.415
 6094SOL    HW119181   1.680   5.988   2.447
 6094SOL    HW219182   1.829   6.011   2.384
 6095SOL     OW19183   5.168   4.179   0.527
 6095SOL    HW119184   5.188   4.258   0.469
 6095SOL    HW219185   5.081   4.138   0.499
 6096SOL     OW19186   6.317   0.065   3.912
 6096SOL    HW119187   6.262   0.066   3.995
 6096SOL    HW219188   6.257   0.069   3.832
 6097SOL     OW19189   1.919   5.810   2.124
 6097SOL    HW119190   1.911   5.766   2.214
 6097SOL    HW219191   1.872   5.898   2.126
 6098SOL     OW19192   0.575   1.632   5.144
 6098SOL    HW119193   0.596   1.722   5.182
 6098SOL    HW219194   0.592   1.561   5.214
 6099SOL     OW19195   5.521   6.313   0.025
 6099SOL    HW119196   5.429   6.287   0.054
 6099SOL    HW219197   5.538   6.275   6.954
 6100SOL     OW19198   5.658   6.135   1.323
 6100SOL    HW119199   5.631   6.082   1.242
 6100SOL    HW219200   5.699   6.221   1.293
 6101SOL     OW19201   6.738   3.750   3.269
 6101SOL    HW119202   6.820   3.722   3.219
 6101SOL    HW219203   6.673   3.675   3.271
 6102SOL     OW19204   3.221   6.016   2.824
 6102SOL    HW119205   3.317   6.026   2.796
 6102SOL    HW219206   3.199   5.919   2.834
 6103SOL     OW19207   6.299   1.828   1.476
 6103SOL    HW119208   6.374   1.884   1.508
 6103SOL    HW219209   6.217   1.848   1.530
 6104SOL     OW19210   5.696   0.528   5.953
 6104SOL    HW119211   5.648   0.533   5.866
 6104SOL    HW219212   5.646   0.469   6.016
 6105SOL     OW19213   3.107   5.824   6.939
 6105SOL    HW119214   3.132   5.806   6.844
 6105SOL    HW219215   3.110   5.922   6.957
 6106SOL     OW19216   1.046   4.579   6.528
 6106SOL    HW119217   1.036   4.539   6.437
 6106SOL    HW219218   1.109   4.524   6.583
 6107SOL     OW19219   4.077   5.903   4.984
 6107SOL    HW119220   4.103   5.982   4.928
 6107SOL    HW219221   4.157   5.870   5.034
 6108SOL     OW19222   2.401   2.667   1.991
 6108SOL    HW119223   2.352   2.695   2.073
 6108SOL    HW219224   2.355   2.705   1.910
 6109SOL     OW19225   5.718   1.746   5.122
 6109SOL    HW119226   5.655   1.717   5.194
 6109SOL    HW219227   5.690   1.834   5.085
 6110SOL     OW19228   3.199   3.653   1.175
 6110SOL    HW119229   3.142   3.587   1.224
 6110SOL    HW219230   3.266   3.604   1.120
 6111SOL     OW19231   1.295   3.859   2.693
 6111SOL    HW119232   1.330   3.766   2.708
 6111SOL    HW219233   1.303   3.883   2.596
 6112SOL     OW19234   3.220   0.283   3.090
 6112SOL    HW119235   3.310   0.326   3.089
 6112SOL    HW219236   3.205   0.235   3.003
 6113SOL     OW19237   3.218   2.094   5.912
 6113SOL    HW119238   3.129   2.140   5.915
 6113SOL    HW219239   3.278   2.134   5.982
 6114SOL     OW19240   4.559   4.801   2.236
 6114SOL    HW119241   4.482   4.765   2.288
 6114SOL    HW219242   4.531   4.819   2.142
 6115SOL     OW19243   6.044   0.634   3.657
 6115SOL    HW119244   6.023   0.730   3.675
 6115SOL    HW219245   6.121   0.605   3.714
 6116SOL     OW19246   4.293   1.497   6.061
 6116SOL    HW119247   4.383   1.453   6.059
 6116SOL    HW219248   4.293   1.569   6.130
 6117SOL     OW19249   1.504   1.290   3.477
 6117SOL    HW119250   1.542   1.381   3.457
 6117SOL    HW219251   1.485   1.242   3.392
 6118SOL     OW19252   0.277   1.110   1.940
 6118SOL    HW119253   0.205   1.097   1.871
 6118SOL    HW219254   0.355   1.155   1.897
 6119SOL     OW19255   0.863   3.650   6.745
 6119SOL    HW119256   0.813   3.566   6.722
 6119SOL    HW219257   0.894   3.694   6.661
 6120SOL     OW19258   3.613   6.132   5.407
 6120SOL    HW119259   3.691   6.069   5.413
 6120SOL    HW219260   3.530   6.086   5.438
 6121SOL     OW19261   0.710   3.443   5.149
 6121SOL    HW119262   0.666   3.489   5.071
 6121SOL    HW219263   0.697   3.344   5.140
 6122SOL     OW19264   4.415   5.435   0.745
 6122SOL    HW119265   4.326   5.393   0.730
 6122SOL    HW219266   4.486   5.382   0.698
 6123SOL     OW19267   5.326   0.215   6.491
 6123SOL    HW119268   5.250   0.280   6.494
 6123SOL    HW219269   5.337   0.172   6.580
 6124SOL     OW19270   1.820   6.704   5.926
 6124SOL    HW119271   1.838   6.797   5.958
 6124SOL    HW219272   1.752   6.661   5.985
 6125SOL     OW19273   1.954   4.361   0.767
 6125SOL    HW119274   1.932   4.336   0.861
 6125SOL    HW219275   2.038   4.416   0.766
 6126SOL     OW19276   0.675   0.053   4.429
 6126SOL    HW119277   0.656   6.985   4.388
 6126SOL    HW219278   0.631   0.125   4.374
 6127SOL     OW19279   3.017   0.560   1.515
 6127SOL    HW119280   2.964   0.524   1.437
 6127SOL    HW219281   3.114   0.562   1.490
 6128SOL     OW19282   6.151   3.844   0.755
 6128SOL    HW119283   6.098   3.914   0.708
 6128SOL    HW219284   6.112   3.754   0.734
 6129SOL     OW19285   0.044   3.660   2.196
 6129SOL    HW119286   6.971   3.655   2.232
 6129SOL    HW219287   0.109   3.629   2.265
 6130SOL     OW19288   5.931   3.070   2.489
 6130SOL    HW119289   5.832   3.077   2.489
 6130SOL    HW219290   5.959   2.985   2.534
 6131SOL     OW19291   0.592   1.903   4.265
 6131SOL    HW119292   0.593   1.890   4.365
 6131SOL    HW219293   0.520   1.846   4.225
 6132SOL     OW19294   4.838   1.852   0.175
 6132SOL    HW119295   4.923   1.799   0.163
 6132SOL    HW219296   4.799   1.830   0.264
 6133SOL     OW19297   2.057   3.283   2.489
 6133SOL    HW119298   1.958   3.293   2.494
 6133SOL    HW219299   2.087   3.289   2.394
 6134SOL     OW19300   4.243   4.160   6.926
 6134SOL    HW119301   4.325   4.153   6.868
 6134SOL    HW219302   4.269   4.145   0.001
 6135SOL     OW19303   0.030   0.490   0.215
 6135SOL    HW119304   0.118   0.454   0.183
 6135SOL    HW219305   0.035   0.590   0.219
 6136SOL     OW19306   1.385   2.991   2.153
 6136SOL    HW119307   1.330   2.915   2.119
 6136SOL    HW219308   1.325   3.058   2.198
 6137SOL     OW19309   6.737   3.983   2.257
 6137SOL    HW119310   6.778   4.066   2.218
 6137SOL    HW219311   6.775   3.903   2.213
 6138SOL     OW19312   3.878   6.619   2.796
 6138SOL    HW119313   3.803   6.663   2.747
 6138SOL    HW219314   3.848   6.528   2.827
 6139SOL     OW19315   1.619   6.617   6.105
 6139SOL    HW119316   1.557   6.542   6.128
 6139SOL    HW219317   1.676   6.638   6.185
 6140SOL     OW19318   0.753   6.478   1.815
 6140SOL    HW119319   0.761   6.500   1.913
 6140SOL    HW219320   0.841   6.446   1.781
 6141SOL     OW19321   0.452   6.807   6.079
 6141SOL    HW119322   0.422   6.830   5.986
 6141SOL    HW219323   0.552   6.812   6.084
 6142SOL     OW19324   0.830   6.694   6.922
 6142SOL    HW119325   0.900   6.680   6.852
 6142SOL    HW219326   0.860   6.652   7.008
 6143SOL     OW19327   6.498   3.123   1.036
 6143SOL    HW119328   6.420   3.108   1.097
 6143SOL    HW219329   6.565   3.050   1.049
 6144SOL     OW19330   4.714   4.636   4.165
 6144SOL    HW119331   4.681   4.717   4.116
 6144SOL    HW219332   4.660   4.556   4.138
 6145SOL     OW19333   5.164   5.204   3.910
 6145SOL    HW119334   5.070   5.218   3.943
 6145SOL    HW219335   5.178   5.107   3.889
 6146SOL     OW19336   3.056   5.565   3.672
 6146SOL    HW119337   3.000   5.482   3.670
 6146SOL    HW219338   3.113   5.568   3.589
 6147SOL     OW19339   2.106   2.171   4.029
 6147SOL    HW119340   2.184   2.229   4.006
 6147SOL    HW219341   2.081   2.186   4.125
 6148SOL     OW19342   4.797   6.927   5.355
 6148SOL    HW119343   4.748   6.850   5.313
 6148SOL    HW219344   4.806   7.001   5.287
 6149SOL     OW19345   2.777   6.382   1.375
 6149SOL    HW119346   2.689   6.401   1.418
 6149SOL    HW219347   2.800   6.285   1.387
 6150SOL     OW19348   5.159   5.306   0.506
 6150SOL    HW119349   5.217   5.387   0.494
 6150SOL    HW219350   5.205   5.240   0.564
 6151SOL     OW19351   5.950   5.209   6.454
 6151SOL    HW119352   6.015   5.179   6.524
 6151SOL    HW219353   5.969   5.161   6.368
 6152SOL     OW19354   6.204   5.660   4.804
 6152SOL    HW119355   6.118   5.632   4.845
 6152SOL    HW219356   6.236   5.588   4.741
 6153SOL     OW19357   5.342   4.761   1.688
 6153SOL    HW119358   5.333   4.681   1.747
 6153SOL    HW219359   5.405   4.740   1.612
 6154SOL     OW19360   6.300   2.467   2.676
 6154SOL    HW119361   6.320   2.388   2.618
 6154SOL    HW219362   6.247   2.534   2.623
 6155SOL     OW19363   1.673   1.508   3.392
 6155SOL    HW119364   1.713   1.514   3.301
 6155SOL    HW219365   1.650   1.599   3.425
 6156SOL     OW19366   4.182   4.661   2.046
 6156SOL    HW119367   4.227   4.662   1.957
 6156SOL    HW219368   4.113   4.588   2.048
 6157SOL     OW19369   0.031   1.778   4.680
 6157SOL    HW119370   0.131   1.779   4.690
 6157SOL    HW219371   0.002   1.693   4.636
 6158SOL     OW19372   3.840   1.883   6.096
 6158SOL    HW119373   3.807   1.974   6.122
 6158SOL    HW219374   3.836   1.822   6.175
 6159SOL     OW19375   4.844   1.853   1.838
 6159SOL    HW119376   4.876   1.775   1.892
 6159SOL    HW219377   4.762   1.892   1.881
 6160SOL     OW19378   5.444   1.074   6.313
 6160SOL    HW119379   5.507   1.075   6.235
 6160SOL    HW219380   5.391   1.160   6.314
 6161SOL     OW19381   4.711   1.791   4.914
 6161SOL    HW119382   4.719   1.885   4.880
 6161SOL    HW219383   4.678   1.792   5.008
 6162SOL     OW19384   6.884   6.005   3.113
 6162SOL    HW119385   6.941   6.083   3.140
 6162SOL    HW219386   6.787   6.032   3.119
 6163SOL     OW19387   6.111   6.771   1.089
 6163SOL    HW119388   6.118   6.671   1.088
 6163SOL    HW219389   6.062   6.799   1.171
 6164SOL     OW19390   3.298   3.961   3.295
 6164SOL    HW119391   3.381   3.913   3.325
 6164SOL    HW219392   3.319   4.015   3.214
 6165SOL     OW19393   4.642   1.860   6.975
 6165SOL    HW119394   4.717   1.861   0.021
 6165SOL    HW219395   4.678   1.834   6.885
 6166SOL     OW19396   5.269   1.668   6.322
 6166SOL    HW119397   5.189   1.722   6.297
 6166SOL    HW219398   5.281   1.670   6.422
 6167SOL     OW19399   1.078   4.970   2.710
 6167SOL    HW119400   1.002   4.926   2.757
 6167SOL    HW219401   1.043   5.021   2.632
 6168SOL     OW19402   1.823   3.560   2.093
 6168SOL    HW119403   1.824   3.562   2.193
 6168SOL    HW219404   1.797   3.650   2.058
 6169SOL     OW19405   1.708   2.004   6.718
 6169SOL    HW119406   1.776   2.009   6.792
 6169SOL    HW219407   1.628   1.954   6.751
 6170SOL     OW19408   2.231   4.321   5.522
 6170SOL    HW119409   2.141   4.302   5.482
 6170SOL    HW219410   2.244   4.420   5.529
 6171SOL     OW19411   1.335   3.340   1.208
 6171SOL    HW119412   1.292   3.250   1.198
 6171SOL    HW219413   1.288   3.406   1.149
 6172SOL     OW19414   2.097   2.343   2.780
 6172SOL    HW119415   2.013   2.291   2.792
 6172SOL    HW219416   2.108   2.408   2.856
 6173SOL     OW19417   6.429   5.470   2.132
 6173SOL    HW119418   6.407   5.417   2.051
 6173SOL    HW219419   6.442   5.566   2.106
 6174SOL     OW19420   4.924   4.550   3.952
 6174SOL    HW119421   4.976   4.466   3.963
 6174SOL    HW219422   4.886   4.579   4.040
 6175SOL     OW19423   4.865   0.461   3.576
 6175SOL    HW119424   4.799   0.531   3.547
 6175SOL    HW219425   4.827   0.370   3.557
 6176SOL     OW19426   5.075   3.710   6.732
 6176SOL    HW119427   5.122   3.713   6.644
 6176SOL    HW219428   5.058   3.803   6.764
 6177SOL     OW19429   5.247   0.916   1.302
 6177SOL    HW119430   5.309   0.897   1.378
 6177SOL    HW219431   5.184   0.839   1.290
 6178SOL     OW19432   5.002   4.707   3.000
 6178SOL    HW119433   5.036   4.614   3.008
 6178SOL    HW219434   5.045   4.752   2.923
 6179SOL     OW19435   0.195   5.027   3.927
 6179SOL    HW119436   0.289   5.060   3.930
 6179SOL    HW219437   0.153   5.052   3.839
 6180SOL     OW19438   3.640   4.327   6.948
 6180SOL    HW119439   3.712   4.393   6.971
 6180SOL    HW219440   3.651   4.245   7.003
 6181SOL     OW19441   3.769   6.958   0.709
 6181SOL    HW119442   3.669   6.947   0.704
 6181SOL    HW219443   3.796   0.017   0.657
 6182SOL     OW19444   5.455   2.824   5.016
 6182SOL    HW119445   5.416   2.734   5.038
 6182SOL    HW219446   5.446   2.841   4.918
 6183SOL     OW19447   2.108   1.751   3.499
 6183SOL    HW119448   2.079   1.675   3.441
 6183SOL    HW219449   2.033   1.817   3.506
 6184SOL     OW19450   1.920   6.512   6.305
 6184SOL    HW119451   1.952   6.461   6.225
 6184SOL    HW219452   1.876   6.597   6.275
 6185SOL     OW19453   0.444   4.119   6.282
 6185SOL    HW119454   0.453   4.201   6.338
 6185SOL    HW219455   0.531   4.068   6.283
 6186SOL     OW19456   0.098   6.814   5.996
 6186SOL    HW119457   0.025   6.881   5.985
 6186SOL    HW219458   0.067   6.725   5.961
 6187SOL     OW19459   4.772   4.779   3.145
 6187SOL    HW119460   4.860   4.779   3.098
 6187SOL    HW219461   4.787   4.780   3.244
 6188SOL     OW19462   2.426   0.243   1.124
 6188SOL    HW119463   2.346   0.272   1.072
 6188SOL    HW219464   2.504   0.302   1.102
 6189SOL     OW19465   5.058   4.157   3.495
 6189SOL    HW119466   5.099   4.087   3.436
 6189SOL    HW219467   5.078   4.248   3.457
 6190SOL     OW19468   0.553   4.009   5.620
 6190SOL    HW119469   0.575   3.937   5.554
 6190SOL    HW219470   0.528   4.093   5.571
 6191SOL     OW19471   3.298   1.735   0.161
 6191SOL    HW119472   3.284   1.790   0.243
 6191SOL    HW219473   3.257   1.782   0.082
 6192SOL     OW19474   3.764   2.415   6.420
 6192SOL    HW119475   3.753   2.318   6.440
 6192SOL    HW219476   3.861   2.439   6.423
 6193SOL     OW19477   5.274   1.038   2.320
 6193SOL    HW119478   5.264   0.945   2.357
 6193SOL    HW219479   5.248   1.104   2.390
 6194SOL     OW19480   1.621   0.311   1.440
 6194SOL    HW119481   1.650   0.407   1.433
 6194SOL    HW219482   1.526   0.303   1.411
 6195SOL     OW19483   4.423   6.106   5.784
 6195SOL    HW119484   4.494   6.126   5.851
 6195SOL    HW219485   4.333   6.111   5.829
 6196SOL     OW19486   5.619   2.615   1.774
 6196SOL    HW119487   5.654   2.668   1.697
 6196SOL    HW219488   5.638   2.664   1.860
 6197SOL     OW19489   4.334   4.581   0.580
 6197SOL    HW119490   4.266   4.570   0.508
 6197SOL    HW219491   4.300   4.541   0.665
 6198SOL     OW19492   3.693   6.468   2.158
 6198SOL    HW119493   3.751   6.446   2.236
 6198SOL    HW219494   3.607   6.509   2.191
 6199SOL     OW19495   1.174   1.013   0.280
 6199SOL    HW119496   1.170   0.986   0.184
 6199SOL    HW219497   1.264   1.052   0.300
 6200SOL     OW19498   1.523   1.352   5.460
 6200SOL    HW119499   1.434   1.338   5.416
 6200SOL    HW219500   1.555   1.445   5.442
 6201SOL     OW19501   1.120   3.417   5.233
 6201SOL    HW119502   1.046   3.482   5.243
 6201SOL    HW219503   1.182   3.424   5.312
 6202SOL     OW19504   3.801   1.604   2.545
 6202SOL    HW119505   3.870   1.544   2.585
 6202SOL    HW219506   3.762   1.561   2.464
 6203SOL     OW19507   6.817   6.870   3.002
 6203SOL    HW119508   6.792   6.930   2.926
 6203SOL    HW219509   6.740   6.864   3.066
 6204SOL     OW19510   0.672   4.907   4.556
 6204SOL    HW119511   0.582   4.936   4.590
 6204SOL    HW219512   0.667   4.891   4.458
 6205SOL     OW19513   6.281   6.521   0.736
 6205SOL    HW119514   6.284   6.452   0.663
 6205SOL    HW219515   6.285   6.612   0.695
 6206SOL     OW19516   6.808   1.495   3.682
 6206SOL    HW119517   6.882   1.524   3.621
 6206SOL    HW219518   6.793   1.566   3.751
 6207SOL     OW19519   1.781   4.975   5.021
 6207SOL    HW119520   1.713   4.914   4.979
 6207SOL    HW219521   1.738   5.026   5.096
 6208SOL     OW19522   5.689   1.930   5.861
 6208SOL    HW119523   5.707   1.920   5.959
 6208SOL    HW219524   5.682   2.027   5.838
 6209SOL     OW19525   4.522   5.519   0.012
 6209SOL    HW119526   4.594   5.586   0.033
 6209SOL    HW219527   4.560   5.445   6.978
 6210SOL     OW19528   5.248   3.486   3.044
 6210SOL    HW119529   5.322   3.443   2.993
 6210SOL    HW219530   5.182   3.416   3.072
 6211SOL     OW19531   3.300   6.485   5.601
 6211SOL    HW119532   3.250   6.432   5.670
 6211SOL    HW219533   3.243   6.559   5.568
 6212SOL     OW19534   2.117   5.464   3.976
 6212SOL    HW119535   2.122   5.447   4.074
 6212SOL    HW219536   2.043   5.529   3.957
 6213SOL     OW19537   5.682   0.318   0.573
 6213SOL    HW119538   5.633   0.236   0.604
 6213SOL    HW219539   5.773   0.292   0.541
 6214SOL     OW19540   5.157   4.851   4.318
 6214SOL    HW119541   5.088   4.794   4.272
 6214SOL    HW219542   5.148   4.945   4.286
 6215SOL     OW19543   4.024   1.246   0.368
 6215SOL    HW119544   4.074   1.333   0.373
 6215SOL    HW219545   4.025   1.202   0.458
 6216SOL     OW19546   6.423   1.374   2.074
 6216SOL    HW119547   6.468   1.289   2.102
 6216SOL    HW219548   6.369   1.409   2.150
 6217SOL     OW19549   0.565   4.017   2.825
 6217SOL    HW119550   0.533   3.923   2.836
 6217SOL    HW219551   0.600   4.050   2.913
 6218SOL     OW19552   3.992   5.785   6.688
 6218SOL    HW119553   3.977   5.701   6.740
 6218SOL    HW219554   3.906   5.813   6.645
 6219SOL     OW19555   1.123   2.669   4.562
 6219SOL    HW119556   1.169   2.711   4.640
 6219SOL    HW219557   1.116   2.571   4.575
 6220SOL     OW19558   1.987   1.589   5.140
 6220SOL    HW119559   2.055   1.648   5.183
 6220SOL    HW219560   1.959   1.518   5.204
 6221SOL     OW19561   5.985   6.002   6.466
 6221SOL    HW119562   6.048   6.069   6.505
 6221SOL    HW219563   6.033   5.916   6.449
 6222SOL     OW19564   1.282   6.691   1.499
 6222SOL    HW119565   1.379   6.709   1.479
 6222SOL    HW219566   1.252   6.610   1.450
 6223SOL     OW19567   1.016   5.406   4.196
 6223SOL    HW119568   1.047   5.424   4.103
 6223SOL    HW219569   1.033   5.310   4.220
 6224SOL     OW19570   2.593   1.552   5.983
 6224SOL    HW119571   2.508   1.536   5.933
 6224SOL    HW219572   2.575   1.610   6.062
 6225SOL     OW19573   4.219   3.830   6.892
 6225SOL    HW119574   4.267   3.873   6.815
 6225SOL    HW219575   4.216   3.893   6.969
 6226SOL     OW19576   0.028   1.669   5.416
 6226SOL    HW119577   7.009   1.753   5.378
 6226SOL    HW219578   0.101   1.637   5.356
 6227SOL     OW19579   3.305   5.752   5.182
 6227SOL    HW119580   3.384   5.710   5.226
 6227SOL    HW219581   3.229   5.687   5.182
 6228SOL     OW19582   1.360   2.630   2.631
 6228SOL    HW119583   1.332   2.685   2.553
 6228SOL    HW219584   1.320   2.666   2.715
 6229SOL     OW19585   0.444   2.314   3.036
 6229SOL    HW119586   0.504   2.332   3.115
 6229SOL    HW219587   0.468   2.225   2.996
 6230SOL     OW19588   0.631   1.739   3.741
 6230SOL    HW119589   0.653   1.800   3.817
 6230SOL    HW219590   0.692   1.758   3.664
 6231SOL     OW19591   6.415   6.031   1.042
 6231SOL    HW119592   6.444   6.044   1.137
 6231SOL    HW219593   6.494   6.005   0.986
 6232SOL     OW19594   0.110   0.755   0.835
 6232SOL    HW119595   0.075   0.761   0.742
 6232SOL    HW219596   0.034   0.766   0.900
 6233SOL     OW19597   6.994   1.224   1.411
 6233SOL    HW119598   0.017   1.135   1.401
 6233SOL    HW219599   0.034   1.286   1.460
 6234SOL     OW19600   6.642   1.646   5.558
 6234SOL    HW119601   6.691   1.625   5.473
 6234SOL    HW219602   6.545   1.661   5.537
 6235SOL     OW19603   1.295   6.859   1.114
 6235SOL    HW119604   1.392   6.858   1.139
 6235SOL    HW219605   1.263   6.953   1.108
 6236SOL     OW19606   0.625   3.492   1.321
 6236SOL    HW119607   0.544   3.478   1.264
 6236SOL    HW219608   0.678   3.568   1.285
 6237SOL     OW19609   3.058   0.532   6.521
 6237SOL    HW119610   3.112   0.525   6.437
 6237SOL    HW219611   3.015   0.444   6.541
 6238SOL     OW19612   3.863   4.832   2.690
 6238SOL    HW119613   3.950   4.796   2.657
 6238SOL    HW219614   3.880   4.891   2.769
 6239SOL     OW19615   2.714   0.240   2.115
 6239SOL    HW119616   2.637   0.195   2.159
 6239SOL    HW219617   2.689   0.265   2.021
 6240SOL     OW19618   1.775   3.308   5.491
 6240SOL    HW119619   1.840   3.380   5.464
 6240SOL    HW219620   1.818   3.219   5.480
 6241SOL     OW19621   3.619   0.035   1.502
 6241SOL    HW119622   3.549   0.028   1.573
 6241SOL    HW219623   3.580   0.078   1.420
 6242SOL     OW19624   4.530   0.431   4.061
 6242SOL    HW119625   4.592   0.426   4.139
 6242SOL    HW219626   4.536   0.521   4.019
 6243SOL     OW19627   6.180   6.203   4.577
 6243SOL    HW119628   6.111   6.226   4.646
 6243SOL    HW219629   6.134   6.175   4.493
 6244SOL     OW19630   6.933   2.247   2.025
 6244SOL    HW119631   6.875   2.322   2.056
 6244SOL    HW219632   6.990   2.215   2.100
 6245SOL     OW19633   1.263   4.336   0.508
 6245SOL    HW119634   1.250   4.273   0.432
 6245SOL    HW219635   1.275   4.284   0.593
 6246SOL     OW19636   1.916   1.857   5.485
 6246SOL    HW119637   1.898   1.805   5.401
 6246SOL    HW219638   1.939   1.951   5.462
 6247SOL     OW19639   6.962   6.038   4.869
 6247SOL    HW119640   0.010   5.989   4.922
 6247SOL    HW219641   7.000   6.062   4.779
 6248SOL     OW19642   3.416   3.340   0.726
 6248SOL    HW119643   3.392   3.401   0.801
 6248SOL    HW219644   3.486   3.383   0.669
 6249SOL     OW19645   0.442   3.814   0.555
 6249SOL    HW119646   0.377   3.738   0.556
 6249SOL    HW219647   0.511   3.801   0.626
 6250SOL     OW19648   6.734   0.265   6.718
 6250SOL    HW119649   6.660   0.310   6.769
 6250SOL    HW219650   6.803   0.332   6.692
 6251SOL     OW19651   4.340   5.761   6.350
 6251SOL    HW119652   4.439   5.754   6.362
 6251SOL    HW219653   4.301   5.810   6.427
 6252SOL     OW19654   1.911   6.096   5.538
 6252SOL    HW119655   1.824   6.049   5.554
 6252SOL    HW219656   1.936   6.148   5.619
 6253SOL     OW19657   2.288   4.392   3.662
 6253SOL    HW119658   2.342   4.466   3.622
 6253SOL    HW219659   2.343   4.343   3.730
 6254SOL     OW19660   5.327   1.331   1.296
 6254SOL    HW119661   5.406   1.282   1.258
 6254SOL    HW219662   5.259   1.345   1.224
 6255SOL     OW19663   3.174   0.569   1.088
 6255SOL    HW119664   3.222   0.647   1.128
 6255SOL    HW219665   3.080   0.596   1.066
 6256SOL     OW19666   3.562   5.394   1.836
 6256SOL    HW119667   3.497   5.355   1.901
 6256SOL    HW219668   3.607   5.473   1.877
 6257SOL     OW19669   5.010   2.050   1.064
 6257SOL    HW119670   4.919   2.079   1.091
 6257SOL    HW219671   5.014   1.950   1.058
 6258SOL     OW19672   3.340   0.541   3.749
 6258SOL    HW119673   3.346   0.442   3.759
 6258SOL    HW219674   3.295   0.563   3.662
 6259SOL     OW19675   1.726   2.286   7.007
 6259SOL    HW119676   1.785   2.223   6.957
 6259SOL    HW219677   1.774   2.371   0.004
 6260SOL     OW19678   3.660   5.541   0.114
 6260SOL    HW119679   3.600   5.605   0.161
 6260SOL    HW219680   3.754   5.574   0.117
 6261SOL     OW19681   3.708   0.941   6.875
 6261SOL    HW119682   3.783   0.993   6.915
 6261SOL    HW219683   3.623   0.993   6.883
 6262SOL     OW19684   2.689   6.291   1.649
 6262SOL    HW119685   2.623   6.247   1.588
 6262SOL    HW219686   2.645   6.366   1.697
 6263SOL     OW19687   0.049   1.234   5.417
 6263SOL    HW119688   6.988   1.290   5.430
 6263SOL    HW219689   0.081   1.201   5.506
 6264SOL     OW19690   1.712   0.263   1.840
 6264SOL    HW119691   1.701   0.204   1.920
 6264SOL    HW219692   1.711   0.206   1.757
 6265SOL     OW19693   3.797   3.429   0.272
 6265SOL    HW119694   3.889   3.401   0.243
 6265SOL    HW219695   3.734   3.352   0.264
 6266SOL     OW19696   3.960   0.630   4.530
 6266SOL    HW119697   3.979   0.665   4.438
 6266SOL    HW219698   3.863   0.644   4.551
 6267SOL     OW19699   2.082   6.878   6.249
 6267SOL    HW119700   2.117   6.804   6.306
 6267SOL    HW219701   2.039   6.948   6.306
 6268SOL     OW19702   2.399   0.300   3.364
 6268SOL    HW119703   2.435   0.391   3.387
 6268SOL    HW219704   2.323   0.310   3.300
 6269SOL     OW19705   0.188   6.755   1.672
 6269SOL    HW119706   0.157   6.827   1.610
 6269SOL    HW219707   0.271   6.714   1.636
 6270SOL     OW19708   1.673   0.017   6.018
 6270SOL    HW119709   1.601   6.970   6.004
 6270SOL    HW219710   1.762   6.992   6.016
 6271SOL     OW19711   6.743   2.489   6.560
 6271SOL    HW119712   6.814   2.547   6.601
 6271SOL    HW219713   6.728   2.518   6.465
 6272SOL     OW19714   0.188   2.938   0.155
 6272SOL    HW119715   0.215   3.019   0.103
 6272SOL    HW219716   0.261   2.913   0.218
 6273SOL     OW19717   1.081   6.446   2.482
 6273SOL    HW119718   1.079   6.441   2.382
 6273SOL    HW219719   1.099   6.355   2.519
 6274SOL     OW19720   3.343   5.518   5.946
 6274SOL    HW119721   3.349   5.613   5.915
 6274SOL    HW219722   3.382   5.511   6.038
 6275SOL     OW19723   2.588   6.099   6.478
 6275SOL    HW119724   2.501   6.073   6.520
 6275SOL    HW219725   2.574   6.115   6.380
 6276SOL     OW19726   1.344   4.434   3.795
 6276SOL    HW119727   1.290   4.369   3.849
 6276SOL    HW219728   1.420   4.386   3.752
 6277SOL     OW19729   5.387   3.767   1.940
 6277SOL    HW119730   5.351   3.685   1.894
 6277SOL    HW219731   5.312   3.815   1.986
 6278SOL     OW19732   4.989   6.481   4.669
 6278SOL    HW119733   4.892   6.496   4.691
 6278SOL    HW219734   5.012   6.532   4.586
 6279SOL     OW19735   3.816   6.664   6.782
 6279SOL    HW119736   3.752   6.739   6.801
 6279SOL    HW219737   3.871   6.686   6.702
 6280SOL     OW19738   1.013   2.244   4.851
 6280SOL    HW119739   1.022   2.144   4.850
 6280SOL    HW219740   0.923   2.268   4.886
 6281SOL     OW19741   0.552   5.156   4.200
 6281SOL    HW119742   0.627   5.090   4.197
 6281SOL    HW219743   0.470   5.110   4.234
 6282SOL     OW19744   0.848   5.893   5.356
 6282SOL    HW119745   0.762   5.911   5.404
 6282SOL    HW219746   0.924   5.934   5.407
 6283SOL     OW19747   6.332   3.151   5.213
 6283SOL    HW119748   6.339   3.052   5.200
 6283SOL    HW219749   6.421   3.187   5.240
 6284SOL     OW19750   1.103   5.533   5.064
 6284SOL    HW119751   1.008   5.548   5.090
 6284SOL    HW219752   1.162   5.587   5.123
 6285SOL     OW19753   0.204   4.195   4.789
 6285SOL    HW119754   0.184   4.102   4.760
 6285SOL    HW219755   0.148   4.217   4.869
 6286SOL     OW19756   5.804   1.727   3.790
 6286SOL    HW119757   5.885   1.767   3.832
 6286SOL    HW219758   5.724   1.782   3.813
 6287SOL     OW19759   3.607   4.923   4.676
 6287SOL    HW119760   3.596   4.889   4.769
 6287SOL    HW219761   3.702   4.910   4.647
 6288SOL     OW19762   5.147   4.387   2.682
 6288SOL    HW119763   5.177   4.293   2.671
 6288SOL    HW219764   5.182   4.443   2.607
 6289SOL     OW19765   1.560   4.952   1.065
 6289SOL    HW119766   1.511   5.037   1.048
 6289SOL    HW219767   1.605   4.922   0.981
 6290SOL     OW19768   6.254   5.123   5.726
 6290SOL    HW119769   6.283   5.104   5.820
 6290SOL    HW219770   6.177   5.063   5.703
 6291SOL     OW19771   4.168   3.544   4.340
 6291SOL    HW119772   4.131   3.469   4.284
 6291SOL    HW219773   4.151   3.524   4.437
 6292SOL     OW19774   1.168   2.271   4.522
 6292SOL    HW119775   1.194   2.302   4.431
 6292SOL    HW219776   1.143   2.350   4.578
 6293SOL     OW19777   3.288   0.719   0.574
 6293SOL    HW119778   3.247   0.761   0.493
 6293SOL    HW219779   3.219   0.714   0.647
 6294SOL     OW19780   3.525   6.499   3.886
 6294SOL    HW119781   3.491   6.408   3.862
 6294SOL    HW219782   3.457   6.547   3.940
 6295SOL     OW19783   5.499   4.813   6.245
 6295SOL    HW119784   5.403   4.791   6.228
 6295SOL    HW219785   5.556   4.768   6.176
 6296SOL     OW19786   0.784   6.384   6.052
 6296SOL    HW119787   0.780   6.466   6.110
 6296SOL    HW219788   0.878   6.370   6.021
 6297SOL     OW19789   5.816   0.825   4.000
 6297SOL    HW119790   5.755   0.880   3.943
 6297SOL    HW219791   5.896   0.879   4.026
 6298SOL     OW19792   1.921   2.818   0.411
 6298SOL    HW119793   1.866   2.784   0.335
 6298SOL    HW219794   1.904   2.916   0.423
 6299SOL     OW19795   5.793   2.083   0.661
 6299SOL    HW119796   5.859   2.106   0.733
 6299SOL    HW219797   5.840   2.075   0.574
 6300SOL     OW19798   6.401   0.728   0.453
 6300SOL    HW119799   6.341   0.701   0.529
 6300SOL    HW219800   6.364   0.809   0.408
 6301SOL     OW19801   3.908   6.835   0.218
 6301SOL    HW119802   3.821   6.884   0.219
 6301SOL    HW219803   3.891   6.738   0.200
 6302SOL     OW19804   1.660   0.747   3.199
 6302SOL    HW119805   1.722   0.690   3.252
 6302SOL    HW219806   1.605   0.803   3.261
 6303SOL     OW19807   2.143   1.391   3.712
 6303SOL    HW119808   2.123   1.293   3.710
 6303SOL    HW219809   2.059   1.441   3.735
 6304SOL     OW19810   2.300   0.730   1.339
 6304SOL    HW119811   2.233   0.676   1.389
 6304SOL    HW219812   2.312   0.692   1.248
 6305SOL     OW19813   6.352   6.925   1.118
 6305SOL    HW119814   6.272   6.867   1.134
 6305SOL    HW219815   6.424   6.903   1.183
 6306SOL     OW19816   0.860   4.293   4.032
 6306SOL    HW119817   0.880   4.274   4.128
 6306SOL    HW219818   0.764   4.323   4.024
 6307SOL     OW19819   3.493   4.034   5.151
 6307SOL    HW119820   3.417   4.088   5.115
 6307SOL    HW219821   3.514   4.064   5.244
 6308SOL     OW19822   2.371   2.179   4.274
 6308SOL    HW119823   2.349   2.262   4.223
 6308SOL    HW219824   2.441   2.128   4.225
 6309SOL     OW19825   6.022   4.418   5.323
 6309SOL    HW119826   5.993   4.401   5.417
 6309SOL    HW219827   6.031   4.331   5.274
 6310SOL     OW19828   2.049   6.184   2.564
 6310SOL    HW119829   2.144   6.157   2.578
 6310SOL    HW219830   2.045   6.272   2.517
 6311SOL     OW19831   5.041   1.074   5.972
 6311SOL    HW119832   4.946   1.102   5.959
 6311SOL    HW219833   5.064   1.002   5.906
 6312SOL     OW19834   6.397   5.426   5.276
 6312SOL    HW119835   6.392   5.521   5.308
 6312SOL    HW219836   6.490   5.407   5.244
 6313SOL     OW19837   6.849   5.952   5.096
 6313SOL    HW119838   6.790   6.013   5.149
 6313SOL    HW219839   6.866   5.992   5.006
 6314SOL     OW19840   3.880   6.900   1.451
 6314SOL    HW119841   3.898   6.950   1.536
 6314SOL    HW219842   3.782   6.903   1.431
 6315SOL     OW19843   2.132   2.550   5.630
 6315SOL    HW119844   2.054   2.611   5.643
 6315SOL    HW219845   2.207   2.578   5.689
 6316SOL     OW19846   5.072   1.893   0.422
 6316SOL    HW119847   5.115   1.820   0.369
 6316SOL    HW219848   4.974   1.875   0.432
 6317SOL     OW19849   4.354   5.157   1.774
 6317SOL    HW119850   4.288   5.088   1.805
 6317SOL    HW219851   4.407   5.120   1.698
 6318SOL     OW19852   3.688   1.334   5.875
 6318SOL    HW119853   3.726   1.348   5.783
 6318SOL    HW219854   3.657   1.421   5.912
 6319SOL     OW19855   6.408   1.628   4.751
 6319SOL    HW119856   6.444   1.595   4.664
 6319SOL    HW219857   6.324   1.579   4.773
 6320SOL     OW19858   6.147   6.334   5.264
 6320SOL    HW119859   6.118   6.418   5.310
 6320SOL    HW219860   6.245   6.338   5.245
 6321SOL     OW19861   3.756   3.271   0.806
 6321SOL    HW119862   3.826   3.210   0.840
 6321SOL    HW219863   3.799   3.353   0.767
 6322SOL     OW19864   1.985   2.319   0.494
 6322SOL    HW119865   1.894   2.361   0.489
 6322SOL    HW219866   1.975   2.222   0.514
 6323SOL     OW19867   3.237   2.843   1.952
 6323SOL    HW119868   3.189   2.773   2.005
 6323SOL    HW219869   3.269   2.802   1.866
 6324SOL     OW19870   5.581   0.378   0.051
 6324SOL    HW119871   5.547   0.317   7.000
 6324SOL    HW219872   5.525   0.369   0.133
 6325SOL     OW19873   1.870   2.118   2.756
 6325SOL    HW119874   1.938   2.067   2.808
 6325SOL    HW219875   1.834   2.061   2.683
 6326SOL     OW19876   4.802   5.129   1.735
 6326SOL    HW119877   4.882   5.171   1.778
 6326SOL    HW219878   4.721   5.184   1.754
 6327SOL     OW19879   6.853   0.734   5.087
 6327SOL    HW119880   6.797   0.658   5.122
 6327SOL    HW219881   6.845   0.738   4.987
 6328SOL     OW19882   3.222   3.217   0.296
 6328SOL    HW119883   3.269   3.262   0.372
 6328SOL    HW219884   3.202   3.283   0.224
 6329SOL     OW19885   2.308   2.202   3.163
 6329SOL    HW119886   2.400   2.185   3.198
 6329SOL    HW219887   2.291   2.142   3.084
 6330SOL     OW19888   4.922   0.674   1.026
 6330SOL    HW119889   4.879   0.585   1.035
 6330SOL    HW219890   4.868   0.732   0.965
 6331SOL     OW19891   6.398   2.853   5.246
 6331SOL    HW119892   6.481   2.831   5.194
 6331SOL    HW219893   6.392   2.792   5.325
 6332SOL     OW19894   0.259   3.387   0.870
 6332SOL    HW119895   0.215   3.364   0.957
 6332SOL    HW219896   0.224   3.476   0.838
 6333SOL     OW19897   4.217   5.534   5.044
 6333SOL    HW119898   4.248   5.457   4.988
 6333SOL    HW219899   4.256   5.619   5.008
 6334SOL     OW19900   2.884   0.515   2.397
 6334SOL    HW119901   2.821   0.586   2.366
 6334SOL    HW219902   2.899   0.525   2.496
 6335SOL     OW19903   3.405   0.530   0.436
 6335SOL    HW119904   3.373   0.601   0.499
 6335SOL    HW219905   3.349   0.448   0.446
 6336SOL     OW19906   0.686   2.602   5.894
 6336SOL    HW119907   0.635   2.538   5.951
 6336SOL    HW219908   0.756   2.553   5.843
 6337SOL     OW19909   4.929   4.842   5.973
 6337SOL    HW119910   4.854   4.826   6.038
 6337SOL    HW219911   4.983   4.920   6.003
 6338SOL     OW19912   3.114   1.747   4.284
 6338SOL    HW119913   3.133   1.711   4.193
 6338SOL    HW219914   3.199   1.777   4.327
 6339SOL     OW19915   0.794   3.562   3.520
 6339SOL    HW119916   0.700   3.581   3.550
 6339SOL    HW219917   0.852   3.641   3.540
 6340SOL     OW19918   2.112   5.272   2.478
 6340SOL    HW119919   2.124   5.371   2.470
 6340SOL    HW219920   2.036   5.253   2.541
 6341SOL     OW19921   0.441   4.319   4.571
 6341SOL    HW119922   0.498   4.303   4.652
 6341SOL    HW219923   0.345   4.319   4.598
 6342SOL     OW19924   1.731   0.993   2.033
 6342SOL    HW119925   1.814   1.048   2.044
 6342SOL    HW219926   1.747   0.902   2.072
 6343SOL     OW19927   4.786   2.256   6.933
 6343SOL    HW119928   4.818   2.179   6.879
 6343SOL    HW219929   4.785   2.231   0.009
 6344SOL     OW19930   5.106   2.615   4.067
 6344SOL    HW119931   5.164   2.534   4.055
 6344SOL    HW219932   5.164   2.693   4.089
 6345SOL     OW19933   6.280   2.744   2.318
 6345SOL    HW119934   6.278   2.828   2.264
 6345SOL    HW219935   6.260   2.666   2.259
 6346SOL     OW19936   6.560   5.419   4.195
 6346SOL    HW119937   6.523   5.447   4.106
 6346SOL    HW219938   6.589   5.323   4.191
 6347SOL     OW19939   2.163   0.008   0.550
 6347SOL    HW119940   2.162   0.057   0.637
 6347SOL    HW219941   2.170   6.930   0.568
 6348SOL     OW19942   1.048   3.658   5.654
 6348SOL    HW119943   0.955   3.681   5.680
 6348SOL    HW219944   1.076   3.574   5.701
 6349SOL     OW19945   2.116   0.573   1.468
 6349SOL    HW119946   2.033   0.525   1.442
 6349SOL    HW219947   2.194   0.510   1.463
 6350SOL     OW19948   0.680   5.611   3.987
 6350SOL    HW119949   0.639   5.521   4.001
 6350SOL    HW219950   0.609   5.681   3.993
 6351SOL     OW19951   6.425   3.976   4.151
 6351SOL    HW119952   6.397   4.058   4.200
 6351SOL    HW219953   6.383   3.975   4.060
 6352SOL     OW19954   3.633   5.853   4.914
 6352SOL    HW119955   3.713   5.902   4.879
 6352SOL    HW219956   3.577   5.916   4.968
 6353SOL     OW19957   0.846   6.653   6.215
 6353SOL    HW119958   0.792   6.702   6.147
 6353SOL    HW219959   0.853   6.707   6.298
 6354SOL     OW19960   2.179   5.936   2.820
 6354SOL    HW119961   2.270   5.899   2.839
 6354SOL    HW219962   2.115   5.902   2.889
 6355SOL     OW19963   0.869   5.528   0.062
 6355SOL    HW119964   0.875   5.563   0.155
 6355SOL    HW219965   0.777   5.544   0.026
 6356SOL     OW19966   4.854   5.991   1.988
 6356SOL    HW119967   4.849   6.088   1.962
 6356SOL    HW219968   4.920   5.944   1.929
 6357SOL     OW19969   6.030   3.918   2.498
 6357SOL    HW119970   6.073   4.004   2.526
 6357SOL    HW219971   6.062   3.843   2.556
 6358SOL     OW19972   0.978   2.528   6.144
 6358SOL    HW119973   0.942   2.589   6.215
 6358SOL    HW219974   1.065   2.490   6.174
 6359SOL     OW19975   5.781   6.909   6.706
 6359SOL    HW119976   5.710   6.840   6.693
 6359SOL    HW219977   5.747   6.998   6.676
 6360SOL     OW19978   1.506   4.466   3.988
 6360SOL    HW119979   1.434   4.503   3.930
 6360SOL    HW219980   1.532   4.375   3.956
 6361SOL     OW19981   1.224   6.816   1.741
 6361SOL    HW119982   1.237   6.766   1.655
 6361SOL    HW219983   1.191   6.753   1.811
 6362SOL     OW19984   6.648   6.407   7.016
 6362SOL    HW119985   6.666   6.312   6.991
 6362SOL    HW219986   6.716   6.466   6.972
 6363SOL     OW19987   1.720   5.074   3.470
 6363SOL    HW119988   1.762   5.148   3.522
 6363SOL    HW219989   1.647   5.111   3.413
 6364SOL     OW19990   2.982   1.284   5.821
 6364SOL    HW119991   3.003   1.215   5.752
 6364SOL    HW219992   2.883   1.289   5.834
 6365SOL     OW19993   5.731   0.428   3.850
 6365SOL    HW119994   5.640   0.463   3.830
 6365SOL    HW219995   5.753   0.446   3.946
 6366SOL     OW19996   1.130   6.178   6.215
 6366SOL    HW119997   1.218   6.152   6.255
 6366SOL    HW219998   1.114   6.275   6.228
 6367SOL     OW19999   4.059   1.215   4.996
 6367SOL    HW120000   4.072   1.231   5.094
 6367SOL    HW220001   3.978   1.264   4.964
 6368SOL     OW20002   3.789   5.134   3.920
 6368SOL    HW120003   3.849   5.058   3.944
 6368SOL    HW220004   3.818   5.217   3.969
 6369SOL     OW20005   2.334   5.577   3.792
 6369SOL    HW120006   2.341   5.668   3.750
 6369SOL    HW220007   2.250   5.572   3.846
 6370SOL     OW20008   6.831   3.036   3.856
 6370SOL    HW120009   6.858   3.126   3.821
 6370SOL    HW220010   6.731   3.034   3.868
 6371SOL     OW20011   5.012   4.450   3.534
 6371SOL    HW120012   4.969   4.375   3.584
 6371SOL    HW220013   5.099   4.473   3.578
 6372SOL     OW20014   1.965   0.396   2.128
 6372SOL    HW120015   1.976   0.297   2.121
 6372SOL    HW220016   1.891   0.426   2.069
 6373SOL     OW20017   4.847   4.146   2.270
 6373SOL    HW120018   4.816   4.201   2.193
 6373SOL    HW220019   4.769   4.122   2.328
 6374SOL     OW20020   3.340   4.107   3.077
 6374SOL    HW120021   3.414   4.097   3.011
 6374SOL    HW220022   3.252   4.107   3.029
 6375SOL     OW20023   6.914   1.966   3.840
 6375SOL    HW120024   6.821   2.000   3.827
 6375SOL    HW220025   6.924   1.931   3.933
 6376SOL     OW20026   5.774   2.000   4.982
 6376SOL    HW120027   5.686   1.995   4.935
 6376SOL    HW220028   5.845   1.963   4.922
 6377SOL     OW20029   7.013   1.938   5.542
 6377SOL    HW120030   6.948   1.975   5.475
 6377SOL    HW220031   7.007   1.838   5.542
 6378SOL     OW20032   4.419   5.157   4.223
 6378SOL    HW120033   4.430   5.066   4.183
 6378SOL    HW220034   4.484   5.169   4.298
 6379SOL     OW20035   1.507   3.762   4.527
 6379SOL    HW120036   1.497   3.862   4.529
 6379SOL    HW220037   1.417   3.720   4.532
 6380SOL     OW20038   0.388   1.642   5.575
 6380SOL    HW120039   0.374   1.691   5.489
 6380SOL    HW220040   0.387   1.544   5.558
 6381SOL     OW20041   4.108   3.054   1.634
 6381SOL    HW120042   4.183   3.114   1.661
 6381SOL    HW220043   4.144   2.966   1.605
 6382SOL     OW20044   2.427   2.253   1.176
 6382SOL    HW120045   2.517   2.297   1.170
 6382SOL    HW220046   2.381   2.259   1.087
 6383SOL     OW20047   1.585   1.981   2.845
 6383SOL    HW120048   1.530   2.017   2.770
 6383SOL    HW220049   1.622   1.892   2.819
 6384SOL     OW20050   6.610   4.311   2.076
 6384SOL    HW120051   6.617   4.374   1.998
 6384SOL    HW220052   6.701   4.298   2.115
 6385SOL     OW20053   0.570   4.355   3.954
 6385SOL    HW120054   0.520   4.410   4.021
 6385SOL    HW220055   0.544   4.259   3.963
 6386SOL     OW20056   2.928   4.934   5.979
 6386SOL    HW120057   2.946   4.858   6.040
 6386SOL    HW220058   2.838   4.974   6.000
 6387SOL     OW20059   0.244   1.599   6.465
 6387SOL    HW120060   0.269   1.590   6.561
 6387SOL    HW220061   0.326   1.590   6.408
 6388SOL     OW20062   3.843   5.811   1.803
 6388SOL    HW120063   3.927   5.810   1.749
 6388SOL    HW220064   3.804   5.903   1.803
 6389SOL     OW20065   0.500   6.033   2.388
 6389SOL    HW120066   0.523   5.958   2.325
 6389SOL    HW220067   0.496   5.998   2.481
 6390SOL     OW20068   0.885   1.017   5.834
 6390SOL    HW120069   0.810   0.953   5.816
 6390SOL    HW220070   0.850   1.111   5.832
 6391SOL     OW20071   2.900   6.992   5.813
 6391SOL    HW120072   2.852   7.015   5.728
 6391SOL    HW220073   2.833   6.975   5.886
 6392SOL     OW20074   2.620   5.560   2.707
 6392SOL    HW120075   2.586   5.487   2.766
 6392SOL    HW220076   2.701   5.529   2.658
 6393SOL     OW20077   6.870   6.905   2.140
 6393SOL    HW120078   6.963   6.910   2.178
 6393SOL    HW220079   6.875   6.882   2.043
 6394SOL     OW20080   1.644   5.045   0.589
 6394SOL    HW120081   1.568   5.068   0.649
 6394SOL    HW220082   1.705   4.980   0.635
 6395SOL     OW20083   0.480   2.247   0.687
 6395SOL    HW120084   0.520   2.334   0.655
 6395SOL    HW220085   0.486   2.242   0.786
 6396SOL     OW20086   4.923   3.064   6.486
 6396SOL    HW120087   4.879   3.147   6.521
 6396SOL    HW220088   4.981   3.088   6.408
 6397SOL     OW20089   5.407   1.832   0.493
 6397SOL    HW120090   5.398   1.739   0.529
 6397SOL    HW220091   5.338   1.891   0.534
 6398SOL     OW20092   2.341   6.835   1.910
 6398SOL    HW120093   2.405   6.850   1.835
 6398SOL    HW220094   2.325   6.737   1.922
 6399SOL     OW20095   1.810   6.555   6.564
 6399SOL    HW120096   1.856   6.540   6.476
 6399SOL    HW220097   1.877   6.586   6.631
 6400SOL     OW20098   2.751   6.001   2.123
 6400SOL    HW120099   2.848   5.983   2.106
 6400SOL    HW220100   2.741   6.045   2.213
 6401SOL     OW20101   5.821   5.046   3.435
 6401SOL    HW120102   5.858   5.106   3.364
 6401SOL    HW220103   5.896   5.001   3.484
 6402SOL     OW20104   3.057   1.932   3.209
 6402SOL    HW120105   3.096   1.981   3.131
 6402SOL    HW220106   3.131   1.896   3.266
 6403SOL     OW20107   0.001   6.044   6.827
 6403SOL    HW120108   0.022   5.977   6.898
 6403SOL    HW220109   6.994   5.996   6.744
 6404SOL     OW20110   4.254   1.038   1.959
 6404SOL    HW120111   4.160   1.068   1.979
 6404SOL    HW220112   4.311   1.118   1.943
 6405SOL     OW20113   2.684   0.467   4.027
 6405SOL    HW120114   2.723   0.389   3.979
 6405SOL    HW220115   2.751   0.541   4.032
 6406SOL     OW20116   0.590   3.107   2.837
 6406SOL    HW120117   0.571   3.011   2.817
 6406SOL    HW220118   0.675   3.134   2.793
 6407SOL     OW20119   2.628   6.115   4.436
 6407SOL    HW120120   2.535   6.124   4.400
 6407SOL    HW220121   2.661   6.204   4.468
 6408SOL     OW20122   5.304   1.677   6.606
 6408SOL    HW120123   5.246   1.615   6.660
 6408SOL    HW220124   5.320   1.760   6.659
 6409SOL     OW20125   6.737   4.656   3.931
 6409SOL    HW120126   6.639   4.646   3.942
 6409SOL    HW220127   6.785   4.590   3.989
 6410SOL     OW20128   1.824   1.309   6.972
 6410SOL    HW120129   1.869   1.221   6.955
 6410SOL    HW220130   1.785   1.344   6.887
 6411SOL     OW20131   1.000   3.038   3.220
 6411SOL    HW120132   0.917   2.985   3.202
 6411SOL    HW220133   1.021   3.034   3.318
 6412SOL     OW20134   0.755   2.340   4.940
 6412SOL    HW120135   0.729   2.288   4.858
 6412SOL    HW220136   0.692   2.416   4.952
 6413SOL     OW20137   4.070   4.941   3.880
 6413SOL    HW120138   3.999   4.921   3.947
 6413SOL    HW220139   4.135   5.006   3.919
 6414SOL     OW20140   5.318   1.177   0.855
 6414SOL    HW120141   5.274   1.178   0.765
 6414SOL    HW220142   5.417   1.165   0.843
 6415SOL     OW20143   1.541   3.400   2.973
 6415SOL    HW120144   1.557   3.497   2.987
 6415SOL    HW220145   1.463   3.370   3.027
 6416SOL     OW20146   0.680   1.452   6.843
 6416SOL    HW120147   0.763   1.396   6.840
 6416SOL    HW220148   0.662   1.478   6.938
 6417SOL     OW20149   6.449   5.143   0.999
 6417SOL    HW120150   6.368   5.130   0.942
 6417SOL    HW220151   6.476   5.240   0.996
 6418SOL     OW20152   4.950   3.942   1.884
 6418SOL    HW120153   5.018   3.964   1.814
 6418SOL    HW220154   4.862   3.921   1.840
 6419SOL     OW20155   2.319   4.812   3.174
 6419SOL    HW120156   2.232   4.765   3.159
 6419SOL    HW220157   2.341   4.868   3.094
 6420SOL     OW20158   3.234   5.441   4.655
 6420SOL    HW120159   3.202   5.353   4.621
 6420SOL    HW220160   3.216   5.512   4.587
 6421SOL     OW20161   5.212   0.298   2.470
 6421SOL    HW120162   5.271   0.375   2.445
 6421SOL    HW220163   5.260   0.238   2.534
 6422SOL     OW20164   0.337   0.748   4.473
 6422SOL    HW120165   0.248   0.759   4.427
 6422SOL    HW220166   0.409   0.740   4.404
 6423SOL     OW20167   4.732   5.446   2.981
 6423SOL    HW120168   4.808   5.387   2.954
 6423SOL    HW220169   4.690   5.486   2.900
 6424SOL     OW20170   6.944   5.812   6.045
 6424SOL    HW120171   6.938   5.832   5.947
 6424SOL    HW220172   6.938   5.713   6.060
 6425SOL     OW20173   6.487   6.655   2.601
 6425SOL    HW120174   6.532   6.570   2.630
 6425SOL    HW220175   6.400   6.633   2.557
 6426SOL     OW20176   1.282   5.121   2.469
 6426SOL    HW120177   1.318   5.126   2.562
 6426SOL    HW220178   1.313   5.036   2.426
 6427SOL     OW20179   3.453   3.408   4.621
 6427SOL    HW120180   3.488   3.333   4.566
 6427SOL    HW220181   3.353   3.400   4.628
 6428SOL     OW20182   5.746   3.488   6.281
 6428SOL    HW120183   5.714   3.564   6.338
 6428SOL    HW220184   5.826   3.516   6.229
 6429SOL     OW20185   1.822   1.971   5.726
 6429SOL    HW120186   1.822   1.909   5.804
 6429SOL    HW220187   1.878   1.933   5.653
 6430SOL     OW20188   6.573   0.906   2.701
 6430SOL    HW120189   6.581   0.956   2.615
 6430SOL    HW220190   6.491   0.849   2.698
 6431SOL     OW20191   5.540   6.626   3.978
 6431SOL    HW120192   5.607   6.674   4.034
 6431SOL    HW220193   5.585   6.554   3.925
 6432SOL     OW20194   4.394   4.240   6.506
 6432SOL    HW120195   4.458   4.294   6.451
 6432SOL    HW220196   4.314   4.217   6.451
 6433SOL     OW20197   2.403   4.757   6.533
 6433SOL    HW120198   2.432   4.666   6.502
 6433SOL    HW220199   2.396   4.757   6.633
 6434SOL     OW20200   2.419   4.213   6.832
 6434SOL    HW120201   2.344   4.197   6.897
 6434SOL    HW220202   2.488   4.271   6.875
 6435SOL     OW20203   4.584   6.907   0.404
 6435SOL    HW120204   4.684   6.910   0.400
 6435SOL    HW220205   4.551   6.980   0.463
 6436SOL     OW20206   2.097   3.197   3.030
 6436SOL    HW120207   2.047   3.132   2.974
 6436SOL    HW220208   2.159   3.250   2.973
 6437SOL     OW20209   2.249   1.703   0.352
 6437SOL    HW120210   2.331   1.735   0.400
 6437SOL    HW220211   2.214   1.621   0.397
 6438SOL     OW20212   6.389   4.635   6.412
 6438SOL    HW120213   6.409   4.544   6.446
 6438SOL    HW220214   6.412   4.703   6.481
 6439SOL     OW20215   5.610   0.920   1.600
 6439SOL    HW120216   5.673   0.867   1.658
 6439SOL    HW220217   5.554   0.980   1.657
 6440SOL     OW20218   2.194   1.059   5.705
 6440SOL    HW120219   2.289   1.082   5.727
 6440SOL    HW220220   2.138   1.142   5.708
 6441SOL     OW20221   6.800   6.740   2.342
 6441SOL    HW120222   6.799   6.782   2.433
 6441SOL    HW220223   6.831   6.807   2.275
 6442SOL     OW20224   1.992   0.764   4.462
 6442SOL    HW120225   1.926   0.799   4.396
 6442SOL    HW220226   2.026   0.675   4.430
 6443SOL     OW20227   3.954   2.065   5.779
 6443SOL    HW120228   3.977   1.970   5.801
 6443SOL    HW220229   3.943   2.118   5.863
 6444SOL     OW20230   5.854   2.665   4.132
 6444SOL    HW120231   5.880   2.755   4.098
 6444SOL    HW220232   5.903   2.646   4.217
 6445SOL     OW20233   4.151   3.481   4.877
 6445SOL    HW120234   4.090   3.547   4.921
 6445SOL    HW220235   4.211   3.439   4.946
 6446SOL     OW20236   1.400   1.342   6.375
 6446SOL    HW120237   1.476   1.404   6.358
 6446SOL    HW220238   1.412   1.258   6.322
 6447SOL     OW20239   5.435   5.152   3.095
 6447SOL    HW120240   5.505   5.080   3.100
 6447SOL    HW220241   5.344   5.111   3.104
 6448SOL     OW20242   4.007   5.464   2.114
 6448SOL    HW120243   4.075   5.441   2.044
 6448SOL    HW220244   3.939   5.526   2.076
 6449SOL     OW20245   3.447   4.972   0.640
 6449SOL    HW120246   3.484   4.930   0.557
 6449SOL    HW220247   3.365   5.023   0.618
 6450SOL     OW20248   0.733   3.888   1.299
 6450SOL    HW120249   0.721   3.943   1.217
 6450SOL    HW220250   0.817   3.917   1.346
 6451SOL     OW20251   2.326   0.546   4.739
 6451SOL    HW120252   2.281   0.463   4.706
 6451SOL    HW220253   2.264   0.596   4.800
 6452SOL     OW20254   4.080   6.021   4.331
 6452SOL    HW120255   4.119   6.041   4.420
 6452SOL    HW220256   4.145   6.047   4.259
 6453SOL     OW20257   2.339   6.338   1.179
 6453SOL    HW120258   2.401   6.349   1.102
 6453SOL    HW220259   2.314   6.241   1.187
 6454SOL     OW20260   2.062   1.938   3.261
 6454SOL    HW120261   2.038   1.985   3.346
 6454SOL    HW220262   2.006   1.973   3.186
 6455SOL     OW20263   0.193   2.904   3.728
 6455SOL    HW120264   0.183   2.967   3.651
 6455SOL    HW220265   0.103   2.881   3.765
 6456SOL     OW20266   0.898   1.111   3.695
 6456SOL    HW120267   0.811   1.097   3.647
 6456SOL    HW220268   0.907   1.044   3.768
 6457SOL     OW20269   4.712   1.769   0.760
 6457SOL    HW120270   4.650   1.841   0.728
 6457SOL    HW220271   4.693   1.749   0.856
 6458SOL     OW20272   0.903   6.618   4.014
 6458SOL    HW120273   0.828   6.625   3.947
 6458SOL    HW220274   0.965   6.695   4.002
 6459SOL     OW20275   6.208   3.347   0.783
 6459SOL    HW120276   6.134   3.298   0.830
 6459SOL    HW220277   6.280   3.283   0.758
 6460SOL     OW20278   5.512   6.257   5.344
 6460SOL    HW120279   5.612   6.258   5.337
 6460SOL    HW220280   5.475   6.191   5.280
 6461SOL     OW20281   2.589   4.948   5.693
 6461SOL    HW120282   2.689   4.948   5.697
 6461SOL    HW220283   2.559   4.948   5.598
 6462SOL     OW20284   2.416   2.734   4.382
 6462SOL    HW120285   2.341   2.779   4.335
 6462SOL    HW220286   2.415   2.760   4.479
 6463SOL     OW20287   6.282   3.348   6.556
 6463SOL    HW120288   6.204   3.300   6.515
 6463SOL    HW220289   6.321   3.411   6.488
 6464SOL     OW20290   1.059   5.447   4.594
 6464SOL    HW120291   1.121   5.389   4.542
 6464SOL    HW220292   1.102   5.473   4.681
 6465SOL     OW20293   6.820   3.045   2.782
 6465SOL    HW120294   6.824   3.081   2.875
 6465SOL    HW220295   6.832   2.946   2.785
 6466SOL     OW20296   1.473   1.280   5.738
 6466SOL    HW120297   1.467   1.290   5.638
 6466SOL    HW220298   1.452   1.368   5.781
 6467SOL     OW20299   3.089   1.447   0.355
 6467SOL    HW120300   3.000   1.457   0.401
 6467SOL    HW220301   3.129   1.359   0.379
 6468SOL     OW20302   3.547   6.252   0.536
 6468SOL    HW120303   3.522   6.170   0.587
 6468SOL    HW220304   3.616   6.229   0.467
 6469SOL     OW20305   5.226   1.132   4.432
 6469SOL    HW120306   5.265   1.064   4.493
 6469SOL    HW220307   5.278   1.135   4.346
 6470SOL     OW20308   6.392   4.150   0.424
 6470SOL    HW120309   6.490   4.171   0.422
 6470SOL    HW220310   6.379   4.052   0.405
 6471SOL     OW20311   6.553   6.593   5.781
 6471SOL    HW120312   6.517   6.581   5.689
 6471SOL    HW220313   6.483   6.636   5.839
 6472SOL     OW20314   0.562   6.197   1.344
 6472SOL    HW120315   0.610   6.208   1.430
 6472SOL    HW220316   0.550   6.286   1.300
 6473SOL     OW20317   3.255   1.013   4.663
 6473SOL    HW120318   3.273   0.922   4.624
 6473SOL    HW220319   3.342   1.058   4.683
 6474SOL     OW20320   2.677   4.428   6.037
 6474SOL    HW120321   2.655   4.365   5.962
 6474SOL    HW220322   2.630   4.398   6.120
 6475SOL     OW20323   6.025   5.028   3.969
 6475SOL    HW120324   6.052   4.940   4.007
 6475SOL    HW220325   6.034   5.025   3.869
 6476SOL     OW20326   4.071   3.552   1.224
 6476SOL    HW120327   3.980   3.554   1.266
 6476SOL    HW220328   4.062   3.546   1.124
 6477SOL     OW20329   6.243   4.726   1.266
 6477SOL    HW120330   6.305   4.698   1.339
 6477SOL    HW220331   6.287   4.795   1.209
 6478SOL     OW20332   3.558   0.639   2.027
 6478SOL    HW120333   3.634   0.704   2.021
 6478SOL    HW220334   3.557   0.580   1.947
 6479SOL     OW20335   4.143   5.420   3.950
 6479SOL    HW120336   4.127   5.473   3.867
 6479SOL    HW220337   4.164   5.482   4.025
 6480SOL     OW20338   2.969   1.732   5.970
 6480SOL    HW120339   2.918   1.711   5.887
 6480SOL    HW220340   3.065   1.752   5.947
 6481SOL     OW20341   3.780   2.000   2.147
 6481SOL    HW120342   3.871   2.037   2.162
 6481SOL    HW220343   3.723   2.068   2.100
 6482SOL     OW20344   0.113   0.770   6.400
 6482SOL    HW120345   0.105   0.849   6.460
 6482SOL    HW220346   0.191   0.783   6.338
 6483SOL     OW20347   1.412   6.244   1.787
 6483SOL    HW120348   1.348   6.168   1.798
 6483SOL    HW220349   1.384   6.319   1.847
 6484SOL     OW20350   3.481   6.658   1.434
 6484SOL    HW120351   3.549   6.587   1.414
 6484SOL    HW220352   3.510   6.710   1.514
 6485SOL     OW20353   2.068   4.870   3.752
 6485SOL    HW120354   2.044   4.878   3.849
 6485SOL    HW220355   2.107   4.957   3.721
 6486SOL     OW20356   2.493   4.597   3.555
 6486SOL    HW120357   2.578   4.639   3.524
 6486SOL    HW220358   2.422   4.611   3.485
 6487SOL     OW20359   7.002   6.301   4.988
 6487SOL    HW120360   0.079   6.306   4.968
 6487SOL    HW220361   6.960   6.228   4.935
 6488SOL     OW20362   3.706   6.126   4.235
 6488SOL    HW120363   3.748   6.052   4.288
 6488SOL    HW220364   3.608   6.109   4.224
 6489SOL     OW20365   3.039   2.490   6.270
 6489SOL    HW120366   3.129   2.533   6.274
 6489SOL    HW220367   3.001   2.482   6.362
 6490SOL     OW20368   3.877   0.651   6.675
 6490SOL    HW120369   3.825   0.735   6.659
 6490SOL    HW220370   3.944   0.639   6.602
 6491SOL     OW20371   3.547   0.455   0.701
 6491SOL    HW120372   3.511   0.513   0.774
 6491SOL    HW220373   3.522   0.494   0.612
 6492SOL     OW20374   4.243   5.044   0.314
 6492SOL    HW120375   4.325   4.990   0.335
 6492SOL    HW220376   4.171   5.022   0.378
 6493SOL     OW20377   1.420   4.926   5.050
 6493SOL    HW120378   1.418   4.935   5.150
 6493SOL    HW220379   1.328   4.910   5.016
 6494SOL     OW20380   0.035   0.401   3.438
 6494SOL    HW120381   7.018   0.354   3.517
 6494SOL    HW220382   0.004   0.496   3.438
 6495SOL     OW20383   5.370   6.967   4.385
 6495SOL    HW120384   5.299   6.982   4.316
 6495SOL    HW220385   5.328   6.969   4.476
 6496SOL     OW20386   6.947   0.312   3.189
 6496SOL    HW120387   7.010   0.347   3.120
 6496SOL    HW220388   6.973   0.348   3.279
 6497SOL     OW20389   1.637   2.460   0.958
 6497SOL    HW120390   1.659   2.544   1.007
 6497SOL    HW220391   1.629   2.385   1.023
 6498SOL     OW20392   2.213   3.890   3.227
 6498SOL    HW120393   2.298   3.879   3.175
 6498SOL    HW220394   2.211   3.980   3.269
 6499SOL     OW20395   4.992   2.825   4.763
 6499SOL    HW120396   5.015   2.739   4.718
 6499SOL    HW220397   5.036   2.900   4.715
 6500SOL     OW20398   6.878   3.816   3.935
 6500SOL    HW120399   6.967   3.851   3.905
 6500SOL    HW220400   6.809   3.887   3.922
 6501SOL     OW20401   6.650   2.271   6.918
 6501SOL    HW120402   6.656   2.349   6.980
 6501SOL    HW220403   6.651   2.186   6.972
 6502SOL     OW20404   6.105   2.433   2.013
 6502SOL    HW120405   6.010   2.459   1.997
 6502SOL    HW220406   6.149   2.410   1.926
 6503SOL     OW20407   4.994   1.567   2.969
 6503SOL    HW120408   5.052   1.511   2.910
 6503SOL    HW220409   4.910   1.592   2.920
 6504SOL     OW20410   4.544   5.851   5.925
 6504SOL    HW120411   4.559   5.855   5.826
 6504SOL    HW220412   4.601   5.779   5.964
 6505SOL     OW20413   5.526   5.884   1.129
 6505SOL    HW120414   5.582   5.842   1.200
 6505SOL    HW220415   5.574   5.881   1.041
 6506SOL     OW20416   6.913   2.727   2.385
 6506SOL    HW120417   6.964   2.653   2.431
 6506SOL    HW220418   6.825   2.739   2.430
 6507SOL     OW20419   2.108   4.991   5.784
 6507SOL    HW120420   2.183   5.021   5.725
 6507SOL    HW220421   2.036   5.061   5.783
 6508SOL     OW20422   1.198   0.870   2.870
 6508SOL    HW120423   1.155   0.850   2.958
 6508SOL    HW220424   1.237   0.962   2.872
 6509SOL     OW20425   2.982   1.978   4.600
 6509SOL    HW120426   3.034   1.971   4.515
 6509SOL    HW220427   3.043   1.958   4.678
 6510SOL     OW20428   6.371   5.194   6.961
 6510SOL    HW120429   6.407   5.285   6.981
 6510SOL    HW220430   6.389   5.172   6.865
 6511SOL     OW20431   4.385   1.286   4.390
 6511SOL    HW120432   4.309   1.221   4.391
 6511SOL    HW220433   4.456   1.255   4.453
 6512SOL     OW20434   4.819   6.319   2.134
 6512SOL    HW120435   4.737   6.373   2.114
 6512SOL    HW220436   4.871   6.305   2.050
 6513SOL     OW20437   3.071   5.268   2.837
 6513SOL    HW120438   3.009   5.343   2.813
 6513SOL    HW220439   3.117   5.289   2.923
 6514SOL     OW20440   5.918   1.244   4.118
 6514SOL    HW120441   5.962   1.157   4.096
 6514SOL    HW220442   5.846   1.263   4.051
 6515SOL     OW20443   0.375   4.634   4.676
 6515SOL    HW120444   0.401   4.586   4.592
 6515SOL    HW220445   0.359   4.730   4.655
 6516SOL     OW20446   0.124   3.369   1.115
 6516SOL    HW120447   0.106   3.380   1.213
 6516SOL    HW220448   0.037   3.358   1.066
 6517SOL     OW20449   6.382   0.442   0.823
 6517SOL    HW120450   6.314   0.374   0.847
 6517SOL    HW220451   6.472   0.399   0.818
 6518SOL     OW20452   6.659   0.008   6.575
 6518SOL    HW120453   6.644   6.936   6.541
 6518SOL    HW220454   6.659   0.008   6.675
 6519SOL     OW20455   1.610   1.775   3.446
 6519SOL    HW120456   1.706   1.802   3.459
 6519SOL    HW220457   1.551   1.852   3.467
 6520SOL     OW20458   5.418   5.674   2.653
 6520SOL    HW120459   5.341   5.731   2.624
 6520SOL    HW220460   5.386   5.601   2.713
 6521SOL     OW20461   1.956   2.862   4.385
 6521SOL    HW120462   2.001   2.835   4.471
 6521SOL    HW220463   1.914   2.952   4.396
 6522SOL     OW20464   3.919   4.475   6.924
 6522SOL    HW120465   3.911   4.507   7.018
 6522SOL    HW220466   3.979   4.536   6.873
 6523SOL     OW20467   4.342   1.237   6.734
 6523SOL    HW120468   4.409   1.260   6.663
 6523SOL    HW220469   4.387   1.229   6.822
 6524SOL     OW20470   2.957   3.983   1.627
 6524SOL    HW120471   2.889   4.057   1.628
 6524SOL    HW220472   2.920   3.904   1.579
 6525SOL     OW20473   1.994   4.574   2.463
 6525SOL    HW120474   1.946   4.530   2.386
 6525SOL    HW220475   1.926   4.615   2.525
 6526SOL     OW20476   2.330   6.638   6.693
 6526SOL    HW120477   2.401   6.708   6.688
 6526SOL    HW220478   2.320   6.608   6.788
 6527SOL     OW20479   0.693   2.719   4.735
 6527SOL    HW120480   0.608   2.729   4.788
 6527SOL    HW220481   0.740   2.807   4.731
 6528SOL     OW20482   6.957   0.958   5.194
 6528SOL    HW120483   6.900   1.038   5.174
 6528SOL    HW220484   6.909   0.875   5.165
 6529SOL     OW20485   1.289   1.539   2.531
 6529SOL    HW120486   1.281   1.601   2.609
 6529SOL    HW220487   1.272   1.589   2.447
 6530SOL     OW20488   6.814   3.984   0.216
 6530SOL    HW120489   6.758   4.067   0.211
 6530SOL    HW220490   6.779   3.917   0.150
 6531SOL     OW20491   5.749   3.028   5.024
 6531SOL    HW120492   5.692   2.969   4.966
 6531SOL    HW220493   5.725   3.124   5.007
 6532SOL     OW20494   6.295   1.236   0.471
 6532SOL    HW120495   6.395   1.245   0.476
 6532SOL    HW220496   6.270   1.197   0.383
 6533SOL     OW20497   4.562   0.078   1.583
 6533SOL    HW120498   4.513   7.012   1.583
 6533SOL    HW220499   4.548   0.124   1.671
 6534SOL     OW20500   3.540   4.334   1.334
 6534SOL    HW120501   3.519   4.237   1.350
 6534SOL    HW220502   3.514   4.388   1.414
 6535SOL     OW20503   6.259   4.168   4.289
 6535SOL    HW120504   6.302   4.255   4.265
 6535SOL    HW220505   6.270   4.152   4.387
 6536SOL     OW20506   1.096   1.212   5.668
 6536SOL    HW120507   1.166   1.153   5.709
 6536SOL    HW220508   1.100   1.303   5.710
 6537SOL     OW20509   6.673   5.339   0.144
 6537SOL    HW120510   6.624   5.383   0.219
 6537SOL    HW220511   6.627   5.254   0.119
 6538SOL     OW20512   2.732   3.444   6.965
 6538SOL    HW120513   2.653   3.440   6.904
 6538SOL    HW220514   2.796   3.371   6.942
 6539SOL     OW20515   4.148   0.870   6.008
 6539SOL    HW120516   4.222   0.924   5.967
 6539SOL    HW220517   4.104   0.815   5.937
 6540SOL     OW20518   4.639   2.021   5.386
 6540SOL    HW120519   4.539   2.019   5.386
 6540SOL    HW220520   4.671   2.065   5.469
 6541SOL     OW20521   4.953   1.891   5.159
 6541SOL    HW120522   4.975   1.800   5.124
 6541SOL    HW220523   4.873   1.927   5.111
 6542SOL     OW20524   5.999   4.298   4.225
 6542SOL    HW120525   5.925   4.365   4.232
 6542SOL    HW220526   6.021   4.262   4.316
 6543SOL     OW20527   5.909   3.151   5.399
 6543SOL    HW120528   5.964   3.172   5.319
 6543SOL    HW220529   5.967   3.147   5.480
 6544SOL     OW20530   0.396   6.560   2.788
 6544SOL    HW120531   0.408   6.609   2.874
 6544SOL    HW220532   0.300   6.565   2.760
 6545SOL     OW20533   4.372   1.880   0.338
 6545SOL    HW120534   4.329   1.807   0.285
 6545SOL    HW220535   4.328   1.887   0.427
 6546SOL     OW20536   3.381   4.451   7.009
 6546SOL    HW120537   3.451   4.395   6.965
 6546SOL    HW220538   3.396   4.548   6.986
 6547SOL     OW20539   4.498   1.346   5.601
 6547SOL    HW120540   4.551   1.353   5.517
 6547SOL    HW220541   4.460   1.435   5.625
 6548SOL     OW20542   1.208   4.173   0.278
 6548SOL    HW120543   1.264   4.227   0.214
 6548SOL    HW220544   1.179   4.088   0.233
 6549SOL     OW20545   4.414   0.876   1.460
 6549SOL    HW120546   4.479   0.809   1.497
 6549SOL    HW220547   4.350   0.903   1.532
 6550SOL     OW20548   0.442   6.652   4.346
 6550SOL    HW120549   0.496   6.604   4.416
 6550SOL    HW220550   0.370   6.591   4.314
 6551SOL     OW20551   1.620   5.097   2.700
 6551SOL    HW120552   1.595   5.014   2.750
 6551SOL    HW220553   1.703   5.136   2.739
 6552SOL     OW20554   2.071   6.636   6.014
 6552SOL    HW120555   1.987   6.674   5.976
 6552SOL    HW220556   2.067   6.536   6.009
 6553SOL     OW20557   0.753   2.103   3.240
 6553SOL    HW120558   0.773   2.196   3.269
 6553SOL    HW220559   0.704   2.055   3.313
 6554SOL     OW20560   0.199   1.049   5.076
 6554SOL    HW120561   0.110   1.041   5.120
 6554SOL    HW220562   0.190   1.102   4.991
 6555SOL     OW20563   7.019   2.317   2.699
 6555SOL    HW120564   6.932   2.301   2.653
 6555SOL    HW220565   0.030   2.410   2.678
 6556SOL     OW20566   5.403   4.424   4.777
 6556SOL    HW120567   5.407   4.489   4.701
 6556SOL    HW220568   5.374   4.473   4.860
 6557SOL     OW20569   3.199   6.586   1.596
 6557SOL    HW120570   3.288   6.558   1.561
 6557SOL    HW220571   3.127   6.544   1.541
 6558SOL     OW20572   6.379   4.782   0.151
 6558SOL    HW120573   6.347   4.810   0.242
 6558SOL    HW220574   6.348   4.848   0.083
 6559SOL     OW20575   1.274   4.409   6.223
 6559SOL    HW120576   1.360   4.386   6.177
 6559SOL    HW220577   1.213   4.455   6.158
 6560SOL     OW20578   4.357   5.244   1.344
 6560SOL    HW120579   4.378   5.295   1.427
 6560SOL    HW220580   4.343   5.148   1.365
 6561SOL     OW20581   3.600   3.891   1.674
 6561SOL    HW120582   3.692   3.880   1.712
 6561SOL    HW220583   3.540   3.930   1.744
 6562SOL     OW20584   5.764   3.801   0.921
 6562SOL    HW120585   5.699   3.765   0.854
 6562SOL    HW220586   5.739   3.769   1.012
 6563SOL     OW20587   5.680   6.724   0.540
 6563SOL    HW120588   5.761   6.737   0.485
 6563SOL    HW220589   5.604   6.693   0.482
 6564SOL     OW20590   0.062   4.384   3.359
 6564SOL    HW120591   0.024   4.476   3.365
 6564SOL    HW220592   7.008   4.317   3.352
 6565SOL     OW20593   6.668   2.667   3.780
 6565SOL    HW120594   6.655   2.576   3.820
 6565SOL    HW220595   6.721   2.724   3.842
 6566SOL     OW20596   3.644   5.905   2.619
 6566SOL    HW120597   3.669   5.908   2.716
 6566SOL    HW220598   3.551   5.870   2.609
 6567SOL     OW20599   4.009   1.539   1.783
 6567SOL    HW120600   4.093   1.547   1.729
 6567SOL    HW220601   3.931   1.567   1.727
 6568SOL     OW20602   3.878   1.221   4.022
 6568SOL    HW120603   3.809   1.149   4.033
 6568SOL    HW220604   3.900   1.260   4.111
 6569SOL     OW20605   2.770   3.442   6.400
 6569SOL    HW120606   2.702   3.507   6.434
 6569SOL    HW220607   2.860   3.486   6.398
 6570SOL     OW20608   3.692   0.252   2.646
 6570SOL    HW120609   3.678   0.247   2.547
 6570SOL    HW220610   3.767   0.190   2.672
 6571SOL     OW20611   2.326   5.554   1.919
 6571SOL    HW120612   2.238   5.506   1.920
 6571SOL    HW220613   2.377   5.531   2.002
 6572SOL     OW20614   6.708   4.914   6.042
 6572SOL    HW120615   6.662   4.981   5.984
 6572SOL    HW220616   6.767   4.962   6.108
 6573SOL     OW20617   2.588   1.725   1.986
 6573SOL    HW120618   2.516   1.755   2.049
 6573SOL    HW220619   2.677   1.743   2.028
 6574SOL     OW20620   3.649   5.434   2.541
 6574SOL    HW120621   3.735   5.395   2.508
 6574SOL    HW220622   3.577   5.418   2.474
 6575SOL     OW20623   1.251   0.455   2.340
 6575SOL    HW120624   1.262   0.473   2.242
 6575SOL    HW220625   1.287   0.533   2.392
 6576SOL     OW20626   2.644   5.570   6.537
 6576SOL    HW120627   2.674   5.476   6.554
 6576SOL    HW220628   2.545   5.576   6.551
 6577SOL     OW20629   0.648   1.037   4.103
 6577SOL    HW120630   0.648   0.968   4.031
 6577SOL    HW220631   0.617   1.124   4.065
 6578SOL     OW20632   1.295   4.591   2.884
 6578SOL    HW120633   1.288   4.515   2.949
 6578SOL    HW220634   1.325   4.674   2.932
 6579SOL     OW20635   6.729   3.639   5.131
 6579SOL    HW120636   6.799   3.568   5.142
 6579SOL    HW220637   6.712   3.682   5.220
 6580SOL     OW20638   0.030   2.083   0.475
 6580SOL    HW120639   6.959   2.073   0.512
 6580SOL    HW220640   0.085   2.140   0.535
 6581SOL     OW20641   2.456   1.464   0.146
 6581SOL    HW120642   2.512   1.393   0.188
 6581SOL    HW220643   2.488   1.554   0.176
 6582SOL     OW20644   1.230   1.346   1.507
 6582SOL    HW120645   1.278   1.434   1.510
 6582SOL    HW220646   1.295   1.272   1.522
 6583SOL     OW20647   3.293   0.378   4.672
 6583SOL    HW120648   3.318   0.297   4.619
 6583SOL    HW220649   3.237   0.439   4.616
 6584SOL     OW20650   4.181   1.821   0.132
 6584SOL    HW120651   4.111   1.839   0.063
 6584SOL    HW220652   4.270   1.852   0.099
 6585SOL     OW20653   6.296   6.629   0.192
 6585SOL    HW120654   6.268   6.724   0.178
 6585SOL    HW220655   6.292   6.580   0.105
 6586SOL     OW20656   0.149   1.768   5.929
 6586SOL    HW120657   0.123   1.672   5.917
 6586SOL    HW220658   0.173   1.784   6.025
 6587SOL     OW20659   2.445   6.329   4.811
 6587SOL    HW120660   2.545   6.334   4.803
 6587SOL    HW220661   2.421   6.248   4.866
 6588SOL     OW20662   0.768   3.913   1.848
 6588SOL    HW120663   0.855   3.924   1.802
 6588SOL    HW220664   0.736   4.002   1.881
 6589SOL     OW20665   4.802   0.334   0.336
 6589SOL    HW120666   4.819   0.343   0.238
 6589SOL    HW220667   4.809   0.424   0.380
 6590SOL     OW20668   1.032   0.752   5.099
 6590SOL    HW120669   0.978   0.833   5.077
 6590SOL    HW220670   1.032   0.738   5.198
 6591SOL     OW20671   5.410   5.978   2.177
 6591SOL    HW120672   5.318   5.969   2.138
 6591SOL    HW220673   5.478   5.953   2.109
 6592SOL     OW20674   6.491   0.137   4.165
 6592SOL    HW120675   6.396   0.106   4.158
 6592SOL    HW220676   6.535   0.096   4.245
 6593SOL     OW20677   2.982   1.933   2.525
 6593SOL    HW120678   2.923   1.862   2.486
 6593SOL    HW220679   2.927   1.995   2.581
 6594SOL     OW20680   3.606   2.251   0.057
 6594SOL    HW120681   3.695   2.296   0.046
 6594SOL    HW220682   3.586   2.197   6.996
 6595SOL     OW20683   0.871   3.602   0.251
 6595SOL    HW120684   0.795   3.576   0.311
 6595SOL    HW220685   0.839   3.603   0.156
 6596SOL     OW20686   3.258   6.066   4.468
 6596SOL    HW120687   3.165   6.102   4.459
 6596SOL    HW220688   3.259   5.992   4.534
 6597SOL     OW20689   2.450   5.392   2.093
 6597SOL    HW120690   2.437   5.330   2.015
 6597SOL    HW220691   2.470   5.339   2.175
 6598SOL     OW20692   1.414   6.739   4.171
 6598SOL    HW120693   1.471   6.820   4.186
 6598SOL    HW220694   1.417   6.681   4.253
 6599SOL     OW20695   4.942   6.897   5.802
 6599SOL    HW120696   4.896   6.953   5.870
 6599SOL    HW220697   4.988   6.821   5.848
 6600SOL     OW20698   4.956   5.179   5.948
 6600SOL    HW120699   5.029   5.113   5.928
 6600SOL    HW220700   4.982   5.268   5.912
 6601SOL     OW20701   0.918   1.974   5.249
 6601SOL    HW120702   0.892   1.907   5.180
 6601SOL    HW220703   0.923   2.065   5.207
 6602SOL     OW20704   0.658   1.475   1.831
 6602SOL    HW120705   0.649   1.466   1.931
 6602SOL    HW220706   0.728   1.543   1.811
 6603SOL     OW20707   0.377   2.751   3.850
 6603SOL    HW120708   0.366   2.653   3.832
 6603SOL    HW220709   0.315   2.803   3.791
 6604SOL     OW20710   2.351   6.744   1.477
 6604SOL    HW120711   2.280   6.678   1.499
 6604SOL    HW220712   2.410   6.707   1.405
 6605SOL     OW20713   5.608   3.687   1.552
 6605SOL    HW120714   5.512   3.667   1.532
 6605SOL    HW220715   5.614   3.732   1.641
 6606SOL     OW20716   6.506   6.381   2.242
 6606SOL    HW120717   6.520   6.457   2.179
 6606SOL    HW220718   6.477   6.300   2.191
 6607SOL     OW20719   1.535   3.127   2.535
 6607SOL    HW120720   1.577   3.051   2.584
 6607SOL    HW220721   1.555   3.120   2.438
 6608SOL     OW20722   6.382   6.607   1.209
 6608SOL    HW120723   6.298   6.622   1.262
 6608SOL    HW220724   6.361   6.554   1.127
 6609SOL     OW20725   4.556   0.816   5.598
 6609SOL    HW120726   4.534   0.794   5.693
 6609SOL    HW220727   4.639   0.872   5.595
 6610SOL     OW20728   2.549   0.474   6.616
 6610SOL    HW120729   2.491   0.451   6.537
 6610SOL    HW220730   2.507   0.439   6.699
 6611SOL     OW20731   6.206   3.023   3.453
 6611SOL    HW120732   6.199   2.975   3.541
 6611SOL    HW220733   6.303   3.033   3.428
 6612SOL     OW20734   6.362   2.005   6.464
 6612SOL    HW120735   6.280   2.051   6.431
 6612SOL    HW220736   6.443   2.058   6.438
 6613SOL     OW20737   6.688   6.070   5.268
 6613SOL    HW120738   6.690   6.168   5.291
 6613SOL    HW220739   6.657   6.018   5.347
 6614SOL     OW20740   5.524   6.246   1.050
 6614SOL    HW120741   5.429   6.276   1.061
 6614SOL    HW220742   5.585   6.312   1.094
 6615SOL     OW20743   1.351   4.862   2.357
 6615SOL    HW120744   1.436   4.905   2.388
 6615SOL    HW220745   1.349   4.859   2.257
 6616SOL     OW20746   3.798   1.202   6.143
 6616SOL    HW120747   3.775   1.254   6.061
 6616SOL    HW220748   3.896   1.184   6.145
 6617SOL     OW20749   3.840   5.100   2.775
 6617SOL    HW120750   3.901   5.174   2.805
 6617SOL    HW220751   3.757   5.102   2.831
 6618SOL     OW20752   1.228   3.073   2.534
 6618SOL    HW120753   1.319   3.110   2.554
 6618SOL    HW220754   1.234   2.974   2.525
 6619SOL     OW20755   6.195   0.069   4.173
 6619SOL    HW120756   6.206   0.140   4.244
 6619SOL    HW220757   6.118   0.011   4.196
 6620SOL     OW20758   1.401   2.914   5.610
 6620SOL    HW120759   1.495   2.926   5.641
 6620SOL    HW220760   1.400   2.896   5.511
 6621SOL     OW20761   2.154   2.975   6.572
 6621SOL    HW120762   2.253   2.961   6.584
 6621SOL    HW220763   2.129   3.067   6.600
 6622SOL     OW20764   5.841   0.012   1.376
 6622SOL    HW120765   5.744   0.030   1.390
 6622SOL    HW220766   5.888   0.098   1.358
 6623SOL     OW20767   2.536   2.993   6.321
 6623SOL    HW120768   2.453   2.979   6.268
 6623SOL    HW220769   2.558   3.090   6.324
 6624SOL     OW20770   1.257   5.757   5.231
 6624SOL    HW120771   1.323   5.761   5.156
 6624SOL    HW220772   1.288   5.690   5.299
 6625SOL     OW20773   5.086   2.194   5.431
 6625SOL    HW120774   5.149   2.249   5.485
 6625SOL    HW220775   5.130   2.166   5.346
 6626SOL     OW20776   4.903   5.836   5.891
 6626SOL    HW120777   4.878   5.927   5.923
 6626SOL    HW220778   4.843   5.768   5.932
 6627SOL     OW20779   2.607   0.042   4.906
 6627SOL    HW120780   2.533   7.005   4.871
 6627SOL    HW220781   2.621   0.120   4.844
 6628SOL     OW20782   4.514   4.526   4.691
 6628SOL    HW120783   4.429   4.553   4.735
 6628SOL    HW220784   4.592   4.555   4.747
 6629SOL     OW20785   4.648   6.010   0.268
 6629SOL    HW120786   4.601   6.037   0.352
 6629SOL    HW220787   4.746   6.019   0.281
 6630SOL     OW20788   3.962   1.276   1.708
 6630SOL    HW120789   3.941   1.370   1.733
 6630SOL    HW220790   4.040   1.244   1.761
 6631SOL     OW20791   2.595   5.514   3.101
 6631SOL    HW120792   2.667   5.581   3.121
 6631SOL    HW220793   2.593   5.445   3.173
 6632SOL     OW20794   0.274   6.479   1.084
 6632SOL    HW120795   0.284   6.530   0.999
 6632SOL    HW220796   0.286   6.382   1.067
 6633SOL     OW20797   0.840   4.371   6.662
 6633SOL    HW120798   0.911   4.401   6.597
 6633SOL    HW220799   0.751   4.403   6.630
 6634SOL     OW20800   6.033   2.293   3.699
 6634SOL    HW120801   5.947   2.251   3.728
 6634SOL    HW220802   6.015   2.376   3.647
 6635SOL     OW20803   4.254   4.659   3.116
 6635SOL    HW120804   4.176   4.716   3.090
 6635SOL    HW220805   4.320   4.656   3.041
 6636SOL     OW20806   4.835   2.775   5.476
 6636SOL    HW120807   4.869   2.728   5.557
 6636SOL    HW220808   4.740   2.746   5.459
 6637SOL     OW20809   1.591   6.986   6.445
 6637SOL    HW120810   1.635   0.048   6.482
 6637SOL    HW220811   1.576   6.921   6.519
 6638SOL     OW20812   3.216   3.596   4.190
 6638SOL    HW120813   3.275   3.535   4.243
 6638SOL    HW220814   3.129   3.552   4.172
 6639SOL     OW20815   5.666   5.077   6.428
 6639SOL    HW120816   5.684   5.066   6.331
 6639SOL    HW220817   5.723   5.151   6.465
 6640SOL     OW20818   1.161   1.869   5.173
 6640SOL    HW120819   1.243   1.926   5.179
 6640SOL    HW220820   1.085   1.914   5.219
 6641SOL     OW20821   2.035   1.658   6.794
 6641SOL    HW120822   1.940   1.666   6.766
 6641SOL    HW220823   2.044   1.683   6.890
 6642SOL     OW20824   3.175   5.071   6.458
 6642SOL    HW120825   3.273   5.057   6.442
 6642SOL    HW220826   3.142   5.003   6.523
 6643SOL     OW20827   6.250   5.420   0.328
 6643SOL    HW120828   6.257   5.323   0.307
 6643SOL    HW220829   6.262   5.474   0.245
 6644SOL     OW20830   2.429   4.888   2.068
 6644SOL    HW120831   2.481   4.817   2.020
 6644SOL    HW220832   2.341   4.850   2.097
 6645SOL     OW20833   6.862   5.502   0.427
 6645SOL    HW120834   6.778   5.481   0.375
 6645SOL    HW220835   6.845   5.578   0.488
 6646SOL     OW20836   3.857   7.012   5.022
 6646SOL    HW120837   3.777   0.035   4.981
 6646SOL    HW220838   3.875   6.926   4.975
 6647SOL     OW20839   4.544   1.151   2.328
 6647SOL    HW120840   4.476   1.091   2.285
 6647SOL    HW220841   4.497   1.228   2.371
 6648SOL     OW20842   4.215   0.200   2.594
 6648SOL    HW120843   4.218   0.103   2.568
 6648SOL    HW220844   4.124   0.222   2.630
 6649SOL     OW20845   5.616   0.625   6.891
 6649SOL    HW120846   5.624   0.555   6.962
 6649SOL    HW220847   5.695   0.686   6.895
 6650SOL     OW20848   2.840   1.557   5.131
 6650SOL    HW120849   2.773   1.495   5.171
 6650SOL    HW220850   2.837   1.552   5.032
 6651SOL     OW20851   2.180   1.536   5.471
 6651SOL    HW120852   2.109   1.502   5.411
 6651SOL    HW220853   2.244   1.593   5.419
 6652SOL     OW20854   0.403   4.962   0.822
 6652SOL    HW120855   0.351   4.879   0.799
 6652SOL    HW220856   0.473   4.940   0.890
 6653SOL     OW20857   3.532   2.970   2.925
 6653SOL    HW120858   3.560   2.938   3.016
 6653SOL    HW220859   3.446   2.925   2.899
 6654SOL     OW20860   1.800   3.766   1.605
 6654SOL    HW120861   1.876   3.749   1.542
 6654SOL    HW220862   1.833   3.814   1.685
 6655SOL     OW20863   1.457   6.903   2.862
 6655SOL    HW120864   1.503   6.991   2.849
 6655SOL    HW220865   1.358   6.916   2.858
 6656SOL     OW20866   6.331   1.782   2.388
 6656SOL    HW120867   6.405   1.827   2.438
 6656SOL    HW220868   6.365   1.697   2.348
 6657SOL     OW20869   5.830   6.326   6.257
 6657SOL    HW120870   5.899   6.358   6.192
 6657SOL    HW220871   5.739   6.353   6.225
 6658SOL     OW20872   6.785   0.781   5.462
 6658SOL    HW120873   6.771   0.874   5.428
 6658SOL    HW220874   6.785   0.717   5.385
 6659SOL     OW20875   2.289   2.492   0.567
 6659SOL    HW120876   2.229   2.464   0.642
 6659SOL    HW220877   2.327   2.410   0.523
 6660SOL     OW20878   1.041   5.635   0.980
 6660SOL    HW120879   1.087   5.718   1.013
 6660SOL    HW220880   1.032   5.640   0.881
 6661SOL     OW20881   0.783   6.757   4.801
 6661SOL    HW120882   0.793   6.812   4.719
 6661SOL    HW220883   0.831   6.670   4.789
 6662SOL     OW20884   0.724   1.326   0.134
 6662SOL    HW120885   0.812   1.290   0.102
 6662SOL    HW220886   0.653   1.303   0.068
 6663SOL     OW20887   0.052   5.570   4.043
 6663SOL    HW120888   0.096   5.500   4.100
 6663SOL    HW220889   0.090   5.565   3.950
 6664SOL     OW20890   2.518   6.000   7.017
 6664SOL    HW120891   2.466   5.986   0.080
 6664SOL    HW220892   2.566   5.916   6.992
 6665SOL     OW20893   1.256   6.413   3.923
 6665SOL    HW120894   1.327   6.342   3.931
 6665SOL    HW220895   1.178   6.388   3.981
 6666SOL     OW20896   5.524   6.896   5.674
 6666SOL    HW120897   5.440   6.854   5.707
 6666SOL    HW220898   5.545   6.977   5.729
 6667SOL     OW20899   6.654   5.883   6.421
 6667SOL    HW120900   6.705   5.962   6.387
 6667SOL    HW220901   6.587   5.854   6.353
 6668SOL     OW20902   6.865   5.781   1.349
 6668SOL    HW120903   6.918   5.728   1.414
 6668SOL    HW220904   6.785   5.821   1.394
 6669SOL     OW20905   1.685   2.605   3.580
 6669SOL    HW120906   1.698   2.622   3.483
 6669SOL    HW220907   1.718   2.684   3.632
 6670SOL     OW20908   3.913   2.358   5.305
 6670SOL    HW120909   3.838   2.421   5.324
 6670SOL    HW220910   3.998   2.410   5.295
 6671SOL     OW20911   6.040   5.811   1.020
 6671SOL    HW120912   5.994   5.871   0.954
 6671SOL    HW220913   6.027   5.846   1.112
 6672SOL     OW20914   6.632   1.640   6.274
 6672SOL    HW120915   6.628   1.739   6.262
 6672SOL    HW220916   6.656   1.596   6.187
 6673SOL     OW20917   5.630   5.723   4.010
 6673SOL    HW120918   5.634   5.624   3.992
 6673SOL    HW220919   5.661   5.772   3.929
 6674SOL     OW20920   0.953   4.950   5.958
 6674SOL    HW120921   0.869   4.900   5.977
 6674SOL    HW220922   0.932   5.029   5.899
 6675SOL     OW20923   4.906   3.347   1.805
 6675SOL    HW120924   4.810   3.322   1.819
 6675SOL    HW220925   4.950   3.363   1.894
 6676SOL     OW20926   6.929   4.096   5.911
 6676SOL    HW120927   6.870   4.018   5.928
 6676SOL    HW220928   6.924   4.160   5.988
 6677SOL     OW20929   1.264   1.700   6.523
 6677SOL    HW120930   1.228   1.642   6.450
 6677SOL    HW220931   1.283   1.644   6.604
 6678SOL     OW20932   3.265   3.274   6.783
 6678SOL    HW120933   3.355   3.243   6.812
 6678SOL    HW220934   3.239   3.225   6.699
 6679SOL     OW20935   2.242   1.669   3.954
 6679SOL    HW120936   2.157   1.719   3.970
 6679SOL    HW220937   2.267   1.676   3.857
 6680SOL     OW20938   4.401   0.052   6.503
 6680SOL    HW120939   4.333   0.077   6.572
 6680SOL    HW220940   4.479   0.009   6.548
 6681SOL     OW20941   4.342   5.788   0.970
 6681SOL    HW120942   4.414   5.815   1.034
 6681SOL    HW220943   4.382   5.761   0.883
 6682SOL     OW20944   1.064   4.362   3.398
 6682SOL    HW120945   1.091   4.449   3.355
 6682SOL    HW220946   1.065   4.374   3.498
 6683SOL     OW20947   5.970   2.776   5.474
 6683SOL    HW120948   6.058   2.765   5.520
 6683SOL    HW220949   5.984   2.816   5.383
 6684SOL     OW20950   2.410   6.482   1.634
 6684SOL    HW120951   2.421   6.480   1.534
 6684SOL    HW220952   2.489   6.530   1.674
 6685SOL     OW20953   6.132   3.424   5.821
 6685SOL    HW120954   6.065   3.424   5.747
 6685SOL    HW220955   6.089   3.391   5.905
 6686SOL     OW20956   5.324   6.187   4.496
 6686SOL    HW120957   5.403   6.243   4.523
 6686SOL    HW220958   5.324   6.102   4.548
 6687SOL     OW20959   0.928   3.126   0.200
 6687SOL    HW120960   0.893   3.120   0.106
 6687SOL    HW220961   1.023   3.095   0.202
 6688SOL     OW20962   0.146   4.567   1.716
 6688SOL    HW120963   0.198   4.519   1.786
 6688SOL    HW220964   0.052   4.580   1.748
 6689SOL     OW20965   4.738   2.972   6.943
 6689SOL    HW120966   4.648   3.013   6.960
 6689SOL    HW220967   4.728   2.877   6.915
 6690SOL     OW20968   2.363   0.888   0.906
 6690SOL    HW120969   2.351   0.792   0.932
 6690SOL    HW220970   2.449   0.922   0.942
 6691SOL     OW20971   2.845   6.097   1.399
 6691SOL    HW120972   2.818   6.076   1.305
 6691SOL    HW220973   2.824   6.019   1.457
 6692SOL     OW20974   4.030   3.936   5.275
 6692SOL    HW120975   4.101   3.871   5.247
 6692SOL    HW220976   3.963   3.947   5.203
 6693SOL     OW20977   4.254   3.960   5.631
 6693SOL    HW120978   4.234   4.028   5.560
 6693SOL    HW220979   4.292   3.878   5.589
 6694SOL     OW20980   4.636   5.290   0.633
 6694SOL    HW120981   4.716   5.312   0.577
 6694SOL    HW220982   4.648   5.200   0.675
 6695SOL     OW20983   3.065   1.356   6.850
 6695SOL    HW120984   2.971   1.371   6.882
 6695SOL    HW220985   3.107   1.444   6.828
 6696SOL     OW20986   1.598   3.181   5.851
 6696SOL    HW120987   1.507   3.193   5.811
 6696SOL    HW220988   1.636   3.093   5.821
 6697SOL     OW20989   4.812   2.112   2.323
 6697SOL    HW120990   4.856   2.180   2.381
 6697SOL    HW220991   4.767   2.158   2.246
 6698SOL     OW20992   2.788   2.748   1.202
 6698SOL    HW120993   2.770   2.839   1.166
 6698SOL    HW220994   2.852   2.700   1.141
 6699SOL     OW20995   3.106   5.158   5.929
 6699SOL    HW120996   3.095   5.251   5.966
 6699SOL    HW220997   3.021   5.107   5.941
 6700SOL     OW20998   6.851   0.064   0.317
 6700SOL    HW120999   6.938   0.037   0.359
 6700SOL    HW221000   6.825   0.154   0.351
 6701SOL     OW21001   5.403   2.477   1.703
 6701SOL    HW121002   5.486   2.516   1.741
 6701SOL    HW221003   5.348   2.549   1.660
 6702SOL     OW21004   2.981   2.019   1.708
 6702SOL    HW121005   2.999   2.039   1.612
 6702SOL    HW221006   2.895   2.062   1.735
 6703SOL     OW21007   6.652   2.243   6.646
 6703SOL    HW121008   6.675   2.328   6.598
 6703SOL    HW221009   6.664   2.257   6.745
 6704SOL     OW21010   3.487   2.097   3.366
 6704SOL    HW121011   3.401   2.131   3.328
 6704SOL    HW221012   3.477   2.087   3.465
 6705SOL     OW21013   6.670   2.026   1.205
 6705SOL    HW121014   6.589   2.022   1.264
 6705SOL    HW221015   6.672   2.114   1.158
 6706SOL     OW21016   1.029   3.959   1.705
 6706SOL    HW121017   1.126   3.963   1.679
 6706SOL    HW221018   1.009   3.869   1.745
 6707SOL     OW21019   6.608   5.897   3.337
 6707SOL    HW121020   6.643   5.951   3.260
 6707SOL    HW221021   6.636   5.939   3.423
 6708SOL     OW21022   6.856   5.311   2.167
 6708SOL    HW121023   6.838   5.354   2.255
 6708SOL    HW221024   6.938   5.352   2.126
 6709SOL     OW21025   3.105   6.955   2.279
 6709SOL    HW121026   3.185   6.985   2.226
 6709SOL    HW221027   3.037   0.007   2.280
 6710SOL     OW21028   3.275   1.130   5.793
 6710SOL    HW121029   3.181   1.122   5.759
 6710SOL    HW221030   3.338   1.089   5.726
 6711SOL     OW21031   5.104   5.435   6.866
 6711SOL    HW121032   5.027   5.372   6.866
 6711SOL    HW221033   5.115   5.475   6.957
 6712SOL     OW21034   4.680   4.871   0.275
 6712SOL    HW121035   4.756   4.807   0.263
 6712SOL    HW221036   4.713   4.964   0.267
 6713SOL     OW21037   2.351   0.874   2.638
 6713SOL    HW121038   2.392   0.819   2.565
 6713SOL    HW221039   2.356   0.824   2.725
 6714SOL     OW21040   6.469   1.272   6.208
 6714SOL    HW121041   6.409   1.352   6.216
 6714SOL    HW221042   6.546   1.282   6.271
 6715SOL     OW21043   6.738   6.659   6.136
 6715SOL    HW121044   6.810   6.689   6.200
 6715SOL    HW221045   6.695   6.576   6.171
 6716SOL     OW21046   0.316   6.206   1.731
 6716SOL    HW121047   0.247   6.186   1.800
 6716SOL    HW221048   0.405   6.217   1.774
 6717SOL     OW21049   4.441   2.566   6.947
 6717SOL    HW121050   4.431   2.470   6.920
 6717SOL    HW221051   4.360   2.618   6.918
 6718SOL     OW21052   4.880   0.254   6.489
 6718SOL    HW121053   4.796   0.308   6.497
 6718SOL    HW221054   4.920   0.267   6.398
 6719SOL     OW21055   1.779   6.964   6.710
 6719SOL    HW121056   1.721   0.011   6.665
 6719SOL    HW221057   1.866   6.957   6.661
 6720SOL     OW21058   0.639   6.003   3.550
 6720SOL    HW121059   0.541   5.995   3.529
 6720SOL    HW221060   0.667   6.098   3.544
 6721SOL     OW21061   6.588   0.307   5.911
 6721SOL    HW121062   6.667   0.277   5.857
 6721SOL    HW221063   6.571   0.243   5.986
 6722SOL     OW21064   6.843   3.641   1.521
 6722SOL    HW121065   6.763   3.678   1.476
 6722SOL    HW221066   6.915   3.624   1.453
 6723SOL     OW21067   2.340   6.802   3.212
 6723SOL    HW121068   2.422   6.837   3.168
 6723SOL    HW221069   2.307   6.867   3.280
 6724SOL     OW21070   1.270   3.875   6.024
 6724SOL    HW121071   1.178   3.871   6.065
 6724SOL    HW221072   1.334   3.827   6.083
 6725SOL     OW21073   1.180   4.078   1.032
 6725SOL    HW121074   1.278   4.066   1.045
 6725SOL    HW221075   1.164   4.145   0.959
 6726SOL     OW21076   0.668   1.867   5.301
 6726SOL    HW121077   0.681   1.963   5.276
 6726SOL    HW221078   0.753   1.830   5.338
 6727SOL     OW21079   6.109   3.834   5.851
 6727SOL    HW121080   6.085   3.904   5.918
 6727SOL    HW221081   6.182   3.776   5.888
 6728SOL     OW21082   4.379   1.598   3.562
 6728SOL    HW121083   4.344   1.518   3.610
 6728SOL    HW221084   4.322   1.617   3.482
 6729SOL     OW21085   0.427   1.642   2.528
 6729SOL    HW121086   0.410   1.549   2.496
 6729SOL    HW221087   0.482   1.691   2.461
 6730SOL     OW21088   2.842   6.199   6.606
 6730SOL    HW121089   2.820   6.268   6.674
 6730SOL    HW221090   2.758   6.160   6.569
 6731SOL     OW21091   1.139   5.863   1.110
 6731SOL    HW121092   1.062   5.920   1.141
 6731SOL    HW221093   1.163   5.798   1.182
 6732SOL     OW21094   5.169   4.978   6.001
 6732SOL    HW121095   5.179   4.881   6.024
 6732SOL    HW221096   5.255   5.013   5.964
 6733SOL     OW21097   4.159   4.338   0.350
 6733SOL    HW121098   4.205   4.390   0.279
 6733SOL    HW221099   4.111   4.401   0.412
 6734SOL     OW21100   6.278   2.389   4.798
 6734SOL    HW121101   6.243   2.363   4.888
 6734SOL    HW221102   6.334   2.315   4.761
 6735SOL     OW21103   0.015   4.848   4.630
 6735SOL    HW121104   0.074   4.798   4.693
 6735SOL    HW221105   6.969   4.786   4.589
 6736SOL     OW21106   3.277   3.881   6.673
 6736SOL    HW121107   3.353   3.944   6.691
 6736SOL    HW221108   3.227   3.865   6.758
 6737SOL     OW21109   1.992   2.621   0.627
 6737SOL    HW121110   1.976   2.676   0.545
 6737SOL    HW221111   1.983   2.524   0.604
 6738SOL     OW21112   1.673   4.450   2.680
 6738SOL    HW121113   1.735   4.383   2.723
 6738SOL    HW221114   1.580   4.413   2.680
 6739SOL     OW21115   3.760   4.873   5.944
 6739SOL    HW121116   3.839   4.905   5.890
 6739SOL    HW221117   3.750   4.930   6.025
 6740SOL     OW21118   1.743   1.492   3.973
 6740SOL    HW121119   1.657   1.541   3.988
 6740SOL    HW221120   1.768   1.441   4.056
 6741SOL     OW21121   4.236   1.269   5.512
 6741SOL    HW121122   4.334   1.263   5.495
 6741SOL    HW221123   4.213   1.210   5.590
 6742SOL     OW21124   6.427   5.989   2.961
 6742SOL    HW121125   6.474   5.924   2.900
 6742SOL    HW221126   6.373   6.052   2.905
 6743SOL     OW21127   4.428   4.203   0.337
 6743SOL    HW121128   4.337   4.241   0.352
 6743SOL    HW221129   4.488   4.229   0.412
 6744SOL     OW21130   5.112   5.874   6.217
 6744SOL    HW121131   5.173   5.918   6.151
 6744SOL    HW221132   5.092   5.938   6.291
 6745SOL     OW21133   0.520   6.968   2.671
 6745SOL    HW121134   0.432   6.936   2.706
 6745SOL    HW221135   0.586   6.892   2.673
 6746SOL     OW21136   0.935   1.041   2.889
 6746SOL    HW121137   1.019   0.987   2.888
 6746SOL    HW221138   0.935   1.104   2.811
 6747SOL     OW21139   5.541   0.877   4.990
 6747SOL    HW121140   5.542   0.966   5.036
 6747SOL    HW221141   5.482   0.882   4.909
 6748SOL     OW21142   1.121   0.400   3.380
 6748SOL    HW121143   1.168   0.329   3.434
 6748SOL    HW221144   1.097   0.363   3.290
 6749SOL     OW21145   2.813   5.833   0.347
 6749SOL    HW121146   2.769   5.771   0.282
 6749SOL    HW221147   2.851   5.911   0.298
 6750SOL     OW21148   4.204   1.612   5.093
 6750SOL    HW121149   4.241   1.704   5.083
 6750SOL    HW221150   4.275   1.551   5.128
 6751SOL     OW21151   4.231   1.111   3.774
 6751SOL    HW121152   4.140   1.146   3.794
 6751SOL    HW221153   4.300   1.181   3.794
 6752SOL     OW21154   0.293   3.176   2.759
 6752SOL    HW121155   0.383   3.166   2.802
 6752SOL    HW221156   0.276   3.098   2.699
 6753SOL     OW21157   4.475   1.030   6.147
 6753SOL    HW121158   4.426   1.066   6.068
 6753SOL    HW221159   4.432   1.064   6.231
 6754SOL     OW21160   6.720   1.636   0.296
 6754SOL    HW121161   6.804   1.583   0.310
 6754SOL    HW221162   6.716   1.667   0.201
 6755SOL     OW21163   4.642   1.271   3.109
 6755SOL    HW121164   4.732   1.298   3.146
 6755SOL    HW221165   4.574   1.273   3.183
 6756SOL     OW21166   4.025   4.843   4.826
 6756SOL    HW121167   3.961   4.880   4.894
 6756SOL    HW221168   3.980   4.841   4.736
 6757SOL     OW21169   4.291   0.173   1.482
 6757SOL    HW121170   4.345   0.090   1.473
 6757SOL    HW221171   4.351   0.253   1.471
 6758SOL     OW21172   6.820   2.948   0.881
 6758SOL    HW121173   6.792   2.932   0.976
 6758SOL    HW221174   6.876   2.872   0.849
 6759SOL     OW21175   1.049   4.103   4.855
 6759SOL    HW121176   1.093   4.184   4.893
 6759SOL    HW221177   1.033   4.117   4.757
 6760SOL     OW21178   6.745   4.975   3.876
 6760SOL    HW121179   6.675   5.040   3.906
 6760SOL    HW221180   6.781   4.925   3.955
 6761SOL     OW21181   6.025   2.440   6.497
 6761SOL    HW121182   5.942   2.386   6.500
 6761SOL    HW221183   6.003   2.537   6.510
 6762SOL     OW21184   6.686   5.655   3.200
 6762SOL    HW121185   6.620   5.724   3.230
 6762SOL    HW221186   6.641   5.589   3.140
 6763SOL     OW21187   0.101   5.083   3.670
 6763SOL    HW121188   0.182   5.049   3.622
 6763SOL    HW221189   0.106   5.183   3.678
 6764SOL     OW21190   2.892   4.918   6.506
 6764SOL    HW121191   2.840   4.833   6.497
 6764SOL    HW221192   2.950   4.930   6.425
 6765SOL     OW21193   4.781   5.024   4.166
 6765SOL    HW121194   4.828   4.935   4.165
 6765SOL    HW221195   4.697   5.016   4.220
 6766SOL     OW21196   4.249   6.460   6.389
 6766SOL    HW121197   4.238   6.453   6.488
 6766SOL    HW221198   4.331   6.409   6.361
 6767SOL     OW21199   0.874   2.271   0.304
 6767SOL    HW121200   0.950   2.212   0.331
 6767SOL    HW221201   0.855   2.336   0.378
 6768SOL     OW21202   6.825   6.439   3.498
 6768SOL    HW121203   6.869   6.433   3.588
 6768SOL    HW221204   6.741   6.384   3.499
 6769SOL     OW21205   2.993   0.391   5.517
 6769SOL    HW121206   2.956   0.411   5.426
 6769SOL    HW221207   2.923   0.411   5.586
 6770SOL     OW21208   6.711   1.823   3.263
 6770SOL    HW121209   6.611   1.822   3.257
 6770SOL    HW221210   6.749   1.871   3.185
 6771SOL     OW21211   3.426   1.087   2.935
 6771SOL    HW121212   3.396   0.995   2.908
 6771SOL    HW221213   3.488   1.124   2.865
 6772SOL     OW21214   5.272   2.594   2.519
 6772SOL    HW121215   5.261   2.677   2.574
 6772SOL    HW221216   5.369   2.573   2.510
 6773SOL     OW21217   6.776   6.644   1.643
 6773SOL    HW121218   6.867   6.658   1.605
 6773SOL    HW221219   6.714   6.715   1.608
 6774SOL     OW21220   2.274   2.305   4.688
 6774SOL    HW121221   2.317   2.390   4.659
 6774SOL    HW221222   2.269   2.301   4.787
 6775SOL     OW21223   0.631   2.115   3.525
 6775SOL    HW121224   0.635   2.152   3.618
 6775SOL    HW221225   0.536   2.113   3.493
 6776SOL     OW21226   3.940   3.321   1.429
 6776SOL    HW121227   3.923   3.419   1.442
 6776SOL    HW221228   4.023   3.309   1.374
 6777SOL     OW21229   4.295   5.815   0.559
 6777SOL    HW121230   4.288   5.901   0.610
 6777SOL    HW221231   4.204   5.773   0.552
 6778SOL     OW21232   6.338   3.781   2.429
 6778SOL    HW121233   6.330   3.866   2.377
 6778SOL    HW221234   6.435   3.763   2.448
 6779SOL     OW21235   5.631   5.052   6.900
 6779SOL    HW121236   5.541   5.030   6.864
 6779SOL    HW221237   5.653   4.989   6.975
 6780SOL     OW21238   1.499   3.635   2.712
 6780SOL    HW121239   1.562   3.694   2.763
 6780SOL    HW221240   1.494   3.546   2.758
 6781SOL     OW21241   6.695   2.084   3.943
 6781SOL    HW121242   6.694   2.148   4.019
 6781SOL    HW221243   6.601   2.062   3.916
 6782SOL     OW21244   0.662   1.226   3.353
 6782SOL    HW121245   0.675   1.171   3.436
 6782SOL    HW221246   0.722   1.191   3.281
 6783SOL     OW21247   0.895   3.547   5.317
 6783SOL    HW121248   0.855   3.540   5.409
 6783SOL    HW221249   0.823   3.540   5.249
 6784SOL     OW21250   2.081   3.984   1.515
 6784SOL    HW121251   2.044   4.052   1.578
 6784SOL    HW221252   2.082   3.895   1.559
 6785SOL     OW21253   5.807   5.058   5.828
 6785SOL    HW121254   5.757   5.143   5.817
 6785SOL    HW221255   5.748   4.981   5.803
 6786SOL     OW21256   0.409   3.154   6.300
 6786SOL    HW121257   0.349   3.075   6.303
 6786SOL    HW221258   0.503   3.126   6.320
 6787SOL     OW21259   3.230   2.230   1.232
 6787SOL    HW121260   3.183   2.282   1.303
 6787SOL    HW221261   3.302   2.286   1.191
 6788SOL     OW21262   0.463   4.058   2.557
 6788SOL    HW121263   0.475   4.044   2.655
 6788SOL    HW221264   0.548   4.095   2.519
 6789SOL     OW21265   0.105   4.798   4.041
 6789SOL    HW121266   0.140   4.785   4.134
 6789SOL    HW221267   0.152   4.876   3.999
 6790SOL     OW21268   0.397   4.177   6.668
 6790SOL    HW121269   0.379   4.263   6.716
 6790SOL    HW221270   0.310   4.133   6.645
 6791SOL     OW21271   4.311   1.898   3.029
 6791SOL    HW121272   4.282   1.898   2.933
 6791SOL    HW221273   4.230   1.902   3.088
 6792SOL     OW21274   4.482   6.926   5.118
 6792SOL    HW121275   4.495   7.019   5.152
 6792SOL    HW221276   4.543   6.864   5.167
 6793SOL     OW21277   3.099   1.653   6.755
 6793SOL    HW121278   3.138   1.710   6.828
 6793SOL    HW221279   3.159   1.656   6.675
 6794SOL     OW21280   4.522   1.039   5.407
 6794SOL    HW121281   4.498   0.944   5.390
 6794SOL    HW221282   4.592   1.044   5.479
 6795SOL     OW21283   0.835   0.045   0.359
 6795SOL    HW121284   0.758   0.013   0.304
 6795SOL    HW221285   0.911   0.071   0.300
 6796SOL     OW21286   5.783   0.119   2.685
 6796SOL    HW121287   5.878   0.089   2.695
 6796SOL    HW221288   5.726   0.076   2.755
 6797SOL     OW21289   6.356   1.562   0.109
 6797SOL    HW121290   6.421   1.532   0.179
 6797SOL    HW221291   6.285   1.618   0.152
 6798SOL     OW21292   6.329   0.616   1.010
 6798SOL    HW121293   6.357   0.547   0.943
 6798SOL    HW221294   6.408   0.672   1.036
 6799SOL     OW21295   5.385   0.086   2.570
 6799SOL    HW121296   5.386   0.012   2.637
 6799SOL    HW221297   5.467   0.081   2.513
 6800SOL     OW21298   2.252   2.041   1.664
 6800SOL    HW121299   2.314   2.012   1.737
 6800SOL    HW221300   2.259   2.140   1.653
 6801SOL     OW21301   0.460   6.268   3.685
 6801SOL    HW121302   0.446   6.346   3.745
 6801SOL    HW221303   0.372   6.236   3.649
 6802SOL     OW21304   3.565   5.511   0.832
 6802SOL    HW121305   3.584   5.609   0.838
 6802SOL    HW221306   3.645   5.460   0.863
 6803SOL     OW21307   4.403   3.547   6.968
 6803SOL    HW121308   4.346   3.579   0.023
 6803SOL    HW221309   4.394   3.610   6.891
 6804SOL     OW21310   3.138   5.115   2.447
 6804SOL    HW121311   3.217   5.129   2.507
 6804SOL    HW221312   3.122   5.017   2.435
 6805SOL     OW21313   0.809   5.292   6.926
 6805SOL    HW121314   0.783   5.196   6.927
 6805SOL    HW221315   0.851   5.315   6.838
 6806SOL     OW21316   0.062   0.516   3.930
 6806SOL    HW121317   0.128   0.464   3.984
 6806SOL    HW221318   7.009   0.549   3.990
 6807SOL     OW21319   3.583   4.158   3.550
 6807SOL    HW121320   3.611   4.158   3.646
 6807SOL    HW221321   3.488   4.188   3.543
 6808SOL     OW21322   5.806   1.114   4.823
 6808SOL    HW121323   5.850   1.087   4.909
 6808SOL    HW221324   5.863   1.180   4.775
 6809SOL     OW21325   5.892   3.870   0.420
 6809SOL    HW121326   5.891   3.895   0.517
 6809SOL    HW221327   5.857   3.946   0.365
 6810SOL     OW21328   3.383   0.773   3.123
 6810SOL    HW121329   3.383   0.797   3.026
 6810SOL    HW221330   3.293   0.791   3.162
 6811SOL     OW21331   6.835   3.305   2.202
 6811SOL    HW121332   6.782   3.258   2.272
 6811SOL    HW221333   6.773   3.342   2.133
 6812SOL     OW21334   3.440   3.806   4.868
 6812SOL    HW121335   3.516   3.864   4.900
 6812SOL    HW221336   3.457   3.780   4.773
 6813SOL     OW21337   5.605   3.477   2.201
 6813SOL    HW121338   5.590   3.434   2.290
 6813SOL    HW221339   5.656   3.415   2.142
 6814SOL     OW21340   4.729   1.751   6.752
 6814SOL    HW121341   4.695   1.799   6.672
 6814SOL    HW221342   4.777   1.668   6.723
 6815SOL     OW21343   2.025   5.715   6.802
 6815SOL    HW121344   2.091   5.735   6.874
 6815SOL    HW221345   1.939   5.763   6.822
 6816SOL     OW21346   6.908   1.799   4.916
 6816SOL    HW121347   6.942   1.853   4.838
 6816SOL    HW221348   6.975   1.728   4.938
 6817SOL     OW21349   2.259   2.755   3.714
 6817SOL    HW121350   2.228   2.846   3.686
 6817SOL    HW221351   2.276   2.699   3.634
 6818SOL     OW21352   2.115   6.275   0.232
 6818SOL    HW121353   2.093   6.178   0.221
 6818SOL    HW221354   2.131   6.317   0.143
 6819SOL     OW21355   4.372   0.895   2.646
 6819SOL    HW121356   4.396   0.865   2.739
 6819SOL    HW221357   4.296   0.840   2.612
 6820SOL     OW21358   1.136   5.696   1.784
 6820SOL    HW121359   1.160   5.651   1.870
 6820SOL    HW221360   1.081   5.634   1.728
 6821SOL     OW21361   4.878   3.022   5.385
 6821SOL    HW121362   4.966   3.051   5.349
 6821SOL    HW221363   4.882   2.925   5.408
 6822SOL     OW21364   6.542   2.787   6.455
 6822SOL    HW121365   6.605   2.817   6.527
 6822SOL    HW221366   6.595   2.750   6.378
 6823SOL     OW21367   5.500   4.479   0.032
 6823SOL    HW121368   5.500   4.380   0.021
 6823SOL    HW221369   5.577   4.506   0.091
 6824SOL     OW21370   1.670   1.574   0.452
 6824SOL    HW121371   1.690   1.525   0.367
 6824SOL    HW221372   1.754   1.585   0.505
 6825SOL     OW21373   6.345   0.009   0.396
 6825SOL    HW121374   6.387   0.004   0.486
 6825SOL    HW221375   6.251   0.043   0.404
 6826SOL     OW21376   0.949   3.557   3.968
 6826SOL    HW121377   0.891   3.514   3.899
 6826SOL    HW221378   0.893   3.611   4.031
 6827SOL     OW21379   5.182   5.800   5.889
 6827SOL    HW121380   5.086   5.826   5.879
 6827SOL    HW221381   5.188   5.719   5.947
 6828SOL     OW21382   4.062   1.383   2.588
 6828SOL    HW121383   4.114   1.299   2.603
 6828SOL    HW221384   3.980   1.383   2.645
 6829SOL     OW21385   5.042   6.766   5.301
 6829SOL    HW121386   4.963   6.793   5.355
 6829SOL    HW221387   5.114   6.835   5.310
 6830SOL     OW21388   5.922   1.185   3.434
 6830SOL    HW121389   6.018   1.173   3.459
 6830SOL    HW221390   5.911   1.169   3.336
 6831SOL     OW21391   1.409   0.936   5.559
 6831SOL    HW121392   1.506   0.952   5.542
 6831SOL    HW221393   1.384   0.972   5.649
 6832SOL     OW21394   2.269   4.037   0.576
 6832SOL    HW121395   2.326   3.991   0.643
 6832SOL    HW221396   2.172   4.025   0.600
 6833SOL     OW21397   3.171   5.203   6.225
 6833SOL    HW121398   3.167   5.170   6.319
 6833SOL    HW221399   3.177   5.125   6.163
 6834SOL     OW21400   5.055   0.392   1.088
 6834SOL    HW121401   5.124   0.429   1.150
 6834SOL    HW221402   4.965   0.396   1.132
 6835SOL     OW21403   3.576   1.639   4.819
 6835SOL    HW121404   3.611   1.615   4.729
 6835SOL    HW221405   3.589   1.561   4.881
 6836SOL     OW21406   2.314   4.125   6.170
 6836SOL    HW121407   2.236   4.173   6.212
 6836SOL    HW221408   2.399   4.171   6.195
 6837SOL     OW21409   0.551   1.001   3.142
 6837SOL    HW121410   0.494   1.076   3.110
 6837SOL    HW221411   0.645   1.033   3.155
 6838SOL     OW21412   2.351   4.099   5.721
 6838SOL    HW121413   2.449   4.122   5.719
 6838SOL    HW221414   2.305   4.146   5.645
 6839SOL     OW21415   5.605   1.937   3.883
 6839SOL    HW121416   5.551   1.985   3.813
 6839SOL    HW221417   5.696   1.978   3.889
 6840SOL     OW21418   2.852   6.147   5.508
 6840SOL    HW121419   2.936   6.112   5.551
 6840SOL    HW221420   2.778   6.082   5.523
 6841SOL     OW21421   4.251   4.719   1.138
 6841SOL    HW121422   4.262   4.777   1.218
 6841SOL    HW221423   4.254   4.623   1.165
 6842SOL     OW21424   2.162   2.513   6.625
 6842SOL    HW121425   2.073   2.501   6.670
 6842SOL    HW221426   2.155   2.584   6.555
 6843SOL     OW21427   5.236   1.063   2.052
 6843SOL    HW121428   5.239   1.155   2.013
 6843SOL    HW221429   5.245   1.068   2.151
 6844SOL     OW21430   5.731   6.199   4.290
 6844SOL    HW121431   5.730   6.103   4.264
 6844SOL    HW221432   5.767   6.208   4.383
 6845SOL     OW21433   5.290   4.557   2.491
 6845SOL    HW121434   5.376   4.591   2.527
 6845SOL    HW221435   5.243   4.631   2.442
 6846SOL     OW21436   4.188   3.219   1.305
 6846SOL    HW121437   4.263   3.284   1.312
 6846SOL    HW221438   4.211   3.135   1.355
 6847SOL     OW21439   6.481   3.753   1.710
 6847SOL    HW121440   6.416   3.770   1.783
 6847SOL    HW221441   6.452   3.801   1.627
 6848SOL     OW21442   2.588   6.395   3.305
 6848SOL    HW121443   2.673   6.423   3.259
 6848SOL    HW221444   2.549   6.316   3.258
 6849SOL     OW21445   2.859   5.463   4.644
 6849SOL    HW121446   2.909   5.546   4.667
 6849SOL    HW221447   2.795   5.482   4.569
 6850SOL     OW21448   5.497   3.248   2.360
 6850SOL    HW121449   5.446   3.334   2.362
 6850SOL    HW221450   5.549   3.238   2.445
 6851SOL     OW21451   1.515   3.067   4.465
 6851SOL    HW121452   1.507   2.976   4.505
 6851SOL    HW221453   1.483   3.136   4.531
 6852SOL     OW21454   1.110   4.563   0.994
 6852SOL    HW121455   1.163   4.500   0.938
 6852SOL    HW221456   1.047   4.615   0.935
 6853SOL     OW21457   6.657   3.458   6.587
 6853SOL    HW121458   6.688   3.547   6.622
 6853SOL    HW221459   6.625   3.402   6.663
 6854SOL     OW21460   5.656   1.493   5.732
 6854SOL    HW121461   5.668   1.423   5.661
 6854SOL    HW221462   5.582   1.555   5.705
 6855SOL     OW21463   3.610   5.695   2.380
 6855SOL    HW121464   3.709   5.697   2.365
 6855SOL    HW221465   3.589   5.737   2.468
 6856SOL     OW21466   4.773   4.564   5.410
 6856SOL    HW121467   4.825   4.604   5.486
 6856SOL    HW221468   4.814   4.477   5.384
 6857SOL     OW21469   3.667   1.654   6.844
 6857SOL    HW121470   3.753   1.623   6.804
 6857SOL    HW221471   3.629   1.581   6.902
 6858SOL     OW21472   4.149   3.761   4.727
 6858SOL    HW121473   4.188   3.674   4.697
 6858SOL    HW221474   4.131   3.757   4.825
 6859SOL     OW21475   1.564   6.670   1.239
 6859SOL    HW121476   1.540   6.720   1.322
 6859SOL    HW221477   1.609   6.732   1.175
 6860SOL     OW21478   5.402   5.602   1.905
 6860SOL    HW121479   5.310   5.574   1.934
 6860SOL    HW221480   5.401   5.697   1.875
 6861SOL     OW21481   5.823   4.407   1.596
 6861SOL    HW121482   5.778   4.333   1.545
 6861SOL    HW221483   5.902   4.440   1.544
 6862SOL     OW21484   2.348   4.257   4.300
 6862SOL    HW121485   2.398   4.171   4.288
 6862SOL    HW221486   2.390   4.309   4.375
 6863SOL     OW21487   5.690   1.756   4.570
 6863SOL    HW121488   5.627   1.680   4.583
 6863SOL    HW221489   5.776   1.723   4.532
 6864SOL     OW21490   3.434   6.041   3.497
 6864SOL    HW121491   3.466   5.955   3.537
 6864SOL    HW221492   3.335   6.037   3.483
 6865SOL     OW21493   6.094   5.783   2.581
 6865SOL    HW121494   6.088   5.759   2.678
 6865SOL    HW221495   6.038   5.718   2.528
 6866SOL     OW21496   6.428   4.452   2.231
 6866SOL    HW121497   6.447   4.439   2.328
 6866SOL    HW221498   6.461   4.372   2.180
 6867SOL     OW21499   1.599   4.568   1.254
 6867SOL    HW121500   1.581   4.598   1.347
 6867SOL    HW221501   1.512   4.554   1.206
 6868SOL     OW21502   2.085   5.295   5.079
 6868SOL    HW121503   2.089   5.201   5.113
 6868SOL    HW221504   2.170   5.343   5.103
 6869SOL     OW21505   5.922   2.110   5.321
 6869SOL    HW121506   5.984   2.189   5.324
 6869SOL    HW221507   5.859   2.120   5.245
 6870SOL     OW21508   6.857   4.243   2.214
 6870SOL    HW121509   6.941   4.197   2.241
 6870SOL    HW221510   6.846   4.327   2.268
 6871SOL     OW21511   6.227   5.030   2.676
 6871SOL    HW121512   6.314   5.078   2.691
 6871SOL    HW221513   6.226   4.946   2.731
 6872SOL     OW21514   1.262   3.595   0.669
 6872SOL    HW121515   1.316   3.516   0.698
 6872SOL    HW221516   1.322   3.663   0.628
 6873SOL     OW21517   5.926   3.593   5.154
 6873SOL    HW121518   5.868   3.528   5.202
 6873SOL    HW221519   5.875   3.635   5.080
 6874SOL     OW21520   0.886   4.794   2.848
 6874SOL    HW121521   0.953   4.758   2.912
 6874SOL    HW221522   0.847   4.719   2.795
 6875SOL     OW21523   1.474   2.926   3.639
 6875SOL    HW121524   1.558   2.931   3.694
 6875SOL    HW221525   1.495   2.889   3.549
 6876SOL     OW21526   3.825   5.390   5.303
 6876SOL    HW121527   3.820   5.373   5.204
 6876SOL    HW221528   3.835   5.304   5.352
 6877SOL     OW21529   2.671   4.109   6.016
 6877SOL    HW121530   2.614   4.100   6.097
 6877SOL    HW221531   2.635   4.183   5.958
 6878SOL     OW21532   2.703   2.388   5.167
 6878SOL    HW121533   2.620   2.353   5.211
 6878SOL    HW221534   2.783   2.341   5.204
 6879SOL     OW21535   1.067   1.941   6.928
 6879SOL    HW121536   1.134   1.944   6.853
 6879SOL    HW221537   1.054   1.847   6.958
 6880SOL     OW21538   2.144   3.437   4.974
 6880SOL    HW121539   2.112   3.504   4.907
 6880SOL    HW221540   2.231   3.399   4.943
 6881SOL     OW21541   0.156   3.852   2.058
 6881SOL    HW121542   0.115   3.773   2.105
 6881SOL    HW221543   0.188   3.918   2.126
 6882SOL     OW21544   3.194   0.228   5.822
 6882SOL    HW121545   3.193   0.131   5.797
 6882SOL    HW221546   3.102   0.256   5.850
 6883SOL     OW21547   3.679   1.403   0.754
 6883SOL    HW121548   3.734   1.416   0.671
 6883SOL    HW221549   3.583   1.388   0.728
 6884SOL     OW21550   1.867   3.664   4.472
 6884SOL    HW121551   1.812   3.653   4.389
 6884SOL    HW221552   1.867   3.760   4.500
 6885SOL     OW21553   3.916   5.436   4.996
 6885SOL    HW121554   3.853   5.513   5.008
 6885SOL    HW221555   4.000   5.454   5.046
 6886SOL     OW21556   6.905   0.793   3.276
 6886SOL    HW121557   6.922   0.888   3.252
 6886SOL    HW221558   6.824   0.786   3.334
 6887SOL     OW21559   5.110   0.248   5.857
 6887SOL    HW121560   5.095   0.216   5.764
 6887SOL    HW221561   5.059   0.190   5.921
 6888SOL     OW21562   5.175   6.599   6.781
 6888SOL    HW121563   5.158   6.695   6.758
 6888SOL    HW221564   5.183   6.546   6.697
 6889SOL     OW21565   1.389   2.220   5.543
 6889SOL    HW121566   1.353   2.131   5.515
 6889SOL    HW221567   1.489   2.215   5.546
 6890SOL     OW21568   3.544   6.257   1.775
 6890SOL    HW121569   3.472   6.323   1.792
 6890SOL    HW221570   3.556   6.243   1.677
 6891SOL     OW21571   2.184   3.987   4.129
 6891SOL    HW121572   2.183   3.890   4.107
 6891SOL    HW221573   2.175   3.999   4.228
 6892SOL     OW21574   3.371   0.906   3.511
 6892SOL    HW121575   3.453   0.909   3.454
 6892SOL    HW221576   3.312   0.984   3.489
 6893SOL     OW21577   5.325   5.710   1.045
 6893SOL    HW121578   5.389   5.776   1.085
 6893SOL    HW221579   5.354   5.688   0.952
 6894SOL     OW21580   6.570   5.688   6.947
 6894SOL    HW121581   6.525   5.654   0.009
 6894SOL    HW221582   6.512   5.755   6.903
 6895SOL     OW21583   3.047   5.372   6.589
 6895SOL    HW121584   2.953   5.338   6.599
 6895SOL    HW221585   3.062   5.402   6.495
 6896SOL     OW21586   2.142   6.890   4.158
 6896SOL    HW121587   2.071   6.954   4.129
 6896SOL    HW221588   2.201   6.935   4.226
 6897SOL     OW21589   2.222   3.534   6.983
 6897SOL    HW121590   2.146   3.491   6.934
 6897SOL    HW221591   2.294   3.558   6.918
 6898SOL     OW21592   3.748   1.507   2.284
 6898SOL    HW121593   3.730   1.603   2.264
 6898SOL    HW221594   3.838   1.481   2.249
 6899SOL     OW21595   4.908   7.011   0.995
 6899SOL    HW121596   4.819   0.035   0.997
 6899SOL    HW221597   4.929   6.984   0.901
 6900SOL     OW21598   6.250   0.970   5.831
 6900SOL    HW121599   6.168   1.012   5.870
 6900SOL    HW221600   6.281   0.895   5.890
 6901SOL     OW21601   1.049   0.117   5.951
 6901SOL    HW121602   1.045   0.153   5.858
 6901SOL    HW221603   0.960   0.129   5.996
 6902SOL     OW21604   6.717   6.686   0.618
 6902SOL    HW121605   6.665   6.681   0.533
 6902SOL    HW221606   6.815   6.687   0.597
 6903SOL     OW21607   4.442   5.087   5.202
 6903SOL    HW121608   4.504   5.159   5.174
 6903SOL    HW221609   4.352   5.102   5.160
 6904SOL     OW21610   5.936   1.888   3.992
 6904SOL    HW121611   5.905   1.824   4.062
 6904SOL    HW221612   6.030   1.867   3.967
 6905SOL     OW21613   6.044   0.069   0.330
 6905SOL    HW121614   6.001   0.089   0.242
 6905SOL    HW221615   6.011   0.134   0.399
 6906SOL     OW21616   4.069   0.557   3.868
 6906SOL    HW121617   4.104   0.650   3.881
 6906SOL    HW221618   4.144   0.492   3.874
 6907SOL     OW21619   4.582   1.328   1.348
 6907SOL    HW121620   4.637   1.307   1.267
 6907SOL    HW221621   4.561   1.243   1.397
 6908SOL     OW21622   1.153   6.659   5.581
 6908SOL    HW121623   1.074   6.668   5.520
 6908SOL    HW221624   1.145   6.725   5.655
 6909SOL     OW21625   5.576   4.618   1.598
 6909SOL    HW121626   5.595   4.662   1.685
 6909SOL    HW221627   5.643   4.546   1.581
 6910SOL     OW21628   6.852   2.621   3.346
 6910SOL    HW121629   6.913   2.599   3.270
 6910SOL    HW221630   6.857   2.549   3.415
 6911SOL     OW21631   4.172   6.882   3.414
 6911SOL    HW121632   4.236   6.805   3.423
 6911SOL    HW221633   4.193   6.951   3.482
 6912SOL     OW21634   4.654   4.992   0.683
 6912SOL    HW121635   4.621   4.972   0.775
 6912SOL    HW221636   4.598   4.944   0.616
 6913SOL     OW21637   5.435   5.022   5.896
 6913SOL    HW121638   5.449   5.060   5.988
 6913SOL    HW221639   5.513   4.963   5.873
 6914SOL     OW21640   5.966   4.884   0.367
 6914SOL    HW121641   5.972   4.784   0.357
 6914SOL    HW221642   5.925   4.923   0.285
 6915SOL     OW21643   6.199   4.739   1.979
 6915SOL    HW121644   6.186   4.777   1.887
 6915SOL    HW221645   6.297   4.733   1.998
 6916SOL     OW21646   5.921   3.574   0.385
 6916SOL    HW121647   5.944   3.524   0.301
 6916SOL    HW221648   5.894   3.668   0.361
 6917SOL     OW21649   3.500   5.686   0.268
 6917SOL    HW121650   3.552   5.747   0.327
 6917SOL    HW221651   3.402   5.701   0.281
 6918SOL     OW21652   1.109   3.098   4.652
 6918SOL    HW121653   1.104   3.089   4.552
 6918SOL    HW221654   1.123   3.194   4.676
 6919SOL     OW21655   0.787   6.128   3.182
 6919SOL    HW121656   0.835   6.087   3.259
 6919SOL    HW221657   0.853   6.169   3.119
 6920SOL     OW21658   4.195   6.080   5.934
 6920SOL    HW121659   4.194   6.032   6.022
 6920SOL    HW221660   4.109   6.062   5.887
 6921SOL     OW21661   4.668   5.647   3.313
 6921SOL    HW121662   4.729   5.569   3.297
 6921SOL    HW221663   4.691   5.689   3.401
 6922SOL     OW21664   2.442   5.364   6.648
 6922SOL    HW121665   2.426   5.305   6.569
 6922SOL    HW221666   2.378   5.441   6.646
 6923SOL     OW21667   5.170   5.972   4.023
 6923SOL    HW121668   5.265   5.950   4.045
 6923SOL    HW221669   5.110   5.917   4.081
 6924SOL     OW21670   0.936   4.481   0.082
 6924SOL    HW121671   0.952   4.489   0.181
 6924SOL    HW221672   0.924   4.384   0.059
 6925SOL     OW21673   3.845   5.967   4.771
 6925SOL    HW121674   3.926   5.916   4.800
 6925SOL    HW221675   3.874   6.047   4.718
 6926SOL     OW21676   3.177   3.001   2.544
 6926SOL    HW121677   3.139   2.916   2.581
 6926SOL    HW221678   3.107   3.072   2.547
 6927SOL     OW21679   5.256   3.566   5.825
 6927SOL    HW121680   5.322   3.640   5.839
 6927SOL    HW221681   5.287   3.485   5.874
 6928SOL     OW21682   6.635   6.650   0.872
 6928SOL    HW121683   6.661   6.642   0.776
 6928SOL    HW221684   6.557   6.592   0.891
 6929SOL     OW21685   4.906   5.435   1.262
 6929SOL    HW121686   4.849   5.460   1.341
 6929SOL    HW221687   4.987   5.493   1.260
 6930SOL     OW21688   0.161   0.196   1.746
 6930SOL    HW121689   0.161   0.163   1.840
 6930SOL    HW221690   0.255   0.210   1.715
 6931SOL     OW21691   1.706   0.727   2.437
 6931SOL    HW121692   1.694   0.786   2.516
 6931SOL    HW221693   1.787   0.669   2.451
 6932SOL     OW21694   4.004   0.574   1.134
 6932SOL    HW121695   3.982   0.501   1.069
 6932SOL    HW221696   4.090   0.551   1.181
 6933SOL     OW21697   3.509   6.005   5.099
 6933SOL    HW121698   3.419   5.964   5.094
 6933SOL    HW221699   3.519   6.054   5.186
 6934SOL     OW21700   4.988   4.490   5.967
 6934SOL    HW121701   4.900   4.447   5.984
 6934SOL    HW221702   5.007   4.490   5.869
 6935SOL     OW21703   4.429   6.270   3.803
 6935SOL    HW121704   4.510   6.296   3.855
 6935SOL    HW221705   4.415   6.335   3.728
 6936SOL     OW21706   6.854   3.004   2.489
 6936SOL    HW121707   6.948   3.001   2.455
 6936SOL    HW221708   6.855   3.021   2.587
 6937SOL     OW21709   6.447   6.165   6.850
 6937SOL    HW121710   6.409   6.253   6.880
 6937SOL    HW221711   6.512   6.180   6.776
 6938SOL     OW21712   4.748   3.808   5.361
 6938SOL    HW121713   4.675   3.750   5.324
 6938SOL    HW221714   4.836   3.775   5.328
 6939SOL     OW21715   0.271   4.708   0.817
 6939SOL    HW121716   0.302   4.667   0.903
 6939SOL    HW221717   0.238   4.637   0.756
 6940SOL     OW21718   5.091   1.103   0.237
 6940SOL    HW121719   5.107   1.135   0.143
 6940SOL    HW221720   5.129   1.168   0.302
 6941SOL     OW21721   3.638   3.196   3.018
 6941SOL    HW121722   3.595   3.287   3.019
 6941SOL    HW221723   3.611   3.148   2.934
 6942SOL     OW21724   6.338   2.705   0.551
 6942SOL    HW121725   6.308   2.620   0.507
 6942SOL    HW221726   6.302   2.708   0.644
 6943SOL     OW21727   5.258   6.401   0.354
 6943SOL    HW121728   5.321   6.345   0.301
 6943SOL    HW221729   5.275   6.386   0.452
 6944SOL     OW21730   1.683   4.445   6.185
 6944SOL    HW121731   1.746   4.418   6.259
 6944SOL    HW221732   1.736   4.469   6.104
 6945SOL     OW21733   5.591   3.156   6.121
 6945SOL    HW121734   5.558   3.247   6.144
 6945SOL    HW221735   5.520   3.106   6.071
 6946SOL     OW21736   6.435   6.460   1.751
 6946SOL    HW121737   6.461   6.497   1.662
 6946SOL    HW221738   6.478   6.513   1.824
 6947SOL     OW21739   3.168   6.940   5.729
 6947SOL    HW121740   3.101   6.967   5.659
 6947SOL    HW221741   3.124   6.939   5.818
 6948SOL     OW21742   6.472   0.918   6.493
 6948SOL    HW121743   6.529   0.840   6.518
 6948SOL    HW221744   6.519   1.003   6.517
 6949SOL     OW21745   5.635   0.029   3.919
 6949SOL    HW121746   5.692   0.044   3.838
 6949SOL    HW221747   5.571   6.975   3.901
 6950SOL     OW21748   1.987   0.395   3.783
 6950SOL    HW121749   2.034   0.464   3.836
 6950SOL    HW221750   2.022   0.394   3.689
 6951SOL     OW21751   6.350   6.476   6.030
 6951SOL    HW121752   6.348   6.561   6.084
 6951SOL    HW221753   6.360   6.499   5.933
 6952SOL     OW21754   0.237   5.791   3.809
 6952SOL    HW121755   0.169   5.832   3.870
 6952SOL    HW221756   0.221   5.693   3.802
 6953SOL     OW21757   4.481   0.445   6.953
 6953SOL    HW121758   4.551   0.389   6.910
 6953SOL    HW221759   4.422   0.388   7.010
 6954SOL     OW21760   0.638   4.172   4.443
 6954SOL    HW121761   0.622   4.107   4.517
 6954SOL    HW221762   0.600   4.261   4.469
 6955SOL     OW21763   6.691   0.660   2.747
 6955SOL    HW121764   6.782   0.669   2.785
 6955SOL    HW221765   6.663   0.746   2.705
 6956SOL     OW21766   4.422   6.408   2.770
 6956SOL    HW121767   4.518   6.406   2.742
 6956SOL    HW221768   4.387   6.314   2.779
 6957SOL     OW21769   5.853   4.910   1.500
 6957SOL    HW121770   5.756   4.924   1.518
 6957SOL    HW221771   5.865   4.825   1.447
 6958SOL     OW21772   2.939   3.819   4.842
 6958SOL    HW121773   3.031   3.789   4.869
 6958SOL    HW221774   2.929   3.810   4.743
 6959SOL     OW21775   2.700   1.045   4.812
 6959SOL    HW121776   2.763   1.033   4.735
 6959SOL    HW221777   2.724   1.128   4.862
 6960SOL     OW21778   1.466   5.710   1.253
 6960SOL    HW121779   1.421   5.757   1.329
 6960SOL    HW221780   1.532   5.644   1.289
 6961SOL     OW21781   6.272   3.013   4.248
 6961SOL    HW121782   6.347   3.004   4.184
 6961SOL    HW221783   6.234   2.922   4.268
 6962SOL     OW21784   5.022   5.754   2.451
 6962SOL    HW121785   4.955   5.700   2.501
 6962SOL    HW221786   5.076   5.694   2.392
 6963SOL     OW21787   6.993   5.434   0.996
 6963SOL    HW121788   0.010   5.520   0.960
 6963SOL    HW221789   6.975   5.445   1.094
 6964SOL     OW21790   4.069   5.653   4.720
 6964SOL    HW121791   4.059   5.609   4.631
 6964SOL    HW221792   3.982   5.648   4.769
 6965SOL     OW21793   0.813   3.623   6.281
 6965SOL    HW121794   0.772   3.566   6.211
 6965SOL    HW221795   0.760   3.707   6.292
 6966SOL     OW21796   6.713   2.374   3.480
 6966SOL    HW121797   6.792   2.316   3.463
 6966SOL    HW221798   6.676   2.354   3.571
 6967SOL     OW21799   1.670   0.330   5.438
 6967SOL    HW121800   1.722   0.287   5.512
 6967SOL    HW221801   1.573   0.315   5.452
 6968SOL     OW21802   3.865   6.905   2.270
 6968SOL    HW121803   3.878   6.964   2.349
 6968SOL    HW221804   3.907   6.816   2.286
 6969SOL     OW21805   2.938   2.295   1.057
 6969SOL    HW121806   2.958   2.198   1.044
 6969SOL    HW221807   3.012   2.338   1.109
 6970SOL     OW21808   4.460   3.701   6.599
 6970SOL    HW121809   4.548   3.662   6.625
 6970SOL    HW221810   4.436   3.774   6.662
 6971SOL     OW21811   6.638   4.614   1.017
 6971SOL    HW121812   6.668   4.673   1.092
 6971SOL    HW221813   6.539   4.610   1.016
 6972SOL     OW21814   5.313   4.666   4.097
 6972SOL    HW121815   5.245   4.623   4.157
 6972SOL    HW221816   5.403   4.657   4.139
 6973SOL     OW21817   1.214   3.859   5.777
 6973SOL    HW121818   1.255   3.854   5.868
 6973SOL    HW221819   1.154   3.780   5.763
 6974SOL     OW21820   4.116   3.391   2.930
 6974SOL    HW121821   4.162   3.320   2.984
 6974SOL    HW221822   4.092   3.355   2.840
 6975SOL     OW21823   2.713   5.971   5.822
 6975SOL    HW121824   2.691   5.910   5.897
 6975SOL    HW221825   2.688   5.928   5.735
 6976SOL     OW21826   4.344   5.191   5.592
 6976SOL    HW121827   4.413   5.250   5.633
 6976SOL    HW221828   4.388   5.124   5.532
 6977SOL     OW21829   4.276   2.391   1.998
 6977SOL    HW121830   4.187   2.423   1.964
 6977SOL    HW221831   4.346   2.409   1.930
 6978SOL     OW21832   5.502   2.114   1.567
 6978SOL    HW121833   5.520   2.086   1.661
 6978SOL    HW221834   5.583   2.097   1.511
 6979SOL     OW21835   1.283   4.870   0.455
 6979SOL    HW121836   1.348   4.925   0.402
 6979SOL    HW221837   1.199   4.922   0.468
 6980SOL     OW21838   1.469   1.235   3.764
 6980SOL    HW121839   1.411   1.160   3.798
 6980SOL    HW221840   1.454   1.247   3.666
 6981SOL     OW21841   3.119   3.228   6.280
 6981SOL    HW121842   3.093   3.307   6.225
 6981SOL    HW221843   3.204   3.190   6.245
 6982SOL     OW21844   1.509   1.129   4.366
 6982SOL    HW121845   1.599   1.168   4.385
 6982SOL    HW221846   1.503   1.106   4.268
 6983SOL     OW21847   5.288   2.224   3.439
 6983SOL    HW121848   5.231   2.257   3.364
 6983SOL    HW221849   5.259   2.269   3.524
 6984SOL     OW21850   2.276   2.379   4.096
 6984SOL    HW121851   2.354   2.439   4.074
 6984SOL    HW221852   2.228   2.415   4.176
 6985SOL     OW21853   3.939   5.590   1.206
 6985SOL    HW121854   3.883   5.667   1.175
 6985SOL    HW221855   4.035   5.610   1.190
 6986SOL     OW21856   2.248   6.035   6.483
 6986SOL    HW121857   2.182   5.962   6.500
 6986SOL    HW221858   2.276   6.076   6.569
 6987SOL     OW21859   0.501   1.917   6.300
 6987SOL    HW121860   0.409   1.881   6.316
 6987SOL    HW221861   0.507   2.010   6.336
 6988SOL     OW21862   6.928   1.035   5.758
 6988SOL    HW121863   6.916   0.937   5.742
 6988SOL    HW221864   6.930   1.053   5.856
 6989SOL     OW21865   0.404   3.460   3.726
 6989SOL    HW121866   0.430   3.387   3.662
 6989SOL    HW221867   0.312   3.493   3.704
 6990SOL     OW21868   5.052   2.128   1.441
 6990SOL    HW121869   5.108   2.197   1.487
 6990SOL    HW221870   5.037   2.051   1.502
 6991SOL     OW21871   3.224   4.923   3.495
 6991SOL    HW121872   3.303   4.885   3.543
 6991SOL    HW221873   3.167   4.975   3.559
 6992SOL     OW21874   4.656   6.716   5.191
 6992SOL    HW121875   4.728   6.648   5.177
 6992SOL    HW221876   4.570   6.669   5.213
 6993SOL     OW21877   7.009   1.047   3.194
 6993SOL    HW121878   6.938   1.086   3.135
 6993SOL    HW221879   0.020   1.118   3.258
 6994SOL     OW21880   0.590   3.224   4.811
 6994SOL    HW121881   0.550   3.235   4.902
 6994SOL    HW221882   0.669   3.283   4.802
 6995SOL     OW21883   6.579   4.906   6.435
 6995SOL    HW121884   6.552   4.854   6.354
 6995SOL    HW221885   6.523   4.879   6.513
 6996SOL     OW21886   2.734   6.987   6.385
 6996SOL    HW121887   2.642   0.004   6.369
 6996SOL    HW221888   2.728   6.909   6.447
 6997SOL     OW21889   5.713   6.545   5.362
 6997SOL    HW121890   5.774   6.495   5.424
 6997SOL    HW221891   5.681   6.628   5.406
 6998SOL     OW21892   2.051   2.461   1.094
 6998SOL    HW121893   2.148   2.436   1.092
 6998SOL    HW221894   2.038   2.551   1.051
 6999SOL     OW21895   2.340   2.910   6.012
 6999SOL    HW121896   2.364   2.814   6.029
 6999SOL    HW221897   2.391   2.944   5.933
 7000SOL     OW21898   6.445   6.163   1.788
 7000SOL    HW121899   6.360   6.123   1.753
 7000SOL    HW221900   6.449   6.260   1.765
 7001SOL     OW21901   2.514   3.042   5.532
 7001SOL    HW121902   2.583   3.005   5.469
 7001SOL    HW221903   2.429   3.058   5.482
 7002SOL     OW21904   1.870   5.248   2.583
 7002SOL    HW121905   1.817   5.249   2.498
 7002SOL    HW221906   1.830   5.312   2.648
 7003SOL     OW21907   4.275   5.610   6.875
 7003SOL    HW121908   4.296   5.708   6.872
 7003SOL    HW221909   4.356   5.560   6.905
 7004SOL     OW21910   2.201   4.761   1.853
 7004SOL    HW121911   2.154   4.757   1.941
 7004SOL    HW221912   2.296   4.790   1.867
 7005SOL     OW21913   1.694   6.638   0.045
 7005SOL    HW121914   1.749   6.708   7.019
 7005SOL    HW221915   1.727   6.547   0.018
 7006SOL     OW21916   5.220   4.690   4.540
 7006SOL    HW121917   5.179   4.717   4.452
 7006SOL    HW221918   5.167   4.730   4.615
 7007SOL     OW21919   4.589   6.549   3.765
 7007SOL    HW121920   4.663   6.615   3.753
 7007SOL    HW221921   4.503   6.597   3.780
 7008SOL     OW21922   1.871   4.563   5.400
 7008SOL    HW121923   1.901   4.476   5.438
 7008SOL    HW221924   1.816   4.547   5.317
 7009SOL     OW21925   6.308   5.771   2.415
 7009SOL    HW121926   6.228   5.787   2.473
 7009SOL    HW221927   6.304   5.679   2.377
 7010SOL     OW21928   4.482   4.359   6.004
 7010SOL    HW121929   4.420   4.424   6.050
 7010SOL    HW221930   4.443   4.334   5.916
 7011SOL     OW21931   3.222   0.021   6.072
 7011SOL    HW121932   3.234   0.112   6.112
 7011SOL    HW221933   3.131   7.007   6.095
 7012SOL     OW21934   1.808   1.320   2.297
 7012SOL    HW121935   1.708   1.331   2.295
 7012SOL    HW221936   1.834   1.275   2.382
 7013SOL     OW21937   0.778   0.457   0.605
 7013SOL    HW121938   0.767   0.407   0.519
 7013SOL    HW221939   0.790   0.392   0.680
 7014SOL     OW21940   4.605   2.858   1.299
 7014SOL    HW121941   4.562   2.929   1.354
 7014SOL    HW221942   4.535   2.795   1.265
 7015SOL     OW21943   6.296   4.636   2.562
 7015SOL    HW121944   6.382   4.663   2.606
 7015SOL    HW221945   6.303   4.654   2.463
 7016SOL     OW21946   3.643   4.842   1.649
 7016SOL    HW121947   3.619   4.826   1.553
 7016SOL    HW221948   3.591   4.780   1.707
 7017SOL     OW21949   2.296   6.789   2.648
 7017SOL    HW121950   2.330   6.697   2.634
 7017SOL    HW221951   2.321   6.820   2.740
 7018SOL     OW21952   5.738   4.046   4.880
 7018SOL    HW121953   5.756   3.984   4.803
 7018SOL    HW221954   5.697   3.994   4.955
 7019SOL     OW21955   2.235   3.623   6.632
 7019SOL    HW121956   2.234   3.535   6.584
 7019SOL    HW221957   2.321   3.634   6.680
 7020SOL     OW21958   5.950   6.911   6.321
 7020SOL    HW121959   5.935   6.813   6.332
 7020SOL    HW221960   5.945   6.955   6.411
 7021SOL     OW21961   1.807   1.253   5.510
 7021SOL    HW121962   1.723   1.303   5.535
 7021SOL    HW221963   1.865   1.244   5.591
 7022SOL     OW21964   4.550   6.044   0.542
 7022SOL    HW121965   4.627   5.988   0.572
 7022SOL    HW221966   4.473   6.030   0.604
 7023SOL     OW21967   0.329   1.826   3.789
 7023SOL    HW121968   0.338   1.893   3.863
 7023SOL    HW221969   0.413   1.825   3.735
 7024SOL     OW21970   1.822   4.266   5.759
 7024SOL    HW121971   1.777   4.355   5.763
 7024SOL    HW221972   1.754   4.196   5.735
 7025SOL     OW21973   2.357   1.354   6.929
 7025SOL    HW121974   2.403   1.397   7.007
 7025SOL    HW221975   2.259   1.346   6.948
 7026SOL     OW21976   3.002   1.560   2.271
 7026SOL    HW121977   2.960   1.518   2.351
 7026SOL    HW221978   3.056   1.640   2.299
 7027SOL     OW21979   2.767   4.751   3.734
 7027SOL    HW121980   2.748   4.766   3.637
 7027SOL    HW221981   2.715   4.673   3.767
 7028SOL     OW21982   4.753   6.972   4.232
 7028SOL    HW121983   4.701   6.950   4.150
 7028SOL    HW221984   4.785   0.046   4.226
 7029SOL     OW21985   4.572   5.485   6.205
 7029SOL    HW121986   4.483   5.512   6.168
 7029SOL    HW221987   4.575   5.502   6.303
 7030SOL     OW21988   6.978   2.318   5.260
 7030SOL    HW121989   6.879   2.331   5.266
 7030SOL    HW221990   7.010   2.346   5.170
 7031SOL     OW21991   2.065   6.368   4.577
 7031SOL    HW121992   2.065   6.354   4.676
 7031SOL    HW221993   1.972   6.361   4.543
 7032SOL     OW21994   3.689   7.007   3.423
 7032SOL    HW121995   3.737   6.976   3.341
 7032SOL    HW221996   3.627   6.935   3.455
 7033SOL     OW21997   1.208   2.239   3.582
 7033SOL    HW121998   1.275   2.172   3.612
 7033SOL    HW221999   1.237   2.279   3.495
 7034SOL     OW22000   6.071   6.753   3.415
 7034SOL    HW122001   6.132   6.691   3.366
 7034SOL    HW222002   6.049   6.831   3.357
 7035SOL     OW22003   1.759   6.303   1.642
 7035SOL    HW122004   1.770   6.217   1.592
 7035SOL    HW222005   1.689   6.358   1.598
 7036SOL     OW22006   0.031   0.796   2.349
 7036SOL    HW122007   0.120   0.823   2.386
 7036SOL    HW222008   0.008   0.704   2.381
 7037SOL     OW22009   1.656   0.165   6.616
 7037SOL    HW122010   1.747   0.197   6.645
 7037SOL    HW222011   1.590   0.239   6.627
 7038SOL     OW22012   1.781   3.093   4.460
 7038SOL    HW122013   1.681   3.093   4.462
 7038SOL    HW222014   1.815   3.186   4.467
 7039SOL     OW22015   2.919   5.212   1.692
 7039SOL    HW122016   2.893   5.139   1.628
 7039SOL    HW222017   2.932   5.297   1.642
 7040SOL     OW22018   5.958   1.838   4.845
 7040SOL    HW122019   6.030   1.821   4.913
 7040SOL    HW222020   5.951   1.758   4.785
 7041SOL     OW22021   0.854   2.618   1.669
 7041SOL    HW122022   0.906   2.644   1.588
 7041SOL    HW222023   0.842   2.698   1.728
 7042SOL     OW22024   5.368   5.842   6.455
 7042SOL    HW122025   5.386   5.873   6.361
 7042SOL    HW222026   5.282   5.791   6.456
 7043SOL     OW22027   2.218   3.012   2.700
 7043SOL    HW122028   2.196   3.108   2.720
 7043SOL    HW222029   2.219   2.960   2.785
 7044SOL     OW22030   4.524   5.274   3.099
 7044SOL    HW122031   4.601   5.337   3.094
 7044SOL    HW222032   4.454   5.300   3.033
 7045SOL     OW22033   5.033   5.993   2.688
 7045SOL    HW122034   5.066   6.012   2.595
 7045SOL    HW222035   4.954   5.932   2.683
 7046SOL     OW22036   3.516   1.484   2.788
 7046SOL    HW122037   3.516   1.582   2.767
 7046SOL    HW222038   3.533   1.471   2.885
 7047SOL     OW22039   0.824   3.115   2.008
 7047SOL    HW122040   0.880   3.045   2.053
 7047SOL    HW222041   0.786   3.176   2.076
 7048SOL     OW22042   6.676   6.117   2.609
 7048SOL    HW122043   6.683   6.210   2.645
 7048SOL    HW222044   6.601   6.112   2.543
 7049SOL     OW22045   3.149   1.763   0.942
 7049SOL    HW122046   3.140   1.852   0.898
 7049SOL    HW222047   3.238   1.724   0.921
 7050SOL     OW22048   4.015   3.753   2.452
 7050SOL    HW122049   4.044   3.714   2.364
 7050SOL    HW222050   3.954   3.690   2.498
 7051SOL     OW22051   0.637   0.421   0.909
 7051SOL    HW122052   0.639   0.458   1.001
 7051SOL    HW222053   0.566   0.351   0.902
 7052SOL     OW22054   5.780   2.786   3.785
 7052SOL    HW122055   5.756   2.795   3.688
 7052SOL    HW222056   5.856   2.847   3.807
 7053SOL     OW22057   1.189   3.959   5.260
 7053SOL    HW122058   1.160   3.886   5.322
 7053SOL    HW222059   1.256   3.923   5.195
 7054SOL     OW22060   0.487   6.612   0.445
 7054SOL    HW122061   0.518   6.588   0.537
 7054SOL    HW222062   0.530   6.698   0.417
 7055SOL     OW22063   3.707   5.689   5.531
 7055SOL    HW122064   3.750   5.686   5.441
 7055SOL    HW222065   3.662   5.602   5.550
 7056SOL     OW22066   5.848   5.625   2.668
 7056SOL    HW122067   5.806   5.564   2.600
 7056SOL    HW222068   5.825   5.719   2.646
 7057SOL     OW22069   0.734   5.813   3.717
 7057SOL    HW122070   0.689   5.881   3.658
 7057SOL    HW222071   0.671   5.786   3.790
 7058SOL     OW22072   6.699   5.976   6.007
 7058SOL    HW122073   6.697   6.036   5.927
 7058SOL    HW222074   6.784   5.924   6.006
 7059SOL     OW22075   6.945   0.908   3.652
 7059SOL    HW122076   6.929   0.815   3.683
 7059SOL    HW222077   6.862   0.962   3.663
 7060SOL     OW22078   4.007   0.111   1.862
 7060SOL    HW122079   4.030   0.168   1.783
 7060SOL    HW222080   3.916   0.072   1.850
 7061SOL     OW22081   0.320   3.361   3.965
 7061SOL    HW122082   0.281   3.270   3.954
 7061SOL    HW222083   0.352   3.395   3.876
 7062SOL     OW22084   5.253   1.180   5.205
 7062SOL    HW122085   5.167   1.228   5.219
 7062SOL    HW222086   5.257   1.100   5.265
 7063SOL     OW22087   0.779   0.676   1.377
 7063SOL    HW122088   0.872   0.702   1.402
 7063SOL    HW222089   0.733   0.638   1.457
 7064SOL     OW22090   4.243   2.060   2.496
 7064SOL    HW122091   4.156   2.087   2.453
 7064SOL    HW222092   4.309   2.134   2.485
 7065SOL     OW22093   4.232   3.326   6.555
 7065SOL    HW122094   4.272   3.242   6.590
 7065SOL    HW222095   4.214   3.389   6.631
 7066SOL     OW22096   4.380   6.871   0.192
 7066SOL    HW122097   4.331   6.951   0.159
 7066SOL    HW222098   4.440   6.897   0.268
 7067SOL     OW22099   1.615   1.925   5.344
 7067SOL    HW122100   1.552   1.950   5.271
 7067SOL    HW222101   1.680   1.857   5.309
 7068SOL     OW22102   0.465   4.269   4.243
 7068SOL    HW122103   0.374   4.263   4.282
 7068SOL    HW222104   0.527   4.207   4.291
 7069SOL     OW22105   5.765   1.468   3.704
 7069SOL    HW122106   5.787   1.455   3.607
 7069SOL    HW222107   5.771   1.566   3.726
 7070SOL     OW22108   6.416   6.209   4.835
 7070SOL    HW122109   6.353   6.143   4.794
 7070SOL    HW222110   6.364   6.284   4.875
 7071SOL     OW22111   1.908   6.061   6.501
 7071SOL    HW122112   1.945   6.154   6.505
 7071SOL    HW222113   1.976   5.997   6.535
 7072SOL     OW22114   0.764   6.287   6.508
 7072SOL    HW122115   0.731   6.299   6.602
 7072SOL    HW222116   0.687   6.299   6.445
 7073SOL     OW22117   4.995   0.069   4.508
 7073SOL    HW122118   4.961   0.148   4.559
 7073SOL    HW222119   4.932   0.047   4.434
 7074SOL     OW22120   4.619   1.994   1.935
 7074SOL    HW122121   4.555   2.030   1.868
 7074SOL    HW222122   4.573   1.980   2.022
 7075SOL     OW22123   2.042   5.029   5.189
 7075SOL    HW122124   1.964   4.983   5.146
 7075SOL    HW222125   2.071   4.977   5.269
 7076SOL     OW22126   5.881   2.296   6.776
 7076SOL    HW122127   5.972   2.334   6.792
 7076SOL    HW222128   5.881   2.199   6.796
 7077SOL     OW22129   2.360   4.321   4.002
 7077SOL    HW122130   2.297   4.399   3.995
 7077SOL    HW222131   2.395   4.316   4.096
 7078SOL     OW22132   6.929   0.100   1.104
 7078SOL    HW122133   6.934   0.055   1.193
 7078SOL    HW222134   6.949   0.034   1.032
 7079SOL     OW22135   6.692   6.221   4.856
 7079SOL    HW122136   6.594   6.225   4.837
 7079SOL    HW222137   6.707   6.233   4.954
 7080SOL     OW22138   2.496   2.578   4.171
 7080SOL    HW122139   2.487   2.621   4.261
 7080SOL    HW222140   2.578   2.521   4.169
 7081SOL     OW22141   2.576   1.485   6.808
 7081SOL    HW122142   2.545   1.571   6.769
 7081SOL    HW222143   2.497   1.428   6.832
 7082SOL     OW22144   6.301   4.463   0.020
 7082SOL    HW122145   6.290   4.426   0.113
 7082SOL    HW222146   6.314   4.562   0.026
 7083SOL     OW22147   2.743   0.706   0.449
 7083SOL    HW122148   2.811   0.657   0.395
 7083SOL    HW222149   2.783   0.792   0.482
 7084SOL     OW22150   0.420   6.794   5.475
 7084SOL    HW122151   0.459   6.750   5.556
 7084SOL    HW222152   0.461   6.755   5.393
 7085SOL     OW22153   1.223   2.114   1.953
 7085SOL    HW122154   1.288   2.156   2.016
 7085SOL    HW222155   1.272   2.055   1.889
 7086SOL     OW22156   5.282   1.099   4.938
 7086SOL    HW122157   5.286   1.168   4.866
 7086SOL    HW222158   5.270   1.144   5.027
 7087SOL     OW22159   6.400   4.024   3.557
 7087SOL    HW122160   6.411   4.003   3.460
 7087SOL    HW222161   6.368   3.943   3.606
 7088SOL     OW22162   5.677   2.761   3.524
 7088SOL    HW122163   5.593   2.813   3.510
 7088SOL    HW222164   5.655   2.663   3.528
 7089SOL     OW22165   3.199   2.187   4.661
 7089SOL    HW122166   3.138   2.264   4.680
 7089SOL    HW222167   3.201   2.170   4.562
 7090SOL     OW22168   2.406   0.721   6.587
 7090SOL    HW122169   2.447   0.630   6.598
 7090SOL    HW222170   2.434   0.760   6.500
 7091SOL     OW22171   0.224   1.383   6.752
 7091SOL    HW122172   0.323   1.368   6.756
 7091SOL    HW222173   0.197   1.445   6.825
 7092SOL     OW22174   4.574   2.681   6.124
 7092SOL    HW122175   4.565   2.682   6.024
 7092SOL    HW222176   4.488   2.709   6.165
 7093SOL     OW22177   3.002   3.837   3.508
 7093SOL    HW122178   2.963   3.876   3.591
 7093SOL    HW222179   3.041   3.910   3.452
 7094SOL     OW22180   1.048   5.839   6.023
 7094SOL    HW122181   1.022   5.921   5.972
 7094SOL    HW222182   0.976   5.771   6.015
 7095SOL     OW22183   2.754   3.929   5.832
 7095SOL    HW122184   2.717   3.994   5.898
 7095SOL    HW222185   2.683   3.864   5.805
 7096SOL     OW22186   6.388   0.936   3.513
 7096SOL    HW122187   6.384   1.026   3.556
 7096SOL    HW222188   6.423   0.946   3.420
 7097SOL     OW22189   5.651   1.268   1.276
 7097SOL    HW122190   5.634   1.325   1.357
 7097SOL    HW222191   5.683   1.178   1.306
 7098SOL     OW22192   1.124   0.463   4.705
 7098SOL    HW122193   1.190   0.536   4.722
 7098SOL    HW222194   1.118   0.445   4.607
 7099SOL     OW22195   2.282   0.727   4.989
 7099SOL    HW122196   2.299   0.678   5.075
 7099SOL    HW222197   2.368   0.765   4.955
 7100SOL     OW22198   5.388   2.572   1.127
 7100SOL    HW122199   5.330   2.567   1.209
 7100SOL    HW222200   5.450   2.650   1.135
 7101SOL     OW22201   2.460   1.158   4.571
 7101SOL    HW122202   2.521   1.092   4.615
 7101SOL    HW222203   2.514   1.229   4.527
 7102SOL     OW22204   4.275   0.774   0.959
 7102SOL    HW122205   4.257   0.791   1.055
 7102SOL    HW222206   4.257   0.678   0.937
 7103SOL     OW22207   4.598   5.311   1.779
 7103SOL    HW122208   4.507   5.269   1.784
 7103SOL    HW222209   4.623   5.346   1.869
 7104SOL     OW22210   0.423   3.019   4.528
 7104SOL    HW122211   0.394   2.924   4.538
 7104SOL    HW222212   0.503   3.023   4.468
 7105SOL     OW22213   2.738   2.669   5.361
 7105SOL    HW122214   2.643   2.645   5.380
 7105SOL    HW222215   2.783   2.592   5.316
 7106SOL     OW22216   3.010   3.261   3.014
 7106SOL    HW122217   3.065   3.216   3.085
 7106SOL    HW222218   2.947   3.325   3.057
 7107SOL     OW22219   2.703   1.700   6.959
 7107SOL    HW122220   2.658   1.613   6.939
 7107SOL    HW222221   2.647   1.776   6.923
 7108SOL     OW22222   3.876   6.189   2.754
 7108SOL    HW122223   3.965   6.229   2.773
 7108SOL    HW222224   3.888   6.096   2.719
 7109SOL     OW22225   2.984   0.421   6.066
 7109SOL    HW122226   2.938   0.352   6.010
 7109SOL    HW222227   3.034   0.484   6.007
 7110SOL     OW22228   3.692   5.626   4.195
 7110SOL    HW122229   3.685   5.565   4.273
 7110SOL    HW222230   3.782   5.670   4.194
 7111SOL     OW22231   1.537   1.900   4.073
 7111SOL    HW122232   1.506   1.919   3.980
 7111SOL    HW222233   1.482   1.952   4.138
 7112SOL     OW22234   1.236   5.617   4.252
 7112SOL    HW122235   1.224   5.580   4.160
 7112SOL    HW222236   1.160   5.679   4.272
 7113SOL     OW22237   3.714   3.842   4.820
 7113SOL    HW122238   3.709   3.769   4.888
 7113SOL    HW222239   3.744   3.927   4.864
 7114SOL     OW22240   3.813   6.948   1.727
 7114SOL    HW122241   3.724   6.989   1.710
 7114SOL    HW222242   3.806   6.881   1.801
 7115SOL     OW22243   5.621   3.434   1.833
 7115SOL    HW122244   5.563   3.506   1.795
 7115SOL    HW222245   5.601   3.347   1.786
 7116SOL     OW22246   6.199   4.145   3.225
 7116SOL    HW122247   6.279   4.089   3.245
 7116SOL    HW222248   6.201   4.174   3.130
 7117SOL     OW22249   6.559   5.824   5.105
 7117SOL    HW122250   6.632   5.868   5.156
 7117SOL    HW222251   6.592   5.739   5.064
 7118SOL     OW22252   2.558   3.783   0.997
 7118SOL    HW122253   2.503   3.829   1.067
 7118SOL    HW222254   2.615   3.713   1.039
 7119SOL     OW22255   5.530   1.655   2.597
 7119SOL    HW122256   5.540   1.695   2.506
 7119SOL    HW222257   5.507   1.728   2.662
 7120SOL     OW22258   3.623   2.058   3.112
 7120SOL    HW122259   3.615   1.973   3.060
 7120SOL    HW222260   3.572   2.049   3.198
 7121SOL     OW22261   1.829   6.917   3.192
 7121SOL    HW122262   1.911   6.918   3.135
 7121SOL    HW222263   1.749   6.897   3.135
 7122SOL     OW22264   1.541   7.006   5.686
 7122SOL    HW122265   1.531   6.925   5.629
 7122SOL    HW222266   1.462   7.014   5.748
 7123SOL     OW22267   2.069   4.713   3.123
 7123SOL    HW122268   2.024   4.638   3.172
 7123SOL    HW222269   2.009   4.744   3.049
 7124SOL     OW22270   6.789   2.244   0.901
 7124SOL    HW122271   6.844   2.251   0.984
 7124SOL    HW222272   6.760   2.336   0.873
 7125SOL     OW22273   6.477   7.004   0.643
 7125SOL    HW122274   6.402   0.038   0.681
 7125SOL    HW222275   6.523   6.956   0.716
 7126SOL     OW22276   3.441   5.054   0.032
 7126SOL    HW122277   3.509   5.099   6.996
 7126SOL    HW222278   3.358   5.038   6.999
 7127SOL     OW22279   1.861   5.154   5.402
 7127SOL    HW122280   1.791   5.138   5.334
 7127SOL    HW222281   1.942   5.100   5.380
 7128SOL     OW22282   3.233   4.741   0.538
 7128SOL    HW122283   3.148   4.735   0.487
 7128SOL    HW222284   3.216   4.783   0.627
 7129SOL     OW22285   2.104   1.315   6.973
 7129SOL    HW122286   2.006   1.333   6.987
 7129SOL    HW222287   2.123   1.220   6.996
 7130SOL     OW22288   4.149   5.378   5.582
 7130SOL    HW122289   4.164   5.417   5.491
 7130SOL    HW222290   4.215   5.304   5.597
 7131SOL     OW22291   2.360   0.651   1.089
 7131SOL    HW122292   2.315   0.562   1.102
 7131SOL    HW222293   2.452   0.636   1.053
 7132SOL     OW22294   3.886   3.715   6.816
 7132SOL    HW122295   3.813   3.665   6.769
 7132SOL    HW222296   3.853   3.806   6.842
 7133SOL     OW22297   5.197   5.596   5.471
 7133SOL    HW122298   5.278   5.575   5.416
 7133SOL    HW222299   5.194   5.695   5.487
 7134SOL     OW22300   6.038   0.065   1.860
 7134SOL    HW122301   5.990   0.031   1.941
 7134SOL    HW222302   6.024   0.002   1.784
 7135SOL     OW22303   0.778   3.239   3.241
 7135SOL    HW122304   0.873   3.259   3.214
 7135SOL    HW222305   0.738   3.174   3.177
 7136SOL     OW22306   1.951   2.641   0.894
 7136SOL    HW122307   1.858   2.640   0.930
 7136SOL    HW222308   1.948   2.630   0.795
 7137SOL     OW22309   3.687   6.912   6.779
 7137SOL    HW122310   3.712   6.964   6.861
 7137SOL    HW222311   3.681   6.975   6.701
 7138SOL     OW22312   1.637   2.256   6.662
 7138SOL    HW122313   1.696   2.323   6.617
 7138SOL    HW222314   1.693   2.179   6.693
 7139SOL     OW22315   5.707   4.052   2.088
 7139SOL    HW122316   5.654   4.076   2.007
 7139SOL    HW222317   5.751   3.963   2.074
 7140SOL     OW22318   5.439   4.298   4.252
 7140SOL    HW122319   5.401   4.363   4.318
 7140SOL    HW222320   5.390   4.212   4.257
 7141SOL     OW22321   3.939   6.098   1.557
 7141SOL    HW122322   3.876   6.082   1.633
 7141SOL    HW222323   3.928   6.191   1.523
 7142SOL     OW22324   4.336   0.444   3.787
 7142SOL    HW122325   4.386   0.371   3.834
 7142SOL    HW222326   4.401   0.507   3.744
 7143SOL     OW22327   1.214   2.438   6.199
 7143SOL    HW122328   1.236   2.439   6.101
 7143SOL    HW222329   1.267   2.365   6.243
 7144SOL     OW22330   1.911   1.925   2.389
 7144SOL    HW122331   1.984   1.982   2.425
 7144SOL    HW222332   1.893   1.949   2.294
 7145SOL     OW22333   4.242   6.619   0.280
 7145SOL    HW122334   4.253   6.716   0.301
 7145SOL    HW222335   4.226   6.607   0.182
 7146SOL     OW22336   2.174   0.102   1.207
 7146SOL    HW122337   2.268   0.078   1.228
 7146SOL    HW222338   2.127   0.131   1.291
 7147SOL     OW22339   0.702   6.767   3.423
 7147SOL    HW122340   0.748   6.805   3.503
 7147SOL    HW222341   0.623   6.823   3.400
 7148SOL     OW22342   0.860   6.399   0.362
 7148SOL    HW122343   0.764   6.377   0.350
 7148SOL    HW222344   0.874   6.443   0.451
 7149SOL     OW22345   5.789   6.603   2.825
 7149SOL    HW122346   5.786   6.508   2.794
 7149SOL    HW222347   5.818   6.661   2.749
 7150SOL     OW22348   3.430   1.904   2.308
 7150SOL    HW122349   3.436   1.947   2.218
 7150SOL    HW222350   3.483   1.819   2.308
 7151SOL     OW22351   1.992   6.353   0.681
 7151SOL    HW122352   2.090   6.340   0.692
 7151SOL    HW222353   1.945   6.330   0.767
 7152SOL     OW22354   1.265   1.021   4.925
 7152SOL    HW122355   1.213   1.085   4.982
 7152SOL    HW222356   1.289   1.066   4.838
 7153SOL     OW22357   3.414   5.235   2.036
 7153SOL    HW122358   3.322   5.196   2.032
 7153SOL    HW222359   3.424   5.288   2.120
 7154SOL     OW22360   3.454   0.714   3.926
 7154SOL    HW122361   3.515   0.675   3.995
 7154SOL    HW222362   3.430   0.644   3.859
 7155SOL     OW22363   2.029   3.388   1.840
 7155SOL    HW122364   2.086   3.307   1.855
 7155SOL    HW222365   2.063   3.463   1.897
 7156SOL     OW22366   0.371   4.019   4.511
 7156SOL    HW122367   0.391   4.036   4.607
 7156SOL    HW222368   0.309   4.090   4.477
 7157SOL     OW22369   6.267   3.771   1.903
 7157SOL    HW122370   6.215   3.852   1.931
 7157SOL    HW222371   6.293   3.719   1.985
 7158SOL     OW22372   1.192   6.948   2.791
 7158SOL    HW122373   1.138   6.865   2.802
 7158SOL    HW222374   1.131   0.006   2.786
 7159SOL     OW22375   0.612   4.640   2.832
 7159SOL    HW122376   0.663   4.589   2.901
 7159SOL    HW222377   0.648   4.619   2.741
 7160SOL     OW22378   5.054   0.216   3.044
 7160SOL    HW122379   5.000   0.243   3.123
 7160SOL    HW222380   5.151   0.221   3.067
 7161SOL     OW22381   2.897   3.493   4.403
 7161SOL    HW122382   2.935   3.585   4.390
 7161SOL    HW222383   2.879   3.479   4.500
 7162SOL     OW22384   1.707   5.517   6.179
 7162SOL    HW122385   1.788   5.464   6.154
 7162SOL    HW222386   1.672   5.485   6.267
 7163SOL     OW22387   2.791   6.549   2.808
 7163SOL    HW122388   2.732   6.552   2.727
 7163SOL    HW222389   2.825   6.456   2.821
 7164SOL     OW22390   2.002   1.120   3.729
 7164SOL    HW122391   1.986   1.103   3.632
 7164SOL    HW222392   1.923   1.167   3.769
 7165SOL     OW22393   7.003   1.202   2.066
 7165SOL    HW122394   7.003   1.236   1.972
 7165SOL    HW222395   6.936   1.128   2.075
 7166SOL     OW22396   5.872   3.021   0.397
 7166SOL    HW122397   5.943   3.086   0.427
 7166SOL    HW222398   5.855   2.955   0.471
 7167SOL     OW22399   5.281   3.423   3.857
 7167SOL    HW122400   5.260   3.333   3.894
 7167SOL    HW222401   5.352   3.467   3.912
 7168SOL     OW22402   1.768   2.364   3.162
 7168SOL    HW122403   1.853   2.327   3.202
 7168SOL    HW222404   1.696   2.363   3.232
 7169SOL     OW22405   6.541   2.564   4.963
 7169SOL    HW122406   6.473   2.523   5.024
 7169SOL    HW222407   6.600   2.493   4.926
 7170SOL     OW22408   5.137   6.158   3.654
 7170SOL    HW122409   5.114   6.252   3.630
 7170SOL    HW222410   5.179   6.113   3.575
 7171SOL     OW22411   5.207   3.821   0.076
 7171SOL    HW122412   5.294   3.777   0.056
 7171SOL    HW222413   5.210   3.916   0.046
 7172SOL     OW22414   1.682   0.577   5.133
 7172SOL    HW122415   1.733   0.660   5.108
 7172SOL    HW222416   1.745   0.501   5.146
 7173SOL     OW22417   6.891   4.301   6.177
 7173SOL    HW122418   6.870   4.390   6.136
 7173SOL    HW222419   6.984   4.302   6.214
 7174SOL     OW22420   0.423   4.785   0.324
 7174SOL    HW122421   0.393   4.831   0.241
 7174SOL    HW222422   0.522   4.780   0.326
 7175SOL     OW22423   5.228   2.365   6.493
 7175SOL    HW122424   5.162   2.372   6.567
 7175SOL    HW222425   5.185   2.318   6.415
 7176SOL     OW22426   0.704   6.767   2.750
 7176SOL    HW122427   0.722   6.671   2.728
 7176SOL    HW222428   0.665   6.773   2.842
 7177SOL     OW22429   1.993   5.691   4.484
 7177SOL    HW122430   2.080   5.681   4.435
 7177SOL    HW222431   1.926   5.735   4.425
 7178SOL     OW22432   1.860   2.364   5.679
 7178SOL    HW122433   1.917   2.282   5.681
 7178SOL    HW222434   1.833   2.384   5.585
 7179SOL     OW22435   2.107   3.716   4.090
 7179SOL    HW122436   2.014   3.748   4.070
 7179SOL    HW222437   2.145   3.671   4.010
 7180SOL     OW22438   2.633   5.282   0.410
 7180SOL    HW122439   2.563   5.218   0.440
 7180SOL    HW222440   2.722   5.257   0.449
 7181SOL     OW22441   2.415   6.047   0.485
 7181SOL    HW122442   2.417   6.134   0.535
 7181SOL    HW222443   2.334   5.995   0.513
 7182SOL     OW22444   1.322   2.534   5.013
 7182SOL    HW122445   1.392   2.514   4.944
 7182SOL    HW222446   1.262   2.607   4.980
 7183SOL     OW22447   2.670   6.000   0.533
 7183SOL    HW122448   2.697   5.950   0.451
 7183SOL    HW222449   2.570   6.006   0.538
 7184SOL     OW22450   6.713   1.250   3.355
 7184SOL    HW122451   6.650   1.284   3.425
 7184SOL    HW222452   6.797   1.304   3.357
 7185SOL     OW22453   5.265   0.735   5.142
 7185SOL    HW122454   5.315   0.759   5.059
 7185SOL    HW222455   5.180   0.688   5.117
 7186SOL     OW22456   6.663   0.914   0.051
 7186SOL    HW122457   6.576   0.963   0.049
 7186SOL    HW222458   6.726   0.961   0.114
 7187SOL     OW22459   3.518   4.437   6.447
 7187SOL    HW122460   3.423   4.409   6.431
 7187SOL    HW222461   3.577   4.356   6.444
 7188SOL     OW22462   6.796   0.358   0.334
 7188SOL    HW122463   6.757   0.443   0.368
 7188SOL    HW222464   6.870   0.379   0.270
 7189SOL     OW22465   0.683   0.842   5.767
 7189SOL    HW122466   0.609   0.806   5.711
 7189SOL    HW222467   0.691   0.788   5.851
 7190SOL     OW22468   0.200   3.876   2.730
 7190SOL    HW122469   0.196   3.966   2.774
 7190SOL    HW222470   0.154   3.881   2.641
 7191SOL     OW22471   0.722   4.419   2.997
 7191SOL    HW122472   0.751   4.350   3.063
 7191SOL    HW222473   0.743   4.388   2.904
 7192SOL     OW22474   3.664   4.293   5.435
 7192SOL    HW122475   3.599   4.217   5.435
 7192SOL    HW222476   3.651   4.348   5.518
 7193SOL     OW22477   2.084   2.686   2.160
 7193SOL    HW122478   2.006   2.749   2.161
 7193SOL    HW222479   2.060   2.602   2.209
 7194SOL     OW22480   2.294   2.393   0.976
 7194SOL    HW122481   2.372   2.444   0.941
 7194SOL    HW222482   2.225   2.383   0.904
 7195SOL     OW22483   0.114   4.113   6.950
 7195SOL    HW122484   0.167   4.121   0.013
 7195SOL    HW222485   0.105   4.203   6.907
 7196SOL     OW22486   3.530   4.342   1.031
 7196SOL    HW122487   3.494   4.248   1.030
 7196SOL    HW222488   3.508   4.385   1.119
 7197SOL     OW22489   0.087   2.729   5.708
 7197SOL    HW122490   0.144   2.684   5.639
 7197SOL    HW222491   0.132   2.813   5.740
 7198SOL     OW22492   0.495   0.624   6.675
 7198SOL    HW122493   0.549   0.701   6.642
 7198SOL    HW222494   0.405   0.626   6.632
 7199SOL     OW22495   2.192   1.172   2.819
 7199SOL    HW122496   2.281   1.128   2.806
 7199SOL    HW222497   2.151   1.190   2.730
 7200SOL     OW22498   2.480   1.979   0.439
 7200SOL    HW122499   2.533   2.020   0.513
 7200SOL    HW222500   2.528   1.995   0.352
 7201SOL     OW22501   0.740   5.888   4.257
 7201SOL    HW122502   0.655   5.839   4.241
 7201SOL    HW222503   0.813   5.824   4.282
 7202SOL     OW22504   4.191   0.581   6.117
 7202SOL    HW122505   4.168   0.672   6.153
 7202SOL    HW222506   4.229   0.591   6.025
 7203SOL     OW22507   6.989   2.013   0.850
 7203SOL    HW122508   6.938   2.013   0.764
 7203SOL    HW222509   6.946   2.077   0.914
 7204SOL     OW22510   0.532   0.070   5.764
 7204SOL    HW122511   0.483   0.020   5.835
 7204SOL    HW222512   0.628   0.042   5.763
 7205SOL     OW22513   0.901   5.628   3.440
 7205SOL    HW122514   0.987   5.593   3.403
 7205SOL    HW222515   0.875   5.711   3.389
 7206SOL     OW22516   1.887   0.411   1.324
 7206SOL    HW122517   1.899   0.475   1.248
 7206SOL    HW222518   1.825   0.338   1.297
 7207SOL     OW22519   3.587   0.275   2.919
 7207SOL    HW122520   3.621   0.207   2.985
 7207SOL    HW222521   3.607   0.243   2.826
 7208SOL     OW22522   3.996   6.474   3.476
 7208SOL    HW122523   3.982   6.429   3.388
 7208SOL    HW222524   3.938   6.432   3.546
 7209SOL     OW22525   2.828   3.419   2.382
 7209SOL    HW122526   2.871   3.416   2.292
 7209SOL    HW222527   2.790   3.510   2.397
 7210SOL     OW22528   4.504   0.685   3.971
 7210SOL    HW122529   4.409   0.707   3.992
 7210SOL    HW222530   4.548   0.763   3.927
 7211SOL     OW22531   2.565   5.884   3.801
 7211SOL    HW122532   2.465   5.877   3.800
 7211SOL    HW222533   2.604   5.795   3.824
 7212SOL     OW22534   0.312   6.192   4.752
 7212SOL    HW122535   0.412   6.193   4.747
 7212SOL    HW222536   0.277   6.107   4.714
 7213SOL     OW22537   5.222   0.428   0.199
 7213SOL    HW122538   5.156   0.490   0.155
 7213SOL    HW222539   5.271   0.376   0.128
 7214SOL     OW22540   0.089   5.031   5.520
 7214SOL    HW122541   0.030   4.971   5.574
 7214SOL    HW222542   0.059   5.126   5.532
 7215SOL     OW22543   6.994   3.953   4.986
 7215SOL    HW122544   0.054   3.965   5.044
 7215SOL    HW222545   6.914   3.990   5.033
 7216SOL     OW22546   3.371   6.546   6.670
 7216SOL    HW122547   3.331   6.464   6.629
 7216SOL    HW222548   3.440   6.583   6.607
 7217SOL     OW22549   2.239   4.379   2.631
 7217SOL    HW122550   2.153   4.408   2.673
 7217SOL    HW222551   2.285   4.458   2.591
 7218SOL     OW22552   4.731   2.399   5.411
 7218SOL    HW122553   4.637   2.427   5.432
 7218SOL    HW222554   4.779   2.473   5.365
 7219SOL     OW22555   4.404   6.503   4.648
 7219SOL    HW122556   4.425   6.585   4.700
 7219SOL    HW222557   4.459   6.427   4.682
 7220SOL     OW22558   0.652   5.579   5.117
 7220SOL    HW122559   0.749   5.594   5.138
 7220SOL    HW222560   0.621   5.495   5.163
 7221SOL     OW22561   4.318   5.772   4.728
 7221SOL    HW122562   4.358   5.687   4.692
 7221SOL    HW222563   4.219   5.760   4.736
 7222SOL     OW22564   5.950   0.276   3.057
 7222SOL    HW122565   5.906   0.200   3.103
 7222SOL    HW222566   5.921   0.362   3.100
 7223SOL     OW22567   3.009   2.272   1.420
 7223SOL    HW122568   2.998   2.172   1.424
 7223SOL    HW222569   3.065   2.302   1.497
 7224SOL     OW22570   5.629   2.242   3.675
 7224SOL    HW122571   5.542   2.195   3.685
 7224SOL    HW222572   5.696   2.202   3.738
 7225SOL     OW22573   0.886   6.160   0.185
 7225SOL    HW122574   0.849   6.176   0.277
 7225SOL    HW222575   0.837   6.084   0.143
 7226SOL     OW22576   6.886   0.996   1.109
 7226SOL    HW122577   6.908   1.041   1.195
 7226SOL    HW222578   6.951   0.921   1.094
 7227SOL     OW22579   0.730   2.524   1.024
 7227SOL    HW122580   0.660   2.515   0.953
 7227SOL    HW222581   0.698   2.481   1.108
 7228SOL     OW22582   0.988   1.575   2.209
 7228SOL    HW122583   0.894   1.544   2.199
 7228SOL    HW222584   1.008   1.645   2.140
 7229SOL     OW22585   1.669   6.575   5.295
 7229SOL    HW122586   1.575   6.569   5.328
 7229SOL    HW222587   1.730   6.591   5.372
 7230SOL     OW22588   4.730   5.210   4.581
 7230SOL    HW122589   4.711   5.112   4.592
 7230SOL    HW222590   4.646   5.257   4.554
 7231SOL     OW22591   4.840   0.067   0.240
 7231SOL    HW122592   4.833   0.126   0.321
 7231SOL    HW222593   4.761   0.084   0.180
 7232SOL     OW22594   4.987   5.669   3.167
 7232SOL    HW122595   4.977   5.757   3.122
 7232SOL    HW222596   5.075   5.666   3.215
 7233SOL     OW22597   0.355   2.764   4.488
 7233SOL    HW122598   0.404   2.736   4.405
 7233SOL    HW222599   0.330   2.683   4.541
 7234SOL     OW22600   5.423   3.644   3.309
 7234SOL    HW122601   5.428   3.669   3.212
 7234SOL    HW222602   5.462   3.554   3.323
 7235SOL     OW22603   6.827   4.318   1.685
 7235SOL    HW122604   6.794   4.236   1.639
 7235SOL    HW222605   6.921   4.337   1.658
 7236SOL     OW22606   2.375   1.800   2.229
 7236SOL    HW122607   2.422   1.888   2.241
 7236SOL    HW222608   2.278   1.815   2.215
 7237SOL     OW22609   5.453   0.406   5.029
 7237SOL    HW122610   5.536   0.387   5.082
 7237SOL    HW222611   5.461   0.362   4.939
 7238SOL     OW22612   3.100   2.046   1.093
 7238SOL    HW122613   3.168   2.097   1.145
 7238SOL    HW222614   3.087   1.956   1.135
 7239SOL     OW22615   2.129   2.104   2.393
 7239SOL    HW122616   2.215   2.077   2.436
 7239SOL    HW222617   2.148   2.158   2.311
 7240SOL     OW22618   2.660   5.001   5.978
 7240SOL    HW122619   2.627   5.025   5.887
 7240SOL    HW222620   2.584   4.964   6.032
 7241SOL     OW22621   2.630   0.683   0.682
 7241SOL    HW122622   2.540   0.641   0.676
 7241SOL    HW222623   2.667   0.699   0.591
 7242SOL     OW22624   6.222   5.885   0.396
 7242SOL    HW122625   6.183   5.974   0.372
 7242SOL    HW222626   6.306   5.871   0.345
 7243SOL     OW22627   0.120   4.339   6.551
 7243SOL    HW122628   0.073   4.427   6.540
 7243SOL    HW222629   0.054   4.271   6.584
 7244SOL     OW22630   5.884   0.442   1.137
 7244SOL    HW122631   5.954   0.485   1.080
 7244SOL    HW222632   5.888   0.480   1.230
 7245SOL     OW22633   0.225   2.016   5.216
 7245SOL    HW122634   0.205   2.087   5.283
 7245SOL    HW222635   0.284   2.054   5.144
 7246SOL     OW22636   6.489   0.476   4.154
 7246SOL    HW122637   6.406   0.440   4.112
 7246SOL    HW222638   6.506   0.428   4.241
 7247SOL     OW22639   3.207   6.854   4.043
 7247SOL    HW122640   3.124   6.836   4.095
 7247SOL    HW222641   3.249   6.939   4.076
 7248SOL     OW22642   3.482   0.948   3.793
 7248SOL    HW122643   3.456   0.870   3.850
 7248SOL    HW222644   3.494   0.918   3.698
 7249SOL     OW22645   5.504   4.852   2.222
 7249SOL    HW122646   5.446   4.922   2.181
 7249SOL    HW222647   5.599   4.866   2.195
 7250SOL     OW22648   4.215   5.957   6.175
 7250SOL    HW122649   4.152   6.001   6.238
 7250SOL    HW222650   4.267   5.886   6.223
 7251SOL     OW22651   0.525   6.712   5.218
 7251SOL    HW122652   0.594   6.641   5.203
 7251SOL    HW222653   0.454   6.705   5.148
 7252SOL     OW22654   3.806   3.229   3.530
 7252SOL    HW122655   3.860   3.159   3.576
 7252SOL    HW222656   3.862   3.273   3.460
 7253SOL     OW22657   2.752   5.852   6.641
 7253SOL    HW122658   2.823   5.781   6.647
 7253SOL    HW222659   2.754   5.893   6.549
 7254SOL     OW22660   4.599   5.533   4.937
 7254SOL    HW122661   4.616   5.574   4.847
 7254SOL    HW222662   4.522   5.579   4.981
 7255SOL     OW22663   3.836   3.560   1.365
 7255SOL    HW122664   3.815   3.638   1.306
 7255SOL    HW222665   3.763   3.547   1.431
 7256SOL     OW22666   4.443   4.755   4.306
 7256SOL    HW122667   4.385   4.751   4.388
 7256SOL    HW222668   4.388   4.729   4.226
 7257SOL     OW22669   4.940   3.148   3.618
 7257SOL    HW122670   4.935   3.248   3.617
 7257SOL    HW222671   5.033   3.120   3.644
 7258SOL     OW22672   3.914   0.987   2.898
 7258SOL    HW122673   4.004   0.966   2.937
 7258SOL    HW222674   3.873   1.064   2.948
 7259SOL     OW22675   3.245   3.035   1.501
 7259SOL    HW122676   3.287   2.969   1.439
 7259SOL    HW222677   3.151   3.054   1.471
 7260SOL     OW22678   2.748   2.285   2.872
 7260SOL    HW122679   2.732   2.340   2.790
 7260SOL    HW222680   2.724   2.338   2.953
 7261SOL     OW22681   1.986   2.913   1.233
 7261SOL    HW122682   1.973   2.961   1.147
 7261SOL    HW222683   2.073   2.863   1.232
 7262SOL     OW22684   5.400   1.846   4.674
 7262SOL    HW122685   5.377   1.902   4.595
 7262SOL    HW222686   5.432   1.757   4.644
 7263SOL     OW22687   0.359   6.525   2.354
 7263SOL    HW122688   0.362   6.600   2.288
 7263SOL    HW222689   0.337   6.440   2.307
 7264SOL     OW22690   6.000   1.603   6.478
 7264SOL    HW122691   6.080   1.649   6.439
 7264SOL    HW222692   6.030   1.540   6.550
 7265SOL     OW22693   5.459   5.811   6.177
 7265SOL    HW122694   5.503   5.897   6.202
 7265SOL    HW222695   5.411   5.821   6.091
 7266SOL     OW22696   4.548   0.276   1.136
 7266SOL    HW122697   4.583   0.232   1.219
 7266SOL    HW222698   4.458   0.315   1.154
 7267SOL     OW22699   6.612   5.375   5.640
 7267SOL    HW122700   6.654   5.420   5.561
 7267SOL    HW222701   6.513   5.380   5.633
 7268SOL     OW22702   4.408   4.694   2.729
 7268SOL    HW122703   4.454   4.673   2.815
 7268SOL    HW222704   4.426   4.622   2.663
 7269SOL     OW22705   6.918   6.351   1.139
 7269SOL    HW122706   7.000   6.330   1.192
 7269SOL    HW222707   6.943   6.367   1.044
 7270SOL     OW22708   0.843   2.956   4.742
 7270SOL    HW122709   0.841   2.974   4.840
 7270SOL    HW222710   0.927   2.994   4.703
 7271SOL     OW22711   0.412   5.155   3.953
 7271SOL    HW122712   0.456   5.156   3.864
 7271SOL    HW222713   0.478   5.180   4.024
 7272SOL     OW22714   5.630   4.834   1.865
 7272SOL    HW122715   5.586   4.903   1.807
 7272SOL    HW222716   5.726   4.823   1.836
 7273SOL     OW22717   5.421   5.147   2.512
 7273SOL    HW122718   5.490   5.157   2.584
 7273SOL    HW222719   5.466   5.134   2.424
 7274SOL     OW22720   0.915   6.344   6.981
 7274SOL    HW122721   1.012   6.364   6.968
 7274SOL    HW222722   0.904   6.282   0.038
 7275SOL     OW22723   6.872   1.195   2.452
 7275SOL    HW122724   6.847   1.121   2.515
 7275SOL    HW222725   6.910   1.272   2.503
 7276SOL     OW22726   3.577   1.282   3.358
 7276SOL    HW122727   3.502   1.258   3.296
 7276SOL    HW222728   3.664   1.254   3.316
 7277SOL     OW22729   5.405   1.261   4.197
 7277SOL    HW122730   5.342   1.314   4.141
 7277SOL    HW222731   5.447   1.320   4.265
 7278SOL     OW22732   3.368   1.779   1.978
 7278SOL    HW122733   3.347   1.774   1.880
 7278SOL    HW222734   3.371   1.875   2.007
 7279SOL     OW22735   3.793   2.879   6.837
 7279SOL    HW122736   3.718   2.894   6.902
 7279SOL    HW222737   3.834   2.967   6.813
 7280SOL     OW22738   6.914   2.375   4.122
 7280SOL    HW122739   6.950   2.282   4.118
 7280SOL    HW222740   6.930   2.413   4.213
 7281SOL     OW22741   2.055   0.472   0.498
 7281SOL    HW122742   2.088   0.530   0.424
 7281SOL    HW222743   1.979   0.416   0.465
 7282SOL     OW22744   6.521   6.657   0.333
 7282SOL    HW122745   6.561   6.743   0.301
 7282SOL    HW222746   6.438   6.637   0.280
 7283SOL     OW22747   3.327   6.855   1.970
 7283SOL    HW122748   3.322   6.885   1.875
 7283SOL    HW222749   3.335   6.934   2.030
 7284SOL     OW22750   0.052   3.423   4.786
 7284SOL    HW122751   6.976   3.404   4.802
 7284SOL    HW222752   0.102   3.338   4.775
 7285SOL     OW22753   5.782   3.710   2.004
 7285SOL    HW122754   5.832   3.625   1.984
 7285SOL    HW222755   5.734   3.700   2.091
 7286SOL     OW22756   1.089   0.337   0.937
 7286SOL    HW122757   1.185   0.352   0.915
 7286SOL    HW222758   1.036   0.417   0.910
 7287SOL     OW22759   6.762   3.348   4.606
 7287SOL    HW122760   6.750   3.407   4.686
 7287SOL    HW222761   6.752   3.402   4.523
 7288SOL     OW22762   1.211   2.799   2.080
 7288SOL    HW122763   1.141   2.735   2.113
 7288SOL    HW222764   1.173   2.857   2.009
 7289SOL     OW22765   6.814   1.979   2.766
 7289SOL    HW122766   6.857   1.957   2.854
 7289SOL    HW222767   6.825   2.077   2.747
 7290SOL     OW22768   3.170   0.761   5.642
 7290SOL    HW122769   3.262   0.756   5.682
 7290SOL    HW222770   3.109   0.811   5.704
 7291SOL     OW22771   3.063   0.047   0.952
 7291SOL    HW122772   2.967   0.019   0.953
 7291SOL    HW222773   3.115   7.010   1.015
 7292SOL     OW22774   2.657   0.223   3.127
 7292SOL    HW122775   2.717   0.281   3.182
 7292SOL    HW222776   2.563   0.235   3.157
 7293SOL     OW22777   1.806   0.912   6.013
 7293SOL    HW122778   1.901   0.943   6.016
 7293SOL    HW222779   1.745   0.988   6.038
 7294SOL     OW22780   3.027   4.058   0.661
 7294SOL    HW122781   2.947   4.083   0.607
 7294SOL    HW222782   3.015   3.966   0.697
 7295SOL     OW22783   0.162   4.381   1.386
 7295SOL    HW122784   0.149   4.327   1.469
 7295SOL    HW222785   0.074   4.417   1.355
 7296SOL     OW22786   4.503   4.865   2.554
 7296SOL    HW122787   4.467   4.805   2.626
 7296SOL    HW222788   4.584   4.823   2.514
 7297SOL     OW22789   2.919   0.017   2.672
 7297SOL    HW122790   2.880   0.091   2.727
 7297SOL    HW222791   2.846   6.994   2.619
 7298SOL     OW22792   5.165   5.770   0.179
 7298SOL    HW122793   5.240   5.825   0.217
 7298SOL    HW222794   5.201   5.684   0.144
 7299SOL     OW22795   0.606   1.540   0.692
 7299SOL    HW122796   0.626   1.611   0.624
 7299SOL    HW222797   0.511   1.548   0.721
 7300SOL     OW22798   0.715   5.863   2.272
 7300SOL    HW122799   0.668   5.791   2.323
 7300SOL    HW222800   0.714   5.841   2.174
 7301SOL     OW22801   6.382   1.927   6.141
 7301SOL    HW122802   6.383   2.006   6.203
 7301SOL    HW222803   6.383   1.960   6.046
 7302SOL     OW22804   0.205   2.134   5.649
 7302SOL    HW122805   0.191   2.038   5.671
 7302SOL    HW222806   0.150   2.158   5.568
 7303SOL     OW22807   3.403   0.632   6.896
 7303SOL    HW122808   3.367   0.599   6.809
 7303SOL    HW222809   3.351   0.592   6.972
 7304SOL     OW22810   1.941   5.498   1.790
 7304SOL    HW122811   1.987   5.586   1.785
 7304SOL    HW222812   2.008   5.424   1.781
 7305SOL     OW22813   5.695   2.052   1.357
 7305SOL    HW122814   5.712   2.086   1.264
 7305SOL    HW222815   5.782   2.041   1.404
 7306SOL     OW22816   3.963   1.892   1.967
 7306SOL    HW122817   3.982   1.884   2.065
 7306SOL    HW222818   3.869   1.921   1.953
 7307SOL     OW22819   4.365   0.198   2.113
 7307SOL    HW122820   4.273   0.234   2.100
 7307SOL    HW222821   4.401   0.229   2.201
 7308SOL     OW22822   6.381   1.304   3.281
 7308SOL    HW122823   6.363   1.360   3.361
 7308SOL    HW222824   6.298   1.251   3.258
 7309SOL     OW22825   2.623   6.598   1.760
 7309SOL    HW122826   2.651   6.686   1.721
 7309SOL    HW222827   2.632   6.602   1.859
 7310SOL     OW22828   1.638   3.078   6.548
 7310SOL    HW122829   1.678   2.987   6.562
 7310SOL    HW222830   1.698   3.147   6.588
 7311SOL     OW22831   0.961   0.171   0.587
 7311SOL    HW122832   0.906   0.195   0.666
 7311SOL    HW222833   0.902   0.145   0.511
 7312SOL     OW22834   0.854   1.818   5.029
 7312SOL    HW122835   0.888   1.724   5.024
 7312SOL    HW222836   0.759   1.821   4.998
 7313SOL     OW22837   2.203   1.460   0.500
 7313SOL    HW122838   2.272   1.447   0.429
 7313SOL    HW222839   2.230   1.409   0.582
 7314SOL     OW22840   0.130   4.252   5.845
 7314SOL    HW122841   0.058   4.189   5.875
 7314SOL    HW222842   0.214   4.233   5.895
 7315SOL     OW22843   5.481   5.640   2.366
 7315SOL    HW122844   5.389   5.636   2.326
 7315SOL    HW222845   5.473   5.632   2.466
 7316SOL     OW22846   3.731   2.154   6.491
 7316SOL    HW122847   3.648   2.117   6.451
 7316SOL    HW222848   3.794   2.079   6.513
 7317SOL     OW22849   3.507   1.261   2.200
 7317SOL    HW122850   3.591   1.254   2.147
 7317SOL    HW222851   3.461   1.348   2.180
 7318SOL     OW22852   3.491   6.312   2.969
 7318SOL    HW122853   3.397   6.346   2.961
 7318SOL    HW222854   3.513   6.299   3.066
 7319SOL     OW22855   6.034   3.687   6.406
 7319SOL    HW122856   6.075   3.669   6.495
 7319SOL    HW222857   6.063   3.617   6.341
 7320SOL     OW22858   0.631   3.451   6.931
 7320SOL    HW122859   0.591   3.540   6.955
 7320SOL    HW222860   0.598   3.381   6.995
 7321SOL     OW22861   2.435   6.761   6.303
 7321SOL    HW122862   2.371   6.798   6.371
 7321SOL    HW222863   2.467   6.671   6.332
 7322SOL     OW22864   0.257   3.001   2.536
 7322SOL    HW122865   0.322   2.926   2.547
 7322SOL    HW222866   0.183   2.973   2.475
 7323SOL     OW22867   2.652   2.570   1.334
 7323SOL    HW122868   2.563   2.556   1.291
 7323SOL    HW222869   2.700   2.645   1.288
 7324SOL     OW22870   6.161   4.721   2.795
 7324SOL    HW122871   6.199   4.774   2.871
 7324SOL    HW222872   6.228   4.714   2.722
 7325SOL     OW22873   2.736   6.831   5.049
 7325SOL    HW122874   2.753   6.829   5.148
 7325SOL    HW222875   2.658   6.891   5.030
 7326SOL     OW22876   3.922   0.282   6.472
 7326SOL    HW122877   3.940   0.199   6.524
 7326SOL    HW222878   4.001   0.304   6.415
 7327SOL     OW22879   5.792   3.264   3.686
 7327SOL    HW122880   5.740   3.341   3.651
 7327SOL    HW222881   5.865   3.241   3.621
 7328SOL     OW22882   4.668   6.439   5.877
 7328SOL    HW122883   4.589   6.496   5.853
 7328SOL    HW222884   4.735   6.442   5.802
 7329SOL     OW22885   1.272   2.814   0.470
 7329SOL    HW122886   1.214   2.751   0.419
 7329SOL    HW222887   1.366   2.781   0.468
 7330SOL     OW22888   2.191   3.025   0.642
 7330SOL    HW122889   2.109   3.044   0.695
 7330SOL    HW222890   2.246   3.108   0.635
 7331SOL     OW22891   5.152   6.336   2.350
 7331SOL    HW122892   5.248   6.347   2.326
 7331SOL    HW222893   5.144   6.292   2.439
 7332SOL     OW22894   4.001   4.217   6.823
 7332SOL    HW122895   4.098   4.203   6.842
 7332SOL    HW222896   3.970   4.300   6.868
 7333SOL     OW22897   5.854   3.432   2.650
 7333SOL    HW122898   5.844   3.518   2.600
 7333SOL    HW222899   5.886   3.451   2.743
 7334SOL     OW22900   2.903   5.489   5.530
 7334SOL    HW122901   2.984   5.448   5.488
 7334SOL    HW222902   2.894   5.584   5.501
 7335SOL     OW22903   0.045   2.189   3.180
 7335SOL    HW122904   0.128   2.134   3.187
 7335SOL    HW222905   0.007   2.204   3.271
 7336SOL     OW22906   2.473   6.331   1.408
 7336SOL    HW122907   2.443   6.263   1.474
 7336SOL    HW222908   2.421   6.321   1.323
 7337SOL     OW22909   2.171   3.244   0.937
 7337SOL    HW122910   2.124   3.195   0.864
 7337SOL    HW222911   2.128   3.334   0.950
 7338SOL     OW22912   5.606   1.833   1.770
 7338SOL    HW122913   5.632   1.829   1.674
 7338SOL    HW222914   5.530   1.770   1.787
 7339SOL     OW22915   6.881   0.294   5.194
 7339SOL    HW122916   6.942   0.281   5.116
 7339SOL    HW222917   6.912   0.237   5.271
 7340SOL     OW22918   3.927   1.950   6.997
 7340SOL    HW122919   3.941   1.856   6.965
 7340SOL    HW222920   3.832   1.962   0.003
 7341SOL     OW22921   1.663   5.071   5.259
 7341SOL    HW122922   1.670   4.972   5.274
 7341SOL    HW222923   1.567   5.096   5.247
 7342SOL     OW22924   6.038   6.896   6.985
 7342SOL    HW122925   6.017   6.979   0.017
 7342SOL    HW222926   5.957   6.839   6.979
 7343SOL     OW22927   5.777   3.008   1.964
 7343SOL    HW122928   5.704   3.018   1.897
 7343SOL    HW222929   5.865   2.997   1.918
 7344SOL     OW22930   2.085   0.138   6.551
 7344SOL    HW122931   2.173   0.179   6.530
 7344SOL    HW222932   2.097   0.067   6.621
 7345SOL     OW22933   4.961   6.033   5.319
 7345SOL    HW122934   5.013   6.044   5.404
 7345SOL    HW222935   4.868   6.068   5.332
 7346SOL     OW22936   3.612   3.867   1.411
 7346SOL    HW122937   3.608   3.896   1.507
 7346SOL    HW222938   3.522   3.837   1.381
 7347SOL     OW22939   6.348   2.434   1.408
 7347SOL    HW122940   6.441   2.399   1.395
 7347SOL    HW222941   6.286   2.357   1.419
 7348SOL     OW22942   1.667   3.464   3.426
 7348SOL    HW122943   1.656   3.364   3.430
 7348SOL    HW222944   1.703   3.497   3.513
 7349SOL     OW22945   3.803   1.775   1.393
 7349SOL    HW122946   3.704   1.764   1.379
 7349SOL    HW222947   3.819   1.846   1.460
 7350SOL     OW22948   1.553   3.472   4.187
 7350SOL    HW122949   1.602   3.545   4.234
 7350SOL    HW222950   1.547   3.392   4.246
 7351SOL     OW22951   4.148   4.827   6.490
 7351SOL    HW122952   4.053   4.794   6.485
 7351SOL    HW222953   4.152   4.920   6.455
 7352SOL     OW22954   1.828   2.809   3.057
 7352SOL    HW122955   1.883   2.786   3.137
 7352SOL    HW222956   1.818   2.728   2.999
 7353SOL     OW22957   0.845   0.547   5.932
 7353SOL    HW122958   0.760   0.595   5.956
 7353SOL    HW222959   0.823   0.461   5.886
 7354SOL     OW22960   0.546   1.642   5.933
 7354SOL    HW122961   0.578   1.665   6.025
 7354SOL    HW222962   0.508   1.549   5.934
 7355SOL     OW22963   1.458   6.920   0.003
 7355SOL    HW122964   1.514   6.896   0.082
 7355SOL    HW222965   1.386   6.852   7.012
 7356SOL     OW22966   5.461   2.651   6.038
 7356SOL    HW122967   5.439   2.594   5.958
 7356SOL    HW222968   5.427   2.606   6.121
 7357SOL     OW22969   4.339   1.128   1.230
 7357SOL    HW122970   4.425   1.146   1.276
 7357SOL    HW222971   4.267   1.186   1.268
 7358SOL     OW22972   1.817   2.284   1.960
 7358SOL    HW122973   1.891   2.276   1.894
 7358SOL    HW222974   1.807   2.379   1.989
 7359SOL     OW22975   2.977   2.890   0.823
 7359SOL    HW122976   3.054   2.880   0.759
 7359SOL    HW222977   2.901   2.935   0.777
 7360SOL     OW22978   3.375   2.221   6.124
 7360SOL    HW122979   3.468   2.193   6.101
 7360SOL    HW222980   3.367   2.320   6.113
 7361SOL     OW22981   4.129   0.292   2.027
 7361SOL    HW122982   4.091   0.215   1.978
 7361SOL    HW222983   4.056   0.355   2.055
 7362SOL     OW22984   0.733   6.886   5.051
 7362SOL    HW122985   0.678   6.818   5.099
 7362SOL    HW222986   0.743   6.859   4.955
 7363SOL     OW22987   3.878   1.582   1.217
 7363SOL    HW122988   3.844   1.501   1.265
 7363SOL    HW222989   3.828   1.663   1.247
 7364SOL     OW22990   4.164   6.895   1.578
 7364SOL    HW122991   4.120   6.976   1.539
 7364SOL    HW222992   4.110   6.861   1.654
 7365SOL     OW22993   1.551   5.940   1.930
 7365SOL    HW122994   1.616   6.007   1.966
 7365SOL    HW222995   1.536   5.958   1.832
 7366SOL     OW22996   1.719   5.672   0.678
 7366SOL    HW122997   1.692   5.607   0.606
 7366SOL    HW222998   1.663   5.755   0.669
 7367SOL     OW22999   4.655   4.131   1.467
 7367SOL    HW123000   4.677   4.178   1.552
 7367SOL    HW223001   4.556   4.125   1.457
 7368SOL     OW23002   3.669   2.941   4.146
 7368SOL    HW123003   3.717   2.917   4.230
 7368SOL    HW223004   3.571   2.923   4.157
 7369SOL     OW23005   4.621   3.358   0.821
 7369SOL    HW123006   4.589   3.453   0.828
 7369SOL    HW223007   4.717   3.354   0.851
 7370SOL     OW23008   2.366   0.080   5.415
 7370SOL    HW123009   2.327   0.131   5.493
 7370SOL    HW223010   2.428   0.140   5.365
 7371SOL     OW23011   2.295   5.886   3.723
 7371SOL    HW123012   2.298   5.985   3.714
 7371SOL    HW223013   2.200   5.856   3.733
 7372SOL     OW23014   2.961   0.887   5.778
 7372SOL    HW123015   2.892   0.840   5.723
 7372SOL    HW223016   2.932   0.888   5.873
 7373SOL     OW23017   5.640   1.876   3.538
 7373SOL    HW123018   5.593   1.809   3.595
 7373SOL    HW223019   5.573   1.928   3.485
 7374SOL     OW23020   2.929   2.221   5.230
 7374SOL    HW123021   3.014   2.269   5.206
 7374SOL    HW223022   2.932   2.128   5.194
 7375SOL     OW23023   1.798   2.554   2.952
 7375SOL    HW123024   1.755   2.518   2.869
 7375SOL    HW223025   1.804   2.482   3.021
 7376SOL     OW23026   4.109   1.495   0.347
 7376SOL    HW123027   4.177   1.535   0.286
 7376SOL    HW223028   4.020   1.539   0.331
 7377SOL     OW23029   5.144   5.868   2.097
 7377SOL    HW123030   5.120   5.965   2.102
 7377SOL    HW223031   5.112   5.831   2.010
 7378SOL     OW23032   6.974   1.839   5.189
 7378SOL    HW123033   0.038   1.892   5.184
 7378SOL    HW223034   6.930   1.837   5.100
 7379SOL     OW23035   3.884   2.115   3.127
 7379SOL    HW123036   3.908   2.124   3.030
 7379SOL    HW223037   3.784   2.117   3.136
 7380SOL     OW23038   6.883   3.205   5.101
 7380SOL    HW123039   6.826   3.128   5.130
 7380SOL    HW223040   6.852   3.236   5.011
 7381SOL     OW23041   5.105   4.088   2.280
 7381SOL    HW123042   5.008   4.107   2.295
 7381SOL    HW223043   5.158   4.171   2.293
 7382SOL     OW23044   0.256   5.751   5.928
 7382SOL    HW123045   0.266   5.670   5.870
 7382SOL    HW223046   0.302   5.735   6.015
 7383SOL     OW23047   0.753   6.747   1.507
 7383SOL    HW123048   0.796   6.657   1.502
 7383SOL    HW223049   0.762   6.783   1.600
 7384SOL     OW23050   5.722   0.751   2.173
 7384SOL    HW123051   5.667   0.682   2.127
 7384SOL    HW223052   5.756   0.817   2.106
 7385SOL     OW23053   4.399   6.662   2.035
 7385SOL    HW123054   4.303   6.633   2.030
 7385SOL    HW223055   4.407   6.758   2.007
 7386SOL     OW23056   6.798   2.191   5.680
 7386SOL    HW123057   6.885   2.147   5.704
 7386SOL    HW223058   6.731   2.121   5.654
 7387SOL     OW23059   4.147   6.386   4.586
 7387SOL    HW123060   4.235   6.431   4.572
 7387SOL    HW223061   4.140   6.306   4.527
 7388SOL     OW23062   6.942   5.424   3.435
 7388SOL    HW123063   6.861   5.392   3.386
 7388SOL    HW223064   0.001   5.371   3.405
 7389SOL     OW23065   1.052   4.853   0.141
 7389SOL    HW123066   1.101   4.786   0.197
 7389SOL    HW223067   0.978   4.808   0.091
 7390SOL     OW23068   1.413   1.319   0.030
 7390SOL    HW123069   1.404   1.353   0.124
 7390SOL    HW223070   1.480   1.375   7.002
 7391SOL     OW23071   4.890   4.202   4.827
 7391SOL    HW123072   4.915   4.105   4.823
 7391SOL    HW223073   4.811   4.219   4.770
 7392SOL     OW23074   2.954   5.572   6.939
 7392SOL    HW123075   2.918   5.548   6.849
 7392SOL    HW223076   3.017   5.648   6.931
 7393SOL     OW23077   5.900   5.388   1.531
 7393SOL    HW123078   5.831   5.383   1.458
 7393SOL    HW223079   5.873   5.328   1.606
 7394SOL     OW23080   2.944   2.232   6.165
 7394SOL    HW123081   2.977   2.325   6.179
 7394SOL    HW223082   2.949   2.209   6.068
 7395SOL     OW23083   2.177   1.544   0.139
 7395SOL    HW123084   2.212   1.488   0.065
 7395SOL    HW223085   2.252   1.594   0.182
 7396SOL     OW23086   1.495   6.819   0.488
 7396SOL    HW123087   1.531   6.799   0.397
 7396SOL    HW223088   1.439   6.902   0.484
 7397SOL     OW23089   5.216   5.344   5.145
 7397SOL    HW123090   5.211   5.254   5.189
 7397SOL    HW223091   5.291   5.345   5.079
 7398SOL     OW23092   3.048   5.291   4.085
 7398SOL    HW123093   2.984   5.217   4.064
 7398SOL    HW223094   3.003   5.360   4.140
 7399SOL     OW23095   0.706   3.193   5.269
 7399SOL    HW123096   0.803   3.186   5.289
 7399SOL    HW223097   0.671   3.280   5.304
 7400SOL     OW23098   2.612   3.653   6.553
 7400SOL    HW123099   2.697   3.688   6.512
 7400SOL    HW223100   2.537   3.716   6.532
 7401SOL     OW23101   0.912   0.943   3.910
 7401SOL    HW123102   0.825   0.895   3.896
 7401SOL    HW223103   0.974   0.885   3.962
 7402SOL     OW23104   2.314   5.420   5.147
 7402SOL    HW123105   2.331   5.396   5.243
 7402SOL    HW223106   2.282   5.515   5.142
 7403SOL     OW23107   1.322   3.907   3.409
 7403SOL    HW123108   1.375   3.829   3.442
 7403SOL    HW223109   1.242   3.875   3.358
 7404SOL     OW23110   2.744   5.849   1.475
 7404SOL    HW123111   2.816   5.791   1.438
 7404SOL    HW223112   2.692   5.799   1.544
 7405SOL     OW23113   2.605   5.119   4.116
 7405SOL    HW123114   2.536   5.072   4.061
 7405SOL    HW223115   2.573   5.127   4.211
 7406SOL     OW23116   1.388   3.554   3.414
 7406SOL    HW123117   1.486   3.534   3.417
 7406SOL    HW223118   1.350   3.518   3.329
 7407SOL     OW23119   0.037   5.824   5.234
 7407SOL    HW123120   7.020   5.737   5.264
 7407SOL    HW223121   6.988   5.876   5.185
 7408SOL     OW23122   1.048   3.795   6.147
 7408SOL    HW123123   1.066   3.714   6.203
 7408SOL    HW223124   0.951   3.799   6.125
 7409SOL     OW23125   0.624   1.284   5.028
 7409SOL    HW123126   0.667   1.274   4.938
 7409SOL    HW223127   0.547   1.220   5.035
 7410SOL     OW23128   0.064   5.178   0.902
 7410SOL    HW123129   0.163   5.191   0.908
 7410SOL    HW223130   0.017   5.259   0.937
 7411SOL     OW23131   2.961   6.217   4.169
 7411SOL    HW123132   2.962   6.298   4.110
 7411SOL    HW223133   2.993   6.243   4.261
 7412SOL     OW23134   4.285   0.429   2.755
 7412SOL    HW123135   4.273   0.362   2.682
 7412SOL    HW223136   4.273   0.522   2.719
 7413SOL     OW23137   5.743   5.331   4.859
 7413SOL    HW123138   5.742   5.231   4.858
 7413SOL    HW223139   5.763   5.366   4.768
 7414SOL     OW23140   0.001   6.827   3.874
 7414SOL    HW123141   7.007   6.924   3.854
 7414SOL    HW223142   0.052   6.785   3.799
 7415SOL     OW23143   0.992   4.111   2.900
 7415SOL    HW123144   1.068   4.136   2.960
 7415SOL    HW223145   0.964   4.017   2.918
 7416SOL     OW23146   3.054   0.761   3.747
 7416SOL    HW123147   3.134   0.717   3.705
 7416SOL    HW223148   3.013   0.825   3.681
 7417SOL     OW23149   2.308   7.009   5.851
 7417SOL    HW123150   2.243   6.936   5.828
 7417SOL    HW223151   2.396   6.969   5.875
 7418SOL     OW23152   3.938   4.750   0.311
 7418SOL    HW123153   3.961   4.753   0.408
 7418SOL    HW223154   3.850   4.794   0.296
 7419SOL     OW23155   6.268   2.556   4.519
 7419SOL    HW123156   6.253   2.654   4.533
 7419SOL    HW223157   6.268   2.509   4.608
 7420SOL     OW23158   6.544   6.598   1.948
 7420SOL    HW123159   6.627   6.570   1.900
 7420SOL    HW223160   6.565   6.669   2.014
 7421SOL     OW23161   3.233   3.676   1.635
 7421SOL    HW123162   3.271   3.715   1.551
 7421SOL    HW223163   3.259   3.579   1.641
 7422SOL     OW23164   0.254   3.561   2.366
 7422SOL    HW123165   0.296   3.544   2.276
 7422SOL    HW223166   0.272   3.483   2.426
 7423SOL     OW23167   6.629   4.279   6.025
 7423SOL    HW123168   6.608   4.375   6.043
 7423SOL    HW223169   6.696   4.247   6.093
 7424SOL     OW23170   6.506   0.633   4.428
 7424SOL    HW123171   6.485   0.536   4.419
 7424SOL    HW223172   6.603   0.648   4.411
 7425SOL     OW23173   4.767   5.776   6.736
 7425SOL    HW123174   4.726   5.686   6.750
 7425SOL    HW223175   4.705   5.832   6.681
 7426SOL     OW23176   1.473   1.841   6.124
 7426SOL    HW123177   1.569   1.854   6.150
 7426SOL    HW223178   1.418   1.914   6.163
 7427SOL     OW23179   3.214   5.743   3.837
 7427SOL    HW123180   3.167   5.674   3.782
 7427SOL    HW223181   3.147   5.812   3.867
 7428SOL     OW23182   3.799   1.816   5.668
 7428SOL    HW123183   3.881   1.780   5.712
 7428SOL    HW223184   3.814   1.911   5.641
 7429SOL     OW23185   5.370   0.118   3.459
 7429SOL    HW123186   5.286   0.157   3.420
 7429SOL    HW223187   5.439   0.109   3.388
 7430SOL     OW23188   0.276   3.964   6.147
 7430SOL    HW123189   0.350   4.020   6.184
 7430SOL    HW223190   0.305   3.923   6.061
 7431SOL     OW23191   0.228   3.388   2.611
 7431SOL    HW123192   0.197   3.479   2.640
 7431SOL    HW223193   0.225   3.325   2.689
 7432SOL     OW23194   0.465   0.030   3.551
 7432SOL    HW123195   0.502   6.977   3.608
 7432SOL    HW223196   0.540   0.076   3.504
 7433SOL     OW23197   5.901   5.011   0.863
 7433SOL    HW123198   5.856   5.088   0.819
 7433SOL    HW223199   5.862   4.996   0.954
 7434SOL     OW23200   4.491   0.743   6.236
 7434SOL    HW123201   4.582   0.753   6.275
 7434SOL    HW223202   4.475   0.815   6.168
 7435SOL     OW23203   3.938   5.395   0.262
 7435SOL    HW123204   3.906   5.386   0.357
 7435SOL    HW223205   3.910   5.484   0.227
 7436SOL     OW23206   5.490   3.331   6.341
 7436SOL    HW123207   5.559   3.390   6.301
 7436SOL    HW223208   5.513   3.312   6.437
 7437SOL     OW23209   0.226   6.049   0.369
 7437SOL    HW123210   0.221   6.140   0.411
 7437SOL    HW223211   0.210   6.057   0.271
 7438SOL     OW23212   0.818   5.588   1.118
 7438SOL    HW123213   0.901   5.624   1.076
 7438SOL    HW223214   0.842   5.518   1.185
 7439SOL     OW23215   1.764   6.244   5.034
 7439SOL    HW123216   1.783   6.164   4.977
 7439SOL    HW223217   1.692   6.222   5.099
 7440SOL     OW23218   0.995   3.172   4.330
 7440SOL    HW123219   1.048   3.232   4.271
 7440SOL    HW223220   1.006   3.077   4.300
 7441SOL     OW23221   4.375   5.729   4.990
 7441SOL    HW123222   4.414   5.811   5.031
 7441SOL    HW223223   4.358   5.746   4.893
 7442SOL     OW23224   0.952   1.192   6.376
 7442SOL    HW123225   0.857   1.200   6.404
 7442SOL    HW223226   0.980   1.096   6.377
 7443SOL     OW23227   0.359   0.743   1.407
 7443SOL    HW123228   0.390   0.713   1.316
 7443SOL    HW223229   0.261   0.728   1.415
 7444SOL     OW23230   6.781   3.512   4.809
 7444SOL    HW123231   6.687   3.527   4.838
 7444SOL    HW223232   6.833   3.596   4.819
 7445SOL     OW23233   3.268   1.011   1.258
 7445SOL    HW123234   3.366   1.016   1.236
 7445SOL    HW223235   3.255   1.034   1.355
 7446SOL     OW23236   5.547   4.173   1.176
 7446SOL    HW123237   5.619   4.129   1.122
 7446SOL    HW223238   5.463   4.120   1.168
 7447SOL     OW23239   1.420   3.130   5.319
 7447SOL    HW123240   1.483   3.207   5.310
 7447SOL    HW223241   1.350   3.136   5.248
 7448SOL     OW23242   5.687   6.957   5.190
 7448SOL    HW123243   5.784   6.968   5.169
 7448SOL    HW223244   5.648   6.883   5.136
 7449SOL     OW23245   6.631   2.366   1.862
 7449SOL    HW123246   6.670   2.403   1.947
 7449SOL    HW223247   6.566   2.294   1.885
 7450SOL     OW23248   5.164   2.346   4.388
 7450SOL    HW123249   5.154   2.332   4.486
 7450SOL    HW223250   5.138   2.440   4.364
 7451SOL     OW23251   1.078   6.756   2.496
 7451SOL    HW123252   1.101   6.668   2.454
 7451SOL    HW223253   1.163   6.808   2.510
 7452SOL     OW23254   0.844   6.454   4.906
 7452SOL    HW123255   0.839   6.383   4.976
 7452SOL    HW223256   0.894   6.419   4.827
 7453SOL     OW23257   4.792   6.050   6.163
 7453SOL    HW123258   4.843   5.973   6.202
 7453SOL    HW223259   4.694   6.036   6.177
 7454SOL     OW23260   1.203   2.573   1.498
 7454SOL    HW123261   1.187   2.501   1.566
 7454SOL    HW223262   1.204   2.533   1.406
 7455SOL     OW23263   0.382   2.345   2.104
 7455SOL    HW123264   0.385   2.251   2.070
 7455SOL    HW223265   0.286   2.374   2.112
 7456SOL     OW23266   0.721   2.499   4.354
 7456SOL    HW123267   0.745   2.584   4.400
 7456SOL    HW223268   0.755   2.422   4.408
 7457SOL     OW23269   3.460   0.947   5.275
 7457SOL    HW123270   3.507   1.027   5.311
 7457SOL    HW223271   3.523   0.869   5.274
 7458SOL     OW23272   2.939   6.898   6.148
 7458SOL    HW123273   2.898   6.926   6.061
 7458SOL    HW223274   2.878   6.925   6.223
 7459SOL     OW23275   4.509   0.611   0.606
 7459SOL    HW123276   4.462   0.538   0.656
 7459SOL    HW223277   4.451   0.693   0.606
 7460SOL     OW23278   1.735   4.582   1.011
 7460SOL    HW123279   1.688   4.577   1.099
 7460SOL    HW223280   1.834   4.590   1.027
 7461SOL     OW23281   5.592   1.424   6.238
 7461SOL    HW123282   5.568   1.450   6.144
 7461SOL    HW223283   5.639   1.501   6.282
 7462SOL     OW23284   1.795   3.905   2.997
 7462SOL    HW123285   1.818   3.886   3.092
 7462SOL    HW223286   1.863   3.967   2.958
 7463SOL     OW23287   3.405   4.728   1.296
 7463SOL    HW123288   3.351   4.813   1.291
 7463SOL    HW223289   3.347   4.654   1.330
 7464SOL     OW23290   3.712   0.005   6.492
 7464SOL    HW123291   3.697   0.053   6.406
 7464SOL    HW223292   3.808   7.001   6.501
 7465SOL     OW23293   1.816   0.023   0.195
 7465SOL    HW123294   1.883   0.060   0.260
 7465SOL    HW223295   1.799   0.090   0.123
 7466SOL     OW23296   0.410   6.627   6.257
 7466SOL    HW123297   0.421   6.709   6.200
 7466SOL    HW223298   0.331   6.575   6.225
 7467SOL     OW23299   6.521   1.281   0.303
 7467SOL    HW123300   6.479   1.371   0.318
 7467SOL    HW223301   6.620   1.289   0.314
 7468SOL     OW23302   6.332   3.294   2.340
 7468SOL    HW123303   6.237   3.282   2.310
 7468SOL    HW223304   6.351   3.231   2.416
 7469SOL     OW23305   6.569   0.006   6.823
 7469SOL    HW123306   6.613   0.093   6.843
 7469SOL    HW223307   6.476   0.007   6.860
 7470SOL     OW23308   0.101   3.197   4.153
 7470SOL    HW123309   0.140   3.160   4.237
 7470SOL    HW223310   0.135   3.145   4.074
 7471SOL     OW23311   5.713   6.089   5.507
 7471SOL    HW123312   5.666   6.003   5.486
 7471SOL    HW223313   5.650   6.149   5.557
 7472SOL     OW23314   6.187   6.682   4.443
 7472SOL    HW123315   6.252   6.758   4.438
 7472SOL    HW223316   6.222   6.612   4.505
 7473SOL     OW23317   0.110   4.592   2.650
 7473SOL    HW123318   0.164   4.649   2.588
 7473SOL    HW223319   0.024   4.639   2.672
 7474SOL     OW23320   2.643   1.404   5.237
 7474SOL    HW123321   2.552   1.444   5.223
 7474SOL    HW223322   2.642   1.346   5.318
 7475SOL     OW23323   3.619   1.373   2.467
 7475SOL    HW123324   3.671   1.401   2.387
 7475SOL    HW223325   3.643   1.279   2.491
 7476SOL     OW23326   3.874   5.257   4.273
 7476SOL    HW123327   3.814   5.313   4.330
 7476SOL    HW223328   3.867   5.289   4.178
 7477SOL     OW23329   6.458   1.546   4.505
 7477SOL    HW123330   6.537   1.552   4.444
 7477SOL    HW223331   6.392   1.617   4.480
 7478SOL     OW23332   4.403   4.607   6.954
 7478SOL    HW123333   4.445   4.541   6.891
 7478SOL    HW223334   4.346   4.671   6.902
 7479SOL     OW23335   4.108   2.282   1.363
 7479SOL    HW123336   4.104   2.213   1.291
 7479SOL    HW223337   4.202   2.288   1.398
 7480SOL     OW23338   6.524   4.200   1.686
 7480SOL    HW123339   6.543   4.200   1.588
 7480SOL    HW223340   6.461   4.126   1.708
 7481SOL     OW23341   6.254   5.493   2.335
 7481SOL    HW123342   6.316   5.490   2.256
 7481SOL    HW223343   6.224   5.400   2.357
 7482SOL     OW23344   5.448   2.004   3.109
 7482SOL    HW123345   5.530   2.044   3.068
 7482SOL    HW223346   5.418   1.926   3.054
 7483SOL     OW23347   4.540   2.467   5.158
 7483SOL    HW123348   4.540   2.534   5.084
 7483SOL    HW223349   4.596   2.389   5.132
 7484SOL     OW23350   0.503   0.592   3.314
 7484SOL    HW123351   0.494   0.691   3.324
 7484SOL    HW223352   0.598   0.568   3.297
 7485SOL     OW23353   3.124   0.091   4.483
 7485SOL    HW123354   3.113   0.061   4.388
 7485SOL    HW223355   3.221   0.105   4.502
 7486SOL     OW23356   2.939   0.778   6.044
 7486SOL    HW123357   3.003   0.704   6.022
 7486SOL    HW223358   2.855   0.765   5.991
 7487SOL     OW23359   2.664   6.367   2.357
 7487SOL    HW123360   2.720   6.313   2.294
 7487SOL    HW223361   2.606   6.429   2.305
 7488SOL     OW23362   1.867   6.956   4.520
 7488SOL    HW123363   1.790   6.954   4.584
 7488SOL    HW223364   1.877   6.866   4.478
 7489SOL     OW23365   5.115   2.265   4.686
 7489SOL    HW123366   5.062   2.181   4.697
 7489SOL    HW223367   5.065   2.342   4.725
 7490SOL     OW23368   0.595   1.737   1.074
 7490SOL    HW123369   0.516   1.690   1.036
 7490SOL    HW223370   0.663   1.670   1.104
 7491SOL     OW23371   6.458   3.177   6.419
 7491SOL    HW123372   6.418   3.217   6.501
 7491SOL    HW223373   6.504   3.248   6.366
 7492SOL     OW23374   2.404   0.775   4.104
 7492SOL    HW123375   2.462   0.731   4.172
 7492SOL    HW223376   2.348   0.845   4.149
 7493SOL     OW23377   6.983   3.823   6.580
 7493SOL    HW123378   7.000   3.847   6.485
 7493SOL    HW223379   6.957   3.905   6.631
 7494SOL     OW23380   5.732   0.596   3.028
 7494SOL    HW123381   5.784   0.540   3.092
 7494SOL    HW223382   5.634   0.582   3.042
 7495SOL     OW23383   2.368   0.758   0.001
 7495SOL    HW123384   2.436   0.773   0.073
 7495SOL    HW223385   2.291   0.821   0.014
 7496SOL     OW23386   0.187   2.965   6.268
 7496SOL    HW123387   0.137   2.979   6.354
 7496SOL    HW223388   0.129   2.991   6.191
 7497SOL     OW23389   2.544   4.485   0.571
 7497SOL    HW123390   2.534   4.386   0.582
 7497SOL    HW223391   2.574   4.505   0.478
 7498SOL     OW23392   2.297   1.230   5.350
 7498SOL    HW123393   2.267   1.150   5.299
 7498SOL    HW223394   2.312   1.307   5.288
 7499SOL     OW23395   4.673   1.434   3.514
 7499SOL    HW123396   4.634   1.481   3.593
 7499SOL    HW223397   4.736   1.495   3.466
 7500SOL     OW23398   3.954   5.722   4.177
 7500SOL    HW123399   3.956   5.781   4.257
 7500SOL    HW223400   4.047   5.695   4.153
 7501SOL     OW23401   6.300   4.467   4.301
 7501SOL    HW123402   6.274   4.454   4.206
 7501SOL    HW223403   6.295   4.564   4.325
 7502SOL     OW23404   1.551   0.358   4.405
 7502SOL    HW123405   1.553   0.381   4.502
 7502SOL    HW223406   1.509   0.433   4.353
 7503SOL     OW23407   2.599   2.105   0.955
 7503SOL    HW123408   2.510   2.060   0.950
 7503SOL    HW223409   2.661   2.049   1.011
 7504SOL     OW23410   2.086   0.169   3.224
 7504SOL    HW123411   2.149   0.234   3.182
 7504SOL    HW223412   2.080   0.087   3.167
 7505SOL     OW23413   2.476   2.000   5.777
 7505SOL    HW123414   2.526   2.066   5.833
 7505SOL    HW223415   2.436   1.931   5.836
 7506SOL     OW23416   4.993   6.798   2.760
 7506SOL    HW123417   5.043   6.875   2.801
 7506SOL    HW223418   4.896   6.821   2.753
 7507SOL     OW23419   0.418   0.596   1.642
 7507SOL    HW123420   0.405   0.616   1.545
 7507SOL    HW223421   0.412   0.681   1.695
 7508SOL     OW23422   6.847   6.772   1.884
 7508SOL    HW123423   6.833   6.709   1.807
 7508SOL    HW223424   6.781   6.847   1.878
 7509SOL     OW23425   5.532   4.421   0.858
 7509SOL    HW123426   5.492   4.347   0.804
 7509SOL    HW223427   5.625   4.397   0.884
 7510SOL     OW23428   2.959   4.317   5.271
 7510SOL    HW123429   2.953   4.412   5.242
 7510SOL    HW223430   2.871   4.271   5.253
 7511SOL     OW23431   1.904   6.657   3.511
 7511SOL    HW123432   1.914   6.712   3.427
 7511SOL    HW223433   1.850   6.709   3.577
 7512SOL     OW23434   3.063   4.870   6.707
 7512SOL    HW123435   3.098   4.783   6.672
 7512SOL    HW223436   2.975   4.889   6.664
 7513SOL     OW23437   2.269   1.246   1.668
 7513SOL    HW123438   2.284   1.221   1.764
 7513SOL    HW223439   2.228   1.338   1.664
 7514SOL     OW23440   2.249   5.570   1.663
 7514SOL    HW123441   2.259   5.495   1.598
 7514SOL    HW223442   2.309   5.555   1.741
 7515SOL     OW23443   0.185   5.483   2.517
 7515SOL    HW123444   0.119   5.558   2.509
 7515SOL    HW223445   0.183   5.446   2.609
 7516SOL     OW23446   5.994   5.667   4.478
 7516SOL    HW123447   6.045   5.584   4.458
 7516SOL    HW223448   6.000   5.730   4.400
 7517SOL     OW23449   6.898   3.312   0.982
 7517SOL    HW123450   6.862   3.220   0.995
 7517SOL    HW223451   6.846   3.376   1.038
 7518SOL     OW23452   4.459   5.092   3.342
 7518SOL    HW123453   4.471   4.994   3.330
 7518SOL    HW223454   4.515   5.141   3.275
 7519SOL     OW23455   0.052   6.901   4.591
 7519SOL    HW123456   0.133   6.956   4.570
 7519SOL    HW223457   0.081   6.810   4.622
 7520SOL     OW23458   3.239   6.639   2.116
 7520SOL    HW123459   3.261   6.556   2.064
 7520SOL    HW223460   3.275   6.718   2.068
 7521SOL     OW23461   4.910   4.568   6.239
 7521SOL    HW123462   4.881   4.472   6.236
 7521SOL    HW223463   4.954   4.592   6.152
 7522SOL     OW23464   3.099   6.673   6.127
 7522SOL    HW123465   3.155   6.676   6.044
 7522SOL    HW223466   3.052   6.760   6.139
 7523SOL     OW23467   5.680   0.622   6.218
 7523SOL    HW123468   5.634   0.551   6.271
 7523SOL    HW223469   5.684   0.594   6.122
 7524SOL     OW23470   1.855   2.662   6.351
 7524SOL    HW123471   1.822   2.567   6.347
 7524SOL    HW223472   1.913   2.680   6.271
 7525SOL     OW23473   2.763   0.414   6.439
 7525SOL    HW123474   2.819   0.496   6.451
 7525SOL    HW223475   2.769   0.357   6.521
 7526SOL     OW23476   3.126   3.261   1.655
 7526SOL    HW123477   3.139   3.194   1.729
 7526SOL    HW223478   3.215   3.292   1.623
 7527SOL     OW23479   4.392   6.006   3.284
 7527SOL    HW123480   4.472   6.066   3.274
 7527SOL    HW223481   4.360   6.010   3.379
 7528SOL     OW23482   4.698   1.445   6.900
 7528SOL    HW123483   4.779   1.451   6.841
 7528SOL    HW223484   4.693   1.354   6.941
 7529SOL     OW23485   6.196   0.300   4.344
 7529SOL    HW123486   6.140   0.311   4.426
 7529SOL    HW223487   6.165   0.363   4.273
 7530SOL     OW23488   7.015   4.099   2.014
 7530SOL    HW123489   6.929   4.103   1.963
 7530SOL    HW223490   0.013   4.005   2.042
 7531SOL     OW23491   4.332   2.154   3.895
 7531SOL    HW123492   4.387   2.127   3.974
 7531SOL    HW223493   4.387   2.147   3.812
 7532SOL     OW23494   5.443   4.750   1.364
 7532SOL    HW123495   5.461   4.692   1.443
 7532SOL    HW223496   5.504   4.724   1.289
 7533SOL     OW23497   2.779   1.452   2.472
 7533SOL    HW123498   2.823   1.427   2.559
 7533SOL    HW223499   2.690   1.407   2.466
 7534SOL     OW23500   4.183   6.481   5.902
 7534SOL    HW123501   4.266   6.536   5.907
 7534SOL    HW223502   4.171   6.446   5.809
 7535SOL     OW23503   2.922   0.232   5.858
 7535SOL    HW123504   2.919   0.134   5.834
 7535SOL    HW223505   2.853   0.281   5.805
 7536SOL     OW23506   5.040   5.117   5.006
 7536SOL    HW123507   5.109   5.112   5.077
 7536SOL    HW223508   4.954   5.080   5.040
 7537SOL     OW23509   2.575   5.321   3.417
 7537SOL    HW123510   2.654   5.259   3.419
 7537SOL    HW223511   2.507   5.290   3.484
 7538SOL     OW23512   3.597   3.209   1.862
 7538SOL    HW123513   3.525   3.278   1.870
 7538SOL    HW223514   3.645   3.199   1.949
 7539SOL     OW23515   1.161   2.978   4.185
 7539SOL    HW123516   1.188   2.936   4.098
 7539SOL    HW223517   1.188   2.918   4.260
 7540SOL     OW23518   3.588   6.369   5.671
 7540SOL    HW123519   3.490   6.383   5.686
 7540SOL    HW223520   3.628   6.321   5.749
 7541SOL     OW23521   0.166   4.333   4.444
 7541SOL    HW123522   0.085   4.362   4.495
 7541SOL    HW223523   0.141   4.314   4.349
 7542SOL     OW23524   0.935   5.986   6.938
 7542SOL    HW123525   0.848   6.007   6.983
 7542SOL    HW223526   1.009   5.994   7.005
 7543SOL     OW23527   3.663   1.985   0.998
 7543SOL    HW123528   3.620   1.983   0.907
 7543SOL    HW223529   3.609   1.929   1.061
 7544SOL     OW23530   0.529   2.624   3.285
 7544SOL    HW123531   0.442   2.659   3.319
 7544SOL    HW223532   0.523   2.525   3.270
 7545SOL     OW23533   5.691   6.375   2.227
 7545SOL    HW123534   5.752   6.455   2.224
 7545SOL    HW223535   5.718   6.310   2.156
 7546SOL     OW23536   3.256   0.933   2.420
 7546SOL    HW123537   3.209   0.857   2.376
 7546SOL    HW223538   3.255   1.013   2.359
 7547SOL     OW23539   4.393   0.376   0.361
 7547SOL    HW123540   4.479   0.424   0.379
 7547SOL    HW223541   4.322   0.443   0.338
 7548SOL     OW23542   3.466   2.190   0.274
 7548SOL    HW123543   3.471   2.267   0.338
 7548SOL    HW223544   3.515   2.213   0.190
 7549SOL     OW23545   5.599   2.046   0.858
 7549SOL    HW123546   5.503   2.065   0.837
 7549SOL    HW223547   5.653   2.047   0.774
 7550SOL     OW23548   2.334   4.143   2.117
 7550SOL    HW123549   2.403   4.070   2.118
 7550SOL    HW223550   2.330   4.187   2.206
 7551SOL     OW23551   5.073   4.007   6.750
 7551SOL    HW123552   5.050   4.013   6.653
 7551SOL    HW223553   5.172   4.009   6.761
 7552SOL     OW23554   1.300   5.859   3.598
 7552SOL    HW123555   1.271   5.786   3.536
 7552SOL    HW223556   1.368   5.916   3.552
 7553SOL     OW23557   4.700   5.080   5.885
 7553SOL    HW123558   4.797   5.102   5.892
 7553SOL    HW223559   4.682   4.992   5.931
 7554SOL     OW23560   4.267   1.542   1.556
 7554SOL    HW123561   4.310   1.568   1.643
 7554SOL    HW223562   4.192   1.605   1.536
 7555SOL     OW23563   1.889   4.721   5.623
 7555SOL    HW123564   1.971   4.720   5.680
 7555SOL    HW223565   1.912   4.699   5.529
 7556SOL     OW23566   0.910   3.011   5.536
 7556SOL    HW123567   0.862   3.043   5.618
 7556SOL    HW223568   0.845   2.968   5.473
 7557SOL     OW23569   5.296   2.386   6.041
 7557SOL    HW123570   5.362   2.314   6.062
 7557SOL    HW223571   5.269   2.432   6.126
 7558SOL     OW23572   1.679   2.531   4.315
 7558SOL    HW123573   1.681   2.595   4.238
 7558SOL    HW223574   1.594   2.478   4.313
 7559SOL     OW23575   6.579   5.099   0.096
 7559SOL    HW123576   6.498   5.107   0.037
 7559SOL    HW223577   6.608   5.004   0.101
 7560SOL     OW23578   5.227   6.577   0.954
 7560SOL    HW123579   5.160   6.638   0.995
 7560SOL    HW223580   5.186   6.486   0.943
 7561SOL     OW23581   0.962   3.239   6.962
 7561SOL    HW123582   1.008   3.283   0.019
 7561SOL    HW223583   1.001   3.273   6.877
 7562SOL     OW23584   6.076   5.918   5.079
 7562SOL    HW123585   6.114   5.829   5.105
 7562SOL    HW223586   6.092   5.984   5.152
 7563SOL     OW23587   2.555   6.060   0.961
 7563SOL    HW123588   2.624   6.039   0.892
 7563SOL    HW223589   2.468   6.018   0.935
 7564SOL     OW23590   5.173   1.875   2.990
 7564SOL    HW123591   5.182   1.872   2.891
 7564SOL    HW223592   5.130   1.961   3.017
 7565SOL     OW23593   5.647   3.689   0.504
 7565SOL    HW123594   5.651   3.783   0.471
 7565SOL    HW223595   5.723   3.637   0.464
 7566SOL     OW23596   6.762   4.547   3.445
 7566SOL    HW123597   6.757   4.592   3.534
 7566SOL    HW223598   6.819   4.601   3.383
 7567SOL     OW23599   1.692   1.649   4.857
 7567SOL    HW123600   1.784   1.632   4.824
 7567SOL    HW223601   1.637   1.689   4.783
 7568SOL     OW23602   5.228   6.449   3.427
 7568SOL    HW123603   5.212   6.427   3.331
 7568SOL    HW223604   5.326   6.460   3.443
 7569SOL     OW23605   3.849   5.296   6.183
 7569SOL    HW123606   3.849   5.324   6.279
 7569SOL    HW223607   3.939   5.314   6.143
 7570SOL     OW23608   5.465   4.479   5.484
 7570SOL    HW123609   5.526   4.455   5.409
 7570SOL    HW223610   5.515   4.531   5.553
 7571SOL     OW23611   4.972   5.916   3.395
 7571SOL    HW123612   4.883   5.922   3.350
 7571SOL    HW223613   4.975   5.836   3.455
 7572SOL     OW23614   4.175   0.689   2.700
 7572SOL    HW123615   4.099   0.697   2.635
 7572SOL    HW223616   4.138   0.672   2.792
 7573SOL     OW23617   6.851   6.504   4.859
 7573SOL    HW123618   6.912   6.428   4.882
 7573SOL    HW223619   6.835   6.505   4.760
 7574SOL     OW23620   6.313   1.068   4.326
 7574SOL    HW123621   6.219   1.079   4.358
 7574SOL    HW223622   6.326   0.975   4.292
 7575SOL     OW23623   4.079   0.705   5.803
 7575SOL    HW123624   4.041   0.673   5.716
 7575SOL    HW223625   4.174   0.675   5.812
 7576SOL     OW23626   5.625   4.925   0.110
 7576SOL    HW123627   5.654   4.977   0.191
 7576SOL    HW223628   5.526   4.912   0.112
 7577SOL     OW23629   7.008   6.575   5.409
 7577SOL    HW123630   0.083   6.547   5.401
 7577SOL    HW223631   6.968   6.534   5.491
 7578SOL     OW23632   2.478   5.642   2.307
 7578SOL    HW123633   2.412   5.592   2.251
 7578SOL    HW223634   2.437   5.664   2.396
 7579SOL     OW23635   6.069   2.041   1.961
 7579SOL    HW123636   6.134   1.967   1.948
 7579SOL    HW223637   6.058   2.092   1.875
 7580SOL     OW23638   1.508   3.873   4.125
 7580SOL    HW123639   1.421   3.870   4.174
 7580SOL    HW223640   1.499   3.827   4.037
 7581SOL     OW23641   0.149   0.255   1.149
 7581SOL    HW123642   0.059   0.217   1.129
 7581SOL    HW223643   0.189   0.291   1.065
 7582SOL     OW23644   2.562   1.265   0.270
 7582SOL    HW123645   2.491   1.199   0.242
 7582SOL    HW223646   2.651   1.219   0.272
 7583SOL     OW23647   6.464   3.024   0.747
 7583SOL    HW123648   6.464   3.008   0.846
 7583SOL    HW223649   6.555   3.004   0.710
 7584SOL     OW23650   2.662   6.775   1.515
 7584SOL    HW123651   2.692   6.831   1.438
 7584SOL    HW223652   2.610   6.696   1.481
 7585SOL     OW23653   2.087   2.526   5.932
 7585SOL    HW123654   2.174   2.554   5.892
 7585SOL    HW223655   2.012   2.548   5.870
 7586SOL     OW23656   3.964   1.185   3.767
 7586SOL    HW123657   3.947   1.087   3.761
 7586SOL    HW223658   3.920   1.221   3.850
 7587SOL     OW23659   2.254   1.680   6.589
 7587SOL    HW123660   2.347   1.702   6.560
 7587SOL    HW223661   2.253   1.592   6.635
 7588SOL     OW23662   1.191   3.443   2.702
 7588SOL    HW123663   1.280   3.398   2.708
 7588SOL    HW223664   1.142   3.409   2.622
 7589SOL     OW23665   0.106   6.818   1.944
 7589SOL    HW123666   0.158   6.786   1.864
 7589SOL    HW223667   0.017   6.772   1.946
 7590SOL     OW23668   4.598   1.823   6.536
 7590SOL    HW123669   4.582   1.725   6.522
 7590SOL    HW223670   4.541   1.876   6.474
 7591SOL     OW23671   0.118   4.504   0.346
 7591SOL    HW123672   0.171   4.446   0.408
 7591SOL    HW223673   0.039   4.454   0.311
 7592SOL     OW23674   6.452   4.213   6.770
 7592SOL    HW123675   6.543   4.196   6.808
 7592SOL    HW223676   6.398   4.129   6.774
 7593SOL     OW23677   5.472   2.288   1.157
 7593SOL    HW123678   5.444   2.383   1.169
 7593SOL    HW223679   5.391   2.229   1.155
 7594SOL     OW23680   0.768   5.280   1.954
 7594SOL    HW123681   0.817   5.194   1.971
 7594SOL    HW223682   0.680   5.277   2.003
 7595SOL     OW23683   0.087   2.785   6.021
 7595SOL    HW123684   0.168   2.838   6.045
 7595SOL    HW223685   0.112   2.690   6.005
 7596SOL     OW23686   4.722   5.915   3.769
 7596SOL    HW123687   4.820   5.933   3.785
 7596SOL    HW223688   4.677   5.898   3.857
 7597SOL     OW23689   3.472   6.126   2.775
 7597SOL    HW123690   3.552   6.068   2.760
 7597SOL    HW223691   3.495   6.197   2.842
 7598SOL     OW23692   0.033   1.545   3.580
 7598SOL    HW123693   0.110   1.487   3.606
 7598SOL    HW223694   0.057   1.641   3.592
 7599SOL     OW23695   6.088   1.766   2.290
 7599SOL    HW123696   6.180   1.773   2.328
 7599SOL    HW223697   6.033   1.844   2.321
 7600SOL     OW23698   1.904   1.168   2.704
 7600SOL    HW123699   1.940   1.100   2.641
 7600SOL    HW223700   1.878   1.250   2.653
 7601SOL     OW23701   1.986   5.286   2.888
 7601SOL    HW123702   2.015   5.377   2.915
 7601SOL    HW223703   2.064   5.234   2.853
 7602SOL     OW23704   0.475   4.396   0.070
 7602SOL    HW123705   0.443   4.354   7.006
 7602SOL    HW223706   0.489   4.326   0.139
 7603SOL     OW23707   2.226   4.724   6.154
 7603SOL    HW123708   2.143   4.694   6.202
 7603SOL    HW223709   2.259   4.651   6.095
 7604SOL     OW23710   1.344   4.619   4.199
 7604SOL    HW123711   1.359   4.601   4.296
 7604SOL    HW223712   1.408   4.565   4.145
 7605SOL     OW23713   0.277   0.116   0.868
 7605SOL    HW123714   0.303   0.179   0.795
 7605SOL    HW223715   0.190   0.071   0.844
 7606SOL     OW23716   6.457   3.699   3.812
 7606SOL    HW123717   6.485   3.681   3.906
 7606SOL    HW223718   6.534   3.738   3.761
 7607SOL     OW23719   4.360   4.783   0.253
 7607SOL    HW123720   4.450   4.819   0.229
 7607SOL    HW223721   4.371   4.699   0.306
 7608SOL     OW23722   3.294   3.675   2.956
 7608SOL    HW123723   3.379   3.723   2.933
 7608SOL    HW223724   3.316   3.585   2.994
 7609SOL     OW23725   0.628   3.518   3.930
 7609SOL    HW123726   0.626   3.439   3.992
 7609SOL    HW223727   0.570   3.499   3.851
 7610SOL     OW23728   5.860   6.257   0.715
 7610SOL    HW123729   5.937   6.294   0.768
 7610SOL    HW223730   5.784   6.322   0.718
 7611SOL     OW23731   0.240   1.743   0.303
 7611SOL    HW123732   0.289   1.749   0.216
 7611SOL    HW223733   0.281   1.671   0.359
 7612SOL     OW23734   5.351   3.160   4.871
 7612SOL    HW123735   5.293   3.239   4.890
 7612SOL    HW223736   5.400   3.133   4.955
 7613SOL     OW23737   6.290   3.538   1.071
 7613SOL    HW123738   6.306   3.508   0.977
 7613SOL    HW223739   6.244   3.627   1.070
 7614SOL     OW23740   4.826   3.464   1.021
 7614SOL    HW123741   4.789   3.547   1.065
 7614SOL    HW223742   4.820   3.388   1.085
 7615SOL     OW23743   3.567   3.775   6.632
 7615SOL    HW123744   3.560   3.870   6.662
 7615SOL    HW223745   3.589   3.772   6.534
 7616SOL     OW23746   6.334   5.349   5.609
 7616SOL    HW123747   6.323   5.345   5.509
 7616SOL    HW223748   6.295   5.266   5.649
 7617SOL     OW23749   4.114   5.612   3.068
 7617SOL    HW123750   4.140   5.683   3.134
 7617SOL    HW223751   4.067   5.538   3.116
 7618SOL     OW23752   0.661   1.509   5.653
 7618SOL    HW123753   0.615   1.563   5.723
 7618SOL    HW223754   0.606   1.508   5.569
 7619SOL     OW23755   5.784   2.936   5.292
 7619SOL    HW123756   5.749   2.978   5.209
 7619SOL    HW223757   5.813   3.008   5.356
 7620SOL     OW23758   4.063   5.655   0.649
 7620SOL    HW123759   4.039   5.631   0.744
 7620SOL    HW223760   4.099   5.573   0.603
 7621SOL     OW23761   0.107   1.821   0.587
 7621SOL    HW123762   0.143   1.800   0.495
 7621SOL    HW223763   0.067   1.912   0.587
 7622SOL     OW23764   5.346   5.621   1.610
 7622SOL    HW123765   5.411   5.564   1.559
 7622SOL    HW223766   5.351   5.599   1.707
 7623SOL     OW23767   4.756   3.909   6.783
 7623SOL    HW123768   4.753   3.998   6.827
 7623SOL    HW223769   4.810   3.915   6.699
 7624SOL     OW23770   7.010   3.066   4.738
 7624SOL    HW123771   0.002   3.020   4.651
 7624SOL    HW223772   0.010   3.003   4.813
 7625SOL     OW23773   4.574   1.107   1.468
 7625SOL    HW123774   4.531   1.020   1.494
 7625SOL    HW223775   4.673   1.097   1.468
 7626SOL     OW23776   5.939   6.670   4.225
 7626SOL    HW123777   5.974   6.713   4.142
 7626SOL    HW223778   6.011   6.664   4.293
 7627SOL     OW23779   5.185   2.504   0.065
 7627SOL    HW123780   5.270   2.530   0.111
 7627SOL    HW223781   5.155   2.415   0.099
 7628SOL     OW23782   3.671   0.589   3.200
 7628SOL    HW123783   3.753   0.548   3.241
 7628SOL    HW223784   3.698   0.651   3.127
 7629SOL     OW23785   6.469   6.788   2.924
 7629SOL    HW123786   6.460   6.882   2.956
 7629SOL    HW223787   6.531   6.786   2.846
 7630SOL     OW23788   6.566   0.076   1.654
 7630SOL    HW123789   6.622   0.155   1.626
 7630SOL    HW223790   6.470   0.097   1.638
 7631SOL     OW23791   1.012   0.650   6.123
 7631SOL    HW123792   0.963   0.585   6.065
 7631SOL    HW223793   0.990   0.744   6.095
 7632SOL     OW23794   3.660   2.819   2.030
 7632SOL    HW123795   3.578   2.819   2.089
 7632SOL    HW223796   3.641   2.872   1.948
 7633SOL     OW23797   4.925   1.393   1.548
 7633SOL    HW123798   4.843   1.336   1.562
 7633SOL    HW223799   4.997   1.337   1.508
 7634SOL     OW23800   0.940   1.896   2.899
 7634SOL    HW123801   0.994   1.959   2.843
 7634SOL    HW223802   0.843   1.911   2.882
 7635SOL     OW23803   3.540   5.617   4.799
 7635SOL    HW123804   3.513   5.641   4.705
 7635SOL    HW223805   3.562   5.700   4.849
 7636SOL     OW23806   1.247   2.284   4.254
 7636SOL    HW123807   1.182   2.293   4.178
 7636SOL    HW223808   1.307   2.206   4.237
 7637SOL     OW23809   2.591   4.985   2.261
 7637SOL    HW123810   2.530   4.945   2.192
 7637SOL    HW223811   2.684   4.989   2.224
 7638SOL     OW23812   3.544   6.444   0.830
 7638SOL    HW123813   3.484   6.363   0.826
 7638SOL    HW223814   3.575   6.467   0.738
 7639SOL     OW23815   1.124   2.194   0.069
 7639SOL    HW123816   1.125   2.117   0.006
 7639SOL    HW223817   1.090   2.164   0.158
 7640SOL     OW23818   3.454   1.805   6.519
 7640SOL    HW123819   3.536   1.747   6.525
 7640SOL    HW223820   3.375   1.748   6.497
 7641SOL     OW23821   1.235   4.406   1.876
 7641SOL    HW123822   1.183   4.475   1.928
 7641SOL    HW223823   1.172   4.337   1.841
 7642SOL     OW23824   4.103   0.748   3.251
 7642SOL    HW123825   4.129   0.653   3.234
 7642SOL    HW223826   4.130   0.804   3.173
 7643SOL     OW23827   4.886   3.413   4.124
 7643SOL    HW123828   4.915   3.321   4.097
 7643SOL    HW223829   4.865   3.414   4.222
 7644SOL     OW23830   5.979   2.838   2.583
 7644SOL    HW123831   5.890   2.802   2.612
 7644SOL    HW223832   6.044   2.763   2.575
 7645SOL     OW23833   4.134   4.415   5.635
 7645SOL    HW123834   4.154   4.504   5.593
 7645SOL    HW223835   4.070   4.364   5.577
 7646SOL     OW23836   1.426   3.304   2.722
 7646SOL    HW123837   1.460   3.242   2.652
 7646SOL    HW223838   1.503   3.343   2.772
 7647SOL     OW23839   6.842   3.875   2.507
 7647SOL    HW123840   6.933   3.836   2.500
 7647SOL    HW223841   6.822   3.929   2.425
 7648SOL     OW23842   3.004   1.588   3.358
 7648SOL    HW123843   3.053   1.585   3.271
 7648SOL    HW223844   2.926   1.651   3.350
 7649SOL     OW23845   0.743   0.739   3.204
 7649SOL    HW123846   0.681   0.791   3.146
 7649SOL    HW223847   0.831   0.729   3.159
 7650SOL     OW23848   4.544   2.433   1.308
 7650SOL    HW123849   4.527   2.520   1.263
 7650SOL    HW223850   4.635   2.399   1.283
 7651SOL     OW23851   2.514   0.605   4.529
 7651SOL    HW123852   2.461   0.573   4.607
 7651SOL    HW223853   2.583   0.670   4.560
 7652SOL     OW23854   6.705   3.533   4.432
 7652SOL    HW123855   6.713   3.628   4.465
 7652SOL    HW223856   6.727   3.529   4.335
 7653SOL     OW23857   2.148   1.964   6.868
 7653SOL    HW123858   2.147   1.885   6.930
 7653SOL    HW223859   2.111   1.937   6.779
 7654SOL     OW23860   5.068   3.033   3.237
 7654SOL    HW123861   5.027   2.970   3.172
 7654SOL    HW223862   5.163   3.007   3.254
 7655SOL     OW23863   4.591   0.332   3.239
 7655SOL    HW123864   4.545   0.286   3.315
 7655SOL    HW223865   4.523   0.378   3.182
 7656SOL     OW23866   2.293   5.154   6.057
 7656SOL    HW123867   2.308   5.209   5.975
 7656SOL    HW223868   2.197   5.125   6.061
 7657SOL     OW23869   1.947   3.026   4.120
 7657SOL    HW123870   1.864   3.082   4.116
 7657SOL    HW223871   1.921   2.930   4.130
 7658SOL     OW23872   3.686   0.123   5.678
 7658SOL    HW123873   3.707   0.214   5.714
 7658SOL    HW223874   3.587   0.109   5.678
 7659SOL     OW23875   5.726   5.045   0.337
 7659SOL    HW123876   5.773   5.004   0.415
 7659SOL    HW223877   5.650   5.101   0.370
 7660SOL     OW23878   0.586   6.091   3.880
 7660SOL    HW123879   0.548   6.113   3.970
 7660SOL    HW223880   0.538   6.142   3.809
 7661SOL     OW23881   6.141   2.771   4.341
 7661SOL    HW123882   6.132   2.758   4.242
 7661SOL    HW223883   6.059   2.737   4.387
 7662SOL     OW23884   1.035   2.750   2.766
 7662SOL    HW123885   1.003   2.669   2.716
 7662SOL    HW223886   1.127   2.733   2.802
 7663SOL     OW23887   1.361   6.034   6.330
 7663SOL    HW123888   1.376   6.043   6.428
 7663SOL    HW223889   1.360   5.937   6.305
 7664SOL     OW23890   3.419   0.309   1.574
 7664SOL    HW123891   3.434   0.270   1.484
 7664SOL    HW223892   3.330   0.354   1.577
 7665SOL     OW23893   4.620   6.957   4.885
 7665SOL    HW123894   4.563   6.965   4.967
 7665SOL    HW223895   4.570   6.991   4.806
 7666SOL     OW23896   0.491   6.446   1.246
 7666SOL    HW123897   0.437   6.463   1.328
 7666SOL    HW223898   0.442   6.479   1.166
 7667SOL     OW23899   4.970   5.447   2.153
 7667SOL    HW123900   4.884   5.494   2.174
 7667SOL    HW223901   4.998   5.391   2.231
 7668SOL     OW23902   2.937   4.523   0.619
 7668SOL    HW123903   2.866   4.522   0.689
 7668SOL    HW223904   3.026   4.542   0.661
 7669SOL     OW23905   5.429   2.014   5.313
 7669SOL    HW123906   5.511   2.041   5.365
 7669SOL    HW223907   5.405   2.087   5.249
 7670SOL     OW23908   0.767   5.030   6.937
 7670SOL    HW123909   0.729   5.013   6.846
 7670SOL    HW223910   0.763   4.946   6.992
 7671SOL     OW23911   4.226   1.162   3.191
 7671SOL    HW123912   4.219   1.153   3.290
 7671SOL    HW223913   4.199   1.254   3.164
 7672SOL     OW23914   0.211   6.331   3.022
 7672SOL    HW123915   0.156   6.414   3.012
 7672SOL    HW223916   0.242   6.300   2.932
 7673SOL     OW23917   2.066   5.525   0.432
 7673SOL    HW123918   2.096   5.588   0.361
 7673SOL    HW223919   1.967   5.531   0.443
 7674SOL     OW23920   5.827   1.444   3.404
 7674SOL    HW123921   5.727   1.450   3.397
 7674SOL    HW223922   5.854   1.348   3.404
 7675SOL     OW23923   5.921   6.850   2.330
 7675SOL    HW123924   5.904   6.872   2.426
 7675SOL    HW223925   5.993   6.780   2.324
 7676SOL     OW23926   1.601   2.135   0.697
 7676SOL    HW123927   1.612   2.088   0.610
 7676SOL    HW223928   1.677   2.112   0.757
 7677SOL     OW23929   0.425   5.188   1.906
 7677SOL    HW123930   0.437   5.182   2.005
 7677SOL    HW223931   0.488   5.124   1.861
 7678SOL     OW23932   2.069   1.938   4.306
 7678SOL    HW123933   2.037   1.916   4.214
 7678SOL    HW223934   2.147   1.999   4.300
 7679SOL     OW23935   2.917   5.622   6.620
 7679SOL    HW123936   2.826   5.608   6.581
 7679SOL    HW223937   2.983   5.563   6.572
 7680SOL     OW23938   1.631   1.847   0.735
 7680SOL    HW123939   1.720   1.820   0.699
 7680SOL    HW223940   1.576   1.890   0.663
 7681SOL     OW23941   2.474   0.009   0.836
 7681SOL    HW123942   2.474   6.972   0.917
 7681SOL    HW223943   2.383   0.050   0.824
 7682SOL     OW23944   3.217   0.055   2.542
 7682SOL    HW123945   3.308   0.040   2.505
 7682SOL    HW223946   3.171   6.988   2.554
 7683SOL     OW23947   6.210   1.249   3.527
 7683SOL    HW123948   6.305   1.220   3.541
 7683SOL    HW223949   6.209   1.343   3.492
 7684SOL     OW23950   3.646   2.105   2.588
 7684SOL    HW123951   3.549   2.108   2.564
 7684SOL    HW223952   3.694   2.040   2.528
 7685SOL     OW23953   3.338   2.413   0.095
 7685SOL    HW123954   3.363   2.333   0.041
 7685SOL    HW223955   3.294   2.481   0.036
 7686SOL     OW23956   6.437   0.101   2.744
 7686SOL    HW123957   6.489   0.137   2.666
 7686SOL    HW223958   6.341   0.125   2.734
 7687SOL     OW23959   5.631   4.770   3.882
 7687SOL    HW123960   5.668   4.741   3.970
 7687SOL    HW223961   5.611   4.868   3.884
 7688SOL     OW23962   0.963   6.028   5.735
 7688SOL    HW123963   1.012   6.080   5.805
 7688SOL    HW223964   1.002   6.048   5.645
 7689SOL     OW23965   5.319   6.741   3.344
 7689SOL    HW123966   5.253   6.807   3.309
 7689SOL    HW223967   5.300   6.724   3.441
 7690SOL     OW23968   5.746   5.307   0.972
 7690SOL    HW123969   5.709   5.399   0.988
 7690SOL    HW223970   5.754   5.290   0.874
 7691SOL     OW23971   5.381   2.569   5.055
 7691SOL    HW123972   5.467   2.547   5.008
 7691SOL    HW223973   5.386   2.537   5.150
 7692SOL     OW23974   0.453   6.590   1.722
 7692SOL    HW123975   0.515   6.533   1.776
 7692SOL    HW223976   0.452   6.683   1.759
 7693SOL     OW23977   3.773   0.394   1.173
 7693SOL    HW123978   3.838   0.468   1.153
 7693SOL    HW223979   3.796   0.314   1.118
 7694SOL     OW23980   0.393   4.542   5.389
 7694SOL    HW123981   0.391   4.547   5.289
 7694SOL    HW223982   0.318   4.597   5.427
 7695SOL     OW23983   4.400   6.738   0.698
 7695SOL    HW123984   4.363   6.652   0.661
 7695SOL    HW223985   4.498   6.727   0.715
 7696SOL     OW23986   6.777   1.179   5.150
 7696SOL    HW123987   6.756   1.234   5.231
 7696SOL    HW223988   6.817   1.236   5.079
 7697SOL     OW23989   3.125   6.207   2.092
 7697SOL    HW123990   3.096   6.113   2.109
 7697SOL    HW223991   3.201   6.230   2.152
 7698SOL     OW23992   6.979   2.240   3.443
 7698SOL    HW123993   0.014   2.276   3.518
 7698SOL    HW223994   6.963   2.142   3.457
 7699SOL     OW23995   3.732   5.774   6.941
 7699SOL    HW123996   3.721   5.816   6.851
 7699SOL    HW223997   3.823   5.733   6.947
 7700SOL     OW23998   4.753   6.314   4.280
 7700SOL    HW123999   4.809   6.253   4.336
 7700SOL    HW224000   4.692   6.366   4.339
 7701SOL     OW24001   6.615   1.696   0.040
 7701SOL    HW124002   6.523   1.672   0.007
 7701SOL    HW224003   6.683   1.665   6.995
 7702SOL     OW24004   3.605   5.935   6.025
 7702SOL    HW124005   3.589   6.014   5.966
 7702SOL    HW224006   3.701   5.934   6.053
 7703SOL     OW24007   6.189   0.572   5.416
 7703SOL    HW124008   6.280   0.613   5.422
 7703SOL    HW224009   6.172   0.516   5.498
 7704SOL     OW24010   5.244   5.380   5.653
 7704SOL    HW124011   5.201   5.459   5.610
 7704SOL    HW224012   5.275   5.316   5.583
 7705SOL     OW24013   3.914   5.300   6.464
 7705SOL    HW124014   3.842   5.339   6.521
 7705SOL    HW224015   4.000   5.348   6.481
 7706SOL     OW24016   4.336   3.182   5.352
 7706SOL    HW124017   4.423   3.155   5.310
 7706SOL    HW224018   4.356   3.237   5.434
 7707SOL     OW24019   0.665   5.605   6.046
 7707SOL    HW124020   0.625   5.620   5.956
 7707SOL    HW224021   0.745   5.545   6.038
 7708SOL     OW24022   6.242   0.104   5.945
 7708SOL    HW124023   6.339   0.112   5.923
 7708SOL    HW224024   6.231   0.105   6.044
 7709SOL     OW24025   5.658   4.384   1.956
 7709SOL    HW124026   5.727   4.443   1.914
 7709SOL    HW224027   5.620   4.430   2.037
 7710SOL     OW24028   2.862   0.586   0.812
 7710SOL    HW124029   2.788   0.631   0.762
 7710SOL    HW224030   2.842   0.489   0.822
 7711SOL     OW24031   6.625   5.942   5.516
 7711SOL    HW124032   6.683   5.864   5.539
 7711SOL    HW224033   6.545   5.943   5.576
 7712SOL     OW24034   5.464   6.052   2.632
 7712SOL    HW124035   5.543   6.063   2.573
 7712SOL    HW224036   5.384   6.029   2.577
 7713SOL     OW24037   1.431   4.633   0.490
 7713SOL    HW124038   1.374   4.552   0.489
 7713SOL    HW224039   1.376   4.714   0.470
 7714SOL     OW24040   6.407   4.441   5.729
 7714SOL    HW124041   6.350   4.363   5.755
 7714SOL    HW224042   6.503   4.421   5.750
 7715SOL     OW24043   4.206   2.174   6.656
 7715SOL    HW124044   4.161   2.165   6.745
 7715SOL    HW224045   4.277   2.105   6.646
 7716SOL     OW24046   6.138   4.610   3.700
 7716SOL    HW124047   6.153   4.556   3.617
 7716SOL    HW224048   6.040   4.625   3.713
 7717SOL     OW24049   1.813   1.173   5.084
 7717SOL    HW124050   1.754   1.247   5.116
 7717SOL    HW224051   1.757   1.092   5.066
 7718SOL     OW24052   1.673   2.265   2.923
 7718SOL    HW124053   1.708   2.304   3.008
 7718SOL    HW224054   1.744   2.207   2.882
 7719SOL     OW24055   6.682   4.561   4.994
 7719SOL    HW124056   6.674   4.623   4.917
 7719SOL    HW224057   6.596   4.513   5.009
 7720SOL     OW24058   0.212   1.118   6.918
 7720SOL    HW124059   0.181   1.211   6.896
 7720SOL    HW224060   0.166   1.087   7.001
 7721SOL     OW24061   0.389   5.583   2.323
 7721SOL    HW124062   0.358   5.541   2.237
 7721SOL    HW224063   0.335   5.547   2.399
 7722SOL     OW24064   1.089   5.790   2.916
 7722SOL    HW124065   0.998   5.831   2.906
 7722SOL    HW224066   1.105   5.727   2.840
 7723SOL     OW24067   5.058   2.931   0.136
 7723SOL    HW124068   5.143   2.927   0.189
 7723SOL    HW224069   4.982   2.949   0.199
 7724SOL     OW24070   2.868   4.424   1.194
 7724SOL    HW124071   2.866   4.412   1.293
 7724SOL    HW224072   2.946   4.483   1.169
 7725SOL     OW24073   6.324   2.193   3.657
 7725SOL    HW124074   6.344   2.101   3.624
 7725SOL    HW224075   6.226   2.212   3.646
 7726SOL     OW24076   2.186   6.027   5.441
 7726SOL    HW124077   2.091   6.036   5.471
 7726SOL    HW224078   2.210   5.930   5.438
 7727SOL     OW24079   6.923   0.943   2.570
 7727SOL    HW124080   6.975   0.902   2.644
 7727SOL    HW224081   6.949   0.899   2.483
 7728SOL     OW24082   1.073   4.779   3.044
 7728SOL    HW124083   1.126   4.798   3.127
 7728SOL    HW224084   0.986   4.738   3.068
 7729SOL     OW24085   5.811   2.564   1.211
 7729SOL    HW124086   5.800   2.475   1.167
 7729SOL    HW224087   5.736   2.578   1.277
 7730SOL     OW24088   6.000   5.929   1.268
 7730SOL    HW124089   6.031   6.020   1.295
 7730SOL    HW224090   5.972   5.878   1.350
 7731SOL     OW24091   6.625   0.718   6.597
 7731SOL    HW124092   6.629   0.760   6.688
 7731SOL    HW224093   6.717   0.707   6.560
 7732SOL     OW24094   4.305   6.051   0.683
 7732SOL    HW124095   4.342   6.080   0.772
 7732SOL    HW224096   4.239   6.119   0.651
 7733SOL     OW24097   4.485   6.699   2.563
 7733SOL    HW124098   4.528   6.790   2.565
 7733SOL    HW224099   4.439   6.682   2.650
 7734SOL     OW24100   2.565   5.141   3.062
 7734SOL    HW124101   2.478   5.107   3.025
 7734SOL    HW224102   2.547   5.221   3.119
 7735SOL     OW24103   4.991   6.206   6.720
 7735SOL    HW124104   4.992   6.276   6.791
 7735SOL    HW224105   4.943   6.241   6.639
 7736SOL     OW24106   3.201   3.879   0.220
 7736SOL    HW124107   3.270   3.828   0.273
 7736SOL    HW224108   3.197   3.842   0.128
 7737SOL     OW24109   3.223   0.520   2.563
 7737SOL    HW124110   3.309   0.472   2.579
 7737SOL    HW224111   3.152   0.453   2.541
 7738SOL     OW24112   3.004   6.295   0.254
 7738SOL    HW124113   2.932   6.258   0.312
 7738SOL    HW224114   3.052   6.368   0.303
 7739SOL     OW24115   0.891   2.280   0.718
 7739SOL    HW124116   0.924   2.211   0.655
 7739SOL    HW224117   0.896   2.370   0.674
 7740SOL     OW24118   2.073   1.054   3.210
 7740SOL    HW124119   2.172   1.041   3.198
 7740SOL    HW224120   2.026   0.967   3.195
 7741SOL     OW24121   0.719   4.574   6.225
 7741SOL    HW124122   0.732   4.601   6.129
 7741SOL    HW224123   0.755   4.645   6.285
 7742SOL     OW24124   5.483   1.689   3.669
 7742SOL    HW124125   5.387   1.662   3.673
 7742SOL    HW224126   5.536   1.617   3.625
 7743SOL     OW24127   5.762   1.129   0.311
 7743SOL    HW124128   5.730   1.036   0.330
 7743SOL    HW224129   5.809   1.165   0.392
 7744SOL     OW24130   0.917   5.981   3.379
 7744SOL    HW124131   1.004   5.956   3.422
 7744SOL    HW224132   0.846   5.987   3.449
 7745SOL     OW24133   3.646   1.047   5.906
 7745SOL    HW124134   3.670   1.141   5.933
 7745SOL    HW224135   3.565   1.049   5.848
 7746SOL     OW24136   2.772   6.434   0.073
 7746SOL    HW124137   2.801   6.351   0.119
 7746SOL    HW224138   2.674   6.448   0.089
 7747SOL     OW24139   4.936   5.792   1.553
 7747SOL    HW124140   4.973   5.862   1.614
 7747SOL    HW224141   4.855   5.828   1.506
 7748SOL     OW24142   2.853   3.473   4.705
 7748SOL    HW124143   2.785   3.403   4.726
 7748SOL    HW224144   2.891   3.509   4.791
 7749SOL     OW24145   2.334   2.583   5.843
 7749SOL    HW124146   2.385   2.538   5.770
 7749SOL    HW224147   2.397   2.615   5.913
 7750SOL     OW24148   0.014   6.625   1.506
 7750SOL    HW124149   0.084   6.596   1.442
 7750SOL    HW224150   0.057   6.656   1.591
 7751SOL     OW24151   1.514   2.432   2.314
 7751SOL    HW124152   1.482   2.520   2.280
 7751SOL    HW224153   1.471   2.412   2.402
 7752SOL     OW24154   5.325   0.670   5.948
 7752SOL    HW124155   5.255   0.616   5.900
 7752SOL    HW224156   5.364   0.615   6.022
 7753SOL     OW24157   2.781   1.572   4.059
 7753SOL    HW124158   2.770   1.478   4.029
 7753SOL    HW224159   2.879   1.594   4.066
 7754SOL     OW24160   3.299   6.010   1.076
 7754SOL    HW124161   3.389   5.983   1.043
 7754SOL    HW224162   3.233   6.007   1.001
 7755SOL     OW24163   2.125   2.221   5.717
 7755SOL    HW124164   2.130   2.320   5.722
 7755SOL    HW224165   2.170   2.181   5.797
 7756SOL     OW24166   2.631   6.768   2.610
 7756SOL    HW124167   2.556   6.722   2.563
 7756SOL    HW224168   2.619   6.760   2.709
 7757SOL     OW24169   5.861   4.702   1.020
 7757SOL    HW124170   5.825   4.610   1.007
 7757SOL    HW224171   5.808   4.767   0.964
 7758SOL     OW24172   2.284   0.036   6.143
 7758SOL    HW124173   2.303   0.016   6.047
 7758SOL    HW224174   2.221   6.989   6.179
 7759SOL     OW24175   1.810   1.608   5.557
 7759SOL    HW124176   1.886   1.551   5.590
 7759SOL    HW224177   1.844   1.700   5.537
 7760SOL     OW24178   6.098   3.850   2.227
 7760SOL    HW124179   6.160   3.774   2.204
 7760SOL    HW224180   6.081   3.851   2.325
 7761SOL     OW24181   6.416   6.684   4.800
 7761SOL    HW124182   6.429   6.590   4.769
 7761SOL    HW224183   6.470   6.746   4.743
 7762SOL     OW24184   2.232   0.488   4.076
 7762SOL    HW124185   2.281   0.536   4.149
 7762SOL    HW224186   2.187   0.407   4.114
 7763SOL     OW24187   2.497   0.086   6.375
 7763SOL    HW124188   2.437   0.077   6.295
 7763SOL    HW224189   2.447   0.133   6.448
 7764SOL     OW24190   3.659   3.729   5.453
 7764SOL    HW124191   3.646   3.797   5.524
 7764SOL    HW224192   3.618   3.642   5.481
 7765SOL     OW24193   6.007   2.944   5.021
 7765SOL    HW124194   6.043   3.015   4.961
 7765SOL    HW224195   5.908   2.957   5.032
 7766SOL     OW24196   6.675   4.191   0.517
 7766SOL    HW124197   6.736   4.116   0.495
 7766SOL    HW224198   6.666   4.198   0.617
 7767SOL     OW24199   4.456   6.000   2.352
 7767SOL    HW124200   4.448   6.015   2.253
 7767SOL    HW224201   4.452   6.088   2.399
 7768SOL     OW24202   4.960   4.199   2.891
 7768SOL    HW124203   4.922   4.143   2.965
 7768SOL    HW224204   5.015   4.273   2.929
 7769SOL     OW24205   4.573   1.536   4.306
 7769SOL    HW124206   4.582   1.472   4.230
 7769SOL    HW224207   4.606   1.493   4.390
 7770SOL     OW24208   1.043   3.411   4.972
 7770SOL    HW124209   1.100   3.353   4.913
 7770SOL    HW224210   1.083   3.414   5.064
 7771SOL     OW24211   3.466   1.910   5.371
 7771SOL    HW124212   3.372   1.906   5.337
 7771SOL    HW224213   3.527   1.866   5.306
 7772SOL     OW24214   4.803   6.567   1.920
 7772SOL    HW124215   4.732   6.588   1.853
 7772SOL    HW224216   4.761   6.536   2.005
 7773SOL     OW24217   1.669   4.812   5.342
 7773SOL    HW124218   1.641   4.778   5.252
 7773SOL    HW224219   1.729   4.745   5.385
 7774SOL     OW24220   4.837   2.556   4.023
 7774SOL    HW124221   4.790   2.512   4.100
 7774SOL    HW224222   4.931   2.579   4.051
 7775SOL     OW24223   4.376   0.090   6.997
 7775SOL    HW124224   4.343   0.102   6.904
 7775SOL    HW224225   4.360   0.174   0.029
 7776SOL     OW24226   0.881   5.863   6.716
 7776SOL    HW124227   0.940   5.914   6.654
 7776SOL    HW224228   0.884   5.905   6.807
 7777SOL     OW24229   6.033   5.480   4.069
 7777SOL    HW124230   6.057   5.458   4.164
 7777SOL    HW224231   5.940   5.450   4.050
 7778SOL     OW24232   5.608   3.807   1.805
 7778SOL    HW124233   5.679   3.767   1.863
 7778SOL    HW224234   5.521   3.805   1.854
 7779SOL     OW24235   2.633   1.223   2.094
 7779SOL    HW124236   2.633   1.314   2.053
 7779SOL    HW224237   2.576   1.161   2.040
 7780SOL     OW24238   0.810   5.080   5.765
 7780SOL    HW124239   0.727   5.028   5.786
 7780SOL    HW224240   0.796   5.134   5.682
 7781SOL     OW24241   2.037   4.206   1.671
 7781SOL    HW124242   1.954   4.246   1.632
 7781SOL    HW224243   2.113   4.270   1.662
 7782SOL     OW24244   5.195   5.130   4.219
 7782SOL    HW124245   5.151   5.178   4.144
 7782SOL    HW224246   5.294   5.136   4.210
 7783SOL     OW24247   0.831   0.038   5.732
 7783SOL    HW124248   0.863   0.037   5.637
 7783SOL    HW224249   0.885   6.993   5.786
 7784SOL     OW24250   3.745   2.635   1.338
 7784SOL    HW124251   3.788   2.546   1.350
 7784SOL    HW224252   3.806   2.707   1.370
 7785SOL     OW24253   2.025   5.996   4.314
 7785SOL    HW124254   2.049   6.046   4.398
 7785SOL    HW224255   1.944   6.038   4.273
 7786SOL     OW24256   3.482   0.188   0.548
 7786SOL    HW124257   3.435   0.125   0.611
 7786SOL    HW224258   3.418   0.260   0.521
 7787SOL     OW24259   2.404   3.154   6.999
 7787SOL    HW124260   2.322   3.165   0.034
 7787SOL    HW224261   2.482   3.196   0.025
 7788SOL     OW24262   2.008   5.020   1.683
 7788SOL    HW124263   2.053   5.010   1.594
 7788SOL    HW224264   1.987   4.929   1.720
 7789SOL     OW24265   2.967   0.139   6.364
 7789SOL    HW124266   2.961   0.217   6.427
 7789SOL    HW224267   2.889   0.078   6.379
 7790SOL     OW24268   5.136   5.900   3.133
 7790SOL    HW124269   5.159   5.903   3.231
 7790SOL    HW224270   5.148   5.991   3.093
 7791SOL     OW24271   1.898   4.988   2.524
 7791SOL    HW124272   1.893   5.081   2.561
 7791SOL    HW224273   1.985   4.947   2.551
 7792SOL     OW24274   1.332   6.061   4.079
 7792SOL    HW124275   1.243   6.107   4.075
 7792SOL    HW224276   1.401   6.118   4.034
 7793SOL     OW24277   3.705   0.505   0.122
 7793SOL    HW124278   3.685   0.594   0.081
 7793SOL    HW224279   3.784   0.514   0.183
 7794SOL     OW24280   0.208   4.213   1.889
 7794SOL    HW124281   0.235   4.185   1.797
 7794SOL    HW224282   0.126   4.163   1.917
 7795SOL     OW24283   2.518   5.010   5.236
 7795SOL    HW124284   2.534   4.935   5.172
 7795SOL    HW224285   2.491   5.091   5.185
 7796SOL     OW24286   3.516   3.110   5.313
 7796SOL    HW124287   3.457   3.147   5.385
 7796SOL    HW224288   3.594   3.064   5.354
 7797SOL     OW24289   0.946   6.536   1.471
 7797SOL    HW124290   1.017   6.607   1.466
 7797SOL    HW224291   0.909   6.519   1.380
 7798SOL     OW24292   0.934   2.619   3.305
 7798SOL    HW124293   0.959   2.676   3.227
 7798SOL    HW224294   0.853   2.657   3.350
 7799SOL     OW24295   1.990   5.289   2.232
 7799SOL    HW124296   1.908   5.341   2.253
 7799SOL    HW224297   2.046   5.281   2.314
 7800SOL     OW24298   1.020   5.178   3.068
 7800SOL    HW124299   1.059   5.238   2.998
 7800SOL    HW224300   0.928   5.151   3.042
 7801SOL     OW24301   1.835   1.441   2.589
 7801SOL    HW124302   1.901   1.511   2.559
 7801SOL    HW224303   1.742   1.474   2.571
 7802SOL     OW24304   6.423   3.082   0.489
 7802SOL    HW124305   6.384   2.993   0.466
 7802SOL    HW224306   6.421   3.095   0.588
 7803SOL     OW24307   4.334   2.182   0.068
 7803SOL    HW124308   4.245   2.164   0.110
 7803SOL    HW224309   4.403   2.193   0.141
 7804SOL     OW24310   4.361   2.090   5.068
 7804SOL    HW124311   4.304   2.117   5.147
 7804SOL    HW224312   4.364   2.166   5.003
 7805SOL     OW24313   5.317   3.268   2.055
 7805SOL    HW124314   5.388   3.304   2.116
 7805SOL    HW224315   5.317   3.168   2.062
 7806SOL     OW24316   5.514   1.418   5.983
 7806SOL    HW124317   5.559   1.437   5.896
 7806SOL    HW224318   5.464   1.332   5.977
 7807SOL     OW24319   0.871   4.814   5.507
 7807SOL    HW124320   0.830   4.724   5.489
 7807SOL    HW224321   0.826   4.883   5.451
 7808SOL     OW24322   5.930   3.137   3.467
 7808SOL    HW124323   6.022   3.114   3.437
 7808SOL    HW224324   5.866   3.123   3.392
 7809SOL     OW24325   5.219   5.062   5.232
 7809SOL    HW124326   5.175   5.073   5.321
 7809SOL    HW224327   5.313   5.029   5.245
 7810SOL     OW24328   2.830   6.399   5.084
 7810SOL    HW124329   2.763   6.455   5.132
 7810SOL    HW224330   2.898   6.365   5.149
 7811SOL     OW24331   1.498   5.158   1.619
 7811SOL    HW124332   1.509   5.232   1.685
 7811SOL    HW224333   1.589   5.122   1.595
 7812SOL     OW24334   1.550   2.778   4.213
 7812SOL    HW124335   1.519   2.737   4.298
 7812SOL    HW224336   1.481   2.764   4.142
 7813SOL     OW24337   4.056   2.064   1.207
 7813SOL    HW124338   3.992   2.009   1.154
 7813SOL    HW224339   4.135   2.009   1.231
 7814SOL     OW24340   6.749   3.244   3.341
 7814SOL    HW124341   6.663   3.279   3.378
 7814SOL    HW224342   6.805   3.321   3.310
 7815SOL     OW24343   5.806   2.200   4.084
 7815SOL    HW124344   5.770   2.293   4.074
 7815SOL    HW224345   5.796   2.151   3.998
 7816SOL     OW24346   0.825   2.338   6.802
 7816SOL    HW124347   0.858   2.253   6.845
 7816SOL    HW224348   0.847   2.336   6.704
 7817SOL     OW24349   4.829   4.540   4.642
 7817SOL    HW124350   4.780   4.457   4.616
 7817SOL    HW224351   4.850   4.594   4.561
 7818SOL     OW24352   5.029   0.975   2.685
 7818SOL    HW124353   5.088   0.895   2.685
 7818SOL    HW224354   5.063   1.042   2.618
 7819SOL     OW24355   0.078   3.801   3.658
 7819SOL    HW124356   0.012   3.867   3.623
 7819SOL    HW224357   0.122   3.839   3.740
 7820SOL     OW24358   1.660   0.986   5.459
 7820SOL    HW124359   1.736   0.922   5.454
 7820SOL    HW224360   1.695   1.078   5.481
 7821SOL     OW24361   5.654   5.843   0.878
 7821SOL    HW124362   5.567   5.878   0.844
 7821SOL    HW224363   5.729   5.896   0.839
 7822SOL     OW24364   1.090   1.493   6.905
 7822SOL    HW124365   1.160   1.426   6.930
 7822SOL    HW224366   1.058   1.473   6.812
 7823SOL     OW24367   2.490   3.690   6.204
 7823SOL    HW124368   2.450   3.757   6.140
 7823SOL    HW224369   2.586   3.677   6.182
 7824SOL     OW24370   6.099   0.699   4.223
 7824SOL    HW124371   6.011   0.713   4.268
 7824SOL    HW224372   6.093   0.619   4.162
 7825SOL     OW24373   1.031   3.527   0.767
 7825SOL    HW124374   1.116   3.562   0.727
 7825SOL    HW224375   0.973   3.489   0.695
 7826SOL     OW24376   5.526   1.937   6.717
 7826SOL    HW124377   5.458   2.009   6.705
 7826SOL    HW224378   5.570   1.946   6.806
 7827SOL     OW24379   2.650   4.615   0.781
 7827SOL    HW124380   2.699   4.549   0.838
 7827SOL    HW224381   2.628   4.573   0.692
 7828SOL     OW24382   0.676   5.265   1.203
 7828SOL    HW124383   0.742   5.330   1.239
 7828SOL    HW224384   0.628   5.220   1.279
 7829SOL     OW24385   1.943   3.105   0.418
 7829SOL    HW124386   1.973   3.124   0.512
 7829SOL    HW224387   2.001   3.155   0.354
 7830SOL     OW24388   4.295   3.754   6.270
 7830SOL    HW124389   4.389   3.756   6.236
 7830SOL    HW224390   4.246   3.835   6.235
 7831SOL     OW24391   1.338   5.430   0.896
 7831SOL    HW124392   1.285   5.405   0.977
 7831SOL    HW224393   1.433   5.448   0.922
 7832SOL     OW24394   3.313   1.362   4.146
 7832SOL    HW124395   3.407   1.332   4.166
 7832SOL    HW224396   3.279   1.311   4.067
 7833SOL     OW24397   0.471   0.697   6.938
 7833SOL    HW124398   0.470   0.651   6.849
 7833SOL    HW224399   0.491   0.630   7.010
 7834SOL     OW24400   0.262   1.397   3.600
 7834SOL    HW124401   0.328   1.360   3.535
 7834SOL    HW224402   0.304   1.403   3.690
 7835SOL     OW24403   2.393   2.561   4.718
 7835SOL    HW124404   2.428   2.549   4.811
 7835SOL    HW224405   2.326   2.634   4.717
 7836SOL     OW24406   3.591   2.777   5.311
 7836SOL    HW124407   3.690   2.771   5.328
 7836SOL    HW224408   3.552   2.685   5.305
 7837SOL     OW24409   6.944   6.122   1.712
 7837SOL    HW124410   6.846   6.141   1.712
 7837SOL    HW224411   6.977   6.121   1.617
 7838SOL     OW24412   4.082   6.170   0.538
 7838SOL    HW124413   4.100   6.262   0.504
 7838SOL    HW224414   4.061   6.109   0.461
 7839SOL     OW24415   6.064   4.850   5.221
 7839SOL    HW124416   6.152   4.836   5.176
 7839SOL    HW224417   6.071   4.926   5.286
 7840SOL     OW24418   4.869   3.309   4.396
 7840SOL    HW124419   4.884   3.355   4.483
 7840SOL    HW224420   4.851   3.212   4.412
 7841SOL     OW24421   5.544   1.565   6.664
 7841SOL    HW124422   5.455   1.576   6.617
 7841SOL    HW224423   5.557   1.642   6.727
 7842SOL     OW24424   2.443   1.474   3.030
 7842SOL    HW124425   2.385   1.526   3.093
 7842SOL    HW224426   2.398   1.466   2.941
 7843SOL     OW24427   5.203   4.606   2.084
 7843SOL    HW124428   5.229   4.513   2.056
 7843SOL    HW224429   5.103   4.615   2.079
 7844SOL     OW24430   4.127   0.892   4.086
 7844SOL    HW124431   4.175   0.925   4.005
 7844SOL    HW224432   4.031   0.917   4.080
 7845SOL     OW24433   6.169   1.404   3.863
 7845SOL    HW124434   6.219   1.317   3.858
 7845SOL    HW224435   6.135   1.418   3.956
 7846SOL     OW24436   1.781   0.713   1.629
 7846SOL    HW124437   1.718   0.759   1.691
 7846SOL    HW224438   1.869   0.760   1.630
 7847SOL     OW24439   6.482   1.768   1.768
 7847SOL    HW124440   6.571   1.795   1.733
 7847SOL    HW224441   6.494   1.692   1.833
 7848SOL     OW24442   3.010   3.476   1.252
 7848SOL    HW124443   3.025   3.403   1.319
 7848SOL    HW224444   2.945   3.445   1.183
 7849SOL     OW24445   5.573   4.043   3.500
 7849SOL    HW124446   5.654   3.985   3.510
 7849SOL    HW224447   5.591   4.115   3.433
 7850SOL     OW24448   0.005   1.606   4.146
 7850SOL    HW124449   6.969   1.530   4.113
 7850SOL    HW224450   0.101   1.589   4.121
 7851SOL     OW24451   6.793   6.986   0.768
 7851SOL    HW124452   6.774   6.888   0.769
 7851SOL    HW224453   6.745   0.008   0.692
 7852SOL     OW24454   2.757   0.042   5.293
 7852SOL    HW124455   2.781   6.984   5.350
 7852SOL    HW224456   2.824   0.115   5.308
 7853SOL     OW24457   3.928   1.521   2.044
 7853SOL    HW124458   3.975   1.596   2.090
 7853SOL    HW224459   3.946   1.525   1.945
 7854SOL     OW24460   3.147   3.221   0.711
 7854SOL    HW124461   3.092   3.294   0.751
 7854SOL    HW224462   3.243   3.249   0.710
 7855SOL     OW24463   2.971   5.941   5.673
 7855SOL    HW124464   2.970   5.918   5.770
 7855SOL    HW224465   2.965   5.857   5.619
 7856SOL     OW24466   5.550   5.083   4.150
 7856SOL    HW124467   5.501   5.138   4.082
 7856SOL    HW224468   5.631   5.042   4.108
 7857SOL     OW24469   6.128   2.516   5.206
 7857SOL    HW124470   6.031   2.498   5.193
 7857SOL    HW224471   6.145   2.615   5.203
 7858SOL     OW24472   4.465   5.525   3.749
 7858SOL    HW124473   4.563   5.515   3.733
 7858SOL    HW224474   4.440   5.480   3.835
 7859SOL     OW24475   6.281   4.193   5.730
 7859SOL    HW124476   6.377   4.183   5.755
 7859SOL    HW224477   6.253   4.116   5.673
 7860SOL     OW24478   4.485   0.355   2.958
 7860SOL    HW124479   4.521   0.262   2.961
 7860SOL    HW224480   4.415   0.361   2.887
 7861SOL     OW24481   3.829   5.294   1.832
 7861SOL    HW124482   3.745   5.343   1.855
 7861SOL    HW224483   3.861   5.324   1.742
 7862SOL     OW24484   2.974   4.720   1.704
 7862SOL    HW124485   2.972   4.630   1.747
 7862SOL    HW224486   2.984   4.709   1.605
 7863SOL     OW24487   6.458   6.193   3.792
 7863SOL    HW124488   6.422   6.229   3.878
 7863SOL    HW224489   6.501   6.104   3.808
 7864SOL     OW24490   0.249   6.533   5.371
 7864SOL    HW124491   0.333   6.479   5.385
 7864SOL    HW224492   0.268   6.629   5.391
 7865SOL     OW24493   4.476   6.689   4.397
 7865SOL    HW124494   4.474   6.605   4.452
 7865SOL    HW224495   4.468   6.664   4.300
 7866SOL     OW24496   2.554   1.994   6.855
 7866SOL    HW124497   2.489   2.052   6.806
 7866SOL    HW224498   2.597   2.048   6.928
 7867SOL     OW24499   5.127   6.568   2.692
 7867SOL    HW124500   5.062   6.503   2.652
 7867SOL    HW224501   5.079   6.652   2.718
 7868SOL     OW24502   5.701   6.806   2.020
 7868SOL    HW124503   5.608   6.771   2.032
 7868SOL    HW224504   5.748   6.752   1.949
 7869SOL     OW24505   5.460   3.411   0.221
 7869SOL    HW124506   5.519   3.415   0.140
 7869SOL    HW224507   5.494   3.340   0.284
 7870SOL     OW24508   4.918   5.454   4.710
 7870SOL    HW124509   4.839   5.500   4.749
 7870SOL    HW224510   4.891   5.410   4.624
 7871SOL     OW24511   5.438   3.928   2.523
 7871SOL    HW124512   5.506   3.917   2.450
 7871SOL    HW224513   5.478   3.902   2.610
 7872SOL     OW24514   1.901   4.283   2.522
 7872SOL    HW124515   1.967   4.341   2.475
 7872SOL    HW224516   1.813   4.329   2.527
 7873SOL     OW24517   5.412   0.707   5.497
 7873SOL    HW124518   5.461   0.783   5.453
 7873SOL    HW224519   5.316   0.734   5.511
 7874SOL     OW24520   4.964   1.516   0.339
 7874SOL    HW124521   4.912   1.555   0.263
 7874SOL    HW224522   4.917   1.536   0.425
 7875SOL     OW24523   4.595   2.327   6.717
 7875SOL    HW124524   4.670   2.306   6.778
 7875SOL    HW224525   4.510   2.336   6.769
 7876SOL     OW24526   6.684   0.068   4.889
 7876SOL    HW124527   6.742   0.038   4.964
 7876SOL    HW224528   6.733   0.135   4.833
 7877SOL     OW24529   0.070   2.914   2.363
 7877SOL    HW124530   7.014   2.850   2.357
 7877SOL    HW224531   0.107   2.931   2.271
 7878SOL     OW24532   4.590   4.977   4.340
 7878SOL    HW124533   4.609   4.980   4.438
 7878SOL    HW224534   4.533   4.898   4.319
 7879SOL     OW24535   4.745   5.692   3.564
 7879SOL    HW124536   4.733   5.778   3.613
 7879SOL    HW224537   4.812   5.635   3.612
 7880SOL     OW24538   1.216   5.202   0.721
 7880SOL    HW124539   1.291   5.267   0.731
 7880SOL    HW224540   1.164   5.223   0.638
 7881SOL     OW24541   5.443   3.660   4.754
 7881SOL    HW124542   5.380   3.718   4.805
 7881SOL    HW224543   5.460   3.700   4.664
 7882SOL     OW24544   1.860   3.055   2.910
 7882SOL    HW124545   1.825   2.992   2.840
 7882SOL    HW224546   1.831   3.024   3.000
 7883SOL     OW24547   1.747   0.050   1.396
 7883SOL    HW124548   1.695   0.135   1.385
 7883SOL    HW224549   1.780   0.043   1.490
 7884SOL     OW24550   2.012   3.830   3.739
 7884SOL    HW124551   2.089   3.883   3.702
 7884SOL    HW224552   2.030   3.733   3.729
 7885SOL     OW24553   6.183   6.553   1.658
 7885SOL    HW124554   6.262   6.500   1.688
 7885SOL    HW224555   6.099   6.506   1.684
 7886SOL     OW24556   4.217   4.824   0.890
 7886SOL    HW124557   4.123   4.851   0.868
 7886SOL    HW224558   4.221   4.793   0.985
 7887SOL     OW24559   3.338   2.614   5.409
 7887SOL    HW124560   3.299   2.524   5.389
 7887SOL    HW224561   3.428   2.602   5.450
 7888SOL     OW24562   0.069   0.553   5.146
 7888SOL    HW124563   6.998   0.593   5.156
 7888SOL    HW224564   0.076   0.470   5.200
 7889SOL     OW24565   0.846   4.718   6.999
 7889SOL    HW124566   0.758   4.705   0.022
 7889SOL    HW224567   0.900   4.634   7.007
 7890SOL     OW24568   0.622   3.298   4.094
 7890SOL    HW124569   0.563   3.273   4.171
 7890SOL    HW224570   0.650   3.214   4.046
 7891SOL     OW24571   1.800   3.920   4.882
 7891SOL    HW124572   1.794   4.020   4.877
 7891SOL    HW224573   1.884   3.889   4.838
 7892SOL     OW24574   1.642   2.293   3.943
 7892SOL    HW124575   1.733   2.319   3.911
 7892SOL    HW224576   1.650   2.226   4.017
 7893SOL     OW24577   6.305   0.098   1.901
 7893SOL    HW124578   6.205   0.095   1.895
 7893SOL    HW224579   6.344   0.108   1.809
 7894SOL     OW24580   3.097   0.979   1.687
 7894SOL    HW124581   3.069   1.055   1.746
 7894SOL    HW224582   3.018   0.922   1.666
 7895SOL     OW24583   4.810   0.074   5.155
 7895SOL    HW124584   4.737   0.125   5.109
 7895SOL    HW224585   4.887   0.063   5.092
 7896SOL     OW24586   5.369   3.002   1.194
 7896SOL    HW124587   5.324   3.009   1.105
 7896SOL    HW224588   5.300   3.010   1.267
 7897SOL     OW24589   3.620   2.643   1.094
 7897SOL    HW124590   3.647   2.739   1.090
 7897SOL    HW224591   3.646   2.605   1.184
 7898SOL     OW24592   3.807   0.294   3.705
 7898SOL    HW124593   3.813   0.394   3.712
 7898SOL    HW224594   3.765   0.258   3.788
 7899SOL     OW24595   5.862   6.688   1.559
 7899SOL    HW124596   5.878   6.595   1.591
 7899SOL    HW224597   5.766   6.698   1.535
 7900SOL     OW24598   0.939   5.304   1.594
 7900SOL    HW124599   1.024   5.272   1.637
 7900SOL    HW224600   0.894   5.227   1.549
 7901SOL     OW24601   4.946   0.852   6.637
 7901SOL    HW124602   4.945   0.781   6.568
 7901SOL    HW224603   4.907   0.817   6.722
 7902SOL     OW24604   5.734   5.743   2.890
 7902SOL    HW124605   5.775   5.683   2.821
 7902SOL    HW224606   5.793   5.744   2.972
 7903SOL     OW24607   4.831   1.699   2.788
 7903SOL    HW124608   4.753   1.668   2.733
 7903SOL    HW224609   4.910   1.713   2.728
 7904SOL     OW24610   5.617   6.910   2.816
 7904SOL    HW124611   5.645   6.918   2.912
 7904SOL    HW224612   5.521   6.881   2.812
 7905SOL     OW24613   5.553   2.364   0.579
 7905SOL    HW124614   5.582   2.384   0.673
 7905SOL    HW224615   5.551   2.450   0.527
 7906SOL     OW24616   0.372   5.681   0.699
 7906SOL    HW124617   0.348   5.623   0.777
 7906SOL    HW224618   0.403   5.623   0.623
 7907SOL     OW24619   6.316   1.916   3.574
 7907SOL    HW124620   6.233   1.904   3.629
 7907SOL    HW224621   6.330   1.834   3.518
 7908SOL     OW24622   0.914   1.460   5.953
 7908SOL    HW124623   0.989   1.476   5.890
 7908SOL    HW224624   0.898   1.543   6.008
 7909SOL     OW24625   4.896   4.171   3.816
 7909SOL    HW124626   4.819   4.229   3.790
 7909SOL    HW224627   4.887   4.145   3.912
 7910SOL     OW24628   2.012   3.477   0.349
 7910SOL    HW124629   1.936   3.479   0.284
 7910SOL    HW224630   2.091   3.524   0.309
 7911SOL     OW24631   0.759   4.887   0.675
 7911SOL    HW124632   0.798   4.975   0.703
 7911SOL    HW224633   0.663   4.899   0.651
 7912SOL     OW24634   6.042   4.918   1.167
 7912SOL    HW124635   5.979   4.859   1.117
 7912SOL    HW224636   6.103   4.862   1.223
 7913SOL     OW24637   1.683   3.785   2.050
 7913SOL    HW124638   1.595   3.737   2.057
 7913SOL    HW224639   1.681   3.844   1.969
 7914SOL     OW24640   7.017   4.749   0.736
 7914SOL    HW124641   6.960   4.831   0.733
 7914SOL    HW224642   0.081   4.770   0.785
 7915SOL     OW24643   5.230   2.199   2.326
 7915SOL    HW124644   5.258   2.176   2.419
 7915SOL    HW224645   5.143   2.250   2.328
 7916SOL     OW24646   0.063   6.048   5.716
 7916SOL    HW124647   0.039   6.142   5.739
 7916SOL    HW224648   0.058   6.034   5.617
 7917SOL     OW24649   4.235   3.195   5.695
 7917SOL    HW124650   4.204   3.287   5.721
 7917SOL    HW224651   4.334   3.188   5.712
 7918SOL     OW24652   6.523   1.176   4.220
 7918SOL    HW124653   6.447   1.130   4.266
 7918SOL    HW224654   6.585   1.107   4.183
 7919SOL     OW24655   1.588   4.977   3.135
 7919SOL    HW124656   1.647   4.919   3.191
 7919SOL    HW224657   1.520   5.022   3.193
 7920SOL     OW24658   6.522   6.897   0.894
 7920SOL    HW124659   6.442   6.889   0.952
 7920SOL    HW224660   6.578   6.814   0.903
 7921SOL     OW24661   5.731   5.871   2.600
 7921SOL    HW124662   5.667   5.843   2.672
 7921SOL    HW224663   5.679   5.911   2.524
 7922SOL     OW24664   0.567   6.228   0.045
 7922SOL    HW124665   0.487   6.270   0.003
 7922SOL    HW224666   0.624   6.299   0.086
 7923SOL     OW24667   3.942   0.961   6.451
 7923SOL    HW124668   3.863   0.924   6.501
 7923SOL    HW224669   3.957   0.907   6.368
 7924SOL     OW24670   4.735   0.306   1.520
 7924SOL    HW124671   4.643   0.342   1.506
 7924SOL    HW224672   4.748   0.224   1.463
 7925SOL     OW24673   0.690   0.312   0.399
 7925SOL    HW124674   0.765   0.310   0.333
 7925SOL    HW224675   0.642   0.224   0.399
 7926SOL     OW24676   5.054   1.853   5.880
 7926SOL    HW124677   4.976   1.895   5.834
 7926SOL    HW224678   5.121   1.825   5.811
 7927SOL     OW24679   4.691   6.427   2.651
 7927SOL    HW124680   4.698   6.463   2.558
 7927SOL    HW224681   4.779   6.388   2.678
 7928SOL     OW24682   1.170   2.017   3.866
 7928SOL    HW124683   1.259   2.056   3.887
 7928SOL    HW224684   1.136   1.968   3.947
 7929SOL     OW24685   4.119   3.620   5.978
 7929SOL    HW124686   4.180   3.689   5.940
 7929SOL    HW224687   4.059   3.586   5.906
 7930SOL     OW24688   4.599   5.336   5.977
 7930SOL    HW124689   4.629   5.241   5.986
 7930SOL    HW224690   4.602   5.381   6.067
 7931SOL     OW24691   3.139   3.483   0.470
 7931SOL    HW124692   3.106   3.563   0.521
 7931SOL    HW224693   3.064   3.417   0.459
 7932SOL     OW24694   1.673   6.078   6.621
 7932SOL    HW124695   1.661   5.993   6.672
 7932SOL    HW224696   1.757   6.072   6.567
 7933SOL     OW24697   6.518   0.631   6.251
 7933SOL    HW124698   6.476   0.616   6.341
 7933SOL    HW224699   6.564   0.719   6.250
 7934SOL     OW24700   1.526   5.511   6.822
 7934SOL    HW124701   1.461   5.445   6.858
 7934SOL    HW224702   1.480   5.573   6.759
 7935SOL     OW24703   6.126   6.462   1.097
 7935SOL    HW124704   6.100   6.422   1.185
 7935SOL    HW224705   6.118   6.394   1.025
 7936SOL     OW24706   2.909   5.969   2.441
 7936SOL    HW124707   2.832   6.032   2.425
 7936SOL    HW224708   2.993   6.009   2.404
 7937SOL     OW24709   6.797   5.503   4.027
 7937SOL    HW124710   6.771   5.430   4.091
 7937SOL    HW224711   6.892   5.529   4.043
 7938SOL     OW24712   6.542   6.447   4.672
 7938SOL    HW124713   6.624   6.454   4.616
 7938SOL    HW224714   6.527   6.351   4.698
 7939SOL     OW24715   1.650   2.143   5.544
 7939SOL    HW124716   1.674   2.134   5.447
 7939SOL    HW224717   1.702   2.076   5.598
 7940SOL     OW24718   2.451   2.597   2.273
 7940SOL    HW124719   2.396   2.680   2.285
 7940SOL    HW224720   2.499   2.601   2.185
 7941SOL     OW24721   5.808   6.210   2.029
 7941SOL    HW124722   5.841   6.201   1.935
 7941SOL    HW224723   5.876   6.172   2.091
 7942SOL     OW24724   0.381   4.464   2.841
 7942SOL    HW124725   0.453   4.533   2.836
 7942SOL    HW224726   0.314   4.491   2.910
 7943SOL     OW24727   0.563   4.346   6.098
 7943SOL    HW124728   0.505   4.407   6.153
 7943SOL    HW224729   0.645   4.322   6.150
 7944SOL     OW24730   0.851   2.481   0.528
 7944SOL    HW124731   0.886   2.563   0.483
 7944SOL    HW224732   0.776   2.506   0.590
 7945SOL     OW24733   6.367   5.568   1.656
 7945SOL    HW124734   6.392   5.657   1.694
 7945SOL    HW224735   6.391   5.567   1.558
 7946SOL     OW24736   3.367   0.549   5.351
 7946SOL    HW124737   3.314   0.634   5.350
 7946SOL    HW224738   3.318   0.480   5.403
 7947SOL     OW24739   2.725   1.686   5.487
 7947SOL    HW124740   2.631   1.705   5.516
 7947SOL    HW224741   2.773   1.773   5.473
 7948SOL     OW24742   1.305   5.982   0.920
 7948SOL    HW124743   1.230   6.038   0.882
 7948SOL    HW224744   1.267   5.917   0.986
 7949SOL     OW24745   4.757   4.068   5.814
 7949SOL    HW124746   4.750   4.077   5.913
 7949SOL    HW224747   4.827   4.000   5.791
 7950SOL     OW24748   4.643   5.653   4.409
 7950SOL    HW124749   4.658   5.750   4.429
 7950SOL    HW224750   4.588   5.644   4.326
 7951SOL     OW24751   1.909   4.657   2.169
 7951SOL    HW124752   1.878   4.573   2.214
 7951SOL    HW224753   1.861   4.735   2.208
 7952SOL     OW24754   0.017   3.288   6.711
 7952SOL    HW124755   0.105   3.244   6.732
 7952SOL    HW224756   6.983   3.296   6.794
 7953SOL     OW24757   3.759   2.156   2.850
 7953SOL    HW124758   3.713   2.161   2.762
 7953SOL    HW224759   3.690   2.151   2.923
 7954SOL     OW24760   3.029   4.435   6.029
 7954SOL    HW124761   3.005   4.346   6.067
 7954SOL    HW224762   3.061   4.424   5.935
 7955SOL     OW24763   2.509   0.898   6.346
 7955SOL    HW124764   2.577   0.967   6.320
 7955SOL    HW224765   2.453   0.875   6.267
 7956SOL     OW24766   5.020   0.231   1.875
 7956SOL    HW124767   5.099   0.246   1.935
 7956SOL    HW224768   4.949   0.182   1.926
 7957SOL     OW24769   1.656   0.510   0.663
 7957SOL    HW124770   1.638   0.589   0.604
 7957SOL    HW224771   1.592   0.436   0.641
 7958SOL     OW24772   4.441   4.839   6.228
 7958SOL    HW124773   4.442   4.910   6.298
 7958SOL    HW224774   4.348   4.830   6.191
 7959SOL     OW24775   5.318   6.441   1.196
 7959SOL    HW124776   5.257   6.464   1.272
 7959SOL    HW224777   5.301   6.505   1.120
 7960SOL     OW24778   1.862   0.502   5.858
 7960SOL    HW124779   1.937   0.563   5.832
 7960SOL    HW224780   1.820   0.535   5.943
 7961SOL     OW24781   6.999   0.784   0.549
 7961SOL    HW124782   6.936   0.766   0.473
 7961SOL    HW224783   6.947   0.793   0.634
 7962SOL     OW24784   1.266   1.134   5.444
 7962SOL    HW124785   1.210   1.170   5.519
 7962SOL    HW224786   1.312   1.050   5.475
 7963SOL     OW24787   5.785   6.332   4.548
 7963SOL    HW124788   5.833   6.311   4.633
 7963SOL    HW224789   5.692   6.361   4.568
 7964SOL     OW24790   0.131   4.132   2.916
 7964SOL    HW124791   0.119   4.197   2.991
 7964SOL    HW224792   0.123   4.180   2.829
 7965SOL     OW24793   4.303   2.453   5.961
 7965SOL    HW124794   4.348   2.373   6.001
 7965SOL    HW224795   4.372   2.518   5.930
 7966SOL     OW24796   2.926   2.783   5.672
 7966SOL    HW124797   2.972   2.769   5.760
 7966SOL    HW224798   2.990   2.765   5.598
 7967SOL     OW24799   3.548   6.175   2.049
 7967SOL    HW124800   3.628   6.137   2.096
 7967SOL    HW224801   3.578   6.231   1.972
 7968SOL     OW24802   0.053   2.138   4.178
 7968SOL    HW124803   0.151   2.120   4.170
 7968SOL    HW224804   0.001   2.063   4.136
 7969SOL     OW24805   5.349   5.863   0.796
 7969SOL    HW124806   5.369   5.844   0.700
 7969SOL    HW224807   5.266   5.815   0.823
 7970SOL     OW24808   6.589   2.613   2.205
 7970SOL    HW124809   6.496   2.618   2.169
 7970SOL    HW224810   6.610   2.698   2.253
 7971SOL     OW24811   3.520   1.904   1.206
 7971SOL    HW124812   3.515   1.963   1.287
 7971SOL    HW224813   3.536   1.809   1.235
 7972SOL     OW24814   2.620   3.086   0.553
 7972SOL    HW124815   2.598   3.019   0.624
 7972SOL    HW224816   2.575   3.060   0.467
 7973SOL     OW24817   4.338   4.737   4.591
 7973SOL    HW124818   4.403   4.768   4.660
 7973SOL    HW224819   4.247   4.729   4.632
 7974SOL     OW24820   5.978   0.924   5.256
 7974SOL    HW124821   6.020   0.833   5.247
 7974SOL    HW224822   5.892   0.917   5.305
 7975SOL     OW24823   6.561   1.006   1.421
 7975SOL    HW124824   6.469   1.016   1.459
 7975SOL    HW224825   6.596   1.096   1.395
 7976SOL     OW24826   1.278   0.311   5.930
 7976SOL    HW124827   1.212   0.372   5.887
 7976SOL    HW224828   1.229   0.238   5.978
 7977SOL     OW24829   4.423   5.751   3.212
 7977SOL    HW124830   4.501   5.709   3.258
 7977SOL    HW224831   4.415   5.846   3.240
 7978SOL     OW24832   6.325   2.213   6.176
 7978SOL    HW124833   6.296   2.289   6.234
 7978SOL    HW224834   6.330   2.245   6.081
 7979SOL     OW24835   3.792   5.055   5.687
 7979SOL    HW124836   3.702   5.075   5.726
 7979SOL    HW224837   3.856   5.127   5.712
 7980SOL     OW24838   3.294   5.648   6.557
 7980SOL    HW124839   3.385   5.642   6.515
 7980SOL    HW224840   3.226   5.606   6.496
 7981SOL     OW24841   0.873   5.081   1.443
 7981SOL    HW124842   0.948   5.015   1.446
 7981SOL    HW224843   0.816   5.064   1.363
 7982SOL     OW24844   1.500   1.048   0.327
 7982SOL    HW124845   1.547   1.005   0.404
 7982SOL    HW224846   1.548   1.025   0.242
 7983SOL     OW24847   6.017   2.517   0.667
 7983SOL    HW124848   5.998   2.613   0.645
 7983SOL    HW224849   5.988   2.459   0.590
 7984SOL     OW24850   1.341   1.223   0.752
 7984SOL    HW124851   1.351   1.322   0.750
 7984SOL    HW224852   1.305   1.195   0.841
 7985SOL     OW24853   2.841   1.242   4.388
 7985SOL    HW124854   2.881   1.292   4.312
 7985SOL    HW224855   2.913   1.212   4.450
 7986SOL     OW24856   2.345   0.772   6.131
 7986SOL    HW124857   2.292   0.725   6.202
 7986SOL    HW224858   2.309   0.749   6.041
 7987SOL     OW24859   1.799   2.529   0.035
 7987SOL    HW124860   1.780   2.614   0.084
 7987SOL    HW224861   1.882   2.487   0.072
 7988SOL     OW24862   0.884   1.746   3.128
 7988SOL    HW124863   0.932   1.787   3.051
 7988SOL    HW224864   0.875   1.648   3.112
 7989SOL     OW24865   2.625   3.355   0.221
 7989SOL    HW124866   2.569   3.415   0.278
 7989SOL    HW224867   2.692   3.410   0.170
 7990SOL     OW24868   1.524   5.051   4.782
 7990SOL    HW124869   1.558   4.972   4.731
 7990SOL    HW224870   1.458   5.020   4.850
 7991SOL     OW24871   6.081   0.348   3.391
 7991SOL    HW124872   6.019   0.371   3.467
 7991SOL    HW224873   6.176   0.355   3.422
 7992SOL     OW24874   1.215   0.382   0.549
 7992SOL    HW124875   1.164   0.297   0.534
 7992SOL    HW224876   1.176   0.455   0.494
 7993SOL     OW24877   0.329   6.921   0.576
 7993SOL    HW124878   0.326   6.866   0.660
 7993SOL    HW224879   0.424   6.928   0.544
 7994SOL     OW24880   3.920   0.065   3.594
 7994SOL    HW124881   3.869   0.132   3.648
 7994SOL    HW224882   3.859   0.022   3.527
 7995SOL     OW24883   5.952   5.485   3.534
 7995SOL    HW124884   6.008   5.562   3.566
 7995SOL    HW224885   5.987   5.400   3.572
 7996SOL     OW24886   2.939   6.493   4.372
 7996SOL    HW124887   2.849   6.525   4.403
 7996SOL    HW224888   2.942   6.493   4.272
 7997SOL     OW24889   0.203   1.186   1.012
 7997SOL    HW124890   0.270   1.250   0.975
 7997SOL    HW224891   0.231   1.157   1.103
 7998SOL     OW24892   2.382   0.220   0.305
 7998SOL    HW124893   2.325   0.141   0.326
 7998SOL    HW224894   2.474   0.188   0.282
 7999SOL     OW24895   1.000   0.914   6.066
 7999SOL    HW124896   1.097   0.937   6.071
 7999SOL    HW224897   0.960   0.955   5.984
 8000SOL     OW24898   4.993   0.075   6.717
 8000SOL    HW124899   5.001   0.147   6.785
 8000SOL    HW224900   4.960   0.113   6.631
 8001SOL     OW24901   4.327   6.467   1.413
 8001SOL    HW124902   4.232   6.496   1.416
 8001SOL    HW224903   4.365   6.464   1.505
 8002SOL     OW24904   2.142   0.583   6.641
 8002SOL    HW124905   2.181   0.592   6.549
 8002SOL    HW224906   2.216   0.576   6.708
 8003SOL     OW24907   2.712   5.487   2.101
 8003SOL    HW124908   2.620   5.455   2.126
 8003SOL    HW224909   2.714   5.587   2.101
 8004SOL     OW24910   2.212   2.854   2.934
 8004SOL    HW124911   2.202   2.877   3.031
 8004SOL    HW224912   2.125   2.818   2.900
 8005SOL     OW24913   3.191   1.092   3.476
 8005SOL    HW124914   3.216   1.188   3.481
 8005SOL    HW224915   3.103   1.078   3.520
 8006SOL     OW24916   2.306   6.493   5.723
 8006SOL    HW124917   2.208   6.482   5.705
 8006SOL    HW224918   2.330   6.438   5.804
 8007SOL     OW24919   5.909   1.579   6.073
 8007SOL    HW124920   5.930   1.661   6.020
 8007SOL    HW224921   5.940   1.498   6.022
 8008SOL     OW24922   4.415   5.870   6.688
 8008SOL    HW124923   4.347   5.890   6.617
 8008SOL    HW224924   4.423   5.948   6.750
 8009SOL     OW24925   5.473   0.603   1.335
 8009SOL    HW124926   5.534   0.563   1.403
 8009SOL    HW224927   5.417   0.674   1.378
 8010SOL     OW24928   2.238   0.968   5.270
 8010SOL    HW124929   2.222   0.920   5.356
 8010SOL    HW224930   2.151   0.979   5.222
 8011SOL     OW24931   3.182   2.553   1.047
 8011SOL    HW124932   3.186   2.546   1.146
 8011SOL    HW224933   3.107   2.614   1.021
 8012SOL     OW24934   2.200   3.592   0.223
 8012SOL    HW124935   2.229   3.593   0.127
 8012SOL    HW224936   2.148   3.675   0.243
 8013SOL     OW24937   1.529   5.357   3.124
 8013SOL    HW124938   1.520   5.453   3.147
 8013SOL    HW224939   1.478   5.337   3.041
 8014SOL     OW24940   1.141   6.607   4.675
 8014SOL    HW124941   1.190   6.536   4.725
 8014SOL    HW224942   1.141   6.692   4.728
 8015SOL     OW24943   2.718   0.230   6.166
 8015SOL    HW124944   2.793   0.260   6.226
 8015SOL    HW224945   2.630   0.254   6.208
 8016SOL     OW24946   4.057   0.552   5.566
 8016SOL    HW124947   4.054   0.454   5.584
 8016SOL    HW224948   4.090   0.568   5.473
 8017SOL     OW24949   5.494   0.113   0.584
 8017SOL    HW124950   5.485   0.046   0.510
 8017SOL    HW224951   5.524   0.066   0.667
 8018SOL     OW24952   3.202   1.823   6.940
 8018SOL    HW124953   3.282   1.845   6.883
 8018SOL    HW224954   3.125   1.881   6.913
 8019SOL     OW24955   2.630   4.838   1.121
 8019SOL    HW124956   2.638   4.817   1.219
 8019SOL    HW224957   2.558   4.783   1.081
 8020SOL     OW24958   6.278   7.016   6.894
 8020SOL    HW124959   6.284   0.024   6.799
 8020SOL    HW224960   6.190   6.972   6.911
 8021SOL     OW24961   1.375   2.785   0.789
 8021SOL    HW124962   1.382   2.721   0.866
 8021SOL    HW224963   1.381   2.734   0.703
 8022SOL     OW24964   5.797   0.527   2.318
 8022SOL    HW124965   5.794   0.615   2.270
 8022SOL    HW224966   5.884   0.520   2.368
 8023SOL     OW24967   6.255   5.155   3.197
 8023SOL    HW124968   6.160   5.126   3.181
 8023SOL    HW224969   6.268   5.173   3.295
 8024SOL     OW24970   1.241   4.864   5.597
 8024SOL    HW124971   1.169   4.814   5.645
 8024SOL    HW224972   1.323   4.867   5.654
 8025SOL     OW24973   2.180   5.621   0.695
 8025SOL    HW124974   2.157   5.579   0.607
 8025SOL    HW224975   2.096   5.644   0.744
 8026SOL     OW24976   0.032   4.080   0.262
 8026SOL    HW124977   6.965   4.037   0.242
 8026SOL    HW224978   0.017   4.158   0.323
 8027SOL     OW24979   4.083   0.167   5.175
 8027SOL    HW124980   4.071   0.124   5.086
 8027SOL    HW224981   4.147   0.243   5.167
 8028SOL     OW24982   3.944   5.622   5.739
 8028SOL    HW124983   3.917   5.693   5.674
 8028SOL    HW224984   3.864   5.568   5.764
 8029SOL     OW24985   5.732   3.275   1.045
 8029SOL    HW124986   5.812   3.317   1.088
 8029SOL    HW224987   5.738   3.284   0.946
 8030SOL     OW24988   4.988   4.767   0.515
 8030SOL    HW124989   4.904   4.739   0.562
 8030SOL    HW224990   4.991   4.867   0.509
 8031SOL     OW24991   6.346   6.602   2.316
 8031SOL    HW124992   6.375   6.518   2.361
 8031SOL    HW224993   6.246   6.606   2.315
 8032SOL     OW24994   6.548   4.589   1.348
 8032SOL    HW124995   6.648   4.601   1.353
 8032SOL    HW224996   6.527   4.508   1.294
 8033SOL     OW24997   4.544   2.244   6.451
 8033SOL    HW124998   4.572   2.266   6.544
 8033SOL    HW224999   4.479   2.313   6.419
 8034SOL     OW25000   4.418   0.470   4.828
 8034SOL    HW125001   4.421   0.384   4.777
 8034SOL    HW225002   4.347   0.528   4.789
 8035SOL     OW25003   5.435   1.334   2.744
 8035SOL    HW125004   5.513   1.392   2.766
 8035SOL    HW225005   5.448   1.294   2.654
 8036SOL     OW25006   6.473   4.343   4.061
 8036SOL    HW125007   6.499   4.311   3.970
 8036SOL    HW225008   6.376   4.323   4.077
 8037SOL     OW25009   2.043   3.218   6.943
 8037SOL    HW125010   1.994   3.131   6.947
 8037SOL    HW225011   2.088   3.235   0.010
 8038SOL     OW25012   4.644   0.765   2.596
 8038SOL    HW125013   4.600   0.850   2.622
 8038SOL    HW225014   4.663   0.766   2.497
 8039SOL     OW25015   0.445   1.376   5.472
 8039SOL    HW125016   0.533   1.365   5.425
 8039SOL    HW225017   0.371   1.368   5.406
 8040SOL     OW25018   1.509   5.676   0.360
 8040SOL    HW125019   1.575   5.604   0.380
 8040SOL    HW225020   1.456   5.650   0.278
 8041SOL     OW25021   3.096   0.856   3.140
 8041SOL    HW125022   3.061   0.944   3.171
 8041SOL    HW225023   3.047   0.827   3.058
 8042SOL     OW25024   3.838   2.950   4.651
 8042SOL    HW125025   3.842   2.938   4.750
 8042SOL    HW225026   3.898   3.025   4.623
 8043SOL     OW25027   3.393   6.329   1.129
 8043SOL    HW125028   3.418   6.421   1.096
 8043SOL    HW225029   3.390   6.266   1.051
 8044SOL     OW25030   4.533   2.982   0.822
 8044SOL    HW125031   4.495   3.060   0.772
 8044SOL    HW225032   4.609   3.013   0.879
 8045SOL     OW25033   6.314   2.040   2.821
 8045SOL    HW125034   6.238   1.977   2.804
 8045SOL    HW225035   6.374   2.002   2.892
 8046SOL     OW25036   0.908   4.452   1.706
 8046SOL    HW125037   0.949   4.426   1.618
 8046SOL    HW225038   0.875   4.546   1.700
 8047SOL     OW25039   4.340   5.575   6.060
 8047SOL    HW125040   4.304   5.643   6.124
 8047SOL    HW225041   4.289   5.579   5.974
 8048SOL     OW25042   4.019   1.705   6.914
 8048SOL    HW125043   4.082   1.662   6.849
 8048SOL    HW225044   3.965   1.634   6.959
 8049SOL     OW25045   0.970   0.112   6.651
 8049SOL    HW125046   0.931   0.138   6.739
 8049SOL    HW225047   0.897   0.108   6.582
 8050SOL     OW25048   1.811   3.900   3.271
 8050SOL    HW125049   1.773   3.851   3.349
 8050SOL    HW225050   1.891   3.952   3.300
 8051SOL     OW25051   4.648   6.121   4.123
 8051SOL    HW125052   4.685   6.199   4.173
 8051SOL    HW225053   4.654   6.139   4.024
 8052SOL     OW25054   3.045   1.734   1.447
 8052SOL    HW125055   3.118   1.743   1.379
 8052SOL    HW225056   3.085   1.718   1.537
 8053SOL     OW25057   3.453   2.868   4.595
 8053SOL    HW125058   3.396   2.918   4.660
 8053SOL    HW225059   3.479   2.780   4.635
 8054SOL     OW25060   6.730   4.653   5.258
 8054SOL    HW125061   6.675   4.735   5.275
 8054SOL    HW225062   6.728   4.632   5.160
 8055SOL     OW25063   0.094   0.332   5.358
 8055SOL    HW125064   0.041   0.409   5.392
 8055SOL    HW225065   0.192   0.352   5.365
 8056SOL     OW25066   2.626   0.969   4.056
 8056SOL    HW125067   2.584   0.882   4.028
 8056SOL    HW225068   2.588   0.998   4.144
 8057SOL     OW25069   2.781   2.182   3.167
 8057SOL    HW125070   2.736   2.260   3.125
 8057SOL    HW225071   2.807   2.116   3.096
 8058SOL     OW25072   3.423   6.972   3.542
 8058SOL    HW125073   3.486   6.995   3.616
 8058SOL    HW225074   3.335   6.944   3.580
 8059SOL     OW25075   2.534   1.996   4.136
 8059SOL    HW125076   2.456   1.978   4.076
 8059SOL    HW225077   2.544   1.922   4.202
 8060SOL     OW25078   6.587   2.397   6.315
 8060SOL    HW125079   6.521   2.409   6.241
 8060SOL    HW225080   6.674   2.438   6.288
 8061SOL     OW25081   0.038   0.133   2.968
 8061SOL    HW125082   6.986   0.107   2.904
 8061SOL    HW225083   7.019   0.182   3.046
 8062SOL     OW25084   3.253   4.884   4.411
 8062SOL    HW125085   3.171   4.854   4.363
 8062SOL    HW225086   3.268   4.825   4.491
 8063SOL     OW25087   2.258   1.856   2.803
 8063SOL    HW125088   2.248   1.783   2.871
 8063SOL    HW225089   2.282   1.941   2.850
 8064SOL     OW25090   6.669   2.486   0.853
 8064SOL    HW125091   6.611   2.434   0.791
 8064SOL    HW225092   6.616   2.516   0.932
 8065SOL     OW25093   2.601   5.605   3.831
 8065SOL    HW125094   2.509   5.595   3.794
 8065SOL    HW225095   2.597   5.608   3.931
 8066SOL     OW25096   0.472   1.134   5.582
 8066SOL    HW125097   0.454   1.214   5.526
 8066SOL    HW225098   0.570   1.126   5.598
 8067SOL     OW25099   5.152   2.873   2.852
 8067SOL    HW125100   5.095   2.955   2.853
 8067SOL    HW225101   5.186   2.857   2.759
 8068SOL     OW25102   6.840   4.618   1.336
 8068SOL    HW125103   6.929   4.663   1.345
 8068SOL    HW225104   6.842   4.530   1.383
 8069SOL     OW25105   2.416   5.182   0.917
 8069SOL    HW125106   2.359   5.108   0.881
 8069SOL    HW225107   2.468   5.223   0.842
 8070SOL     OW25108   4.135   3.187   0.651
 8070SOL    HW125109   4.062   3.144   0.705
 8070SOL    HW225110   4.107   3.192   0.555
 8071SOL     OW25111   3.513   6.377   5.065
 8071SOL    HW125112   3.452   6.441   5.019
 8071SOL    HW225113   3.557   6.318   4.996
 8072SOL     OW25114   3.852   1.181   0.814
 8072SOL    HW125115   3.937   1.221   0.847
 8072SOL    HW225116   3.791   1.254   0.783
 8073SOL     OW25117   3.110   5.069   4.957
 8073SOL    HW125118   3.120   4.971   4.975
 8073SOL    HW225119   3.201   5.112   4.958
 8074SOL     OW25120   2.672   3.017   0.861
 8074SOL    HW125121   2.593   2.960   0.839
 8074SOL    HW225122   2.658   3.109   0.825
 8075SOL     OW25123   6.268   6.899   0.162
 8075SOL    HW125124   6.254   6.954   0.080
 8075SOL    HW225125   6.278   6.959   0.241
 8076SOL     OW25126   6.063   0.677   5.215
 8076SOL    HW125127   6.111   0.648   5.297
 8076SOL    HW225128   6.035   0.597   5.162
 8077SOL     OW25129   3.454   6.122   2.496
 8077SOL    HW125130   3.434   6.140   2.592
 8077SOL    HW225131   3.543   6.161   2.473
 8078SOL     OW25132   6.775   1.600   0.611
 8078SOL    HW125133   6.843   1.574   0.680
 8078SOL    HW225134   6.821   1.639   0.532
 8079SOL     OW25135   6.364   1.503   3.491
 8079SOL    HW125136   6.367   1.525   3.589
 8079SOL    HW225137   6.371   1.588   3.439
 8080SOL     OW25138   0.730   2.961   2.360
 8080SOL    HW125139   0.710   2.879   2.306
 8080SOL    HW225140   0.736   2.936   2.457
 8081SOL     OW25141   6.220   5.469   6.008
 8081SOL    HW125142   6.208   5.554   6.059
 8081SOL    HW225143   6.249   5.490   5.915
 8082SOL     OW25144   4.138   0.706   1.983
 8082SOL    HW125145   4.204   0.631   1.986
 8082SOL    HW225146   4.141   0.756   2.069
 8083SOL     OW25147   5.033   3.117   2.967
 8083SOL    HW125148   4.996   3.186   2.904
 8083SOL    HW225149   5.016   3.145   3.061
 8084SOL     OW25150   3.857   6.476   0.326
 8084SOL    HW125151   3.889   6.396   0.275
 8084SOL    HW225152   3.758   6.483   0.319
 8085SOL     OW25153   5.978   6.551   1.949
 8085SOL    HW125154   5.921   6.555   2.031
 8085SOL    HW225155   6.071   6.579   1.972
 8086SOL     OW25156   6.734   0.601   2.307
 8086SOL    HW125157   6.650   0.555   2.333
 8086SOL    HW225158   6.715   0.696   2.285
 8087SOL     OW25159   2.319   0.313   0.039
 8087SOL    HW125160   2.231   0.265   0.047
 8087SOL    HW225161   2.379   0.283   0.113
 8088SOL     OW25162   6.112   1.089   1.319
 8088SOL    HW125163   6.034   1.062   1.261
 8088SOL    HW225164   6.197   1.053   1.280
 8089SOL     OW25165   5.909   2.511   0.940
 8089SOL    HW125166   5.928   2.596   0.989
 8089SOL    HW225167   5.943   2.518   0.846
 8090SOL     OW25168   4.008   1.335   6.760
 8090SOL    HW125169   3.984   1.238   6.761
 8090SOL    HW225170   4.071   1.355   6.835
 8091SOL     OW25171   2.068   3.905   4.779
 8091SOL    HW125172   2.109   3.862   4.699
 8091SOL    HW225173   2.094   3.854   4.861
 8092SOL     OW25174   6.042   1.832   5.297
 8092SOL    HW125175   5.978   1.909   5.296
 8092SOL    HW225176   6.044   1.792   5.389
 8093SOL     OW25177   3.489   4.939   2.765
 8093SOL    HW125178   3.543   4.928   2.681
 8093SOL    HW225179   3.550   4.939   2.844
 8094SOL     OW25180   0.458   3.456   4.964
 8094SOL    HW125181   0.478   3.510   4.882
 8094SOL    HW225182   0.362   3.427   4.963
 8095SOL     OW25183   0.174   4.679   4.326
 8095SOL    HW125184   0.257   4.640   4.364
 8095SOL    HW225185   0.094   4.630   4.362
 8096SOL     OW25186   2.055   6.650   3.056
 8096SOL    HW125187   2.141   6.610   3.023
 8096SOL    HW225188   2.031   6.728   2.999
 8097SOL     OW25189   3.835   6.604   4.422
 8097SOL    HW125190   3.869   6.636   4.511
 8097SOL    HW225191   3.909   6.605   4.355
 8098SOL     OW25192   1.878   6.511   3.193
 8098SOL    HW125193   1.941   6.467   3.257
 8098SOL    HW225194   1.923   6.589   3.150
 8099SOL     OW25195   3.848   5.723   5.023
 8099SOL    HW125196   3.758   5.756   4.993
 8099SOL    HW225197   3.917   5.791   5.000
 8100SOL     OW25198   0.272   0.145   6.762
 8100SOL    HW125199   0.297   0.106   6.674
 8100SOL    HW225200   0.211   0.224   6.748
 8101SOL     OW25201   1.998   6.026   2.337
 8101SOL    HW125202   2.051   6.078   2.270
 8101SOL    HW225203   2.035   6.043   2.429
 8102SOL     OW25204   0.697   3.873   3.756
 8102SOL    HW125205   0.707   3.929   3.838
 8102SOL    HW225206   0.694   3.931   3.676
 8103SOL     OW25207   3.011   0.041   1.378
 8103SOL    HW125208   3.002   0.128   1.330
 8103SOL    HW225209   2.998   0.055   1.476
 8104SOL     OW25210   2.247   0.188   5.644
 8104SOL    HW125211   2.159   0.236   5.646
 8104SOL    HW225212   2.249   0.119   5.717
 8105SOL     OW25213   0.689   3.052   3.072
 8105SOL    HW125214   0.636   3.075   2.990
 8105SOL    HW225215   0.677   2.955   3.093
 8106SOL     OW25216   3.141   6.262   2.772
 8106SOL    HW125217   3.174   6.168   2.775
 8106SOL    HW225218   3.204   6.321   2.823
 8107SOL     OW25219   1.005   5.127   4.325
 8107SOL    HW125220   0.979   5.112   4.421
 8107SOL    HW225221   1.083   5.070   4.302
 8108SOL     OW25222   6.205   2.662   5.666
 8108SOL    HW125223   6.235   2.732   5.730
 8108SOL    HW225224   6.203   2.573   5.713
 8109SOL     OW25225   0.520   4.229   5.440
 8109SOL    HW125226   0.454   4.302   5.456
 8109SOL    HW225227   0.488   4.169   5.366
 8110SOL     OW25228   4.048   6.198   2.065
 8110SOL    HW125229   4.026   6.214   1.969
 8110SOL    HW225230   4.083   6.282   2.106
 8111SOL     OW25231   5.210   1.340   4.022
 8111SOL    HW125232   5.141   1.383   4.080
 8111SOL    HW225233   5.184   1.349   3.926
 8112SOL     OW25234   2.643   2.416   3.956
 8112SOL    HW125235   2.709   2.381   3.889
 8112SOL    HW225236   2.608   2.504   3.924
 8113SOL     OW25237   1.630   3.871   0.337
 8113SOL    HW125238   1.545   3.820   0.333
 8113SOL    HW225239   1.688   3.845   0.260
 8114SOL     OW25240   1.556   4.467   2.992
 8114SOL    HW125241   1.642   4.472   2.941
 8114SOL    HW225242   1.518   4.559   3.002
 8115SOL     OW25243   3.550   0.193   6.966
 8115SOL    HW125244   3.481   0.196   6.893
 8115SOL    HW225245   3.521   0.250   0.022
 8116SOL     OW25246   4.326   4.485   6.666
 8116SOL    HW125247   4.424   4.487   6.684
 8116SOL    HW225248   4.304   4.409   6.605
 8117SOL     OW25249   1.988   6.973   3.688
 8117SOL    HW125250   1.960   6.965   3.592
 8117SOL    HW225251   2.083   7.002   3.692
 8118SOL     OW25252   5.216   4.734   0.075
 8118SOL    HW125253   5.194   4.766   0.167
 8118SOL    HW225254   5.180   4.641   0.063
 8119SOL     OW25255   5.217   5.649   6.717
 8119SOL    HW125256   5.193   5.565   6.766
 8119SOL    HW225257   5.180   5.646   6.624
 8120SOL     OW25258   2.886   4.741   0.908
 8120SOL    HW125259   2.791   4.735   0.877
 8120SOL    HW225260   2.911   4.657   0.955
 8121SOL     OW25261   0.011   5.124   2.271
 8121SOL    HW125262   6.959   5.182   2.235
 8121SOL    HW225263   7.000   5.077   2.353
 8122SOL     OW25264   0.413   5.356   3.340
 8122SOL    HW125265   0.455   5.269   3.366
 8122SOL    HW225266   0.475   5.431   3.364
 8123SOL     OW25267   0.055   2.074   6.662
 8123SOL    HW125268   6.982   2.039   6.668
 8123SOL    HW225269   0.082   2.109   6.752
 8124SOL     OW25270   5.729   6.101   1.575
 8124SOL    HW125271   5.647   6.114   1.630
 8124SOL    HW225272   5.710   6.127   1.480
 8125SOL     OW25273   1.186   1.623   3.005
 8125SOL    HW125274   1.240   1.642   2.923
 8125SOL    HW225275   1.237   1.652   3.086
 8126SOL     OW25276   4.738   4.312   2.530
 8126SOL    HW125277   4.810   4.378   2.553
 8126SOL    HW225278   4.743   4.234   2.592
 8127SOL     OW25279   2.688   4.574   6.618
 8127SOL    HW125280   2.700   4.614   6.528
 8127SOL    HW225281   2.743   4.491   6.626
 8128SOL     OW25282   2.768   2.063   2.096
 8128SOL    HW125283   2.746   2.082   2.001
 8128SOL    HW225284   2.838   2.128   2.128
 8129SOL     OW25285   4.040   0.618   6.416
 8129SOL    HW125286   4.065   0.529   6.378
 8129SOL    HW225287   4.009   0.678   6.342
 8130SOL     OW25288   0.406   3.612   6.493
 8130SOL    HW125289   0.458   3.527   6.502
 8130SOL    HW225290   0.309   3.593   6.504
 8131SOL     OW25291   2.703   2.083   1.327
 8131SOL    HW125292   2.682   2.087   1.424
 8131SOL    HW225293   2.704   2.175   1.288
 8132SOL     OW25294   5.890   0.119   6.176
 8132SOL    HW125295   5.888   0.019   6.187
 8132SOL    HW225296   5.941   0.159   6.252
 8133SOL     OW25297   3.449   5.733   1.480
 8133SOL    HW125298   3.394   5.667   1.429
 8133SOL    HW225299   3.398   5.819   1.489
 8134SOL     OW25300   6.837   2.676   5.765
 8134SOL    HW125301   6.788   2.661   5.679
 8134SOL    HW225302   6.930   2.707   5.746
 8135SOL     OW25303   3.013   6.526   1.416
 8135SOL    HW125304   2.922   6.484   1.419
 8135SOL    HW225305   3.035   6.552   1.322
 8136SOL     OW25306   4.275   5.448   3.250
 8136SOL    HW125307   4.326   5.410   3.327
 8136SOL    HW225308   4.322   5.530   3.217
 8137SOL     OW25309   3.519   2.062   5.048
 8137SOL    HW125310   3.438   2.090   5.100
 8137SOL    HW225311   3.588   2.025   5.110
 8138SOL     OW25312   4.964   0.985   0.925
 8138SOL    HW125313   5.048   0.966   0.975
 8138SOL    HW225314   4.937   1.081   0.939
 8139SOL     OW25315   0.106   1.186   2.322
 8139SOL    HW125316   0.062   1.232   2.245
 8139SOL    HW225317   0.044   1.186   2.400
 8140SOL     OW25318   5.310   0.529   0.423
 8140SOL    HW125319   5.285   0.472   0.501
 8140SOL    HW225320   5.258   0.499   0.342
 8141SOL     OW25321   4.128   6.095   4.793
 8141SOL    HW125322   4.208   6.135   4.749
 8141SOL    HW225323   4.049   6.156   4.781
 8142SOL     OW25324   0.883   5.419   0.379
 8142SOL    HW125325   0.971   5.407   0.333
 8142SOL    HW225326   0.855   5.333   0.421
 8143SOL     OW25327   6.070   4.487   1.513
 8143SOL    HW125328   6.159   4.533   1.504
 8143SOL    HW225329   6.060   4.420   1.439
 8144SOL     OW25330   6.151   6.208   6.593
 8144SOL    HW125331   6.149   6.156   6.678
 8144SOL    HW225332   6.238   6.257   6.586
 8145SOL     OW25333   5.721   5.729   1.995
 8145SOL    HW125334   5.747   5.706   2.088
 8145SOL    HW225335   5.796   5.707   1.932
 8146SOL     OW25336   4.281   0.814   4.487
 8146SOL    HW125337   4.378   0.790   4.487
 8146SOL    HW225338   4.233   0.757   4.420
 8147SOL     OW25339   6.061   1.717   1.660
 8147SOL    HW125340   5.991   1.722   1.731
 8147SOL    HW225341   6.100   1.625   1.657
 8148SOL     OW25342   5.159   4.379   1.102
 8148SOL    HW125343   5.252   4.411   1.122
 8148SOL    HW225344   5.093   4.433   1.155
 8149SOL     OW25345   3.027   5.939   2.098
 8149SOL    HW125346   3.004   5.904   2.007
 8149SOL    HW225347   3.094   5.879   2.141
 8150SOL     OW25348   1.546   4.067   0.714
 8150SOL    HW125349   1.629   4.016   0.691
 8150SOL    HW225350   1.566   4.165   0.714
 8151SOL     OW25351   5.968   2.446   1.422
 8151SOL    HW125352   5.977   2.432   1.323
 8151SOL    HW225353   5.889   2.396   1.456
 8152SOL     OW25354   0.174   1.620   2.663
 8152SOL    HW125355   0.176   1.650   2.758
 8152SOL    HW225356   0.266   1.623   2.625
 8153SOL     OW25357   1.839   0.149   3.783
 8153SOL    HW125358   1.892   0.233   3.778
 8153SOL    HW225359   1.896   0.072   3.756
 8154SOL     OW25360   3.090   4.866   2.362
 8154SOL    HW125361   3.097   4.834   2.456
 8154SOL    HW225362   3.001   4.840   2.324
 8155SOL     OW25363   1.593   3.583   1.659
 8155SOL    HW125364   1.628   3.523   1.731
 8155SOL    HW225365   1.663   3.651   1.636
 8156SOL     OW25366   4.935   6.914   0.720
 8156SOL    HW125367   4.925   7.002   0.674
 8156SOL    HW225368   5.006   6.861   0.675
 8157SOL     OW25369   0.236   5.503   6.659
 8157SOL    HW125370   0.319   5.448   6.672
 8157SOL    HW225371   0.257   5.599   6.677
 8158SOL     OW25372   4.929   5.066   0.540
 8158SOL    HW125373   4.868   5.132   0.497
 8158SOL    HW225374   4.897   5.044   0.632
 8159SOL     OW25375   3.278   5.860   2.286
 8159SOL    HW125376   3.228   5.774   2.275
 8159SOL    HW225377   3.355   5.845   2.348
 8160SOL     OW25378   5.224   1.241   3.325
 8160SOL    HW125379   5.197   1.191   3.407
 8160SOL    HW225380   5.259   1.177   3.257
 8161SOL     OW25381   5.319   2.113   6.688
 8161SOL    HW125382   5.221   2.116   6.664
 8161SOL    HW225383   5.356   2.205   6.685
 8162SOL     OW25384   5.870   6.261   5.871
 8162SOL    HW125385   5.846   6.176   5.916
 8162SOL    HW225386   5.960   6.292   5.904
 8163SOL     OW25387   2.748   4.104   5.274
 8163SOL    HW125388   2.803   4.041   5.328
 8163SOL    HW225389   2.671   4.055   5.233
 8164SOL     OW25390   5.751   3.283   0.773
 8164SOL    HW125391   5.757   3.270   0.674
 8164SOL    HW225392   5.658   3.311   0.798
 8165SOL     OW25393   1.057   4.843   6.614
 8165SOL    HW125394   1.034   4.749   6.592
 8165SOL    HW225395   1.081   4.851   6.711
 8166SOL     OW25396   1.345   0.101   2.105
 8166SOL    HW125397   1.267   0.148   2.147
 8166SOL    HW225398   1.339   0.111   2.006
 8167SOL     OW25399   6.105   6.968   5.049
 8167SOL    HW125400   6.139   0.040   5.064
 8167SOL    HW225401   6.052   6.964   4.965
 8168SOL     OW25402   2.607   1.768   3.893
 8168SOL    HW125403   2.655   1.724   3.968
 8168SOL    HW225404   2.662   1.842   3.856
 8169SOL     OW25405   4.677   2.467   1.914
 8169SOL    HW125406   4.752   2.532   1.899
 8169SOL    HW225407   4.607   2.479   1.844
 8170SOL     OW25408   1.657   5.618   2.237
 8170SOL    HW125409   1.693   5.571   2.156
 8170SOL    HW225410   1.619   5.707   2.210
 8171SOL     OW25411   1.396   1.417   0.300
 8171SOL    HW125412   1.438   1.476   0.369
 8171SOL    HW225413   1.383   1.326   0.339
 8172SOL     OW25414   0.856   1.731   1.759
 8172SOL    HW125415   0.772   1.757   1.711
 8172SOL    HW225416   0.909   1.668   1.702
 8173SOL     OW25417   4.579   0.855   1.761
 8173SOL    HW125418   4.482   0.875   1.751
 8173SOL    HW225419   4.628   0.939   1.785
 8174SOL     OW25420   6.242   2.343   0.786
 8174SOL    HW125421   6.192   2.418   0.741
 8174SOL    HW225422   6.209   2.334   0.880
 8175SOL     OW25423   0.010   3.395   6.088
 8175SOL    HW125424   6.981   3.344   6.157
 8175SOL    HW225425   0.099   3.423   6.124
 8176SOL     OW25426   2.877   5.454   2.326
 8176SOL    HW125427   2.865   5.364   2.368
 8176SOL    HW225428   2.819   5.461   2.245
 8177SOL     OW25429   2.446   6.367   3.708
 8177SOL    HW125430   2.445   6.439   3.638
 8177SOL    HW225431   2.501   6.290   3.676
 8178SOL     OW25432   3.084   6.280   6.663
 8178SOL    HW125433   2.996   6.244   6.632
 8178SOL    HW225434   3.158   6.224   6.628
 8179SOL     OW25435   4.474   2.608   5.826
 8179SOL    HW125436   4.427   2.642   5.744
 8179SOL    HW225437   4.558   2.660   5.840
 8180SOL     OW25438   6.345   0.033   4.708
 8180SOL    HW125439   6.252   7.016   4.700
 8180SOL    HW225440   6.411   6.980   4.695
 8181SOL     OW25441   2.123   1.468   1.724
 8181SOL    HW125442   2.179   1.508   1.797
 8181SOL    HW225443   2.126   1.527   1.644
 8182SOL     OW25444   3.349   2.515   6.141
 8182SOL    HW125445   3.380   2.517   6.236
 8182SOL    HW225446   3.384   2.595   6.092
 8183SOL     OW25447   0.320   2.892   4.177
 8183SOL    HW125448   0.365   2.818   4.126
 8183SOL    HW225449   0.325   2.873   4.275
 8184SOL     OW25450   5.444   2.185   6.139
 8184SOL    HW125451   5.525   2.244   6.127
 8184SOL    HW225452   5.451   2.135   6.225
 8185SOL     OW25453   2.713   6.154   0.120
 8185SOL    HW125454   2.768   6.075   0.091
 8185SOL    HW225455   2.626   6.154   0.071
 8186SOL     OW25456   3.474   5.246   6.581
 8186SOL    HW125457   3.445   5.197   6.499
 8186SOL    HW225458   3.398   5.250   6.646
 8187SOL     OW25459   1.530   1.792   5.623
 8187SOL    HW125460   1.552   1.833   5.535
 8187SOL    HW225461   1.612   1.749   5.661
 8188SOL     OW25462   5.410   2.424   2.076
 8188SOL    HW125463   5.455   2.374   2.002
 8188SOL    HW225464   5.359   2.360   2.134
 8189SOL     OW25465   4.603   5.046   2.735
 8189SOL    HW125466   4.574   4.983   2.663
 8189SOL    HW225467   4.675   5.106   2.700
 8190SOL     OW25468   4.512   5.381   4.460
 8190SOL    HW125469   4.519   5.481   4.460
 8190SOL    HW225470   4.422   5.354   4.425
 8191SOL     OW25471   3.241   5.661   3.054
 8191SOL    HW125472   3.244   5.564   3.077
 8191SOL    HW225473   3.317   5.708   3.100
 8192SOL     OW25474   3.547   5.496   0.472
 8192SOL    HW125475   3.520   5.567   0.408
 8192SOL    HW225476   3.643   5.506   0.496
 8193SOL     OW25477   6.881   6.817   4.110
 8193SOL    HW125478   6.908   6.881   4.181
 8193SOL    HW225479   6.938   6.830   4.029
 8194SOL     OW25480   6.252   2.466   0.435
 8194SOL    HW125481   6.270   2.478   0.338
 8194SOL    HW225482   6.171   2.407   0.447
 8195SOL     OW25483   0.821   0.242   0.815
 8195SOL    HW125484   0.742   0.280   0.862
 8195SOL    HW225485   0.895   0.227   0.881
 8196SOL     OW25486   3.704   0.313   5.420
 8196SOL    HW125487   3.701   0.221   5.381
 8196SOL    HW225488   3.797   0.349   5.414
 8197SOL     OW25489   4.134   1.176   5.743
 8197SOL    HW125490   4.097   1.213   5.828
 8197SOL    HW225491   4.066   1.117   5.700
 8198SOL     OW25492   2.895   5.958   2.981
 8198SOL    HW125493   2.926   5.940   2.888
 8198SOL    HW225494   2.954   6.026   3.024
 8199SOL     OW25495   6.837   3.282   6.247
 8199SOL    HW125496   6.870   3.235   6.329
 8199SOL    HW225497   6.804   3.215   6.181
 8200SOL     OW25498   4.333   3.503   1.683
 8200SOL    HW125499   4.351   3.454   1.598
 8200SOL    HW225500   4.362   3.598   1.674
 8201SOL     OW25501   5.881   0.721   4.389
 8201SOL    HW125502   5.925   0.689   4.472
 8201SOL    HW225503   5.850   0.816   4.402
 8202SOL     OW25504   0.279   5.610   4.308
 8202SOL    HW125505   0.189   5.653   4.313
 8202SOL    HW225506   0.271   5.519   4.266
 8203SOL     OW25507   4.865   2.504   0.406
 8203SOL    HW125508   4.866   2.530   0.309
 8203SOL    HW225509   4.934   2.433   0.422
 8204SOL     OW25510   3.176   5.658   0.848
 8204SOL    HW125511   3.177   5.681   0.946
 8204SOL    HW225512   3.192   5.560   0.837
 8205SOL     OW25513   6.855   4.854   1.086
 8205SOL    HW125514   6.940   4.802   1.089
 8205SOL    HW225515   6.829   4.869   0.991
 8206SOL     OW25516   4.030   2.801   5.827
 8206SOL    HW125517   3.967   2.872   5.859
 8206SOL    HW225518   4.019   2.788   5.728
 8207SOL     OW25519   3.814   4.314   5.219
 8207SOL    HW125520   3.815   4.225   5.173
 8207SOL    HW225521   3.733   4.322   5.277
 8208SOL     OW25522   2.421   6.147   1.636
 8208SOL    HW125523   2.381   6.066   1.595
 8208SOL    HW225524   2.427   6.136   1.736
 8209SOL     OW25525   0.485   1.999   5.575
 8209SOL    HW125526   0.550   1.927   5.599
 8209SOL    HW225527   0.392   1.962   5.578
 8210SOL     OW25528   2.561   1.043   1.852
 8210SOL    HW125529   2.596   0.950   1.861
 8210SOL    HW225530   2.550   1.065   1.755
 8211SOL     OW25531   3.441   3.766   3.446
 8211SOL    HW125532   3.384   3.761   3.528
 8211SOL    HW225533   3.534   3.792   3.472
 8212SOL     OW25534   3.522   1.441   1.584
 8212SOL    HW125535   3.426   1.448   1.558
 8212SOL    HW225536   3.550   1.523   1.633
 8213SOL     OW25537   5.105   4.811   2.759
 8213SOL    HW125538   5.074   4.824   2.665
 8213SOL    HW225539   5.147   4.896   2.792
 8214SOL     OW25540   1.839   5.570   4.022
 8214SOL    HW125541   1.887   5.657   4.021
 8214SOL    HW225542   1.801   5.553   4.113
 8215SOL     OW25543   3.979   4.985   6.780
 8215SOL    HW125544   3.981   4.966   6.682
 8215SOL    HW225545   4.019   4.908   6.830
 8216SOL     OW25546   4.503   7.004   3.256
 8216SOL    HW125547   4.475   0.025   3.342
 8216SOL    HW225548   4.600   6.978   3.262
 8217SOL     OW25549   2.114   3.880   2.159
 8217SOL    HW125550   2.146   3.799   2.110
 8217SOL    HW225551   2.107   3.957   2.096
 8218SOL     OW25552   1.506   6.930   3.948
 8218SOL    HW125553   1.539   6.837   3.932
 8218SOL    HW225554   1.580   6.995   3.928
 8219SOL     OW25555   3.641   3.598   1.598
 8219SOL    HW125556   3.654   3.653   1.680
 8219SOL    HW225557   3.594   3.652   1.528
 8220SOL     OW25558   3.479   4.093   5.415
 8220SOL    HW125559   3.384   4.061   5.412
 8220SOL    HW225560   3.526   4.051   5.493
 8221SOL     OW25561   6.287   4.790   3.567
 8221SOL    HW125562   6.256   4.718   3.629
 8221SOL    HW225563   6.382   4.812   3.585
 8222SOL     OW25564   5.085   2.302   1.206
 8222SOL    HW125565   5.043   2.237   1.269
 8222SOL    HW225566   5.119   2.381   1.257
 8223SOL     OW25567   0.233   4.782   6.245
 8223SOL    HW125568   0.209   4.839   6.167
 8223SOL    HW225569   0.282   4.700   6.214
 8224SOL     OW25570   5.002   1.903   1.606
 8224SOL    HW125571   5.015   1.808   1.579
 8224SOL    HW225572   4.941   1.908   1.684
 8225SOL     OW25573   3.547   1.024   1.151
 8225SOL    HW125574   3.581   1.111   1.115
 8225SOL    HW225575   3.603   0.997   1.229
 8226SOL     OW25576   3.031   0.436   0.652
 8226SOL    HW125577   2.975   0.492   0.712
 8226SOL    HW225578   3.106   0.396   0.704
 8227SOL     OW25579   0.325   1.684   2.103
 8227SOL    HW125580   0.359   1.734   2.183
 8227SOL    HW225581   0.230   1.656   2.119
 8228SOL     OW25582   1.045   1.844   5.999
 8228SOL    HW125583   0.962   1.873   5.952
 8228SOL    HW225584   1.117   1.912   5.985
 8229SOL     OW25585   3.805   4.307   1.235
 8229SOL    HW125586   3.707   4.311   1.255
 8229SOL    HW225587   3.818   4.300   1.136
 8230SOL     OW25588   3.721   6.605   5.475
 8230SOL    HW125589   3.809   6.638   5.509
 8230SOL    HW225590   3.665   6.683   5.447
 8231SOL     OW25591   3.546   2.085   1.749
 8231SOL    HW125592   3.608   2.006   1.744
 8231SOL    HW225593   3.586   2.154   1.809
 8232SOL     OW25594   5.644   2.263   2.544
 8232SOL    HW125595   5.699   2.268   2.461
 8232SOL    HW225596   5.699   2.291   2.622
 8233SOL     OW25597   1.421   6.739   6.297
 8233SOL    HW125598   1.495   6.799   6.265
 8233SOL    HW225599   1.410   6.749   6.396
 8234SOL     OW25600   2.799   3.762   0.143
 8234SOL    HW125601   2.749   3.706   0.209
 8234SOL    HW225602   2.827   3.705   0.066
 8235SOL     OW25603   0.616   3.726   0.070
 8235SOL    HW125604   0.571   3.732   0.159
 8235SOL    HW225605   0.574   3.791   0.006
 8236SOL     OW25606   0.586   5.189   6.235
 8236SOL    HW125607   0.595   5.226   6.328
 8236SOL    HW225608   0.537   5.255   6.178
 8237SOL     OW25609   4.527   6.092   6.462
 8237SOL    HW125610   4.482   6.121   6.546
 8237SOL    HW225611   4.543   6.171   6.403
 8238SOL     OW25612   0.271   5.996   6.853
 8238SOL    HW125613   0.205   6.031   6.786
 8238SOL    HW225614   0.363   6.025   6.827
 8239SOL     OW25615   0.630   0.678   5.087
 8239SOL    HW125616   0.558   0.608   5.090
 8239SOL    HW225617   0.595   0.763   5.127
 8240SOL     OW25618   2.904   3.724   3.275
 8240SOL    HW125619   2.951   3.791   3.218
 8240SOL    HW225620   2.913   3.749   3.371
 8241SOL     OW25621   2.431   4.929   6.101
 8241SOL    HW125622   2.393   5.020   6.084
 8241SOL    HW225623   2.358   4.865   6.124
 8242SOL     OW25624   0.520   3.978   4.782
 8242SOL    HW125625   0.597   3.936   4.734
 8242SOL    HW225626   0.458   3.906   4.815
 8243SOL     OW25627   0.333   4.322   0.496
 8243SOL    HW125628   0.363   4.227   0.505
 8243SOL    HW225629   0.398   4.372   0.439
 8244SOL     OW25630   0.307   7.010   3.983
 8244SOL    HW125631   0.360   0.021   4.061
 8244SOL    HW225632   0.342   0.031   3.899
 8245SOL     OW25633   3.825   1.236   3.018
 8245SOL    HW125634   3.745   1.281   3.058
 8245SOL    HW225635   3.908   1.283   3.048
 8246SOL     OW25636   0.312   4.453   6.759
 8246SOL    HW125637   0.327   4.489   6.668
 8246SOL    HW225638   0.372   4.499   6.824
 8247SOL     OW25639   2.315   6.262   4.075
 8247SOL    HW125640   2.363   6.199   4.014
 8247SOL    HW225641   2.373   6.341   4.094
 8248SOL     OW25642   0.742   5.038   5.270
 8248SOL    HW125643   0.775   4.989   5.189
 8248SOL    HW225644   0.673   4.983   5.316
 8249SOL     OW25645   2.452   0.848   5.471
 8249SOL    HW125646   2.468   0.946   5.482
 8249SOL    HW225647   2.371   0.822   5.525
 8250SOL     OW25648   3.454   2.350   1.133
 8250SOL    HW125649   3.552   2.339   1.118
 8250SOL    HW225650   3.411   2.383   1.049
 8251SOL     OW25651   6.283   0.903   3.996
 8251SOL    HW125652   6.344   0.866   4.066
 8251SOL    HW225653   6.306   0.864   3.907
 8252SOL     OW25654   3.589   1.601   0.299
 8252SOL    HW125655   3.517   1.545   0.337
 8252SOL    HW225656   3.584   1.599   0.199
 8253SOL     OW25657   3.910   5.647   0.173
 8253SOL    HW125658   3.894   5.744   0.187
 8253SOL    HW225659   3.938   5.631   0.078
 8254SOL     OW25660   5.547   4.574   5.866
 8254SOL    HW125661   5.454   4.571   5.829
 8254SOL    HW225662   5.586   4.482   5.868
 8255SOL     OW25663   1.348   0.309   6.276
 8255SOL    HW125664   1.298   0.286   6.360
 8255SOL    HW225665   1.355   0.227   6.218
 8256SOL     OW25666   6.449   0.053   3.017
 8256SOL    HW125667   6.535   0.097   3.040
 8256SOL    HW225668   6.428   0.069   2.920
 8257SOL     OW25669   5.702   4.675   4.145
 8257SOL    HW125670   5.619   4.684   4.201
 8257SOL    HW225671   5.756   4.598   4.179
 8258SOL     OW25672   5.149   3.227   1.484
 8258SOL    HW125673   5.161   3.278   1.569
 8258SOL    HW225674   5.204   3.269   1.412
 8259SOL     OW25675   3.840   2.035   5.458
 8259SOL    HW125676   3.744   2.041   5.486
 8259SOL    HW225677   3.855   2.091   5.376
 8260SOL     OW25678   2.089   6.119   1.581
 8260SOL    HW125679   2.017   6.066   1.624
 8260SOL    HW225680   2.123   6.188   1.645
 8261SOL     OW25681   5.059   6.846   3.383
 8261SOL    HW125682   5.015   6.757   3.377
 8261SOL    HW225683   5.051   6.881   3.477
 8262SOL     OW25684   0.558   4.532   0.750
 8262SOL    HW125685   0.551   4.507   0.653
 8262SOL    HW225686   0.487   4.599   0.772
 8263SOL     OW25687   6.944   2.773   6.921
 8263SOL    HW125688   7.017   2.819   6.870
 8263SOL    HW225689   6.981   2.738   7.007
 8264SOL     OW25690   1.468   6.956   1.760
 8264SOL    HW125691   1.391   6.896   1.743
 8264SOL    HW225692   1.435   0.024   1.793
 8265SOL     OW25693   4.912   0.502   1.838
 8265SOL    HW125694   4.818   0.468   1.833
 8265SOL    HW225695   4.971   0.446   1.780
 8266SOL     OW25696   3.017   0.189   5.119
 8266SOL    HW125697   3.046   0.209   5.026
 8266SOL    HW225698   3.005   0.090   5.130
 8267SOL     OW25699   1.952   4.735   1.761
 8267SOL    HW125700   1.958   4.752   1.663
 8267SOL    HW225701   2.044   4.731   1.800
 8268SOL     OW25702   3.302   4.531   5.585
 8268SOL    HW125703   3.342   4.621   5.570
 8268SOL    HW225704   3.346   4.488   5.664
 8269SOL     OW25705   4.526   2.026   2.962
 8269SOL    HW125706   4.449   1.979   3.006
 8269SOL    HW225707   4.492   2.102   2.907
 8270SOL     OW25708   3.328   5.383   5.661
 8270SOL    HW125709   3.294   5.289   5.664
 8270SOL    HW225710   3.343   5.415   5.755
 8271SOL     OW25711   6.598   6.510   3.925
 8271SOL    HW125712   6.507   6.492   3.962
 8271SOL    HW225713   6.644   6.578   3.982
 8272SOL     OW25714   0.321   1.434   2.372
 8272SOL    HW125715   0.398   1.375   2.394
 8272SOL    HW225716   0.278   1.402   2.287
 8273SOL     OW25717   2.816   1.397   6.943
 8273SOL    HW125718   2.810   1.480   6.999
 8273SOL    HW225719   2.754   1.406   6.865
 8274SOL     OW25720   4.232   4.523   6.024
 8274SOL    HW125721   4.255   4.612   5.986
 8274SOL    HW225722   4.145   4.492   5.986
 8275SOL     OW25723   5.686   0.118   4.713
 8275SOL    HW125724   5.701   0.160   4.802
 8275SOL    HW225725   5.713   0.182   4.641
 8276SOL     OW25726   6.527   2.034   5.891
 8276SOL    HW125727   6.622   2.021   5.921
 8276SOL    HW225728   6.506   2.132   5.888
 8277SOL     OW25729   2.634   5.950   5.532
 8277SOL    HW125730   2.554   6.009   5.537
 8277SOL    HW225731   2.655   5.930   5.436
 8278SOL     OW25732   2.643   1.504   6.341
 8278SOL    HW125733   2.735   1.467   6.357
 8278SOL    HW225734   2.651   1.598   6.309
 8279SOL     OW25735   5.883   5.784   6.143
 8279SOL    HW125736   5.850   5.833   6.223
 8279SOL    HW225737   5.962   5.831   6.105
 8280SOL     OW25738   4.755   2.257   0.418
 8280SOL    HW125739   4.760   2.225   0.513
 8280SOL    HW225740   4.769   2.356   0.415
 8281SOL     OW25741   2.305   4.507   1.396
 8281SOL    HW125742   2.400   4.522   1.369
 8281SOL    HW225743   2.301   4.442   1.472
 8282SOL     OW25744   2.602   3.396   0.556
 8282SOL    HW125745   2.613   3.308   0.509
 8282SOL    HW225746   2.562   3.462   0.493
 8283SOL     OW25747   1.127   4.503   4.123
 8283SOL    HW125748   1.064   4.485   4.198
 8283SOL    HW225749   1.211   4.543   4.158
 8284SOL     OW25750   1.332   3.928   2.372
 8284SOL    HW125751   1.378   3.918   2.284
 8284SOL    HW225752   1.298   3.839   2.403
 8285SOL     OW25753   3.571   3.457   5.510
 8285SOL    HW125754   3.494   3.398   5.535
 8285SOL    HW225755   3.631   3.408   5.447
 8286SOL     OW25756   5.210   1.720   4.963
 8286SOL    HW125757   5.238   1.814   4.980
 8286SOL    HW225758   5.145   1.719   4.886
 8287SOL     OW25759   1.434   6.185   3.650
 8287SOL    HW125760   1.387   6.266   3.614
 8287SOL    HW225761   1.431   6.186   3.750
 8288SOL     OW25762   1.039   2.626   2.388
 8288SOL    HW125763   1.084   2.539   2.367
 8288SOL    HW225764   0.975   2.613   2.464
 8289SOL     OW25765   6.123   0.732   6.230
 8289SOL    HW125766   6.122   0.823   6.188
 8289SOL    HW225767   6.029   0.706   6.255
 8290SOL     OW25768   4.422   2.098   1.804
 8290SOL    HW125769   4.336   2.069   1.847
 8290SOL    HW225770   4.412   2.099   1.705
 8291SOL     OW25771   5.989   5.731   6.744
 8291SOL    HW125772   5.995   5.678   6.659
 8291SOL    HW225773   5.921   5.803   6.732
 8292SOL     OW25774   2.343   5.843   6.102
 8292SOL    HW125775   2.326   5.921   6.162
 8292SOL    HW225776   2.282   5.849   6.022
 8293SOL     OW25777   1.565   4.084   1.879
 8293SOL    HW125778   1.509   4.041   1.809
 8293SOL    HW225779   1.528   4.175   1.901
 8294SOL     OW25780   6.333   3.254   4.615
 8294SOL    HW125781   6.418   3.206   4.636
 8294SOL    HW225782   6.354   3.337   4.562
 8295SOL     OW25783   5.317   3.492   2.398
 8295SOL    HW125784   5.338   3.575   2.450
 8295SOL    HW225785   5.264   3.517   2.317
 8296SOL     OW25786   3.757   4.826   6.981
 8296SOL    HW125787   3.812   4.897   0.004
 8296SOL    HW225788   3.697   4.784   0.029
 8297SOL     OW25789   6.795   3.571   2.285
 8297SOL    HW125790   6.733   3.543   2.359
 8297SOL    HW225791   6.838   3.490   2.246
 8298SOL     OW25792   0.250   0.457   6.853
 8298SOL    HW125793   0.251   0.513   6.771
 8298SOL    HW225794   0.190   0.498   6.922
 8299SOL     OW25795   0.716   2.703   0.694
 8299SOL    HW125796   0.671   2.789   0.669
 8299SOL    HW225797   0.779   2.719   0.770
 8300SOL     OW25798   6.110   6.676   5.026
 8300SOL    HW125799   6.126   6.775   5.026
 8300SOL    HW225800   6.094   6.645   5.120
 8301SOL     OW25801   4.275   0.128   6.748
 8301SOL    HW125802   4.264   0.227   6.750
 8301SOL    HW225803   4.186   0.084   6.762
 8302SOL     OW25804   3.900   6.777   5.294
 8302SOL    HW125805   3.967   6.821   5.234
 8302SOL    HW225806   3.897   6.827   5.381
 8303SOL     OW25807   6.895   7.004   3.611
 8303SOL    HW125808   6.856   6.955   3.688
 8303SOL    HW225809   6.824   0.033   3.562
 8304SOL     OW25810   5.552   5.145   1.905
 8304SOL    HW125811   5.500   5.081   1.962
 8304SOL    HW225812   5.506   5.157   1.817
 8305SOL     OW25813   4.159   5.266   4.349
 8305SOL    HW125814   4.072   5.219   4.334
 8305SOL    HW225815   4.204   5.228   4.430
 8306SOL     OW25816   6.382   1.182   2.815
 8306SOL    HW125817   6.290   1.218   2.797
 8306SOL    HW225818   6.377   1.083   2.829
 8307SOL     OW25819   3.100   4.929   1.514
 8307SOL    HW125820   3.026   4.993   1.496
 8307SOL    HW225821   3.094   4.852   1.450
 8308SOL     OW25822   1.786   4.457   0.588
 8308SOL    HW125823   1.859   4.428   0.649
 8308SOL    HW225824   1.824   4.476   0.497
 8309SOL     OW25825   6.135   5.155   3.467
 8309SOL    HW125826   6.117   5.057   3.479
 8309SOL    HW225827   6.124   5.202   3.554
 8310SOL     OW25828   0.965   5.673   0.722
 8310SOL    HW125829   0.888   5.610   0.715
 8310SOL    HW225830   0.972   5.726   0.637
 8311SOL     OW25831   5.396   0.544   4.474
 8311SOL    HW125832   5.360   0.471   4.533
 8311SOL    HW225833   5.495   0.552   4.489
 8312SOL     OW25834   5.605   1.372   0.431
 8312SOL    HW125835   5.665   1.452   0.437
 8312SOL    HW225836   5.608   1.322   0.518
 8313SOL     OW25837   4.171   6.836   5.598
 8313SOL    HW125838   4.144   6.886   5.680
 8313SOL    HW225839   4.152   6.892   5.517
 8314SOL     OW25840   5.894   6.667   6.445
 8314SOL    HW125841   5.869   6.570   6.442
 8314SOL    HW225842   5.944   6.686   6.530
 8315SOL     OW25843   3.725   4.117   2.709
 8315SOL    HW125844   3.711   4.188   2.641
 8315SOL    HW225845   3.797   4.054   2.677
 8316SOL     OW25846   1.743   3.452   0.276
 8316SOL    HW125847   1.672   3.491   0.217
 8316SOL    HW225848   1.729   3.482   0.370
 8317SOL     OW25849   2.855   2.256   3.789
 8317SOL    HW125850   2.893   2.201   3.716
 8317SOL    HW225851   2.915   2.252   3.869
 8318SOL     OW25852   4.322   0.780   5.458
 8318SOL    HW125853   4.257   0.856   5.461
 8318SOL    HW225854   4.393   0.794   5.527
 8319SOL     OW25855   2.064   0.228   0.084
 8319SOL    HW125856   2.077   0.208   0.182
 8319SOL    HW225857   1.972   0.265   0.070
 8320SOL     OW25858   3.685   3.919   3.514
 8320SOL    HW125859   3.709   3.896   3.608
 8320SOL    HW225860   3.632   4.003   3.512
 8321SOL     OW25861   0.227   6.899   6.220
 8321SOL    HW125862   0.327   6.894   6.217
 8321SOL    HW225863   0.189   6.859   6.137
 8322SOL     OW25864   0.336   1.161   0.326
 8322SOL    HW125865   0.353   1.088   0.261
 8322SOL    HW225866   0.406   1.232   0.316
 8323SOL     OW25867   3.633   4.835   1.339
 8323SOL    HW125868   3.652   4.933   1.345
 8323SOL    HW225869   3.537   4.821   1.316
 8324SOL     OW25870   5.447   0.760   0.539
 8324SOL    HW125871   5.517   0.794   0.476
 8324SOL    HW225872   5.402   0.680   0.499
 8325SOL     OW25873   1.110   4.310   5.197
 8325SOL    HW125874   1.070   4.218   5.198
 8325SOL    HW225875   1.037   4.378   5.204
 8326SOL     OW25876   4.271   3.318   6.900
 8326SOL    HW125877   4.324   3.396   6.934
 8326SOL    HW225878   4.177   3.324   6.935
 8327SOL     OW25879   0.929   7.019   5.474
 8327SOL    HW125880   0.887   0.068   5.416
 8327SOL    HW225881   1.017   6.991   5.435
 8328SOL     OW25882   2.071   6.378   6.085
 8328SOL    HW125883   2.055   6.282   6.062
 8328SOL    HW225884   2.161   6.387   6.129
 8329SOL     OW25885   7.013   2.426   5.005
 8329SOL    HW125886   6.913   2.427   5.004
 8329SOL    HW225887   0.027   2.517   4.983
 8330SOL     OW25888   3.566   1.013   6.413
 8330SOL    HW125889   3.574   1.111   6.400
 8330SOL    HW225890   3.518   0.972   6.335
 8331SOL     OW25891   2.602   0.962   1.004
 8331SOL    HW125892   2.681   1.002   0.958
 8331SOL    HW225893   2.598   0.996   1.098
 8332SOL     OW25894   5.257   5.270   1.963
 8332SOL    HW125895   5.168   5.305   1.934
 8332SOL    HW225896   5.292   5.326   2.038
 8333SOL     OW25897   2.278   4.697   0.148
 8333SOL    HW125898   2.246   4.683   0.055
 8333SOL    HW225899   2.377   4.707   0.148
 8334SOL     OW25900   2.635   2.451   6.338
 8334SOL    HW125901   2.688   2.528   6.303
 8334SOL    HW225902   2.686   2.406   6.411
 8335SOL     OW25903   4.162   2.629   6.931
 8335SOL    HW125904   4.090   2.652   6.865
 8335SOL    HW225905   4.152   2.534   6.961
 8336SOL     OW25906   1.006   4.006   3.433
 8336SOL    HW125907   1.034   3.926   3.380
 8336SOL    HW225908   1.077   4.030   3.498
 8337SOL     OW25909   0.635   6.786   4.242
 8337SOL    HW125910   0.561   6.738   4.289
 8337SOL    HW225911   0.722   6.768   4.288
 8338SOL     OW25912   3.656   5.631   1.918
 8338SOL    HW125913   3.627   5.691   1.993
 8338SOL    HW225914   3.729   5.676   1.866
 8339SOL     OW25915   0.096   1.094   1.742
 8339SOL    HW125916   0.028   1.021   1.738
 8339SOL    HW225917   0.050   1.182   1.752
 8340SOL     OW25918   5.040   3.805   0.336
 8340SOL    HW125919   4.984   3.722   0.344
 8340SOL    HW225920   5.110   3.791   0.265
 8341SOL     OW25921   3.452   0.360   0.135
 8341SOL    HW125922   3.392   0.439   0.124
 8341SOL    HW225923   3.547   0.390   0.130
 8342SOL     OW25924   3.895   0.099   0.308
 8342SOL    HW125925   3.963   0.172   0.298
 8342SOL    HW225926   3.940   0.010   0.296
 8343SOL     OW25927   6.148   5.626   3.814
 8343SOL    HW125928   6.139   5.572   3.898
 8343SOL    HW225929   6.139   5.723   3.836
 8344SOL     OW25930   6.722   4.706   4.753
 8344SOL    HW125931   6.661   4.667   4.683
 8344SOL    HW225932   6.712   4.805   4.753
 8345SOL     OW25933   4.756   1.978   3.588
 8345SOL    HW125934   4.692   1.923   3.534
 8345SOL    HW225935   4.746   2.074   3.564
 8346SOL     OW25936   3.730   3.235   6.129
 8346SOL    HW125937   3.785   3.297   6.072
 8346SOL    HW225938   3.649   3.283   6.161
 8347SOL     OW25939   3.600   6.543   6.482
 8347SOL    HW125940   3.691   6.570   6.515
 8347SOL    HW225941   3.556   6.622   6.438
 8348SOL     OW25942   2.520   0.216   1.610
 8348SOL    HW125943   2.438   0.273   1.613
 8348SOL    HW225944   2.522   0.156   1.690
 8349SOL     OW25945   1.515   6.618   1.716
 8349SOL    HW125946   1.521   6.548   1.645
 8349SOL    HW225947   1.455   6.586   1.789
 8350SOL     OW25948   3.080   6.417   6.071
 8350SOL    HW125949   3.178   6.407   6.051
 8350SOL    HW225950   3.065   6.503   6.118
 8351SOL     OW25951   5.771   5.398   4.072
 8351SOL    HW125952   5.721   5.406   4.158
 8351SOL    HW225953   5.707   5.392   3.995
 8352SOL     OW25954   1.633   0.279   2.986
 8352SOL    HW125955   1.711   0.279   3.048
 8352SOL    HW225956   1.647   0.211   2.914
 8353SOL     OW25957   0.952   4.267   1.020
 8353SOL    HW125958   1.003   4.286   0.936
 8353SOL    HW225959   0.985   4.328   1.093
 8354SOL     OW25960   3.413   6.793   3.820
 8354SOL    HW125961   3.414   6.749   3.910
 8354SOL    HW225962   3.491   6.855   3.813
 8355SOL     OW25963   1.863   0.849   5.403
 8355SOL    HW125964   1.851   0.751   5.392
 8355SOL    HW225965   1.946   0.867   5.456
 8356SOL     OW25966   0.500   5.324   1.460
 8356SOL    HW125967   0.404   5.329   1.487
 8356SOL    HW225968   0.556   5.374   1.526
 8357SOL     OW25969   3.491   5.892   5.653
 8357SOL    HW125970   3.392   5.884   5.642
 8357SOL    HW225971   3.537   5.837   5.583
 8358SOL     OW25972   0.936   3.117   4.961
 8358SOL    HW125973   0.917   3.202   4.912
 8358SOL    HW225974   0.871   3.106   5.036
 8359SOL     OW25975   2.139   1.536   4.306
 8359SOL    HW125976   2.058   1.563   4.253
 8359SOL    HW225977   2.219   1.585   4.273
 8360SOL     OW25978   4.670   0.125   1.340
 8360SOL    HW125979   4.619   0.105   1.424
 8360SOL    HW225980   4.737   0.052   1.324
 8361SOL     OW25981   3.280   0.583   0.101
 8361SOL    HW125982   3.234   0.510   0.150
 8361SOL    HW225983   3.212   0.649   0.067
 8362SOL     OW25984   5.693   2.156   1.090
 8362SOL    HW125985   5.615   2.218   1.105
 8362SOL    HW225986   5.683   2.110   1.002
 8363SOL     OW25987   4.981   1.461   0.649
 8363SOL    HW125988   4.899   1.504   0.610
 8363SOL    HW225989   4.958   1.368   0.677
 8364SOL     OW25990   0.429   3.264   4.287
 8364SOL    HW125991   0.368   3.201   4.335
 8364SOL    HW225992   0.404   3.266   4.190
 8365SOL     OW25993   1.622   2.554   2.730
 8365SOL    HW125994   1.670   2.523   2.648
 8365SOL    HW225995   1.548   2.616   2.704
 8366SOL     OW25996   3.977   4.972   0.823
 8366SOL    HW125997   3.885   4.933   0.820
 8366SOL    HW225998   3.972   5.068   0.851
 8367SOL     OW25999   3.349   5.037   5.329
 8367SOL    HW126000   3.285   5.009   5.400
 8367SOL    HW226001   3.381   4.957   5.278
 8368SOL     OW26002   1.110   6.117   0.584
 8368SOL    HW126003   1.068   6.029   0.561
 8368SOL    HW226004   1.113   6.128   0.683
 8369SOL     OW26005   0.538   1.001   6.660
 8369SOL    HW126006   0.545   0.952   6.573
 8369SOL    HW226007   0.612   0.974   6.721
 8370SOL     OW26008   2.367   0.775   5.869
 8370SOL    HW126009   2.339   0.735   5.781
 8370SOL    HW226010   2.416   0.861   5.852
 8371SOL     OW26011   1.815   3.223   6.691
 8371SOL    HW126012   1.914   3.216   6.688
 8371SOL    HW226013   1.787   3.265   6.777
 8372SOL     OW26014   1.720   6.079   1.472
 8372SOL    HW126015   1.757   5.996   1.430
 8372SOL    HW226016   1.683   6.139   1.402
 8373SOL     OW26017   1.806   1.045   4.807
 8373SOL    HW126018   1.846   1.054   4.898
 8373SOL    HW226019   1.739   1.119   4.793
 8374SOL     OW26020   0.231   0.457   4.956
 8374SOL    HW126021   0.257   0.512   4.876
 8374SOL    HW226022   0.190   0.516   5.025
 8375SOL     OW26023   3.907   6.809   6.328
 8375SOL    HW126024   3.829   6.854   6.284
 8375SOL    HW226025   3.963   6.764   6.258
 8376SOL     OW26026   1.425   1.525   3.735
 8376SOL    HW126027   1.440   1.431   3.764
 8376SOL    HW226028   1.512   1.567   3.708
 8377SOL     OW26029   5.949   6.048   0.553
 8377SOL    HW126030   5.909   6.128   0.598
 8377SOL    HW226031   5.981   6.074   0.462
 8378SOL     OW26032   3.858   5.391   4.012
 8378SOL    HW126033   3.785   5.441   3.965
 8378SOL    HW226034   3.946   5.425   3.981
 8379SOL     OW26035   4.868   2.737   2.127
 8379SOL    HW126036   4.853   2.663   2.192
 8379SOL    HW226037   4.951   2.786   2.152
 8380SOL     OW26038   0.082   6.837   6.651
 8380SOL    HW126039   0.171   6.820   6.610
 8380SOL    HW226040   0.053   6.931   6.631
 8381SOL     OW26041   0.301   2.720   3.400
 8381SOL    HW126042   0.275   2.656   3.472
 8381SOL    HW226043   0.290   2.814   3.433
 8382SOL     OW26044   2.616   6.727   1.091
 8382SOL    HW126045   2.560   6.678   1.025
 8382SOL    HW226046   2.592   6.824   1.090
 8383SOL     OW26047   3.075   0.126   5.555
 8383SOL    HW126048   3.066   0.224   5.571
 8383SOL    HW226049   3.121   0.110   5.468
 8384SOL     OW26050   7.014   1.496   0.748
 8384SOL    HW126051   0.040   1.436   0.683
 8384SOL    HW226052   6.999   1.447   0.833
 8385SOL     OW26053   4.287   1.902   0.606
 8385SOL    HW126054   4.207   1.935   0.556
 8385SOL    HW226055   4.272   1.807   0.634
 8386SOL     OW26056   2.345   5.373   1.103
 8386SOL    HW126057   2.391   5.298   1.055
 8386SOL    HW226058   2.306   5.436   1.037
 8387SOL     OW26059   1.831   2.001   1.525
 8387SOL    HW126060   1.929   1.985   1.537
 8387SOL    HW226061   1.795   1.934   1.460
 8388SOL     OW26062   1.572   6.680   0.934
 8388SOL    HW126063   1.503   6.741   0.972
 8388SOL    HW226064   1.605   6.718   0.847
 8389SOL     OW26065   0.375   3.544   4.403
 8389SOL    HW126066   0.294   3.486   4.389
 8389SOL    HW226067   0.346   3.635   4.432
 8390SOL     OW26068   4.171   6.515   0.034
 8390SOL    HW126069   4.202   6.604   0.001
 8390SOL    HW226070   4.101   6.478   6.992
 8391SOL     OW26071   4.946   5.164   1.459
 8391SOL    HW126072   5.000   5.085   1.488
 8391SOL    HW226073   4.883   5.190   1.532
 8392SOL     OW26074   6.628   5.355   5.905
 8392SOL    HW126075   6.663   5.440   5.945
 8392SOL    HW226076   6.629   5.362   5.805
 8393SOL     OW26077   6.785   6.397   3.777
 8393SOL    HW126078   6.698   6.428   3.814
 8393SOL    HW226079   6.859   6.423   3.839
 8394SOL     OW26080   6.791   2.673   1.669
 8394SOL    HW126081   6.731   2.749   1.694
 8394SOL    HW226082   6.886   2.696   1.692
 8395SOL     OW26083   1.558   6.131   4.419
 8395SOL    HW126084   1.630   6.070   4.450
 8395SOL    HW226085   1.471   6.082   4.416
 8396SOL     OW26086   4.363   4.570   2.308
 8396SOL    HW126087   4.406   4.532   2.226
 8396SOL    HW226088   4.264   4.566   2.298
 8397SOL     OW26089   2.319   0.779   3.836
 8397SOL    HW126090   2.393   0.767   3.770
 8397SOL    HW226091   2.357   0.779   3.929
 8398SOL     OW26092   4.297   1.766   6.466
 8398SOL    HW126093   4.348   1.843   6.426
 8398SOL    HW226094   4.355   1.685   6.465
 8399SOL     OW26095   6.401   0.571   6.925
 8399SOL    HW126096   6.410   0.653   6.869
 8399SOL    HW226097   6.361   0.595   7.013
 8400SOL     OW26098   1.101   0.221   3.835
 8400SOL    HW126099   1.089   0.301   3.895
 8400SOL    HW226100   1.105   0.138   3.891
 8401SOL     OW26101   3.182   2.139   6.311
 8401SOL    HW126102   3.261   2.165   6.256
 8401SOL    HW226103   3.101   2.187   6.277
 8402SOL     OW26104   4.253   1.933   5.589
 8402SOL    HW126105   4.170   1.883   5.614
 8402SOL    HW226106   4.325   1.869   5.565
 8403SOL     OW26107   0.571   1.776   3.057
 8403SOL    HW126108   0.636   1.726   3.000
 8403SOL    HW226109   0.608   1.786   3.149
 8404SOL     OW26110   5.432   5.866   7.012
 8404SOL    HW126111   5.460   5.774   6.982
 8404SOL    HW226112   5.356   5.898   6.956
 8405SOL     OW26113   1.856   0.877   6.621
 8405SOL    HW126114   1.950   0.873   6.587
 8405SOL    HW226115   1.815   0.785   6.616
 8406SOL     OW26116   4.307   0.527   0.895
 8406SOL    HW126117   4.257   0.474   0.963
 8406SOL    HW226118   4.367   0.467   0.844
 8407SOL     OW26119   4.767   6.755   3.788
 8407SOL    HW126120   4.863   6.761   3.814
 8407SOL    HW226121   4.756   6.783   3.693
 8408SOL     OW26122   5.028   2.505   2.637
 8408SOL    HW126123   5.017   2.560   2.720
 8408SOL    HW226124   5.125   2.503   2.611
 8409SOL     OW26125   6.087   3.042   3.062
 8409SOL    HW126126   6.130   3.015   2.976
 8409SOL    HW226127   6.113   2.976   3.133
 8410SOL     OW26128   4.669   0.658   1.462
 8410SOL    HW126129   4.634   0.609   1.542
 8410SOL    HW226130   4.747   0.715   1.490
 8411SOL     OW26131   1.420   5.567   5.436
 8411SOL    HW126132   1.512   5.568   5.398
 8411SOL    HW226133   1.420   5.522   5.525
 8412SOL     OW26134   4.192   1.903   2.180
 8412SOL    HW126135   4.284   1.901   2.143
 8412SOL    HW226136   4.153   1.995   2.170
 8413SOL     OW26137   4.784   4.669   0.681
 8413SOL    HW126138   4.719   4.732   0.724
 8413SOL    HW226139   4.734   4.605   0.622
 8414SOL     OW26140   4.233   5.868   2.704
 8414SOL    HW126141   4.164   5.803   2.736
 8414SOL    HW226142   4.268   5.839   2.615
 8415SOL     OW26143   6.682   5.742   4.189
 8415SOL    HW126144   6.701   5.648   4.160
 8415SOL    HW226145   6.584   5.759   4.185
 8416SOL     OW26146   5.847   4.199   3.548
 8416SOL    HW126147   5.781   4.236   3.614
 8416SOL    HW226148   5.847   4.100   3.554
 8417SOL     OW26149   0.882   5.194   6.181
 8417SOL    HW126150   0.936   5.111   6.189
 8417SOL    HW226151   0.785   5.171   6.186
 8418SOL     OW26152   6.371   5.378   1.885
 8418SOL    HW126153   6.412   5.297   1.842
 8418SOL    HW226154   6.397   5.460   1.833
 8419SOL     OW26155   5.201   1.448   2.842
 8419SOL    HW126156   5.265   1.377   2.814
 8419SOL    HW226157   5.251   1.522   2.888
 8420SOL     OW26158   4.151   0.141   0.875
 8420SOL    HW126159   4.170   0.236   0.850
 8420SOL    HW226160   4.207   0.080   0.820
 8421SOL     OW26161   2.899   5.991   1.140
 8421SOL    HW126162   2.862   5.898   1.140
 8421SOL    HW226163   2.920   6.019   1.047
 8422SOL     OW26164   4.461   0.385   1.495
 8422SOL    HW126165   4.450   0.449   1.419
 8422SOL    HW226166   4.476   0.437   1.580
 8423SOL     OW26167   3.937   4.087   6.264
 8423SOL    HW126168   3.908   4.169   6.215
 8423SOL    HW226169   4.032   4.097   6.292
 8424SOL     OW26170   2.399   2.613   2.972
 8424SOL    HW126171   2.320   2.673   2.956
 8424SOL    HW226172   2.445   2.597   2.885
 8425SOL     OW26173   5.715   5.755   1.318
 8425SOL    HW126174   5.787   5.724   1.257
 8425SOL    HW226175   5.753   5.815   1.389
 8426SOL     OW26176   3.382   2.898   4.217
 8426SOL    HW126177   3.308   2.964   4.220
 8426SOL    HW226178   3.346   2.807   4.236
 8427SOL     OW26179   2.842   3.665   5.567
 8427SOL    HW126180   2.898   3.601   5.619
 8427SOL    HW226181   2.757   3.682   5.616
 8428SOL     OW26182   6.907   4.351   1.356
 8428SOL    HW126183   6.916   4.273   1.419
 8428SOL    HW226184   6.863   4.321   1.272
 8429SOL     OW26185   2.019   4.056   3.396
 8429SOL    HW126186   2.030   4.018   3.488
 8429SOL    HW226187   2.047   4.151   3.396
 8430SOL     OW26188   3.727   5.902   3.498
 8430SOL    HW126189   3.689   5.912   3.406
 8430SOL    HW226190   3.754   5.806   3.512
 8431SOL     OW26191   2.914   5.470   0.763
 8431SOL    HW126192   2.976   5.451   0.687
 8431SOL    HW226193   2.946   5.551   0.813
 8432SOL     OW26194   5.577   6.918   6.064
 8432SOL    HW126195   5.594   7.004   6.015
 8432SOL    HW226196   5.487   6.883   6.039
 8433SOL     OW26197   6.555   2.337   0.373
 8433SOL    HW126198   6.497   2.338   0.454
 8433SOL    HW226199   6.632   2.276   0.388
 8434SOL     OW26200   2.831   6.451   5.473
 8434SOL    HW126201   2.782   6.513   5.533
 8434SOL    HW226202   2.809   6.356   5.497
 8435SOL     OW26203   5.188   0.718   0.924
 8435SOL    HW126204   5.099   0.677   0.947
 8435SOL    HW226205   5.199   0.803   0.975
 8436SOL     OW26206   3.285   6.640   4.694
 8436SOL    HW126207   3.335   6.701   4.633
 8436SOL    HW226208   3.225   6.581   4.641
 8437SOL     OW26209   1.481   0.085   3.133
 8437SOL    HW126210   1.518   0.163   3.082
 8437SOL    HW226211   1.501   0.097   3.230
 8438SOL     OW26212   2.848   5.058   2.158
 8438SOL    HW126213   2.787   5.059   2.078
 8438SOL    HW226214   2.871   4.964   2.181
 8439SOL     OW26215   6.363   5.189   1.411
 8439SOL    HW126216   6.387   5.286   1.420
 8439SOL    HW226217   6.292   5.179   1.342
 8440SOL     OW26218   0.430   2.039   3.958
 8440SOL    HW126219   0.422   2.069   4.053
 8440SOL    HW226220   0.512   1.984   3.947
 8441SOL     OW26221   5.819   6.713   6.939
 8441SOL    HW126222   5.757   6.659   6.997
 8441SOL    HW226223   5.779   6.720   6.847
 8442SOL     OW26224   3.397   2.746   5.767
 8442SOL    HW126225   3.385   2.715   5.861
 8442SOL    HW226226   3.421   2.668   5.709
 8443SOL     OW26227   1.047   6.479   3.416
 8443SOL    HW126228   1.057   6.503   3.512
 8443SOL    HW226229   1.022   6.560   3.364
 8444SOL     OW26230   3.294   5.797   3.367
 8444SOL    HW126231   3.247   5.709   3.380
 8444SOL    HW226232   3.390   5.788   3.394
 8445SOL     OW26233   3.603   5.149   1.665
 8445SOL    HW126234   3.588   5.248   1.671
 8445SOL    HW226235   3.611   5.111   1.757
 8446SOL     OW26236   4.505   4.841   0.894
 8446SOL    HW126237   4.405   4.840   0.895
 8446SOL    HW226238   4.539   4.764   0.949
 8447SOL     OW26239   5.992   2.534   2.327
 8447SOL    HW126240   5.932   2.610   2.352
 8447SOL    HW226241   6.013   2.539   2.230
 8448SOL     OW26242   5.703   4.765   4.532
 8448SOL    HW126243   5.730   4.805   4.444
 8448SOL    HW226244   5.747   4.816   4.606
 8449SOL     OW26245   6.252   3.264   4.125
 8449SOL    HW126246   6.253   3.246   4.027
 8449SOL    HW226247   6.276   3.181   4.175
 8450SOL     OW26248   1.781   5.600   1.984
 8450SOL    HW126249   1.842   5.528   1.952
 8450SOL    HW226250   1.835   5.681   2.008
 8451SOL     OW26251   4.860   3.116   0.647
 8451SOL    HW126252   4.838   3.173   0.567
 8451SOL    HW226253   4.877   3.175   0.726
 8452SOL     OW26254   0.214   0.944   2.163
 8452SOL    HW126255   0.228   0.988   2.074
 8452SOL    HW226256   0.157   1.003   2.220
 8453SOL     OW26257   6.782   4.212   6.907
 8453SOL    HW126258   6.769   4.288   6.842
 8453SOL    HW226259   6.760   4.243   6.999
 8454SOL     OW26260   0.555   6.370   0.347
 8454SOL    HW126261   0.490   6.316   0.400
 8454SOL    HW226262   0.534   6.467   0.359
 8455SOL     OW26263   5.341   1.972   1.349
 8455SOL    HW126264   5.390   2.033   1.411
 8455SOL    HW226265   5.338   2.012   1.257
 8456SOL     OW26266   4.682   4.200   2.939
 8456SOL    HW126267   4.711   4.294   2.921
 8456SOL    HW226268   4.676   4.149   2.853
 8457SOL     OW26269   0.278   6.366   4.992
 8457SOL    HW126270   0.334   6.324   5.063
 8457SOL    HW226271   0.290   6.317   4.906
 8458SOL     OW26272   2.183   1.407   6.697
 8458SOL    HW126273   2.220   1.345   6.766
 8458SOL    HW226274   2.112   1.464   6.738
 8459SOL     OW26275   3.173   6.433   1.930
 8459SOL    HW126276   3.147   6.342   1.962
 8459SOL    HW226277   3.100   6.469   1.871
 8460SOL     OW26278   4.470   2.495   5.437
 8460SOL    HW126279   4.408   2.499   5.515
 8460SOL    HW226280   4.511   2.584   5.422
 8461SOL     OW26281   0.777   3.845   2.722
 8461SOL    HW126282   0.736   3.755   2.737
 8461SOL    HW226283   0.706   3.914   2.715
 8462SOL     OW26284   3.552   2.414   0.482
 8462SOL    HW126285   3.600   2.492   0.521
 8462SOL    HW226286   3.479   2.385   0.544
 8463SOL     OW26287   6.234   0.212   0.058
 8463SOL    HW126288   6.145   0.256   0.059
 8463SOL    HW226289   6.240   0.150   7.000
 8464SOL     OW26290   5.835   3.826   5.796
 8464SOL    HW126291   5.801   3.735   5.772
 8464SOL    HW226292   5.930   3.820   5.824
 8465SOL     OW26293   2.415   2.625   0.788
 8465SOL    HW126294   2.373   2.586   0.707
 8465SOL    HW226295   2.492   2.568   0.817
 8466SOL     OW26296   6.625   0.121   5.632
 8466SOL    HW126297   6.557   0.182   5.673
 8466SOL    HW226298   6.671   0.069   5.703
 8467SOL     OW26299   3.563   0.693   1.485
 8467SOL    HW126300   3.477   0.658   1.523
 8467SOL    HW226301   3.594   0.634   1.412
 8468SOL     OW26302   4.689   2.751   0.282
 8468SOL    HW126303   4.593   2.762   0.308
 8468SOL    HW226304   4.697   2.679   0.213
 8469SOL     OW26305   2.757   1.976   5.450
 8469SOL    HW126306   2.774   1.931   5.362
 8469SOL    HW226307   2.738   2.073   5.435
 8470SOL     OW26308   0.691   4.762   0.346
 8470SOL    HW126309   0.772   4.729   0.395
 8470SOL    HW226310   0.678   4.859   0.365
 8471SOL     OW26311   4.221   0.381   5.085
 8471SOL    HW126312   4.258   0.459   5.135
 8471SOL    HW226313   4.278   0.364   5.005
 8472SOL     OW26314   6.363   0.696   5.763
 8472SOL    HW126315   6.438   0.703   5.697
 8472SOL    HW226316   6.401   0.674   5.853
 8473SOL     OW26317   6.973   5.741   0.946
 8473SOL    HW126318   0.002   5.707   0.866
 8473SOL    HW226319   6.883   5.773   0.918
 8474SOL     OW26320   3.583   3.558   2.194
 8474SOL    HW126321   3.573   3.588   2.289
 8474SOL    HW226322   3.669   3.594   2.157
 8475SOL     OW26323   0.383   2.851   3.063
 8475SOL    HW126324   0.381   2.913   3.142
 8475SOL    HW226325   0.320   2.775   3.079
 8476SOL     OW26326   5.940   1.188   0.963
 8476SOL    HW126327   5.885   1.265   0.996
 8476SOL    HW226328   6.012   1.221   0.902
 8477SOL     OW26329   4.692   6.639   2.857
 8477SOL    HW126330   4.602   6.682   2.848
 8477SOL    HW226331   4.695   6.557   2.800
 8478SOL     OW26332   1.761   6.559   5.685
 8478SOL    HW126333   1.712   6.630   5.634
 8478SOL    HW226334   1.797   6.598   5.770
 8479SOL     OW26335   1.195   2.376   0.966
 8479SOL    HW126336   1.127   2.437   0.925
 8479SOL    HW226337   1.165   2.281   0.956
 8480SOL     OW26338   5.258   2.842   0.332
 8480SOL    HW126339   5.245   2.755   0.380
 8480SOL    HW226340   5.277   2.915   0.398
 8481SOL     OW26341   4.521   2.679   4.942
 8481SOL    HW126342   4.529   2.633   4.853
 8481SOL    HW226343   4.439   2.736   4.942
 8482SOL     OW26344   4.760   6.974   2.814
 8482SOL    HW126345   4.730   7.000   2.906
 8482SOL    HW226346   4.680   6.964   2.755
 8483SOL     OW26347   3.623   5.835   2.139
 8483SOL    HW126348   3.697   5.902   2.148
 8483SOL    HW226349   3.606   5.792   2.228
 8484SOL     OW26350   6.723   5.969   3.568
 8484SOL    HW126351   6.679   5.959   3.658
 8484SOL    HW226352   6.809   5.918   3.567
 8485SOL     OW26353   3.522   2.529   0.241
 8485SOL    HW126354   3.537   2.479   0.326
 8485SOL    HW226355   3.457   2.479   0.184
 8486SOL     OW26356   2.175   1.541   2.456
 8486SOL    HW126357   2.274   1.553   2.451
 8486SOL    HW226358   2.136   1.607   2.521
 8487SOL     OW26359   6.050   1.722   5.569
 8487SOL    HW126360   5.969   1.696   5.622
 8487SOL    HW226361   6.103   1.641   5.547
 8488SOL     OW26362   5.418   6.419   1.632
 8488SOL    HW126363   5.323   6.449   1.624
 8488SOL    HW226364   5.432   6.338   1.576
 8489SOL     OW26365   6.537   1.609   1.527
 8489SOL    HW126366   6.470   1.590   1.455
 8489SOL    HW226367   6.490   1.622   1.614
 8490SOL     OW26368   3.732   6.363   5.221
 8490SOL    HW126369   3.647   6.363   5.168
 8490SOL    HW226370   3.786   6.283   5.196
 8491SOL     OW26371   2.256   6.012   1.885
 8491SOL    HW126372   2.213   5.940   1.940
 8491SOL    HW226373   2.187   6.053   1.825
 8492SOL     OW26374   5.355   4.261   5.619
 8492SOL    HW126375   5.411   4.180   5.631
 8492SOL    HW226376   5.401   4.325   5.558
 8493SOL     OW26377   2.110   2.088   5.449
 8493SOL    HW126378   2.124   2.095   5.548
 8493SOL    HW226379   2.168   2.154   5.402
 8494SOL     OW26380   4.271   5.063   1.095
 8494SOL    HW126381   4.172   5.071   1.106
 8494SOL    HW226382   4.305   5.142   1.044
 8495SOL     OW26383   6.661   4.897   2.037
 8495SOL    HW126384   6.749   4.902   1.990
 8495SOL    HW226385   6.608   4.820   2.001
 8496SOL     OW26386   1.669   1.721   2.775
 8496SOL    HW126387   1.685   1.683   2.683
 8496SOL    HW226388   1.607   1.662   2.825
 8497SOL     OW26389   6.763   0.681   3.855
 8497SOL    HW126390   6.853   0.665   3.814
 8497SOL    HW226391   6.765   0.766   3.908
 8498SOL     OW26392   5.891   6.317   3.173
 8498SOL    HW126393   5.898   6.378   3.252
 8498SOL    HW226394   5.827   6.243   3.194
 8499SOL     OW26395   2.216   3.965   6.498
 8499SOL    HW126396   2.190   3.981   6.594
 8499SOL    HW226397   2.286   3.894   6.493
 8500SOL     OW26398   1.598   5.848   5.749
 8500SOL    HW126399   1.662   5.811   5.682
 8500SOL    HW226400   1.643   5.919   5.803
 8501SOL     OW26401   6.996   3.025   6.040
 8501SOL    HW126402   7.013   2.930   6.012
 8501SOL    HW226403   6.897   3.040   6.047
 8502SOL     OW26404   0.071   3.465   1.378
 8502SOL    HW126405   7.014   3.414   1.414
 8502SOL    HW226406   0.135   3.486   1.452
 8503SOL     OW26407   0.694   5.051   4.820
 8503SOL    HW126408   0.598   5.036   4.842
 8503SOL    HW226409   0.717   5.004   4.735
 8504SOL     OW26410   2.159   4.947   2.543
 8504SOL    HW126411   2.238   4.890   2.564
 8504SOL    HW226412   2.190   5.036   2.508
 8505SOL     OW26413   6.504   3.523   3.000
 8505SOL    HW126414   6.573   3.591   2.973
 8505SOL    HW226415   6.472   3.475   2.919
 8506SOL     OW26416   0.975   1.222   7.012
 8506SOL    HW126417   1.036   1.280   0.045
 8506SOL    HW226418   1.011   1.129   7.011
 8507SOL     OW26419   3.379   6.974   4.773
 8507SOL    HW126420   3.469   6.981   4.815
 8507SOL    HW226421   3.312   6.944   4.841
 8508SOL     OW26422   4.988   1.825   4.367
 8508SOL    HW126423   4.900   1.776   4.364
 8508SOL    HW226424   4.973   1.922   4.349
 8509SOL     OW26425   4.494   1.296   3.351
 8509SOL    HW126426   4.424   1.237   3.390
 8509SOL    HW226427   4.547   1.337   3.425
 8510SOL     OW26428   5.923   4.762   2.616
 8510SOL    HW126429   6.009   4.751   2.665
 8510SOL    HW226430   5.932   4.725   2.524
 8511SOL     OW26431   6.291   4.363   2.708
 8511SOL    HW126432   6.381   4.397   2.735
 8511SOL    HW226433   6.246   4.430   2.650
 8512SOL     OW26434   2.679   0.846   2.703
 8512SOL    HW126435   2.639   0.793   2.629
 8512SOL    HW226436   2.776   0.862   2.685
 8513SOL     OW26437   6.740   5.650   0.601
 8513SOL    HW126438   6.708   5.602   0.683
 8513SOL    HW226439   6.773   5.741   0.627
 8514SOL     OW26440   1.812   1.942   3.598
 8514SOL    HW126441   1.873   1.976   3.670
 8514SOL    HW226442   1.808   2.008   3.523
 8515SOL     OW26443   4.801   2.402   1.167
 8515SOL    HW126444   4.758   2.472   1.110
 8515SOL    HW226445   4.897   2.425   1.180
 8516SOL     OW26446   0.379   1.714   1.834
 8516SOL    HW126447   0.375   1.687   1.931
 8516SOL    HW226448   0.449   1.784   1.821
 8517SOL     OW26449   0.348   3.067   5.436
 8517SOL    HW126450   0.289   3.103   5.509
 8517SOL    HW226451   0.364   3.139   5.368
 8518SOL     OW26452   4.535   3.651   0.312
 8518SOL    HW126453   4.587   3.611   0.388
 8518SOL    HW226454   4.449   3.688   0.347
 8519SOL     OW26455   1.986   5.043   2.096
 8519SOL    HW126456   1.989   5.128   2.149
 8519SOL    HW226457   1.950   5.061   2.005
 8520SOL     OW26458   3.582   1.635   1.249
 8520SOL    HW126459   3.614   1.613   1.157
 8520SOL    HW226460   3.492   1.593   1.263
 8521SOL     OW26461   2.066   4.932   6.080
 8521SOL    HW126462   2.083   4.949   5.983
 8521SOL    HW226463   2.111   4.846   6.107
 8522SOL     OW26464   1.541   6.022   1.665
 8522SOL    HW126465   1.503   6.107   1.702
 8522SOL    HW226466   1.616   6.045   1.602
 8523SOL     OW26467   3.450   6.782   6.433
 8523SOL    HW126468   3.501   6.852   6.382
 8523SOL    HW226469   3.373   6.751   6.377
 8524SOL     OW26470   1.072   1.952   4.876
 8524SOL    HW126471   1.019   1.911   4.950
 8524SOL    HW226472   1.161   1.981   4.912
 8525SOL     OW26473   6.293   4.243   2.964
 8525SOL    HW126474   6.285   4.276   2.870
 8525SOL    HW226475   6.389   4.225   2.985
 8526SOL     OW26476   3.305   4.515   0.974
 8526SOL    HW126477   3.379   4.450   0.960
 8526SOL    HW226478   3.255   4.490   1.058
 8527SOL     OW26479   2.942   6.993   4.968
 8527SOL    HW126480   2.856   6.946   4.985
 8527SOL    HW226481   2.958   6.999   4.869
 8528SOL     OW26482   5.193   2.888   5.791
 8528SOL    HW126483   5.273   2.887   5.851
 8528SOL    HW226484   5.195   2.807   5.732
 8529SOL     OW26485   1.005   0.137   0.174
 8529SOL    HW126486   0.974   0.111   0.083
 8529SOL    HW226487   0.973   0.229   0.195
 8530SOL     OW26488   2.088   3.922   5.541
 8530SOL    HW126489   2.034   4.003   5.516
 8530SOL    HW226490   2.155   3.903   5.469
 8531SOL     OW26491   5.842   4.605   2.141
 8531SOL    HW126492   5.754   4.646   2.116
 8531SOL    HW226493   5.838   4.506   2.128
 8532SOL     OW26494   3.859   4.912   4.557
 8532SOL    HW126495   3.865   5.005   4.593
 8532SOL    HW226496   3.845   4.916   4.459
 8533SOL     OW26497   1.936   6.930   6.039
 8533SOL    HW126498   1.926   0.009   6.046
 8533SOL    HW226499   1.994   6.897   6.113
 8534SOL     OW26500   6.747   3.589   3.873
 8534SOL    HW126501   6.789   3.676   3.899
 8534SOL    HW226502   6.819   3.522   3.854
 8535SOL     OW26503   0.386   1.809   5.337
 8535SOL    HW126504   0.479   1.846   5.334
 8535SOL    HW226505   0.322   1.876   5.301
 8536SOL     OW26506   5.642   1.549   4.872
 8536SOL    HW126507   5.636   1.592   4.782
 8536SOL    HW226508   5.736   1.558   4.907
 8537SOL     OW26509   5.796   1.257   2.051
 8537SOL    HW126510   5.730   1.183   2.044
 8537SOL    HW226511   5.850   1.262   1.967
 8538SOL     OW26512   0.662   1.394   5.284
 8538SOL    HW126513   0.758   1.369   5.301
 8538SOL    HW226514   0.630   1.348   5.201
 8539SOL     OW26515   6.613   2.093   2.163
 8539SOL    HW126516   6.678   2.019   2.183
 8539SOL    HW226517   6.530   2.079   2.217
 8540SOL     OW26518   3.288   1.477   0.135
 8540SOL    HW126519   3.194   1.463   0.167
 8540SOL    HW226520   3.312   1.574   0.143
 8541SOL     OW26521   2.936   1.976   4.293
 8541SOL    HW126522   2.898   1.997   4.203
 8541SOL    HW226523   2.980   1.886   4.291
 8542SOL     OW26524   2.828   4.611   5.852
 8542SOL    HW126525   2.836   4.561   5.938
 8542SOL    HW226526   2.731   4.633   5.835
 8543SOL     OW26527   2.927   1.427   6.391
 8543SOL    HW126528   2.950   1.473   6.305
 8543SOL    HW226529   3.009   1.381   6.426
 8544SOL     OW26530   5.400   2.815   4.668
 8544SOL    HW126531   5.477   2.871   4.638
 8544SOL    HW226532   5.384   2.742   4.602
 8545SOL     OW26533   4.212   6.837   4.657
 8545SOL    HW126534   4.209   6.767   4.729
 8545SOL    HW226535   4.124   6.885   4.653
 8546SOL     OW26536   0.102   0.192   2.178
 8546SOL    HW126537   0.171   0.246   2.226
 8546SOL    HW226538   0.142   0.151   2.096
 8547SOL     OW26539   1.117   6.830   6.274
 8547SOL    HW126540   1.140   6.769   6.350
 8547SOL    HW226541   1.135   6.785   6.187
 8548SOL     OW26542   6.838   3.703   5.781
 8548SOL    HW126543   6.786   3.672   5.701
 8548SOL    HW226544   6.927   3.739   5.751
 8549SOL     OW26545   0.681   2.381   4.656
 8549SOL    HW126546   0.740   2.458   4.678
 8549SOL    HW226547   0.724   2.324   4.586
 8550SOL     OW26548   1.396   4.742   0.188
 8550SOL    HW126549   1.405   4.749   0.088
 8550SOL    HW226550   1.455   4.810   0.232
 8551SOL     OW26551   2.681   2.861   0.133
 8551SOL    HW126552   2.607   2.837   0.070
 8551SOL    HW226553   2.768   2.826   0.098
 8552SOL     OW26554   1.972   0.792   3.109
 8552SOL    HW126555   1.976   0.843   3.023
 8552SOL    HW226556   1.886   0.740   3.112
 8553SOL     OW26557   4.426   3.962   6.440
 8553SOL    HW126558   4.367   3.912   6.376
 8553SOL    HW226559   4.400   3.941   6.534
 8554SOL     OW26560   6.867   5.898   0.619
 8554SOL    HW126561   6.959   5.935   0.607
 8554SOL    HW226562   6.818   5.951   0.687
 8555SOL     OW26563   3.517   1.376   3.603
 8555SOL    HW126564   3.545   1.320   3.525
 8555SOL    HW226565   3.548   1.333   3.688
 8556SOL     OW26566   2.356   6.095   4.931
 8556SOL    HW126567   2.417   6.016   4.930
 8556SOL    HW226568   2.264   6.067   4.902
 8557SOL     OW26569   6.653   0.256   2.151
 8557SOL    HW126570   6.620   0.349   2.136
 8557SOL    HW226571   6.588   0.191   2.111
 8558SOL     OW26572   2.120   5.754   3.065
 8558SOL    HW126573   2.062   5.825   3.105
 8558SOL    HW226574   2.212   5.759   3.104
 8559SOL     OW26575   2.049   6.793   2.550
 8559SOL    HW126576   2.000   6.721   2.599
 8559SOL    HW226577   2.131   6.818   2.601
 8560SOL     OW26578   1.123   5.537   2.008
 8560SOL    HW126579   1.046   5.531   1.944
 8560SOL    HW226580   1.088   5.538   2.101
 8561SOL     OW26581   3.191   6.909   3.011
 8561SOL    HW126582   3.254   6.915   3.088
 8561SOL    HW226583   3.190   6.995   2.961
 8562SOL     OW26584   3.348   6.331   6.898
 8562SOL    HW126585   3.351   6.411   6.838
 8562SOL    HW226586   3.254   6.315   6.928
 8563SOL     OW26587   0.907   5.066   2.024
 8563SOL    HW126588   0.971   5.125   2.072
 8563SOL    HW226589   0.953   5.022   1.947
 8564SOL     OW26590   3.199   6.735   5.527
 8564SOL    HW126591   3.214   6.805   5.597
 8564SOL    HW226592   3.107   6.745   5.490
 8565SOL     OW26593   3.504   4.838   1.068
 8565SOL    HW126594   3.451   4.895   1.006
 8565SOL    HW226595   3.453   4.824   1.153
 8566SOL     OW26596   1.076   0.360   1.506
 8566SOL    HW126597   0.999   0.382   1.566
 8566SOL    HW226598   1.051   0.376   1.411
 8567SOL     OW26599   1.034   2.296   2.055
 8567SOL    HW126600   1.080   2.222   2.006
 8567SOL    HW226601   0.981   2.352   1.991
 8568SOL     OW26602   5.625   2.227   0.350
 8568SOL    HW126603   5.634   2.130   0.374
 8568SOL    HW226604   5.598   2.279   0.431
 8569SOL     OW26605   5.346   1.755   5.245
 8569SOL    HW126606   5.355   1.855   5.254
 8569SOL    HW226607   5.434   1.712   5.263
 8570SOL     OW26608   1.113   1.541   4.274
 8570SOL    HW126609   1.096   1.599   4.194
 8570SOL    HW226610   1.168   1.462   4.247
 8571SOL     OW26611   0.861   6.308   5.132
 8571SOL    HW126612   0.836   6.212   5.120
 8571SOL    HW226613   0.842   6.336   5.226
 8572SOL     OW26614   1.936   4.334   5.528
 8572SOL    HW126615   1.948   4.254   5.469
 8572SOL    HW226616   1.911   4.305   5.620
 8573SOL     OW26617   3.157   5.754   6.284
 8573SOL    HW126618   3.121   5.842   6.316
 8573SOL    HW226619   3.248   5.768   6.243
 8574SOL     OW26620   5.946   0.425   6.046
 8574SOL    HW126621   5.892   0.348   6.080
 8574SOL    HW226622   5.885   0.496   6.010
 8575SOL     OW26623   2.767   2.391   3.494
 8575SOL    HW126624   2.787   2.484   3.465
 8575SOL    HW226625   2.832   2.327   3.453
 8576SOL     OW26626   1.685   4.831   4.449
 8576SOL    HW126627   1.733   4.908   4.407
 8576SOL    HW226628   1.699   4.749   4.394
 8577SOL     OW26629   1.545   0.278   5.990
 8577SOL    HW126630   1.609   0.201   5.990
 8577SOL    HW226631   1.453   0.245   5.972
 8578SOL     OW26632   6.685   5.211   5.344
 8578SOL    HW126633   6.715   5.165   5.428
 8578SOL    HW226634   6.590   5.187   5.325
 8579SOL     OW26635   1.828   6.344   2.265
 8579SOL    HW126636   1.827   6.423   2.326
 8579SOL    HW226637   1.842   6.261   2.319
 8580SOL     OW26638   1.966   5.662   0.824
 8580SOL    HW126639   1.962   5.580   0.881
 8580SOL    HW226640   1.878   5.675   0.779
 8581SOL     OW26641   3.236   4.550   1.414
 8581SOL    HW126642   3.313   4.509   1.463
 8581SOL    HW226643   3.152   4.533   1.467
 8582SOL     OW26644   4.844   4.691   4.967
 8582SOL    HW126645   4.915   4.650   4.910
 8582SOL    HW226646   4.759   4.639   4.958
 8583SOL     OW26647   3.941   6.874   3.786
 8583SOL    HW126648   3.939   6.788   3.734
 8583SOL    HW226649   3.913   6.949   3.726
 8584SOL     OW26650   1.121   6.340   5.619
 8584SOL    HW126651   1.087   6.434   5.612
 8584SOL    HW226652   1.138   6.304   5.528
 8585SOL     OW26653   5.876   1.133   0.564
 8585SOL    HW126654   5.828   1.194   0.627
 8585SOL    HW226655   5.969   1.117   0.599
 8586SOL     OW26656   3.550   6.793   1.686
 8586SOL    HW126657   3.578   6.777   1.780
 8586SOL    HW226658   3.561   6.890   1.664
 8587SOL     OW26659   0.900   0.969   4.670
 8587SOL    HW126660   0.954   0.886   4.660
 8587SOL    HW226661   0.818   0.950   4.724
 8588SOL     OW26662   4.739   1.195   0.002
 8588SOL    HW126663   4.783   1.117   0.046
 8588SOL    HW226664   4.640   1.183   0.003
 8589SOL     OW26665   6.335   2.715   4.857
 8589SOL    HW126666   6.398   2.641   4.878
 8589SOL    HW226667   6.334   2.730   4.758
 8590SOL     OW26668   0.487   0.568   2.082
 8590SOL    HW126669   0.548   0.642   2.054
 8590SOL    HW226670   0.395   0.606   2.097
 8591SOL     OW26671   0.256   3.974   0.178
 8591SOL    HW126672   0.181   4.016   0.230
 8591SOL    HW226673   0.230   3.882   0.151
 8592SOL     OW26674   5.860   1.876   0.234
 8592SOL    HW126675   5.884   1.907   0.142
 8592SOL    HW226676   5.768   1.838   0.233
 8593SOL     OW26677   3.191   0.904   6.753
 8593SOL    HW126678   3.264   0.871   6.693
 8593SOL    HW226679   3.107   0.853   6.736
 8594SOL     OW26680   5.636   2.191   5.427
 8594SOL    HW126681   5.605   2.280   5.392
 8594SOL    HW226682   5.735   2.184   5.414
 8595SOL     OW26683   6.302   1.169   3.963
 8595SOL    HW126684   6.296   1.072   3.985
 8595SOL    HW226685   6.361   1.215   4.029
 8596SOL     OW26686   1.266   4.912   2.882
 8596SOL    HW126687   1.217   4.848   2.942
 8596SOL    HW226688   1.202   4.947   2.813
 8597SOL     OW26689   5.280   2.056   1.911
 8597SOL    HW126690   5.190   2.091   1.936
 8597SOL    HW226691   5.270   1.993   1.834
 8598SOL     OW26692   5.530   0.418   6.344
 8598SOL    HW126693   5.533   0.423   6.444
 8598SOL    HW226694   5.525   0.322   6.316
 8599SOL     OW26695   1.972   2.592   4.853
 8599SOL    HW126696   2.049   2.564   4.796
 8599SOL    HW226697   1.886   2.566   4.810
 8600SOL     OW26698   5.265   4.074   7.002
 8600SOL    HW126699   5.208   4.155   7.008
 8600SOL    HW226700   5.360   4.100   6.984
 8601SOL     OW26701   0.712   1.915   3.963
 8601SOL    HW126702   0.707   1.866   4.049
 8601SOL    HW226703   0.797   1.968   3.960
 8602SOL     OW26704   2.724   6.963   2.416
 8602SOL    HW126705   2.666   6.921   2.487
 8602SOL    HW226706   2.684   6.945   2.326
 8603SOL     OW26707   5.131   6.911   1.409
 8603SOL    HW126708   5.196   6.916   1.333
 8603SOL    HW226709   5.176   6.875   1.490
 8604SOL     OW26710   1.551   2.391   6.108
 8604SOL    HW126711   1.552   2.455   6.184
 8604SOL    HW226712   1.499   2.309   6.134
 8605SOL     OW26713   2.368   5.309   3.970
 8605SOL    HW126714   2.270   5.291   3.978
 8605SOL    HW226715   2.399   5.360   4.050
 8606SOL     OW26716   1.915   2.974   6.981
 8606SOL    HW126717   1.922   2.984   0.060
 8606SOL    HW226718   1.819   2.967   6.955
 8607SOL     OW26719   2.614   4.695   6.121
 8607SOL    HW126720   2.525   4.730   6.091
 8607SOL    HW226721   2.626   4.602   6.086
 8608SOL     OW26722   2.298   4.623   2.486
 8608SOL    HW126723   2.327   4.697   2.548
 8608SOL    HW226724   2.199   4.627   2.473
 8609SOL     OW26725   4.998   0.739   3.304
 8609SOL    HW126726   4.910   0.781   3.283
 8609SOL    HW226727   5.048   0.721   3.219
 8610SOL     OW26728   0.231   1.299   2.796
 8610SOL    HW126729   0.149   1.301   2.853
 8610SOL    HW226730   0.288   1.379   2.815
 8611SOL     OW26731   3.022   1.359   4.161
 8611SOL    HW126732   3.062   1.272   4.135
 8611SOL    HW226733   3.071   1.433   4.116
 8612SOL     OW26734   2.991   3.012   1.318
 8612SOL    HW126735   2.931   3.002   1.238
 8612SOL    HW226736   2.988   3.106   1.350
 8613SOL     OW26737   3.050   1.842   1.916
 8613SOL    HW126738   3.016   1.884   1.831
 8613SOL    HW226739   2.972   1.817   1.974
 8614SOL     OW26740   0.929   3.234   3.762
 8614SOL    HW126741   0.895   3.208   3.672
 8614SOL    HW226742   1.028   3.219   3.767
 8615SOL     OW26743   4.106   1.969   5.106
 8615SOL    HW126744   4.193   1.959   5.058
 8615SOL    HW226745   4.050   2.038   5.060
 8616SOL     OW26746   3.109   4.782   1.969
 8616SOL    HW126747   3.180   4.714   1.949
 8616SOL    HW226748   3.024   4.735   1.994
 8617SOL     OW26749   6.003   1.352   4.344
 8617SOL    HW126750   5.966   1.330   4.254
 8617SOL    HW226751   6.061   1.278   4.376
 8618SOL     OW26752   6.381   4.916   1.132
 8618SOL    HW126753   6.463   4.906   1.189
 8618SOL    HW226754   6.371   5.011   1.104
 8619SOL     OW26755   4.384   5.271   2.135
 8619SOL    HW126756   4.286   5.274   2.155
 8619SOL    HW226757   4.404   5.193   2.076
 8620SOL     OW26758   1.992   6.066   3.387
 8620SOL    HW126759   2.067   6.122   3.353
 8620SOL    HW226760   1.916   6.124   3.415
 8621SOL     OW26761   5.189   2.598   2.248
 8621SOL    HW126762   5.117   2.668   2.253
 8621SOL    HW226763   5.236   2.592   2.336
 8622SOL     OW26764   4.996   4.159   1.474
 8622SOL    HW126765   4.932   4.203   1.537
 8622SOL    HW226766   5.046   4.230   1.423
 8623SOL     OW26767   1.182   4.190   5.623
 8623SOL    HW126768   1.161   4.279   5.581
 8623SOL    HW226769   1.264   4.152   5.581
 8624SOL     OW26770   1.804   3.763   5.472
 8624SOL    HW126771   1.847   3.675   5.449
 8624SOL    HW226772   1.866   3.816   5.530
 8625SOL     OW26773   4.784   0.970   5.544
 8625SOL    HW126774   4.800   1.068   5.560
 8625SOL    HW226775   4.862   0.918   5.577
 8626SOL     OW26776   4.072   2.154   6.883
 8626SOL    HW126777   4.001   2.213   6.844
 8626SOL    HW226778   4.029   2.071   6.920
 8627SOL     OW26779   2.064   1.811   2.131
 8627SOL    HW126780   2.032   1.727   2.175
 8627SOL    HW226781   1.992   1.880   2.132
 8628SOL     OW26782   5.914   6.508   0.578
 8628SOL    HW126783   5.913   6.408   0.584
 8628SOL    HW226784   5.906   6.535   0.482
 8629SOL     OW26785   1.898   6.474   5.134
 8629SOL    HW126786   1.903   6.382   5.093
 8629SOL    HW226787   1.826   6.476   5.203
 8630SOL     OW26788   5.123   2.791   3.554
 8630SOL    HW126789   5.098   2.728   3.628
 8630SOL    HW226790   5.137   2.882   3.592
 8631SOL     OW26791   1.022   5.418   6.168
 8631SOL    HW126792   0.947   5.352   6.170
 8631SOL    HW226793   1.110   5.369   6.165
 8632SOL     OW26794   4.112   5.073   5.400
 8632SOL    HW126795   4.125   4.974   5.397
 8632SOL    HW226796   4.181   5.114   5.460
 8633SOL     OW26797   5.698   2.765   6.101
 8633SOL    HW126798   5.729   2.707   6.177
 8633SOL    HW226799   5.628   2.717   6.049
 8634SOL     OW26800   4.911   4.193   6.864
 8634SOL    HW126801   4.982   4.243   6.914
 8634SOL    HW226802   4.951   4.109   6.826
 8635SOL     OW26803   5.493   3.024   6.538
 8635SOL    HW126804   5.447   2.964   6.473
 8635SOL    HW226805   5.431   3.046   6.613
 8636SOL     OW26806   5.564   6.132   0.810
 8636SOL    HW126807   5.662   6.138   0.789
 8636SOL    HW226808   5.547   6.173   0.900
 8637SOL     OW26809   1.744   1.401   6.738
 8637SOL    HW126810   1.822   1.379   6.681
 8637SOL    HW226811   1.664   1.348   6.708
 8638SOL     OW26812   3.947   2.119   4.935
 8638SOL    HW126813   4.022   2.181   4.911
 8638SOL    HW226814   3.887   2.106   4.857
 8639SOL     OW26815   5.584   2.932   0.227
 8639SOL    HW126816   5.486   2.934   0.204
 8639SOL    HW226817   5.618   2.839   0.216
 8640SOL     OW26818   3.908   3.385   6.787
 8640SOL    HW126819   3.830   3.421   6.736
 8640SOL    HW226820   3.984   3.450   6.781
 8641SOL     OW26821   3.868   4.901   4.056
 8641SOL    HW126822   3.842   4.910   4.152
 8641SOL    HW226823   3.804   4.838   4.011
 8642SOL     OW26824   1.006   6.556   4.416
 8642SOL    HW126825   1.067   6.495   4.365
 8642SOL    HW226826   1.049   6.581   4.503
 8643SOL     OW26827   1.932   1.056   6.820
 8643SOL    HW126828   1.905   0.984   6.756
 8643SOL    HW226829   1.902   1.032   6.912
 8644SOL     OW26830   5.705   2.319   5.939
 8644SOL    HW126831   5.739   2.325   6.033
 8644SOL    HW226832   5.740   2.236   5.896
 8645SOL     OW26833   4.357   4.681   1.459
 8645SOL    HW126834   4.371   4.776   1.431
 8645SOL    HW226835   4.446   4.636   1.468
 8646SOL     OW26836   0.489   2.001   6.598
 8646SOL    HW126837   0.485   2.101   6.586
 8646SOL    HW226838   0.555   1.979   6.669
 8647SOL     OW26839   2.689   4.747   6.846
 8647SOL    HW126840   2.777   4.785   6.874
 8647SOL    HW226841   2.703   4.683   6.770
 8648SOL     OW26842   6.965   0.343   2.745
 8648SOL    HW126843   6.961   0.292   2.659
 8648SOL    HW226844   0.028   0.319   2.794
 8649SOL     OW26845   5.742   5.653   6.903
 8649SOL    HW126846   5.758   5.742   6.944
 8649SOL    HW226847   5.709   5.665   6.809
 8650SOL     OW26848   1.891   5.922   5.184
 8650SOL    HW126849   1.799   5.889   5.206
 8650SOL    HW226850   1.917   5.994   5.248
 8651SOL     OW26851   3.909   0.680   0.637
 8651SOL    HW126852   3.880   0.723   0.722
 8651SOL    HW226853   3.847   0.605   0.615
 8652SOL     OW26854   1.346   5.151   2.993
 8652SOL    HW126855   1.380   5.134   3.086
 8652SOL    HW226856   1.326   5.064   2.949
 8653SOL     OW26857   0.022   1.010   6.516
 8653SOL    HW126858   6.974   1.051   6.576
 8653SOL    HW226859   0.110   1.007   6.564
 8654SOL     OW26860   0.687   4.967   1.269
 8654SOL    HW126861   0.624   4.898   1.303
 8654SOL    HW226862   0.730   4.934   1.184
 8655SOL     OW26863   6.068   0.398   4.601
 8655SOL    HW126864   6.047   0.496   4.594
 8655SOL    HW226865   6.151   0.386   4.656
 8656SOL     OW26866   6.736   0.761   1.944
 8656SOL    HW126867   6.690   0.850   1.936
 8656SOL    HW226868   6.809   0.767   2.011
 8657SOL     OW26869   5.421   6.168   0.274
 8657SOL    HW126870   5.423   6.069   0.282
 8657SOL    HW226871   5.357   6.195   0.202
 8658SOL     OW26872   6.246   6.375   0.292
 8658SOL    HW126873   6.247   6.475   0.286
 8658SOL    HW226874   6.234   6.347   0.387
 8659SOL     OW26875   4.948   2.483   2.277
 8659SOL    HW126876   4.919   2.408   2.217
 8659SOL    HW226877   5.047   2.498   2.267
 8660SOL     OW26878   6.781   3.863   1.651
 8660SOL    HW126879   6.688   3.828   1.667
 8660SOL    HW226880   6.832   3.798   1.595
 8661SOL     OW26881   6.520   3.927   1.272
 8661SOL    HW126882   6.452   3.912   1.343
 8661SOL    HW226883   6.498   3.871   1.192
 8662SOL     OW26884   4.296   5.614   1.679
 8662SOL    HW126885   4.341   5.615   1.769
 8662SOL    HW226886   4.198   5.598   1.691
 8663SOL     OW26887   2.211   5.562   2.211
 8663SOL    HW126888   2.173   5.539   2.301
 8663SOL    HW226889   2.199   5.485   2.149
 8664SOL     OW26890   2.149   4.957   1.459
 8664SOL    HW126891   2.210   4.993   1.389
 8664SOL    HW226892   2.188   4.873   1.498
 8665SOL     OW26893   5.733   5.558   5.049
 8665SOL    HW126894   5.735   5.481   4.985
 8665SOL    HW226895   5.637   5.581   5.070
 8666SOL     OW26896   5.641   0.994   3.867
 8666SOL    HW126897   5.621   0.958   3.777
 8666SOL    HW226898   5.694   1.079   3.859
 8667SOL     OW26899   4.682   1.991   4.285
 8667SOL    HW126900   4.713   1.911   4.234
 8667SOL    HW226901   4.592   1.973   4.325
 8668SOL     OW26902   5.377   3.846   3.503
 8668SOL    HW126903   5.463   3.897   3.511
 8668SOL    HW226904   5.396   3.753   3.471
 8669SOL     OW26905   0.367   6.273   6.662
 8669SOL    HW126906   0.455   6.236   6.693
 8669SOL    HW226907   0.322   6.320   6.737
 8670SOL     OW26908   4.198   5.396   6.465
 8670SOL    HW126909   4.245   5.482   6.443
 8670SOL    HW226910   4.230   5.361   6.553
 8671SOL     OW26911   6.927   1.444   3.318
 8671SOL    HW126912   6.996   1.495   3.369
 8671SOL    HW226913   6.923   1.478   3.224
 8672SOL     OW26914   0.535   5.812   3.915
 8672SOL    HW126915   0.436   5.800   3.927
 8672SOL    HW226916   0.559   5.907   3.935
 8673SOL     OW26917   5.859   1.564   0.115
 8673SOL    HW126918   5.935   1.628   0.120
 8673SOL    HW226919   5.775   1.614   0.094
 8674SOL     OW26920   5.897   5.346   3.025
 8674SOL    HW126921   5.966   5.371   2.958
 8674SOL    HW226922   5.920   5.257   3.065
 8675SOL     OW26923   3.912   1.583   5.151
 8675SOL    HW126924   4.011   1.594   5.141
 8675SOL    HW226925   3.865   1.630   5.076
 8676SOL     OW26926   5.197   6.998   3.213
 8676SOL    HW126927   5.190   0.076   3.230
 8676SOL    HW226928   5.143   6.949   3.281
 8677SOL     OW26929   2.166   5.507   5.916
 8677SOL    HW126930   2.219   5.435   5.872
 8677SOL    HW226931   2.104   5.466   5.983
 8678SOL     OW26932   1.178   0.094   0.778
 8678SOL    HW126933   1.178   0.164   0.849
 8678SOL    HW226934   1.104   0.112   0.714
 8679SOL     OW26935   1.130   1.326   3.563
 8679SOL    HW126936   1.086   1.240   3.587
 8679SOL    HW226937   1.093   1.400   3.619
 8680SOL     OW26938   6.477   3.812   0.218
 8680SOL    HW126939   6.503   3.828   0.313
 8680SOL    HW226940   6.416   3.733   0.213
 8681SOL     OW26941   4.702   5.567   1.473
 8681SOL    HW126942   4.738   5.641   1.415
 8681SOL    HW226943   4.635   5.515   1.420
 8682SOL     OW26944   5.994   6.984   2.753
 8682SOL    HW126945   6.037   6.935   2.829
 8682SOL    HW226946   5.931   6.922   2.705
 8683SOL     OW26947   1.386   2.060   5.222
 8683SOL    HW126948   1.347   2.051   5.314
 8683SOL    HW226949   1.450   2.137   5.221
 8684SOL     OW26950   5.747   3.295   4.344
 8684SOL    HW126951   5.703   3.255   4.264
 8684SOL    HW226952   5.767   3.392   4.327
 8685SOL     OW26953   6.088   2.674   6.241
 8685SOL    HW126954   5.993   2.695   6.264
 8685SOL    HW226955   6.148   2.709   6.312
 8686SOL     OW26956   0.034   0.801   1.890
 8686SOL    HW126957   0.083   0.717   1.867
 8686SOL    HW226958   0.024   0.808   1.989
 8687SOL     OW26959   5.129   5.330   2.937
 8687SOL    HW126960   5.110   5.403   2.872
 8687SOL    HW226961   5.190   5.364   3.008
 8688SOL     OW26962   1.292   5.365   6.864
 8688SOL    HW126963   1.232   5.307   6.809
 8688SOL    HW226964   1.239   5.409   6.936
 8689SOL     OW26965   4.019   2.364   0.409
 8689SOL    HW126966   3.940   2.351   0.468
 8689SOL    HW226967   4.035   2.461   0.395
 8690SOL     OW26968   1.248   3.631   4.571
 8690SOL    HW126969   1.232   3.551   4.513
 8690SOL    HW226970   1.166   3.689   4.572
 8691SOL     OW26971   4.227   2.087   6.181
 8691SOL    HW126972   4.320   2.101   6.148
 8691SOL    HW226973   4.199   1.993   6.165
 8692SOL     OW26974   3.400   0.923   4.294
 8692SOL    HW126975   3.362   0.876   4.215
 8692SOL    HW226976   3.326   0.948   4.356
 8693SOL     OW26977   5.515   0.372   0.362
 8693SOL    HW126978   5.552   0.349   0.452
 8693SOL    HW226979   5.459   0.455   0.370
 8694SOL     OW26980   5.499   1.570   4.614
 8694SOL    HW126981   5.473   1.562   4.518
 8694SOL    HW226982   5.452   1.500   4.668
 8695SOL     OW26983   4.291   3.242   6.223
 8695SOL    HW126984   4.297   3.270   6.319
 8695SOL    HW226985   4.288   3.323   6.164
 8696SOL     OW26986   2.622   5.465   5.171
 8696SOL    HW126987   2.704   5.504   5.212
 8696SOL    HW226988   2.623   5.366   5.182
 8697SOL     OW26989   0.615   4.240   6.512
 8697SOL    HW126990   0.551   4.191   6.571
 8697SOL    HW226991   0.624   4.334   6.545
 8698SOL     OW26992   4.776   5.995   5.057
 8698SOL    HW126993   4.872   6.007   5.031
 8698SOL    HW226994   4.764   6.019   5.153
 8699SOL     OW26995   1.703   3.046   4.784
 8699SOL    HW126996   1.800   3.040   4.807
 8699SOL    HW226997   1.658   2.959   4.804
 8700SOL     OW26998   1.009   0.723   4.712
 8700SOL    HW126999   0.945   0.677   4.772
 8700SOL    HW227000   1.098   0.733   4.758
 8701SOL     OW27001   1.780   1.169   0.495
 8701SOL    HW127002   1.809   1.201   0.405
 8701SOL    HW227003   1.696   1.216   0.522
 8702SOL     OW27004   5.343   5.124   1.702
 8702SOL    HW127005   5.267   5.125   1.767
 8702SOL    HW227006   5.310   5.156   1.613
 8703SOL     OW27007   2.949   4.549   6.880
 8703SOL    HW127008   2.997   4.494   6.948
 8703SOL    HW227009   2.944   4.644   6.911
 8704SOL     OW27010   0.507   4.512   3.512
 8704SOL    HW127011   0.422   4.463   3.528
 8704SOL    HW227012   0.534   4.502   3.416
 8705SOL     OW27013   5.047   1.808   6.293
 8705SOL    HW127014   5.069   1.896   6.249
 8705SOL    HW227015   4.979   1.823   6.365
 8706SOL     OW27016   4.794   2.171   0.173
 8706SOL    HW127017   4.784   2.215   0.262
 8706SOL    HW227018   4.823   2.076   0.186
 8707SOL     OW27019   0.621   2.043   4.866
 8707SOL    HW127020   0.544   2.091   4.824
 8707SOL    HW227021   0.647   1.965   4.810
 8708SOL     OW27022   4.104   1.852   3.661
 8708SOL    HW127023   4.185   1.834   3.718
 8708SOL    HW227024   4.038   1.778   3.673
 8709SOL     OW27025   6.407   6.607   6.822
 8709SOL    HW127026   6.468   6.667   6.873
 8709SOL    HW227027   6.387   6.648   6.733
 8710SOL     OW27028   1.993   2.710   3.558
 8710SOL    HW127029   1.923   2.699   3.629
 8710SOL    HW227030   2.059   2.636   3.564
 8711SOL     OW27031   2.275   6.568   2.875
 8711SOL    HW127032   2.308   6.529   2.961
 8711SOL    HW227033   2.342   6.551   2.803
 8712SOL     OW27034   3.387   1.766   4.373
 8712SOL    HW127035   3.432   1.680   4.346
 8712SOL    HW227036   3.455   1.830   4.408
 8713SOL     OW27037   6.826   3.262   1.748
 8713SOL    HW127038   6.830   3.167   1.777
 8713SOL    HW227039   6.757   3.311   1.802
 8714SOL     OW27040   1.459   0.352   5.671
 8714SOL    HW127041   1.424   0.315   5.757
 8714SOL    HW227042   1.521   0.429   5.692
 8715SOL     OW27043   3.823   0.893   0.842
 8715SOL    HW127044   3.823   0.990   0.820
 8715SOL    HW227045   3.896   0.874   0.908
 8716SOL     OW27046   0.283   6.316   6.977
 8716SOL    HW127047   0.211   6.382   6.958
 8716SOL    HW227048   0.241   6.228   7.002
 8717SOL     OW27049   2.923   3.549   4.949
 8717SOL    HW127050   2.863   3.618   4.910
 8717SOL    HW227051   2.917   3.553   5.049
 8718SOL     OW27052   1.536   2.601   6.312
 8718SOL    HW127053   1.595   2.680   6.328
 8718SOL    HW227054   1.441   2.626   6.326
 8719SOL     OW27055   3.368   0.044   0.185
 8719SOL    HW127056   3.441   6.997   0.199
 8719SOL    HW227057   3.408   0.136   0.184
 8720SOL     OW27058   1.348   6.463   5.956
 8720SOL    HW127059   1.373   6.407   6.035
 8720SOL    HW227060   1.408   6.443   5.879
 8721SOL     OW27061   6.607   1.633   0.919
 8721SOL    HW127062   6.675   1.681   0.973
 8721SOL    HW227063   6.527   1.614   0.976
 8722SOL     OW27064   3.253   1.399   1.460
 8722SOL    HW127065   3.155   1.390   1.477
 8722SOL    HW227066   3.294   1.308   1.456
 8723SOL     OW27067   5.214   0.090   1.635
 8723SOL    HW127068   5.186   0.161   1.699
 8723SOL    HW227069   5.218   0.128   1.543
 8724SOL     OW27070   5.884   0.004   4.074
 8724SOL    HW127071   5.794   7.010   4.035
 8724SOL    HW227072   5.875   0.025   4.172
 8725SOL     OW27073   1.708   5.283   5.692
 8725SOL    HW127074   1.662   5.372   5.688
 8725SOL    HW227075   1.681   5.228   5.612
 8726SOL     OW27076   6.949   0.564   2.093
 8726SOL    HW127077   6.962   0.466   2.078
 8726SOL    HW227078   6.882   0.578   2.166
 8727SOL     OW27079   6.207   0.287   1.287
 8727SOL    HW127080   6.273   0.228   1.240
 8727SOL    HW227081   6.241   0.381   1.288
 8728SOL     OW27082   5.898   0.933   2.412
 8728SOL    HW127083   5.908   0.921   2.313
 8728SOL    HW227084   5.870   1.027   2.431
 8729SOL     OW27085   3.523   4.597   5.330
 8729SOL    HW127086   3.615   4.572   5.360
 8729SOL    HW227087   3.459   4.523   5.353
 8730SOL     OW27088   5.244   4.068   2.746
 8730SOL    HW127089   5.181   4.053   2.823
 8730SOL    HW227090   5.315   3.998   2.747
 8731SOL     OW27091   0.440   3.762   3.401
 8731SOL    HW127092   0.485   3.850   3.387
 8731SOL    HW227093   0.463   3.727   3.491
 8732SOL     OW27094   5.918   5.086   2.333
 8732SOL    HW127095   6.000   5.056   2.285
 8732SOL    HW227096   5.922   5.185   2.348
 8733SOL     OW27097   1.256   5.620   0.721
 8733SOL    HW127098   1.157   5.609   0.724
 8733SOL    HW227099   1.298   5.567   0.795
 8734SOL     OW27100   0.557   3.011   3.520
 8734SOL    HW127101   0.645   2.963   3.530
 8734SOL    HW227102   0.497   2.957   3.461
 8735SOL     OW27103   0.750   2.965   5.791
 8735SOL    HW127104   0.826   2.901   5.777
 8735SOL    HW227105   0.664   2.914   5.793
 8736SOL     OW27106   6.756   5.705   2.083
 8736SOL    HW127107   6.723   5.787   2.129
 8736SOL    HW227108   6.855   5.698   2.095
 8737SOL     OW27109   1.964   6.709   0.316
 8737SOL    HW127110   1.900   6.717   0.240
 8737SOL    HW227111   1.943   6.627   0.369
 8738SOL     OW27112   2.566   5.651   3.506
 8738SOL    HW127113   2.542   5.581   3.440
 8738SOL    HW227114   2.497   5.724   3.503
 8739SOL     OW27115   5.554   5.563   6.288
 8739SOL    HW127116   5.523   5.653   6.257
 8739SOL    HW227117   5.642   5.542   6.245
 8740SOL     OW27118   4.007   1.571   3.658
 8740SOL    HW127119   3.988   1.507   3.583
 8740SOL    HW227120   4.095   1.549   3.700
 8741SOL     OW27121   2.257   0.837   2.925
 8741SOL    HW127122   2.195   0.879   2.858
 8741SOL    HW227123   2.235   0.740   2.935
 8742SOL     OW27124   4.649   0.430   1.886
 8742SOL    HW127125   4.590   0.356   1.856
 8742SOL    HW227126   4.646   0.438   1.986
 8743SOL     OW27127   1.397   0.356   1.318
 8743SOL    HW127128   1.402   0.452   1.291
 8743SOL    HW227129   1.321   0.344   1.382
 8744SOL     OW27130   4.434   2.811   0.370
 8744SOL    HW127131   4.388   2.757   0.300
 8744SOL    HW227132   4.382   2.895   0.387
 8745SOL     OW27133   5.762   2.054   6.369
 8745SOL    HW127134   5.735   1.993   6.444
 8745SOL    HW227135   5.791   2.142   6.405
 8746SOL     OW27136   5.311   5.668   4.424
 8746SOL    HW127137   5.241   5.657   4.494
 8746SOL    HW227138   5.293   5.605   4.349
 8747SOL     OW27139   0.676   1.648   2.836
 8747SOL    HW127140   0.645   1.730   2.788
 8747SOL    HW227141   0.767   1.622   2.805
 8748SOL     OW27142   0.258   1.923   4.746
 8748SOL    HW127143   0.175   1.976   4.762
 8748SOL    HW227144   0.293   1.888   4.833
 8749SOL     OW27145   1.984   0.015   5.753
 8749SOL    HW127146   1.999   6.972   5.829
 8749SOL    HW227147   2.041   0.096   5.766
 8750SOL     OW27148   3.716   3.762   5.843
 8750SOL    HW127149   3.786   3.810   5.897
 8750SOL    HW227150   3.629   3.763   5.892
 8751SOL     OW27151   6.860   1.579   2.396
 8751SOL    HW127152   6.880   1.632   2.478
 8751SOL    HW227153   6.946   1.543   2.358
 8752SOL     OW27154   3.532   2.682   6.900
 8752SOL    HW127155   3.563   2.648   6.812
 8752SOL    HW227156   3.610   2.698   6.960
 8753SOL     OW27157   2.492   2.340   6.141
 8753SOL    HW127158   2.480   2.405   6.066
 8753SOL    HW227159   2.547   2.381   6.213
 8754SOL     OW27160   2.291   4.583   5.555
 8754SOL    HW127161   2.374   4.589   5.610
 8754SOL    HW227162   2.218   4.637   5.597
 8755SOL     OW27163   2.203   0.360   1.006
 8755SOL    HW127164   2.142   0.281   1.001
 8755SOL    HW227165   2.151   0.442   1.027
 8756SOL     OW27166   1.838   3.256   3.132
 8756SOL    HW127167   1.936   3.239   3.126
 8756SOL    HW227168   1.821   3.352   3.154
 8757SOL     OW27169   4.772   5.713   0.014
 8757SOL    HW127170   4.705   5.781   7.004
 8757SOL    HW227171   4.856   5.721   6.981
 8758SOL     OW27172   4.809   6.146   2.840
 8758SOL    HW127173   4.818   6.221   2.906
 8758SOL    HW227174   4.891   6.142   2.784
 8759SOL     OW27175   5.446   3.226   6.936
 8759SOL    HW127176   5.373   3.266   6.990
 8759SOL    HW227177   5.511   3.180   6.997
 8760SOL     OW27178   2.746   0.205   4.640
 8760SOL    HW127179   2.765   0.254   4.725
 8760SOL    HW227180   2.679   0.256   4.586
 8761SOL     OW27181   5.952   2.049   1.356
 8761SOL    HW127182   5.968   1.969   1.299
 8761SOL    HW227183   5.978   2.132   1.307
 8762SOL     OW27184   0.369   5.303   4.397
 8762SOL    HW127185   0.421   5.343   4.472
 8762SOL    HW227186   0.361   5.204   4.411
 8763SOL     OW27187   5.615   0.079   5.838
 8763SOL    HW127188   5.708   0.114   5.848
 8763SOL    HW227189   5.550   0.155   5.837
 8764SOL     OW27190   4.434   6.647   5.833
 8764SOL    HW127191   4.427   6.736   5.879
 8764SOL    HW227192   4.437   6.661   5.734
 8765SOL     OW27193   5.340   0.883   4.495
 8765SOL    HW127194   5.283   0.810   4.531
 8765SOL    HW227195   5.372   0.858   4.403
 8766SOL     OW27196   4.370   4.280   5.284
 8766SOL    HW127197   4.304   4.345   5.246
 8766SOL    HW227198   4.322   4.211   5.338
 8767SOL     OW27199   4.969   6.547   3.148
 8767SOL    HW127200   4.939   6.563   3.242
 8767SOL    HW227201   4.972   6.634   3.099
 8768SOL     OW27202   1.021   2.863   0.605
 8768SOL    HW127203   1.104   2.824   0.566
 8768SOL    HW227204   1.044   2.923   0.681
 8769SOL     OW27205   6.999   1.252   2.889
 8769SOL    HW127206   6.946   1.252   2.973
 8769SOL    HW227207   7.013   1.158   2.858
 8770SOL     OW27208   4.698   4.424   2.296
 8770SOL    HW127209   4.717   4.375   2.382
 8770SOL    HW227210   4.755   4.385   2.223
 8771SOL     OW27211   1.379   2.194   6.195
 8771SOL    HW127212   1.320   2.142   6.133
 8771SOL    HW227213   1.394   2.141   6.278
 8772SOL     OW27214   4.420   0.333   6.473
 8772SOL    HW127215   4.332   0.368   6.506
 8772SOL    HW227216   4.423   0.234   6.487
 8773SOL     OW27217   5.946   2.362   3.416
 8773SOL    HW127218   5.855   2.366   3.458
 8773SOL    HW227219   5.950   2.426   3.340
 8774SOL     OW27220   1.276   0.154   0.263
 8774SOL    HW127221   1.179   0.151   0.238
 8774SOL    HW227222   1.322   0.226   0.211
 8775SOL     OW27223   5.413   0.973   5.675
 8775SOL    HW127224   5.513   0.975   5.673
 8775SOL    HW227225   5.377   1.046   5.616
 8776SOL     OW27226   4.729   3.684   1.109
 8776SOL    HW127227   4.634   3.712   1.093
 8776SOL    HW227228   4.767   3.736   1.185
 8777SOL     OW27229   6.559   4.365   3.322
 8777SOL    HW127230   6.620   4.287   3.315
 8777SOL    HW227231   6.611   4.445   3.352
 8778SOL     OW27232   5.199   2.348   5.781
 8778SOL    HW127233   5.232   2.381   5.869
 8778SOL    HW227234   5.105   2.381   5.766
 8779SOL     OW27235   2.407   5.667   2.566
 8779SOL    HW127236   2.333   5.681   2.632
 8779SOL    HW227237   2.488   5.633   2.613
 8780SOL     OW27238   0.255   6.996   2.983
 8780SOL    HW127239   0.173   0.032   2.983
 8780SOL    HW227240   0.336   0.033   2.971
 8781SOL     OW27241   4.978   0.551   3.803
 8781SOL    HW127242   4.942   0.641   3.827
 8781SOL    HW227243   4.926   0.515   3.725
 8782SOL     OW27244   6.642   0.760   1.343
 8782SOL    HW127245   6.600   0.713   1.421
 8782SOL    HW227246   6.617   0.857   1.346
 8783SOL     OW27247   6.836   4.240   3.288
 8783SOL    HW127248   6.851   4.180   3.208
 8783SOL    HW227249   6.839   4.185   3.371
 8784SOL     OW27250   6.764   6.483   5.919
 8784SOL    HW127251   6.686   6.516   5.866
 8784SOL    HW227252   6.776   6.541   6.000
 8785SOL     OW27253   6.642   5.288   6.620
 8785SOL    HW127254   6.702   5.286   6.701
 8785SOL    HW227255   6.580   5.366   6.626
 8786SOL     OW27256   2.985   1.314   1.267
 8786SOL    HW127257   3.065   1.318   1.207
 8786SOL    HW227258   2.909   1.363   1.225
 8787SOL     OW27259   3.178   0.701   2.331
 8787SOL    HW127260   3.184   0.673   2.235
 8787SOL    HW227261   3.187   0.621   2.390
 8788SOL     OW27262   0.280   1.322   5.255
 8788SOL    HW127263   0.196   1.306   5.306
 8788SOL    HW227264   0.308   1.238   5.208
 8789SOL     OW27265   6.403   4.965   5.513
 8789SOL    HW127266   6.333   4.973   5.583
 8789SOL    HW227267   6.375   5.016   5.432
 8790SOL     OW27268   6.111   1.085   6.255
 8790SOL    HW127269   6.096   1.184   6.259
 8790SOL    HW227270   6.209   1.067   6.248
 8791SOL     OW27271   4.722   6.602   4.717
 8791SOL    HW127272   4.800   6.665   4.715
 8791SOL    HW227273   4.657   6.631   4.788
 8792SOL     OW27274   3.335   5.217   2.953
 8792SOL    HW127275   3.383   5.263   2.878
 8792SOL    HW227276   3.395   5.147   2.992
 8793SOL     OW27277   0.703   5.128   2.658
 8793SOL    HW127278   0.638   5.138   2.583
 8793SOL    HW227279   0.707   5.212   2.711
 8794SOL     OW27280   5.726   0.891   2.996
 8794SOL    HW127281   5.642   0.933   3.030
 8794SOL    HW227282   5.719   0.792   3.002
 8795SOL     OW27283   1.217   4.647   5.444
 8795SOL    HW127284   1.260   4.724   5.491
 8795SOL    HW227285   1.286   4.579   5.421
 8796SOL     OW27286   5.639   2.569   2.906
 8796SOL    HW127287   5.557   2.523   2.871
 8796SOL    HW227288   5.624   2.596   3.001
 8797SOL     OW27289   0.370   0.173   6.028
 8797SOL    HW127290   0.296   0.174   5.961
 8797SOL    HW227291   0.337   0.130   6.112
 8798SOL     OW27292   4.437   6.299   6.807
 8798SOL    HW127293   4.479   6.372   6.860
 8798SOL    HW227294   4.506   6.229   6.787
 8799SOL     OW27295   2.484   5.012   3.523
 8799SOL    HW127296   2.424   5.071   3.576
 8799SOL    HW227297   2.580   5.035   3.543
 8800SOL     OW27298   5.275   5.145   6.472
 8800SOL    HW127299   5.358   5.185   6.433
 8800SOL    HW227300   5.214   5.218   6.503
 8801SOL     OW27301   6.065   1.705   4.585
 8801SOL    HW127302   6.091   1.627   4.642
 8801SOL    HW227303   5.998   1.676   4.518
 8802SOL     OW27304   1.587   5.619   5.942
 8802SOL    HW127305   1.506   5.678   5.944
 8802SOL    HW227306   1.611   5.592   6.035
 8803SOL     OW27307   0.157   0.163   0.133
 8803SOL    HW127308   0.068   0.134   0.169
 8803SOL    HW227309   0.159   0.263   0.127
 8804SOL     OW27310   2.505   5.900   1.292
 8804SOL    HW127311   2.518   5.834   1.218
 8804SOL    HW227312   2.587   5.901   1.350
 8805SOL     OW27313   3.940   5.394   2.983
 8805SOL    HW127314   3.980   5.365   2.896
 8805SOL    HW227315   3.978   5.340   3.058
 8806SOL     OW27316   2.653   5.103   0.716
 8806SOL    HW127317   2.580   5.147   0.662
 8806SOL    HW227318   2.651   5.004   0.699
 8807SOL     OW27319   4.401   1.602   0.281
 8807SOL    HW127320   4.392   1.523   0.341
 8807SOL    HW227321   4.472   1.663   0.316
 8808SOL     OW27322   6.861   2.285   5.954
 8808SOL    HW127323   6.832   2.291   5.858
 8808SOL    HW227324   6.823   2.203   5.995
 8809SOL     OW27325   2.722   4.681   3.454
 8809SOL    HW127326   2.811   4.727   3.453
 8809SOL    HW227327   2.671   4.704   3.371
 8810SOL     OW27328   5.817   0.514   4.847
 8810SOL    HW127329   5.777   0.575   4.916
 8810SOL    HW227330   5.848   0.568   4.769
 8811SOL     OW27331   2.794   0.377   3.286
 8811SOL    HW127332   2.774   0.355   3.382
 8811SOL    HW227333   2.888   0.410   3.278
 8812SOL     OW27334   2.406   0.309   0.574
 8812SOL    HW127335   2.375   0.263   0.491
 8812SOL    HW227336   2.353   0.392   0.587
 8813SOL     OW27337   1.811   5.095   2.909
 8813SOL    HW127338   1.877   5.168   2.928
 8813SOL    HW227339   1.731   5.106   2.968
 8814SOL     OW27340   5.942   0.227   0.520
 8814SOL    HW127341   6.006   0.304   0.511
 8814SOL    HW227342   5.960   0.178   0.605
 8815SOL     OW27343   5.581   7.009   1.380
 8815SOL    HW127344   5.541   6.995   1.470
 8815SOL    HW227345   5.584   6.922   1.330
 8816SOL     OW27346   0.954   6.479   6.486
 8816SOL    HW127347   1.009   6.473   6.403
 8816SOL    HW227348   0.902   6.395   6.499
 8817SOL     OW27349   0.044   4.222   3.624
 8817SOL    HW127350   0.103   4.158   3.573
 8817SOL    HW227351   0.101   4.276   3.686
 8818SOL     OW27352   1.082   5.816   4.064
 8818SOL    HW127353   1.040   5.904   4.087
 8818SOL    HW227354   1.040   5.779   3.982
 8819SOL     OW27355   6.272   4.705   5.574
 8819SOL    HW127356   6.335   4.629   5.587
 8819SOL    HW227357   6.306   4.763   5.499
 8820SOL     OW27358   2.745   1.004   5.118
 8820SOL    HW127359   2.771   1.001   5.021
 8820SOL    HW227360   2.646   0.996   5.126
 8821SOL     OW27361   1.577   5.869   0.810
 8821SOL    HW127362   1.567   5.790   0.871
 8821SOL    HW227363   1.496   5.928   0.820
 8822SOL     OW27364   0.732   0.780   3.518
 8822SOL    HW127365   0.645   0.754   3.558
 8822SOL    HW227366   0.735   0.752   3.422
 8823SOL     OW27367   1.889   1.278   2.038
 8823SOL    HW127368   1.835   1.307   2.116
 8823SOL    HW227369   1.979   1.246   2.069
 8824SOL     OW27370   1.619   0.943   0.573
 8824SOL    HW127371   1.650   0.854   0.541
 8824SOL    HW227372   1.695   1.009   0.566
 8825SOL     OW27373   1.435   1.540   1.498
 8825SOL    HW127374   1.507   1.527   1.567
 8825SOL    HW227375   1.440   1.633   1.463
 8826SOL     OW27376   0.757   3.665   1.174
 8826SOL    HW127377   0.818   3.671   1.095
 8826SOL    HW227378   0.750   3.755   1.218
 8827SOL     OW27379   4.211   0.509   3.105
 8827SOL    HW127380   4.273   0.567   3.052
 8827SOL    HW227381   4.224   0.413   3.078
 8828SOL     OW27382   4.205   4.818   6.896
 8828SOL    HW127383   4.162   4.808   6.986
 8828SOL    HW227384   4.175   4.743   6.837
 8829SOL     OW27385   5.633   1.602   1.307
 8829SOL    HW127386   5.724   1.624   1.272
 8829SOL    HW227387   5.567   1.603   1.231
 8830SOL     OW27388   2.216   1.467   2.819
 8830SOL    HW127389   2.191   1.542   2.756
 8830SOL    HW227390   2.210   1.380   2.770
 8831SOL     OW27391   5.978   2.550   2.761
 8831SOL    HW127392   5.948   2.638   2.797
 8831SOL    HW227393   5.898   2.492   2.743
 8832SOL     OW27394   6.233   5.901   3.823
 8832SOL    HW127395   6.205   5.977   3.764
 8832SOL    HW227396   6.324   5.869   3.795
 8833SOL     OW27397   3.654   4.521   6.197
 8833SOL    HW127398   3.581   4.528   6.266
 8833SOL    HW227399   3.648   4.433   6.151
 8834SOL     OW27400   5.543   3.772   4.510
 8834SOL    HW127401   5.483   3.727   4.444
 8834SOL    HW227402   5.529   3.871   4.506
 8835SOL     OW27403   5.131   0.861   6.173
 8835SOL    HW127404   5.223   0.832   6.200
 8835SOL    HW227405   5.137   0.943   6.116
 8836SOL     OW27406   4.816   1.761   1.231
 8836SOL    HW127407   4.806   1.849   1.278
 8836SOL    HW227408   4.785   1.687   1.291
 8837SOL     OW27409   0.248   6.925   2.699
 8837SOL    HW127410   0.201   6.894   2.617
 8837SOL    HW227411   0.185   6.920   2.777
 8838SOL     OW27412   1.805   4.258   3.669
 8838SOL    HW127413   1.880   4.236   3.731
 8838SOL    HW227414   1.821   4.348   3.627
 8839SOL     OW27415   4.032   6.663   2.269
 8839SOL    HW127416   4.123   6.677   2.307
 8839SOL    HW227417   4.040   6.626   2.177
 8840SOL     OW27418   0.223   0.642   2.152
 8840SOL    HW127419   0.214   0.740   2.136
 8840SOL    HW227420   0.144   0.595   2.114
 8841SOL     OW27421   6.288   1.625   3.733
 8841SOL    HW127422   6.237   1.563   3.794
 8841SOL    HW227423   6.229   1.653   3.658
 8842SOL     OW27424   3.150   3.567   3.490
 8842SOL    HW127425   3.162   3.658   3.450
 8842SOL    HW227426   3.064   3.564   3.541
 8843SOL     OW27427   1.746   3.600   3.904
 8843SOL    HW127428   1.807   3.680   3.903
 8843SOL    HW227429   1.671   3.616   3.968
 8844SOL     OW27430   6.191   1.178   4.872
 8844SOL    HW127431   6.269   1.166   4.935
 8844SOL    HW227432   6.117   1.224   4.920
 8845SOL     OW27433   2.468   4.223   0.621
 8845SOL    HW127434   2.406   4.149   0.593
 8845SOL    HW227435   2.464   4.233   0.720
 8846SOL     OW27436   3.538   4.975   4.396
 8846SOL    HW127437   3.438   4.980   4.396
 8846SOL    HW227438   3.570   4.941   4.484
 8847SOL     OW27439   2.580   1.184   3.302
 8847SOL    HW127440   2.564   1.207   3.206
 8847SOL    HW227441   2.608   1.089   3.310
 8848SOL     OW27442   3.133   2.160   2.475
 8848SOL    HW127443   3.078   2.081   2.503
 8848SOL    HW227444   3.088   2.206   2.399
 8849SOL     OW27445   3.693   4.947   3.001
 8849SOL    HW127446   3.631   5.007   3.051
 8849SOL    HW227447   3.749   4.896   3.067
 8850SOL     OW27448   2.589   0.747   0.201
 8850SOL    HW127449   2.599   0.727   0.299
 8850SOL    HW227450   2.662   0.702   0.150
 8851SOL     OW27451   1.083   5.033   1.795
 8851SOL    HW127452   1.121   4.950   1.754
 8851SOL    HW227453   1.139   5.112   1.769
 8852SOL     OW27454   4.260   3.869   5.895
 8852SOL    HW127455   4.260   3.907   5.802
 8852SOL    HW227456   4.340   3.902   5.945
 8853SOL     OW27457   3.396   0.421   5.841
 8853SOL    HW127458   3.307   0.380   5.821
 8853SOL    HW227459   3.438   0.453   5.757
 8854SOL     OW27460   3.465   1.262   6.312
 8854SOL    HW127461   3.520   1.331   6.266
 8854SOL    HW227462   3.405   1.217   6.246
 8855SOL     OW27463   6.496   6.211   0.276
 8855SOL    HW127464   6.575   6.246   0.327
 8855SOL    HW227465   6.416   6.268   0.294
 8856SOL     OW27466   6.590   0.900   6.155
 8856SOL    HW127467   6.542   0.986   6.169
 8856SOL    HW227468   6.671   0.915   6.098
 8857SOL     OW27469   6.612   2.349   4.103
 8857SOL    HW127470   6.712   2.346   4.106
 8857SOL    HW227471   6.575   2.285   4.170
 8858SOL     OW27472   1.213   2.296   5.769
 8858SOL    HW127473   1.122   2.276   5.733
 8858SOL    HW227474   1.283   2.265   5.704
 8859SOL     OW27475   0.091   0.816   4.315
 8859SOL    HW127476   0.069   0.732   4.265
 8859SOL    HW227477   0.060   0.895   4.263
 8860SOL     OW27478   1.115   3.790   3.256
 8860SOL    HW127479   1.053   3.713   3.242
 8860SOL    HW227480   1.179   3.795   3.179
 8861SOL     OW27481   3.678   1.773   5.914
 8861SOL    HW127482   3.692   1.793   5.817
 8861SOL    HW227483   3.759   1.800   5.966
 8862SOL     OW27484   5.898   0.486   3.221
 8862SOL    HW127485   5.894   0.582   3.250
 8862SOL    HW227486   5.952   0.434   3.287
 8863SOL     OW27487   1.444   5.818   4.216
 8863SOL    HW127488   1.392   5.889   4.169
 8863SOL    HW227489   1.392   5.733   4.215
 8864SOL     OW27490   2.159   2.690   6.427
 8864SOL    HW127491   2.124   2.693   6.334
 8864SOL    HW227492   2.137   2.776   6.474
 8865SOL     OW27493   3.298   1.651   6.009
 8865SOL    HW127494   3.297   1.712   5.929
 8865SOL    HW227495   3.231   1.578   5.995
 8866SOL     OW27496   5.032   7.001   3.644
 8866SOL    HW127497   5.089   6.951   3.709
 8866SOL    HW227498   4.963   0.032   3.694
 8867SOL     OW27499   5.234   3.869   2.371
 8867SOL    HW127500   5.189   3.948   2.330
 8867SOL    HW227501   5.310   3.900   2.428
 8868SOL     OW27502   6.704   3.543   0.447
 8868SOL    HW127503   6.606   3.558   0.436
 8868SOL    HW227504   6.720   3.449   0.479
 8869SOL     OW27505   4.442   5.875   4.342
 8869SOL    HW127506   4.447   5.808   4.268
 8869SOL    HW227507   4.378   5.948   4.318
 8870SOL     OW27508   4.378   0.355   0.681
 8870SOL    HW127509   4.289   0.353   0.637
 8870SOL    HW227510   4.449   0.337   0.613
 8871SOL     OW27511   1.222   0.945   3.743
 8871SOL    HW127512   1.134   0.969   3.703
 8871SOL    HW227513   1.217   0.854   3.784
 8872SOL     OW27514   1.581   4.728   5.096
 8872SOL    HW127515   1.525   4.808   5.078
 8872SOL    HW227516   1.549   4.651   5.040
 8873SOL     OW27517   0.422   5.636   1.954
 8873SOL    HW127518   0.382   5.560   2.006
 8873SOL    HW227519   0.510   5.608   1.917
 8874SOL     OW27520   2.974   6.502   1.730
 8874SOL    HW127521   2.947   6.422   1.676
 8874SOL    HW227522   3.055   6.544   1.689
 8875SOL     OW27523   6.073   3.622   4.467
 8875SOL    HW127524   6.129   3.658   4.542
 8875SOL    HW227525   6.114   3.647   4.379
 8876SOL     OW27526   1.834   0.381   4.225
 8876SOL    HW127527   1.839   0.299   4.282
 8876SOL    HW227528   1.798   0.357   4.135
 8877SOL     OW27529   2.326   1.724   4.192
 8877SOL    HW127530   2.424   1.713   4.208
 8877SOL    HW227531   2.306   1.713   4.095
 8878SOL     OW27532   6.807   5.885   0.335
 8878SOL    HW127533   6.820   5.897   0.434
 8878SOL    HW227534   6.866   5.811   0.303
 8879SOL     OW27535   5.266   4.846   1.953
 8879SOL    HW127536   5.318   4.835   1.868
 8879SOL    HW227537   5.244   4.757   1.991
 8880SOL     OW27538   5.915   5.115   4.723
 8880SOL    HW127539   5.863   5.162   4.652
 8880SOL    HW227540   5.869   5.030   4.748
 8881SOL     OW27541   6.563   6.739   5.046
 8881SOL    HW127542   6.519   6.814   5.095
 8881SOL    HW227543   6.509   6.714   4.965
 8882SOL     OW27544   5.461   1.640   1.035
 8882SOL    HW127545   5.380   1.682   1.076
 8882SOL    HW227546   5.433   1.559   0.983
 8883SOL     OW27547   2.083   6.679   5.483
 8883SOL    HW127548   2.113   6.620   5.407
 8883SOL    HW227549   2.069   6.772   5.450
 8884SOL     OW27550   5.922   4.778   6.479
 8884SOL    HW127551   5.859   4.854   6.464
 8884SOL    HW227552   6.015   4.808   6.460
 8885SOL     OW27553   0.467   3.337   0.688
 8885SOL    HW127554   0.535   3.318   0.759
 8885SOL    HW227555   0.380   3.362   0.731
 8886SOL     OW27556   3.815   5.930   5.403
 8886SOL    HW127557   3.799   5.839   5.365
 8886SOL    HW227558   3.909   5.959   5.382
 8887SOL     OW27559   3.195   1.666   1.722
 8887SOL    HW127560   3.178   1.569   1.709
 8887SOL    HW227561   3.132   1.703   1.791
 8888SOL     OW27562   1.417   1.675   0.488
 8888SOL    HW127563   1.515   1.654   0.487
 8888SOL    HW227564   1.394   1.727   0.570
 8889SOL     OW27565   5.649   0.271   5.176
 8889SOL    HW127566   5.576   0.204   5.160
 8889SOL    HW227567   5.661   0.284   5.274
 8890SOL     OW27568   6.209   5.303   3.933
 8890SOL    HW127569   6.226   5.207   3.955
 8890SOL    HW227570   6.143   5.342   3.998
 8891SOL     OW27571   5.239   3.532   5.541
 8891SOL    HW127572   5.260   3.550   5.637
 8891SOL    HW227573   5.279   3.603   5.484
 8892SOL     OW27574   3.845   5.784   3.226
 8892SOL    HW127575   3.835   5.882   3.204
 8892SOL    HW227576   3.819   5.730   3.146
 8893SOL     OW27577   0.756   6.959   2.352
 8893SOL    HW127578   0.799   6.943   2.440
 8893SOL    HW227579   0.673   6.902   2.345
 8894SOL     OW27580   3.827   2.505   5.607
 8894SOL    HW127581   3.855   2.423   5.655
 8894SOL    HW227582   3.905   2.566   5.596
 8895SOL     OW27583   6.747   1.771   1.423
 8895SOL    HW127584   6.664   1.745   1.472
 8895SOL    HW227585   6.753   1.719   1.338
 8896SOL     OW27586   1.475   3.324   5.586
 8896SOL    HW127587   1.564   3.296   5.550
 8896SOL    HW227588   1.488   3.401   5.648
 8897SOL     OW27589   1.606   2.891   3.407
 8897SOL    HW127590   1.679   2.959   3.397
 8897SOL    HW227591   1.625   2.812   3.348
 8898SOL     OW27592   5.433   3.928   3.955
 8898SOL    HW127593   5.416   4.005   3.894
 8898SOL    HW227594   5.347   3.895   3.993
 8899SOL     OW27595   1.943   4.709   6.881
 8899SOL    HW127596   1.882   4.630   6.881
 8899SOL    HW227597   2.038   4.677   6.884
 8900SOL     OW27598   5.938   2.828   2.141
 8900SOL    HW127599   6.012   2.893   2.124
 8900SOL    HW227600   5.928   2.814   2.240
 8901SOL     OW27601   1.766   1.532   4.393
 8901SOL    HW127602   1.796   1.493   4.307
 8901SOL    HW227603   1.800   1.477   4.469
 8902SOL     OW27604   2.772   6.854   0.779
 8902SOL    HW127605   2.835   6.872   0.704
 8902SOL    HW227606   2.696   6.799   0.746
 8903SOL     OW27607   0.789   1.701   4.559
 8903SOL    HW127608   0.721   1.629   4.549
 8903SOL    HW227609   0.879   1.660   4.575
 8904SOL     OW27610   5.818   5.637   3.763
 8904SOL    HW127611   5.768   5.603   3.683
 8904SOL    HW227612   5.916   5.630   3.747
 8905SOL     OW27613   2.058   4.221   4.168
 8905SOL    HW127614   2.122   4.279   4.219
 8905SOL    HW227615   2.108   4.144   4.129
 8906SOL     OW27616   6.650   6.751   6.911
 8906SOL    HW127617   6.647   6.834   6.856
 8906SOL    HW227618   6.679   6.774   7.004
 8907SOL     OW27619   3.155   2.132   4.401
 8907SOL    HW127620   3.222   2.134   4.326
 8907SOL    HW227621   3.066   2.105   4.366
 8908SOL     OW27622   1.091   3.603   6.890
 8908SOL    HW127623   1.096   3.514   6.844
 8908SOL    HW227624   1.045   3.669   6.831
 8909SOL     OW27625   1.967   0.300   5.664
 8909SOL    HW127626   1.896   0.229   5.662
 8909SOL    HW227627   1.927   0.386   5.695
 8910SOL     OW27628   0.917   2.763   5.761
 8910SOL    HW127629   0.945   2.686   5.819
 8910SOL    HW227630   0.981   2.773   5.685
 8911SOL     OW27631   4.412   2.327   4.826
 8911SOL    HW127632   4.474   2.388   4.776
 8911SOL    HW227633   4.358   2.380   4.891
 8912SOL     OW27634   4.018   2.429   0.727
 8912SOL    HW127635   4.089   2.370   0.764
 8912SOL    HW227636   3.947   2.373   0.684
 8913SOL     OW27637   4.977   5.047   6.944
 8913SOL    HW127638   5.072   5.017   6.962
 8913SOL    HW227639   4.940   4.994   6.868
 8914SOL     OW27640   3.733   0.808   5.019
 8914SOL    HW127641   3.664   0.846   4.957
 8914SOL    HW227642   3.820   0.856   5.007
 8915SOL     OW27643   1.082   2.786   3.692
 8915SOL    HW127644   1.143   2.728   3.638
 8915SOL    HW227645   1.135   2.862   3.732
 8916SOL     OW27646   6.950   4.161   0.604
 8916SOL    HW127647   6.942   4.066   0.635
 8916SOL    HW227648   7.018   4.208   0.659
 8917SOL     OW27649   6.403   4.358   6.528
 8917SOL    HW127650   6.452   4.318   6.451
 8917SOL    HW227651   6.430   4.312   6.613
 8918SOL     OW27652   6.878   3.835   0.849
 8918SOL    HW127653   6.926   3.822   0.936
 8918SOL    HW227654   6.828   3.752   0.825
 8919SOL     OW27655   3.958   3.715   0.754
 8919SOL    HW127656   3.942   3.788   0.689
 8919SOL    HW227657   3.912   3.736   0.840
 8920SOL     OW27658   1.257   6.683   6.949
 8920SOL    HW127659   1.203   6.625   6.888
 8920SOL    HW227660   1.232   6.664   0.023
 8921SOL     OW27661   2.527   2.070   2.913
 8921SOL    HW127662   2.524   1.990   2.971
 8921SOL    HW227663   2.622   2.098   2.899
 8922SOL     OW27664   3.730   5.076   1.121
 8922SOL    HW127665   3.701   5.052   1.213
 8922SOL    HW227666   3.721   4.996   1.061
 8923SOL     OW27667   1.282   2.924   6.166
 8923SOL    HW127668   1.313   2.840   6.122
 8923SOL    HW227669   1.327   2.933   6.255
 8924SOL     OW27670   3.202   5.768   5.816
 8924SOL    HW127671   3.130   5.698   5.812
 8924SOL    HW227672   3.173   5.843   5.876
 8925SOL     OW27673   0.582   1.270   2.745
 8925SOL    HW127674   0.522   1.325   2.804
 8925SOL    HW227675   0.657   1.233   2.799
 8926SOL     OW27676   5.904   3.969   6.242
 8926SOL    HW127677   6.000   3.961   6.267
 8926SOL    HW227678   5.852   4.006   6.320
 8927SOL     OW27679   1.294   1.719   4.461
 8927SOL    HW127680   1.382   1.728   4.415
 8927SOL    HW227681   1.240   1.647   4.417
 8928SOL     OW27682   0.126   0.784   6.074
 8928SOL    HW127683   0.159   0.834   5.994
 8928SOL    HW227684   0.029   0.804   6.087
 8929SOL     OW27685   6.742   3.466   4.157
 8929SOL    HW127686   6.734   3.501   4.064
 8929SOL    HW227687   6.836   3.437   4.174
 8930SOL     OW27688   1.868   3.947   4.523
 8930SOL    HW127689   1.934   3.980   4.590
 8930SOL    HW227690   1.782   3.995   4.534
 8931SOL     OW27691   2.912   2.772   1.454
 8931SOL    HW127692   2.945   2.851   1.403
 8931SOL    HW227693   2.835   2.730   1.406
 8932SOL     OW27694   5.231   0.230   0.559
 8932SOL    HW127695   5.216   0.292   0.636
 8932SOL    HW227696   5.319   0.185   0.569
 8933SOL     OW27697   1.451   2.810   5.978
 8933SOL    HW127698   1.536   2.814   6.031
 8933SOL    HW227699   1.464   2.752   5.898
 8934SOL     OW27700   2.922   5.142   4.383
 8934SOL    HW127701   2.905   5.108   4.291
 8934SOL    HW227702   2.890   5.076   4.450
 8935SOL     OW27703   5.829   3.629   1.415
 8935SOL    HW127704   5.746   3.650   1.466
 8935SOL    HW227705   5.829   3.680   1.329
 8936SOL     OW27706   1.177   3.682   1.257
 8936SOL    HW127707   1.264   3.725   1.283
 8936SOL    HW227708   1.107   3.706   1.324
 8937SOL     OW27709   0.175   0.333   4.529
 8937SOL    HW127710   0.111   0.403   4.496
 8937SOL    HW227711   0.254   0.378   4.572
 8938SOL     OW27712   6.822   1.027   0.245
 8938SOL    HW127713   6.798   1.113   0.290
 8938SOL    HW227714   6.913   0.998   0.273
 8939SOL     OW27715   5.847   3.567   4.292
 8939SOL    HW127716   5.928   3.572   4.351
 8939SOL    HW227717   5.800   3.655   4.293
 8940SOL     OW27718   5.938   1.525   1.437
 8940SOL    HW127719   5.847   1.509   1.476
 8940SOL    HW227720   6.001   1.456   1.472
 8941SOL     OW27721   6.402   2.486   2.932
 8941SOL    HW127722   6.373   2.427   3.007
 8941SOL    HW227723   6.367   2.450   2.846
 8942SOL     OW27724   0.913   5.652   5.244
 8942SOL    HW127725   0.965   5.608   5.317
 8942SOL    HW227726   0.896   5.748   5.269
 8943SOL     OW27727   4.104   5.201   0.121
 8943SOL    HW127728   4.163   5.152   0.186
 8943SOL    HW227729   4.065   5.281   0.165
 8944SOL     OW27730   4.982   5.885   4.902
 8944SOL    HW127731   4.926   5.802   4.905
 8944SOL    HW227732   5.068   5.868   4.951
 8945SOL     OW27733   6.987   2.271   4.409
 8945SOL    HW127734   0.050   2.325   4.405
 8945SOL    HW227735   6.982   2.211   4.329
 8946SOL     OW27736   3.565   1.132   4.406
 8946SOL    HW127737   3.509   1.074   4.348
 8946SOL    HW227738   3.569   1.094   4.499
 8947SOL     OW27739   1.842   3.213   5.751
 8947SOL    HW127740   1.778   3.213   5.827
 8947SOL    HW227741   1.796   3.243   5.668
 8948SOL     OW27742   5.706   6.123   3.230
 8948SOL    HW127743   5.609   6.123   3.255
 8948SOL    HW227744   5.746   6.034   3.249
 8949SOL     OW27745   3.928   5.866   0.518
 8949SOL    HW127746   3.977   5.913   0.445
 8949SOL    HW227747   3.984   5.792   0.555
 8950SOL     OW27748   4.346   2.820   0.862
 8950SOL    HW127749   4.366   2.751   0.792
 8950SOL    HW227750   4.417   2.891   0.861
 8951SOL     OW27751   2.137   0.856   4.774
 8951SOL    HW127752   2.163   0.804   4.855
 8951SOL    HW227753   2.048   0.825   4.742
 8952SOL     OW27754   0.694   5.241   3.550
 8952SOL    HW127755   0.644   5.185   3.484
 8952SOL    HW227756   0.688   5.337   3.523
 8953SOL     OW27757   0.576   4.819   0.980
 8953SOL    HW127758   0.514   4.762   1.035
 8953SOL    HW227759   0.671   4.793   1.000
 8954SOL     OW27760   0.050   0.060   4.101
 8954SOL    HW127761   6.998   0.071   4.032
 8954SOL    HW227762   0.130   0.019   4.058
 8955SOL     OW27763   6.760   4.859   3.168
 8955SOL    HW127764   6.763   4.926   3.242
 8955SOL    HW227765   6.672   4.813   3.168
 8956SOL     OW27766   1.498   1.092   5.231
 8956SOL    HW127767   1.549   1.060   5.310
 8956SOL    HW227768   1.427   1.026   5.207
 8957SOL     OW27769   2.202   4.434   1.144
 8957SOL    HW127770   2.132   4.505   1.152
 8957SOL    HW227771   2.240   4.414   1.234
 8958SOL     OW27772   0.782   2.477   5.639
 8958SOL    HW127773   0.864   2.515   5.595
 8958SOL    HW227774   0.804   2.389   5.680
 8959SOL     OW27775   1.845   4.313   2.814
 8959SOL    HW127776   1.825   4.230   2.866
 8959SOL    HW227777   1.933   4.351   2.844
 8960SOL     OW27778   5.404   5.305   3.991
 8960SOL    HW127779   5.331   5.281   3.927
 8960SOL    HW227780   5.471   5.364   3.945
 8961SOL     OW27781   3.579   1.300   4.170
 8961SOL    HW127782   3.584   1.262   4.262
 8961SOL    HW227783   3.594   1.227   4.103
 8962SOL     OW27784   6.448   5.126   1.702
 8962SOL    HW127785   6.466   5.035   1.738
 8962SOL    HW227786   6.423   5.120   1.605
 8963SOL     OW27787   3.662   6.258   4.829
 8963SOL    HW127788   3.695   6.308   4.750
 8963SOL    HW227789   3.612   6.177   4.799
 8964SOL     OW27790   6.193   2.983   2.839
 8964SOL    HW127791   6.168   2.892   2.804
 8964SOL    HW227792   6.286   2.981   2.874
 8965SOL     OW27793   2.973   5.300   6.914
 8965SOL    HW127794   2.986   5.399   6.911
 8965SOL    HW227795   3.061   5.255   6.903
 8966SOL     OW27796   6.890   4.437   0.498
 8966SOL    HW127797   6.797   4.471   0.487
 8966SOL    HW227798   6.888   4.337   0.509
 8967SOL     OW27799   4.020   1.010   2.287
 8967SOL    HW127800   3.920   1.010   2.288
 8967SOL    HW227801   4.053   0.942   2.352
 8968SOL     OW27802   4.097   6.279   2.389
 8968SOL    HW127803   4.168   6.287   2.320
 8968SOL    HW227804   4.067   6.184   2.395
 8969SOL     OW27805   0.264   0.181   3.296
 8969SOL    HW127806   0.224   0.089   3.290
 8969SOL    HW227807   0.217   0.233   3.366
 8970SOL     OW27808   1.813   2.408   6.242
 8970SOL    HW127809   1.732   2.401   6.184
 8970SOL    HW227810   1.894   2.381   6.189
 8971SOL     OW27811   5.399   6.215   1.413
 8971SOL    HW127812   5.391   6.301   1.362
 8971SOL    HW227813   5.470   6.158   1.372
 8972SOL     OW27814   4.888   3.995   0.743
 8972SOL    HW127815   4.983   4.021   0.755
 8972SOL    HW227816   4.852   3.960   0.830
 8973SOL     OW27817   6.811   2.775   2.779
 8973SOL    HW127818   6.777   2.763   2.686
 8973SOL    HW227819   6.738   2.752   2.844
 8974SOL     OW27820   1.801   3.552   3.649
 8974SOL    HW127821   1.779   3.579   3.743
 8974SOL    HW227822   1.897   3.571   3.631
 8975SOL     OW27823   0.549   6.091   6.792
 8975SOL    HW127824   0.588   6.014   6.742
 8975SOL    HW227825   0.616   6.165   6.798
 8976SOL     OW27826   6.968   5.672   0.211
 8976SOL    HW127827   6.948   5.593   0.270
 8976SOL    HW227828   7.014   5.640   0.128
 8977SOL     OW27829   6.804   3.673   6.734
 8977SOL    HW127830   6.739   3.732   6.780
 8977SOL    HW227831   6.865   3.728   6.677
 8978SOL     OW27832   5.934   7.019   4.836
 8978SOL    HW127833   5.907   0.095   4.837
 8978SOL    HW227834   5.990   7.002   4.755
 8979SOL     OW27835   1.514   4.675   6.164
 8979SOL    HW127836   1.525   4.701   6.068
 8979SOL    HW227837   1.567   4.592   6.182
 8980SOL     OW27838   5.178   2.691   5.587
 8980SOL    HW127839   5.276   2.675   5.583
 8980SOL    HW227840   5.140   2.687   5.495
 8981SOL     OW27841   4.828   1.895   5.694
 8981SOL    HW127842   4.776   1.979   5.683
 8981SOL    HW227843   4.888   1.882   5.615
 8982SOL     OW27844   0.197   1.873   0.837
 8982SOL    HW127845   0.194   1.827   0.748
 8982SOL    HW227846   0.125   1.943   0.841
 8983SOL     OW27847   0.595   5.765   0.848
 8983SOL    HW127848   0.524   5.747   0.780
 8983SOL    HW227849   0.580   5.704   0.927
 8984SOL     OW27850   6.688   6.239   4.063
 8984SOL    HW127851   6.720   6.325   4.025
 8984SOL    HW227852   6.682   6.247   4.163
 8985SOL     OW27853   2.745   1.938   1.103
 8985SOL    HW127854   2.727   1.992   1.185
 8985SOL    HW227855   2.821   1.875   1.120
 8986SOL     OW27856   4.242   5.273   3.036
 8986SOL    HW127857   4.252   5.332   3.116
 8986SOL    HW227858   4.225   5.178   3.066
 8987SOL     OW27859   2.906   0.353   1.694
 8987SOL    HW127860   2.968   0.415   1.647
 8987SOL    HW227861   2.853   0.301   1.627
 8988SOL     OW27862   2.195   4.434   0.456
 8988SOL    HW127863   2.265   4.449   0.525
 8988SOL    HW227864   2.145   4.519   0.441
 8989SOL     OW27865   5.212   4.012   2.038
 8989SOL    HW127866   5.310   4.009   2.062
 8989SOL    HW227867   5.161   4.055   2.113
 8990SOL     OW27868   2.529   5.201   1.755
 8990SOL    HW127869   2.481   5.189   1.842
 8990SOL    HW227870   2.594   5.277   1.763
 8991SOL     OW27871   2.494   1.336   0.943
 8991SOL    HW127872   2.573   1.321   0.883
 8991SOL    HW227873   2.507   1.286   1.028
 8992SOL     OW27874   6.541   2.533   6.768
 8992SOL    HW127875   6.639   2.541   6.750
 8992SOL    HW227876   6.496   2.492   6.689
 8993SOL     OW27877   4.776   2.630   2.600
 8993SOL    HW127878   4.864   2.584   2.612
 8993SOL    HW227879   4.725   2.586   2.526
 8994SOL     OW27880   0.867   6.141   4.546
 8994SOL    HW127881   0.908   6.057   4.582
 8994SOL    HW227882   0.768   6.131   4.546
 8995SOL     OW27883   1.201   2.683   5.654
 8995SOL    HW127884   1.190   2.775   5.692
 8995SOL    HW227885   1.297   2.655   5.664
 8996SOL     OW27886   0.418   4.696   1.737
 8996SOL    HW127887   0.467   4.609   1.734
 8996SOL    HW227888   0.342   4.693   1.672
 8997SOL     OW27889   4.349   1.441   6.431
 8997SOL    HW127890   4.390   1.356   6.400
 8997SOL    HW227891   4.253   1.426   6.455
 8998SOL     OW27892   0.723   2.661   3.951
 8998SOL    HW127893   0.747   2.727   4.023
 8998SOL    HW227894   0.629   2.629   3.966
 8999SOL     OW27895   3.837   0.225   6.875
 8999SOL    HW127896   3.846   0.325   6.869
 8999SOL    HW227897   3.748   0.202   6.914
 9000SOL     OW27898   2.686   4.227   6.480
 9000SOL    HW127899   2.692   4.258   6.575
 9000SOL    HW227900   2.745   4.147   6.467
 9001SOL     OW27901   1.968   5.525   2.995
 9001SOL    HW127902   2.037   5.588   3.031
 9001SOL    HW227903   1.901   5.504   3.066
 9002SOL     OW27904   0.589   4.809   5.022
 9002SOL    HW127905   0.545   4.896   5.000
 9002SOL    HW227906   0.676   4.826   5.068
 9003SOL     OW27907   5.531   2.790   1.131
 9003SOL    HW127908   5.626   2.815   1.115
 9003SOL    HW227909   5.475   2.872   1.143
 9004SOL     OW27910   4.072   6.591   1.993
 9004SOL    HW127911   4.031   6.679   1.971
 9004SOL    HW227912   4.029   6.519   1.938
 9005SOL     OW27913   6.186   2.142   4.496
 9005SOL    HW127914   6.246   2.086   4.439
 9005SOL    HW227915   6.107   2.172   4.442
 9006SOL     OW27916   1.519   6.112   0.992
 9006SOL    HW127917   1.438   6.057   0.970
 9006SOL    HW227918   1.601   6.056   0.982
 9007SOL     OW27919   3.498   5.554   3.571
 9007SOL    HW127920   3.462   5.630   3.625
 9007SOL    HW227921   3.594   5.572   3.548
 9008SOL     OW27922   6.761   5.642   2.584
 9008SOL    HW127923   6.849   5.690   2.583
 9008SOL    HW227924   6.698   5.686   2.520
 9009SOL     OW27925   2.456   6.298   0.604
 9009SOL    HW127926   2.537   6.349   0.633
 9009SOL    HW227927   2.380   6.320   0.665
 9010SOL     OW27928   1.103   6.945   4.564
 9010SOL    HW127929   1.132   6.965   4.470
 9010SOL    HW227930   1.004   6.937   4.568
 9011SOL     OW27931   4.029   1.891   1.686
 9011SOL    HW127932   4.015   1.903   1.784
 9011SOL    HW227933   4.069   1.974   1.647
 9012SOL     OW27934   2.917   4.869   1.194
 9012SOL    HW127935   2.820   4.880   1.169
 9012SOL    HW227936   2.964   4.957   1.187
 9013SOL     OW27937   5.940   6.025   4.854
 9013SOL    HW127938   5.992   5.997   4.934
 9013SOL    HW227939   5.961   5.965   4.777
 9014SOL     OW27940   1.069   1.388   0.203
 9014SOL    HW127941   0.998   1.423   0.264
 9014SOL    HW227942   1.155   1.433   0.223
 9015SOL     OW27943   6.275   0.699   0.693
 9015SOL    HW127944   6.194   0.731   0.743
 9015SOL    HW227945   6.334   0.649   0.756
 9016SOL     OW27946   6.977   6.323   6.520
 9016SOL    HW127947   6.947   6.343   6.613
 9016SOL    HW227948   0.051   6.352   6.509
 9017SOL     OW27949   5.716   2.716   2.686
 9017SOL    HW127950   5.660   2.675   2.614
 9017SOL    HW227951   5.693   2.675   2.774
 9018SOL     OW27952   4.480   1.789   5.535
 9018SOL    HW127953   4.503   1.753   5.625
 9018SOL    HW227954   4.564   1.812   5.485
 9019SOL     OW27955   0.920   0.022   1.019
 9019SOL    HW127956   0.845   0.057   1.074
 9019SOL    HW227957   1.008   0.052   1.057
 9020SOL     OW27958   1.451   3.613   2.036
 9020SOL    HW127959   1.441   3.575   1.944
 9020SOL    HW227960   1.483   3.542   2.098
 9021SOL     OW27961   6.281   0.348   3.979
 9021SOL    HW127962   6.359   0.286   3.972
 9021SOL    HW227963   6.196   0.296   3.986
 9022SOL     OW27964   2.590   0.441   1.365
 9022SOL    HW127965   2.670   0.392   1.399
 9022SOL    HW227966   2.606   0.469   1.270
 9023SOL     OW27967   4.036   3.274   2.637
 9023SOL    HW127968   4.011   3.204   2.570
 9023SOL    HW227969   4.098   3.341   2.595
 9024SOL     OW27970   1.597   5.663   6.538
 9024SOL    HW127971   1.595   5.731   6.466
 9024SOL    HW227972   1.628   5.575   6.501
 9025SOL     OW27973   6.619   5.867   0.836
 9025SOL    HW127974   6.578   5.776   0.838
 9025SOL    HW227975   6.579   5.921   0.763
 9026SOL     OW27976   3.784   3.351   2.772
 9026SOL    HW127977   3.872   3.317   2.737
 9026SOL    HW227978   3.714   3.281   2.760
 9027SOL     OW27979   2.535   1.745   3.613
 9027SOL    HW127980   2.460   1.680   3.617
 9027SOL    HW227981   2.584   1.744   3.700
 9028SOL     OW27982   2.363   3.835   5.754
 9028SOL    HW127983   2.361   3.931   5.726
 9028SOL    HW227984   2.321   3.826   5.845
 9029SOL     OW27985   3.205   5.262   5.203
 9029SOL    HW127986   3.266   5.184   5.220
 9029SOL    HW227987   3.112   5.229   5.188
 9030SOL     OW27988   2.324   0.992   3.147
 9030SOL    HW127989   2.379   1.060   3.098
 9030SOL    HW227990   2.289   0.924   3.083
 9031SOL     OW27991   5.055   5.404   5.834
 9031SOL    HW127992   4.979   5.427   5.773
 9031SOL    HW227993   5.137   5.388   5.779
 9032SOL     OW27994   3.989   2.717   0.787
 9032SOL    HW127995   4.025   2.632   0.749
 9032SOL    HW227996   3.945   2.699   0.875
 9033SOL     OW27997   1.738   4.171   3.358
 9033SOL    HW127998   1.677   4.154   3.435
 9033SOL    HW227999   1.777   4.085   3.326
 9034SOL     OW28000   3.182   6.869   4.926
 9034SOL    HW128001   3.158   6.775   4.900
 9034SOL    HW228002   3.099   6.920   4.948
 9035SOL     OW28003   1.160   6.278   5.337
 9035SOL    HW128004   1.246   6.282   5.287
 9035SOL    HW228005   1.084   6.300   5.275
 9036SOL     OW28006   1.365   1.417   4.581
 9036SOL    HW128007   1.436   1.484   4.559
 9036SOL    HW228008   1.331   1.374   4.498
 9037SOL     OW28009   1.455   4.669   6.535
 9037SOL    HW128010   1.399   4.734   6.482
 9037SOL    HW228011   1.407   4.582   6.541
 9038SOL     OW28012   4.426   0.582   5.088
 9038SOL    HW128013   4.429   0.558   4.991
 9038SOL    HW228014   4.513   0.623   5.114
 9039SOL     OW28015   1.688   4.427   4.658
 9039SOL    HW128016   1.591   4.446   4.675
 9039SOL    HW228017   1.743   4.469   4.730
 9040SOL     OW28018   2.816   1.366   3.217
 9040SOL    HW128019   2.889   1.432   3.200
 9040SOL    HW228020   2.850   1.293   3.276
 9041SOL     OW28021   0.720   2.156   1.744
 9041SOL    HW128022   0.797   2.093   1.730
 9041SOL    HW228023   0.716   2.183   1.840
 9042SOL     OW28024   3.262   6.196   3.891
 9042SOL    HW128025   3.205   6.117   3.871
 9042SOL    HW228026   3.205   6.278   3.894
 9043SOL     OW28027   2.078   0.981   6.001
 9043SOL    HW128028   2.094   0.885   6.020
 9043SOL    HW228029   2.131   1.008   5.920
 9044SOL     OW28030   6.446   1.226   1.216
 9044SOL    HW128031   6.490   1.138   1.200
 9044SOL    HW228032   6.515   1.298   1.216
 9045SOL     OW28033   3.724   1.865   2.469
 9045SOL    HW128034   3.708   1.858   2.371
 9045SOL    HW228035   3.793   1.799   2.497
 9046SOL     OW28036   3.378   3.433   4.316
 9046SOL    HW128037   3.372   3.352   4.375
 9046SOL    HW228038   3.474   3.454   4.298
 9047SOL     OW28039   1.962   3.083   5.415
 9047SOL    HW128040   2.053   3.104   5.451
 9047SOL    HW228041   1.970   3.013   5.345
 9048SOL     OW28042   6.002   3.000   6.147
 9048SOL    HW128043   6.081   2.961   6.194
 9048SOL    HW228044   5.944   3.048   6.213
 9049SOL     OW28045   4.538   6.605   6.319
 9049SOL    HW128046   4.499   6.520   6.354
 9049SOL    HW228047   4.474   6.680   6.337
 9050SOL     OW28048   0.297   5.078   5.727
 9050SOL    HW128049   0.326   5.171   5.751
 9050SOL    HW228050   0.243   5.081   5.643
 9051SOL     OW28051   4.648   6.263   1.204
 9051SOL    HW128052   4.576   6.322   1.166
 9051SOL    HW228053   4.721   6.253   1.137
 9052SOL     OW28054   2.071   3.111   3.867
 9052SOL    HW128055   2.021   3.048   3.926
 9052SOL    HW228056   2.047   3.205   3.891
 9053SOL     OW28057   2.318   1.571   3.288
 9053SOL    HW128058   2.415   1.572   3.310
 9053SOL    HW228059   2.275   1.491   3.329
 9054SOL     OW28060   1.081   0.267   2.308
 9054SOL    HW128061   1.158   0.330   2.322
 9054SOL    HW228062   1.019   0.273   2.386
 9055SOL     OW28063   0.240   4.029   3.536
 9055SOL    HW128064   0.280   4.090   3.467
 9055SOL    HW228065   0.291   4.039   3.622
 9056SOL     OW28066   5.778   0.342   2.075
 9056SOL    HW128067   5.729   0.259   2.101
 9056SOL    HW228068   5.772   0.409   2.149
 9057SOL     OW28069   5.804   5.522   6.176
 9057SOL    HW128070   5.848   5.457   6.114
 9057SOL    HW228071   5.840   5.614   6.160
 9058SOL     OW28072   1.694   1.626   3.739
 9058SOL    HW128073   1.746   1.575   3.808
 9058SOL    HW228074   1.749   1.633   3.656
 9059SOL     OW28075   0.366   1.407   4.268
 9059SOL    HW128076   0.375   1.324   4.215
 9059SOL    HW228077   0.455   1.451   4.277
 9060SOL     OW28078   0.148   3.626   1.826
 9060SOL    HW128079   0.049   3.616   1.830
 9060SOL    HW228080   0.178   3.688   1.899
 9061SOL     OW28081   4.034   6.020   2.435
 9061SOL    HW128082   4.054   5.965   2.354
 9061SOL    HW228083   4.018   5.960   2.513
 9062SOL     OW28084   1.581   4.988   2.438
 9062SOL    HW128085   1.666   4.974   2.388
 9062SOL    HW228086   1.601   5.025   2.529
 9063SOL     OW28087   2.496   0.670   2.889
 9063SOL    HW128088   2.489   0.627   2.798
 9063SOL    HW228089   2.591   0.691   2.909
 9064SOL     OW28090   6.015   4.020   4.101
 9064SOL    HW128091   6.016   4.092   4.171
 9064SOL    HW228092   5.938   4.035   4.039
 9065SOL     OW28093   3.714   5.436   6.892
 9065SOL    HW128094   3.663   5.492   6.958
 9065SOL    HW228095   3.717   5.341   6.924
 9066SOL     OW28096   5.763   0.837   6.965
 9066SOL    HW128097   5.740   0.928   6.932
 9066SOL    HW228098   5.733   0.827   0.039
 9067SOL     OW28099   5.702   6.811   5.476
 9067SOL    HW128100   5.643   6.834   5.554
 9067SOL    HW228101   5.678   6.868   5.398
 9068SOL     OW28102   2.886   0.352   5.265
 9068SOL    HW128103   2.945   0.289   5.215
 9068SOL    HW228104   2.872   0.434   5.211
 9069SOL     OW28105   3.279   2.181   1.746
 9069SOL    HW128106   3.226   2.161   1.828
 9069SOL    HW228107   3.341   2.105   1.727
 9070SOL     OW28108   0.698   3.463   6.098
 9070SOL    HW128109   0.622   3.495   6.041
 9070SOL    HW228110   0.740   3.383   6.055
 9071SOL     OW28111   4.562   6.464   0.762
 9071SOL    HW128112   4.631   6.529   0.731
 9071SOL    HW228113   4.607   6.388   0.810
 9072SOL     OW28114   5.656   0.782   1.843
 9072SOL    HW128115   5.657   0.684   1.866
 9072SOL    HW228116   5.564   0.818   1.857
 9073SOL     OW28117   3.737   6.345   1.079
 9073SOL    HW128118   3.722   6.271   1.144
 9073SOL    HW228119   3.649   6.371   1.038
 9074SOL     OW28120   1.645   0.567   1.431
 9074SOL    HW128121   1.694   0.609   1.508
 9074SOL    HW228122   1.657   0.623   1.349
 9075SOL     OW28123   0.696   0.103   1.165
 9075SOL    HW128124   0.629   0.106   1.091
 9075SOL    HW228125   0.674   0.172   1.234
 9076SOL     OW28126   5.390   1.525   5.039
 9076SOL    HW128127   5.468   1.548   4.982
 9076SOL    HW228128   5.319   1.594   5.029
 9077SOL     OW28129   5.642   1.317   6.683
 9077SOL    HW128130   5.586   1.240   6.653
 9077SOL    HW228131   5.591   1.402   6.670
 9078SOL     OW28132   5.139   3.481   0.458
 9078SOL    HW128133   5.228   3.524   0.437
 9078SOL    HW228134   5.095   3.453   0.373
 9079SOL     OW28135   1.492   6.210   3.936
 9079SOL    HW128136   1.528   6.132   3.886
 9079SOL    HW228137   1.566   6.276   3.952
 9080SOL     OW28138   5.616   2.567   6.786
 9080SOL    HW128139   5.654   2.631   6.853
 9080SOL    HW228140   5.619   2.474   6.823
 9081SOL     OW28141   3.462   0.026   2.404
 9081SOL    HW128142   3.515   6.963   2.400
 9081SOL    HW228143   3.523   0.105   2.408
 9082SOL     OW28144   2.677   6.609   5.623
 9082SOL    HW128145   2.623   6.683   5.583
 9082SOL    HW228146   2.688   6.625   5.721
 9083SOL     OW28147   3.935   4.284   5.485
 9083SOL    HW128148   3.889   4.284   5.396
 9083SOL    HW228149   3.905   4.206   5.538
 9084SOL     OW28150   2.706   2.865   6.056
 9084SOL    HW128151   2.773   2.860   5.981
 9084SOL    HW228152   2.712   2.955   6.099
 9085SOL     OW28153   1.117   5.231   0.469
 9085SOL    HW128154   1.209   5.210   0.437
 9085SOL    HW228155   1.066   5.146   0.482
 9086SOL     OW28156   6.854   4.519   0.874
 9086SOL    HW128157   6.900   4.593   0.826
 9086SOL    HW228158   6.781   4.556   0.931
 9087SOL     OW28159   4.586   2.853   1.666
 9087SOL    HW128160   4.536   2.912   1.730
 9087SOL    HW228161   4.653   2.798   1.716
 9088SOL     OW28162   6.685   6.264   0.881
 9088SOL    HW128163   6.715   6.175   0.915
 9088SOL    HW228164   6.759   6.330   0.890
 9089SOL     OW28165   4.568   5.971   5.544
 9089SOL    HW128166   4.662   5.985   5.577
 9089SOL    HW228167   4.504   5.994   5.618
 9090SOL     OW28168   6.385   6.352   3.345
 9090SOL    HW128169   6.355   6.289   3.273
 9090SOL    HW228170   6.462   6.310   3.394
 9091SOL     OW28171   2.663   3.872   0.634
 9091SOL    HW128172   2.734   3.939   0.610
 9091SOL    HW228173   2.616   3.843   0.552
 9092SOL     OW28174   0.120   1.054   0.673
 9092SOL    HW128175   0.091   1.099   0.758
 9092SOL    HW228176   0.068   0.969   0.661
 9093SOL     OW28177   2.063   5.818   6.560
 9093SOL    HW128178   2.078   5.771   6.647
 9093SOL    HW228179   2.090   5.759   6.485
 9094SOL     OW28180   6.724   5.176   2.899
 9094SOL    HW128181   6.724   5.258   2.841
 9094SOL    HW228182   6.635   5.167   2.944
 9095SOL     OW28183   4.706   3.628   6.725
 9095SOL    HW128184   4.702   3.721   6.761
 9095SOL    HW228185   4.798   3.591   6.738
 9096SOL     OW28186   5.541   4.165   1.880
 9096SOL    HW128187   5.584   4.144   1.792
 9096SOL    HW228188   5.573   4.254   1.913
 9097SOL     OW28189   0.727   2.621   0.008
 9097SOL    HW128190   0.763   2.688   0.073
 9097SOL    HW228191   0.803   2.584   6.974
 9098SOL     OW28192   3.894   2.295   6.748
 9098SOL    HW128193   3.816   2.271   6.691
 9098SOL    HW228194   3.933   2.381   6.716
 9099SOL     OW28195   3.182   3.421   0.119
 9099SOL    HW128196   3.239   3.483   0.066
 9099SOL    HW228197   3.112   3.380   0.060
 9100SOL     OW28198   1.049   3.320   4.080
 9100SOL    HW128199   1.044   3.417   4.056
 9100SOL    HW228200   0.996   3.267   4.014
 9101SOL     OW28201   2.610   2.423   3.123
 9101SOL    HW128202   2.570   2.385   3.206
 9101SOL    HW228203   2.551   2.496   3.088
 9102SOL     OW28204   2.912   0.127   2.264
 9102SOL    HW128205   2.858   0.077   2.331
 9102SOL    HW228206   2.853   0.164   2.193
 9103SOL     OW28207   6.615   3.313   6.825
 9103SOL    HW128208   6.651   3.225   6.854
 9103SOL    HW228209   6.515   3.313   6.832
 9104SOL     OW28210   5.758   6.364   2.711
 9104SOL    HW128211   5.773   6.275   2.753
 9104SOL    HW228212   5.672   6.362   2.659
 9105SOL     OW28213   1.774   1.454   0.229
 9105SOL    HW128214   1.860   1.417   0.264
 9105SOL    HW228215   1.754   1.413   0.140
 9106SOL     OW28216   6.788   3.744   0.033
 9106SOL    HW128217   6.765   3.820   6.992
 9106SOL    HW228218   6.710   3.683   0.041
 9107SOL     OW28219   3.347   0.768   5.904
 9107SOL    HW128220   3.445   0.745   5.900
 9107SOL    HW228221   3.327   0.806   5.994
 9108SOL     OW28222   4.619   3.846   5.742
 9108SOL    HW128223   4.569   3.892   5.815
 9108SOL    HW228224   4.617   3.902   5.659
 9109SOL     OW28225   0.793   2.857   2.598
 9109SOL    HW128226   0.883   2.814   2.603
 9109SOL    HW228227   0.794   2.944   2.647
 9110SOL     OW28228   1.805   3.996   3.766
 9110SOL    HW128229   1.898   3.960   3.755
 9110SOL    HW228230   1.803   4.093   3.741
 9111SOL     OW28231   4.442   1.557   0.762
 9111SOL    HW128232   4.360   1.613   0.773
 9111SOL    HW228233   4.446   1.489   0.835
 9112SOL     OW28234   0.444   4.807   4.160
 9112SOL    HW128235   0.538   4.802   4.192
 9112SOL    HW228236   0.442   4.846   4.067
 9113SOL     OW28237   5.509   1.261   2.474
 9113SOL    HW128238   5.512   1.210   2.388
 9113SOL    HW228239   5.467   1.350   2.458
 9114SOL     OW28240   0.795   4.691   1.655
 9114SOL    HW128241   0.821   4.787   1.665
 9114SOL    HW228242   0.788   4.668   1.558
 9115SOL     OW28243   7.020   4.568   5.285
 9115SOL    HW128244   6.922   4.589   5.278
 9115SOL    HW228245   0.012   4.471   5.305
 9116SOL     OW28246   6.625   1.473   1.274
 9116SOL    HW128247   6.576   1.540   1.219
 9116SOL    HW228248   6.717   1.506   1.293
 9117SOL     OW28249   5.929   2.853   0.184
 9117SOL    HW128250   5.911   2.898   0.271
 9117SOL    HW228251   6.027   2.854   0.166
 9118SOL     OW28252   6.553   3.873   0.487
 9118SOL    HW128253   6.480   3.878   0.555
 9118SOL    HW228254   6.641   3.863   0.534
 9119SOL     OW28255   4.969   0.965   1.734
 9119SOL    HW128256   4.968   0.906   1.654
 9119SOL    HW228257   4.875   0.991   1.758
 9120SOL     OW28258   5.992   1.798   5.947
 9120SOL    HW128259   5.978   1.886   5.993
 9120SOL    HW228260   6.016   1.814   5.851
 9121SOL     OW28261   3.024   1.220   5.113
 9121SOL    HW128262   2.945   1.235   5.053
 9121SOL    HW228263   2.994   1.175   5.197
 9122SOL     OW28264   1.596   4.105   2.339
 9122SOL    HW128265   1.586   4.202   2.361
 9122SOL    HW228266   1.530   4.081   2.267
 9123SOL     OW28267   1.851   0.843   4.259
 9123SOL    HW128268   1.901   0.848   4.172
 9123SOL    HW228269   1.752   0.842   4.240
 9124SOL     OW28270   5.382   6.601   0.102
 9124SOL    HW128271   5.352   6.693   0.077
 9124SOL    HW228272   5.428   6.559   0.023
 9125SOL     OW28273   4.763   3.957   0.997
 9125SOL    HW128274   4.775   3.861   1.019
 9125SOL    HW228275   4.829   4.012   1.050
 9126SOL     OW28276   5.883   3.097   1.517
 9126SOL    HW128277   5.798   3.102   1.464
 9126SOL    HW228278   5.916   3.189   1.537
 9127SOL     OW28279   6.987   1.579   6.144
 9127SOL    HW128280   6.929   1.622   6.074
 9127SOL    HW228281   7.004   1.644   6.218
 9128SOL     OW28282   5.448   1.390   5.273
 9128SOL    HW128283   5.444   1.445   5.190
 9128SOL    HW228284   5.366   1.333   5.280
 9129SOL     OW28285   0.766   2.033   0.218
 9129SOL    HW128286   0.799   2.127   0.227
 9129SOL    HW228287   0.702   2.013   0.292
 9130SOL     OW28288   6.936   3.676   6.261
 9130SOL    HW128289   6.953   3.602   6.196
 9130SOL    HW228290   7.008   3.744   6.254
 9131SOL     OW28291   5.867   2.484   4.837
 9131SOL    HW128292   5.920   2.400   4.824
 9131SOL    HW228293   5.925   2.564   4.820
 9132SOL     OW28294   0.680   5.598   4.454
 9132SOL    HW128295   0.761   5.622   4.509
 9132SOL    HW228296   0.699   5.516   4.401
 9133SOL     OW28297   3.567   6.398   1.481
 9133SOL    HW128298   3.481   6.430   1.440
 9133SOL    HW228299   3.563   6.299   1.494
 9134SOL     OW28300   4.673   5.629   1.073
 9134SOL    HW128301   4.647   5.540   1.110
 9134SOL    HW228302   4.626   5.645   0.986
 9135SOL     OW28303   6.554   6.814   1.599
 9135SOL    HW128304   6.572   6.907   1.630
 9135SOL    HW228305   6.461   6.788   1.624
 9136SOL     OW28306   4.888   6.264   6.462
 9136SOL    HW128307   4.821   6.254   6.388
 9136SOL    HW228308   4.916   6.360   6.468
 9137SOL     OW28309   5.344   1.567   0.588
 9137SOL    HW128310   5.392   1.481   0.574
 9137SOL    HW228311   5.298   1.565   0.677
 9138SOL     OW28312   0.341   5.750   6.687
 9138SOL    HW128313   0.284   5.808   6.629
 9138SOL    HW228314   0.423   5.722   6.636
 9139SOL     OW28315   2.661   1.999   3.502
 9139SOL    HW128316   2.619   1.931   3.562
 9139SOL    HW228317   2.667   2.087   3.550
 9140SOL     OW28318   6.944   3.498   2.756
 9140SOL    HW128319   6.973   3.407   2.788
 9140SOL    HW228320   6.969   3.508   2.659
 9141SOL     OW28321   5.709   0.769   0.808
 9141SOL    HW128322   5.771   0.691   0.797
 9141SOL    HW228323   5.618   0.736   0.832
 9142SOL     OW28324   0.594   2.495   0.796
 9142SOL    HW128325   0.497   2.517   0.813
 9142SOL    HW228326   0.640   2.577   0.762
 9143SOL     OW28327   6.055   3.587   6.651
 9143SOL    HW128328   5.969   3.597   6.701
 9143SOL    HW228329   6.054   3.501   6.601
 9144SOL     OW28330   2.531   5.086   4.397
 9144SOL    HW128331   2.477   5.148   4.454
 9144SOL    HW228332   2.616   5.062   4.444
 9145SOL     OW28333   0.110   5.804   0.416
 9145SOL    HW128334   0.181   5.861   0.375
 9145SOL    HW228335   0.063   5.753   0.344
 9146SOL     OW28336   5.456   2.897   3.499
 9146SOL    HW128337   5.397   2.896   3.418
 9146SOL    HW228338   5.407   2.856   3.576
 9147SOL     OW28339   6.308   0.424   5.191
 9147SOL    HW128340   6.385   0.466   5.144
 9147SOL    HW228341   6.258   0.493   5.243
 9148SOL     OW28342   5.239   6.032   1.541
 9148SOL    HW128343   5.283   6.115   1.506
 9148SOL    HW228344   5.195   5.983   1.465
 9149SOL     OW28345   5.747   4.128   2.581
 9149SOL    HW128346   5.679   4.179   2.632
 9149SOL    HW228347   5.829   4.116   2.636
 9150SOL     OW28348   3.675   5.362   1.398
 9150SOL    HW128349   3.652   5.443   1.452
 9150SOL    HW228350   3.604   5.345   1.330
 9151SOL     OW28351   2.298   4.177   3.276
 9151SOL    HW128352   2.267   4.197   3.183
 9151SOL    HW228353   2.234   4.218   3.341
 9152SOL     OW28354   2.011   4.176   4.679
 9152SOL    HW128355   2.074   4.099   4.689
 9152SOL    HW228356   2.059   4.261   4.701
 9153SOL     OW28357   0.434   2.842   6.567
 9153SOL    HW128358   0.491   2.873   6.491
 9153SOL    HW228359   0.422   2.916   6.633
 9154SOL     OW28360   4.829   4.511   7.014
 9154SOL    HW128361   4.805   4.451   6.938
 9154SOL    HW228362   4.767   4.589   7.017
 9155SOL     OW28363   1.840   3.564   2.361
 9155SOL    HW128364   1.806   3.491   2.421
 9155SOL    HW228365   1.936   3.582   2.381
 9156SOL     OW28366   0.943   2.436   0.099
 9156SOL    HW128367   0.982   2.379   0.027
 9156SOL    HW228368   0.908   2.377   0.172
 9157SOL     OW28369   1.497   4.093   6.143
 9157SOL    HW128370   1.421   4.033   6.117
 9157SOL    HW228371   1.512   4.086   6.242
 9158SOL     OW28372   5.228   3.391   4.962
 9158SOL    HW128373   5.252   3.449   5.039
 9158SOL    HW228374   5.132   3.405   4.937
 9159SOL     OW28375   1.618   1.126   1.796
 9159SOL    HW128376   1.690   1.107   1.729
 9159SOL    HW228377   1.657   1.129   1.888
 9160SOL     OW28378   6.827   6.162   5.544
 9160SOL    HW128379   6.874   6.136   5.460
 9160SOL    HW228380   6.750   6.100   5.560
 9161SOL     OW28381   5.402   4.495   3.882
 9161SOL    HW128382   5.376   4.584   3.920
 9161SOL    HW228383   5.436   4.508   3.789
 9162SOL     OW28384   4.292   1.150   3.478
 9162SOL    HW128385   4.304   1.063   3.525
 9162SOL    HW228386   4.211   1.197   3.514
 9163SOL     OW28387   1.049   2.615   4.962
 9163SOL    HW128388   0.979   2.563   5.010
 9163SOL    HW228389   1.076   2.694   5.017
 9164SOL     OW28390   2.506   6.864   6.704
 9164SOL    HW128391   2.434   6.926   6.734
 9164SOL    HW228392   2.581   6.865   6.771
 9165SOL     OW28393   6.566   1.044   5.444
 9165SOL    HW128394   6.551   1.077   5.537
 9165SOL    HW228395   6.612   1.114   5.390
 9166SOL     OW28396   4.299   6.075   1.518
 9166SOL    HW128397   4.356   6.001   1.556
 9166SOL    HW228398   4.237   6.038   1.450
 9167SOL     OW28399   2.251   2.180   6.219
 9167SOL    HW128400   2.265   2.102   6.279
 9167SOL    HW228401   2.335   2.235   6.215
 9168SOL     OW28402   0.060   6.308   5.773
 9168SOL    HW128403   0.017   6.286   5.861
 9168SOL    HW228404   0.139   6.366   5.789
 9169SOL     OW28405   6.443   0.527   5.996
 9169SOL    HW128406   6.464   0.571   6.083
 9169SOL    HW228407   6.521   0.473   5.966
 9170SOL     OW28408   1.178   0.232   6.838
 9170SOL    HW128409   1.120   0.158   6.873
 9170SOL    HW228410   1.227   0.201   6.756
 9171SOL     OW28411   4.140   5.070   0.602
 9171SOL    HW128412   4.224   5.018   0.606
 9171SOL    HW228413   4.069   5.024   0.656
 9172SOL     OW28414   5.221   0.791   2.663
 9172SOL    HW128415   5.217   0.695   2.690
 9172SOL    HW228416   5.301   0.834   2.704
 9173SOL     OW28417   5.910   4.176   6.068
 9173SOL    HW128418   5.922   4.088   6.113
 9173SOL    HW228419   5.955   4.247   6.123
 9174SOL     OW28420   6.515   4.356   1.199
 9174SOL    HW128421   6.495   4.394   1.108
 9174SOL    HW228422   6.613   4.336   1.205
 9175SOL     OW28423   1.359   6.337   6.481
 9175SOL    HW128424   1.413   6.374   6.556
 9175SOL    HW228425   1.324   6.247   6.506
 9176SOL     OW28426   2.302   1.019   3.419
 9176SOL    HW128427   2.319   1.115   3.440
 9176SOL    HW228428   2.340   0.998   3.329
 9177SOL     OW28429   0.714   4.831   4.293
 9177SOL    HW128430   0.786   4.860   4.230
 9177SOL    HW228431   0.727   4.734   4.314
 9178SOL     OW28432   1.646   5.429   0.875
 9178SOL    HW128433   1.644   5.527   0.855
 9178SOL    HW228434   1.681   5.379   0.795
 9179SOL     OW28435   1.931   5.038   3.973
 9179SOL    HW128436   1.865   5.110   3.949
 9179SOL    HW228437   2.018   5.080   3.998
 9180SOL     OW28438   6.564   2.971   3.538
 9180SOL    HW128439   6.604   2.884   3.507
 9180SOL    HW228440   6.562   3.035   3.462
 9181SOL     OW28441   5.885   2.665   4.422
 9181SOL    HW128442   5.794   2.705   4.409
 9181SOL    HW228443   5.875   2.572   4.459
 9182SOL     OW28444   2.702   6.952   3.128
 9182SOL    HW128445   2.701   0.025   3.093
 9182SOL    HW228446   2.715   6.954   3.227
 9183SOL     OW28447   4.559   4.052   0.026
 9183SOL    HW128448   4.465   4.048   0.060
 9183SOL    HW228449   4.614   3.982   0.072
 9184SOL     OW28450   4.471   2.018   1.078
 9184SOL    HW128451   4.463   2.099   1.136
 9184SOL    HW228452   4.408   2.025   1.001
 9185SOL     OW28453   4.844   6.595   5.000
 9185SOL    HW128454   4.820   6.689   4.974
 9185SOL    HW228455   4.939   6.577   4.976
 9186SOL     OW28456   6.073   6.680   4.757
 9186SOL    HW128457   6.146   6.624   4.718
 9186SOL    HW228458   6.075   6.673   4.857
 9187SOL     OW28459   3.647   1.753   0.515
 9187SOL    HW128460   3.593   1.836   0.500
 9187SOL    HW228461   3.639   1.692   0.436
 9188SOL     OW28462   1.823   0.497   1.910
 9188SOL    HW128463   1.890   0.547   1.854
 9188SOL    HW228464   1.795   0.414   1.861
 9189SOL     OW28465   3.218   5.469   1.913
 9189SOL    HW128466   3.234   5.447   2.009
 9189SOL    HW228467   3.298   5.518   1.877
 9190SOL     OW28468   1.712   3.836   5.161
 9190SOL    HW128469   1.799   3.840   5.210
 9190SOL    HW228470   1.729   3.831   5.062
 9191SOL     OW28471   5.369   1.201   0.360
 9191SOL    HW128472   5.452   1.257   0.369
 9191SOL    HW228473   5.289   1.257   0.383
 9192SOL     OW28474   0.066   2.463   6.310
 9192SOL    HW128475   0.043   2.530   6.382
 9192SOL    HW228476   0.021   2.376   6.330
 9193SOL     OW28477   4.183   3.743   5.194
 9193SOL    HW128478   4.113   3.691   5.145
 9193SOL    HW228479   4.265   3.687   5.204
 9194SOL     OW28480   3.112   1.315   2.759
 9194SOL    HW128481   3.043   1.382   2.787
 9194SOL    HW228482   3.067   1.244   2.704
 9195SOL     OW28483   0.904   3.629   3.201
 9195SOL    HW128484   0.845   3.600   3.277
 9195SOL    HW228485   0.887   3.571   3.121
 9196SOL     OW28486   5.817   6.887   3.693
 9196SOL    HW128487   5.886   6.831   3.739
 9196SOL    HW228488   5.775   6.834   3.619
 9197SOL     OW28489   2.817   5.011   1.483
 9197SOL    HW128490   2.755   5.079   1.444
 9197SOL    HW228491   2.787   4.919   1.455
 9198SOL     OW28492   6.185   4.509   6.807
 9198SOL    HW128493   6.180   4.419   6.852
 9198SOL    HW228494   6.107   4.518   6.744
 9199SOL     OW28495   6.731   3.369   5.458
 9199SOL    HW128496   6.781   3.367   5.371
 9199SOL    HW228497   6.665   3.294   5.460
 9200SOL     OW28498   3.299   6.366   6.372
 9200SOL    HW128499   3.252   6.288   6.412
 9200SOL    HW228500   3.393   6.341   6.351
 9201SOL     OW28501   0.154   3.706   0.157
 9201SOL    HW128502   0.153   3.681   0.060
 9201SOL    HW228503   0.061   3.711   0.191
 9202SOL     OW28504   0.848   6.033   3.880
 9202SOL    HW128505   0.821   5.942   3.849
 9202SOL    HW228506   0.767   6.092   3.884
 9203SOL     OW28507   6.309   2.693   6.082
 9203SOL    HW128508   6.261   2.751   6.016
 9203SOL    HW228509   6.248   2.674   6.159
 9204SOL     OW28510   4.915   3.433   4.638
 9204SOL    HW128511   4.865   3.440   4.725
 9204SOL    HW228512   5.013   3.437   4.656
 9205SOL     OW28513   5.159   5.725   3.593
 9205SOL    HW128514   5.191   5.794   3.657
 9205SOL    HW228515   5.083   5.674   3.633
 9206SOL     OW28516   3.174   5.384   3.100
 9206SOL    HW128517   3.197   5.396   3.196
 9206SOL    HW228518   3.246   5.331   3.055
 9207SOL     OW28519   4.720   4.068   0.311
 9207SOL    HW128520   4.633   4.101   0.274
 9207SOL    HW228521   4.749   3.987   0.260
 9208SOL     OW28522   5.253   4.591   3.110
 9208SOL    HW128523   5.281   4.645   3.031
 9208SOL    HW228524   5.219   4.652   3.182
 9209SOL     OW28525   4.836   1.000   0.200
 9209SOL    HW128526   4.925   1.043   0.214
 9209SOL    HW228527   4.839   0.905   0.233
 9210SOL     OW28528   1.343   1.851   1.304
 9210SOL    HW128529   1.258   1.829   1.352
 9210SOL    HW228530   1.322   1.897   1.218
 9211SOL     OW28531   6.172   2.849   5.884
 9211SOL    HW128532   6.082   2.820   5.917
 9211SOL    HW228533   6.188   2.944   5.909
 9212SOL     OW28534   4.821   5.411   4.422
 9212SOL    HW128535   4.782   5.502   4.427
 9212SOL    HW228536   4.761   5.345   4.468
 9213SOL     OW28537   5.378   4.655   4.945
 9213SOL    HW128538   5.346   4.745   4.917
 9213SOL    HW228539   5.459   4.665   5.003
 9214SOL     OW28540   6.920   3.419   5.667
 9214SOL    HW128541   6.928   3.323   5.693
 9214SOL    HW228542   6.835   3.433   5.616
 9215SOL     OW28543   2.063   3.388   2.230
 9215SOL    HW128544   2.126   3.443   2.175
 9215SOL    HW228545   1.975   3.435   2.238
 9216SOL     OW28546   2.660   6.921   3.404
 9216SOL    HW128547   2.588   6.987   3.427
 9216SOL    HW228548   2.627   6.829   3.424
 9217SOL     OW28549   6.009   3.368   6.059
 9217SOL    HW128550   6.076   3.425   6.107
 9217SOL    HW228551   5.991   3.285   6.112
 9218SOL     OW28552   3.371   0.778   0.281
 9218SOL    HW128553   3.386   0.756   0.185
 9218SOL    HW228554   3.389   0.697   0.337
 9219SOL     OW28555   5.483   4.059   6.191
 9219SOL    HW128556   5.522   4.111   6.116
 9219SOL    HW228557   5.537   3.975   6.205
 9220SOL     OW28558   0.987   6.130   1.638
 9220SOL    HW128559   0.993   6.063   1.712
 9220SOL    HW228560   1.015   6.220   1.671
 9221SOL     OW28561   1.779   0.766   2.833
 9221SOL    HW128562   1.714   0.779   2.759
 9221SOL    HW228563   1.776   0.844   2.895
 9222SOL     OW28564   2.598   5.672   5.839
 9222SOL    HW128565   2.530   5.737   5.804
 9222SOL    HW228566   2.627   5.701   5.931
 9223SOL     OW28567   1.363   2.034   4.235
 9223SOL    HW128568   1.373   2.010   4.331
 9223SOL    HW228569   1.272   2.008   4.203
 9224SOL     OW28570   0.707   5.350   4.344
 9224SOL    HW128571   0.664   5.284   4.283
 9224SOL    HW228572   0.806   5.351   4.328
 9225SOL     OW28573   3.245   6.092   6.494
 9225SOL    HW128574   3.324   6.033   6.477
 9225SOL    HW228575   3.165   6.053   6.448
 9226SOL     OW28576   0.150   6.668   1.235
 9226SOL    HW128577   0.187   6.603   1.168
 9226SOL    HW228578   0.100   6.740   1.187
 9227SOL     OW28579   2.114   5.712   1.157
 9227SOL    HW128580   2.129   5.785   1.091
 9227SOL    HW228581   2.203   5.678   1.189
 9228SOL     OW28582   3.013   1.106   6.706
 9228SOL    HW128583   3.050   1.189   6.748
 9228SOL    HW228584   3.069   1.028   6.732
 9229SOL     OW28585   1.380   5.270   5.354
 9229SOL    HW128586   1.391   5.368   5.372
 9229SOL    HW228587   1.313   5.232   5.417
 9230SOL     OW28588   5.306   2.897   3.215
 9230SOL    HW128589   5.232   2.834   3.239
 9230SOL    HW228590   5.359   2.859   3.139
 9231SOL     OW28591   0.927   3.629   4.457
 9231SOL    HW128592   0.894   3.541   4.489
 9231SOL    HW228593   0.946   3.688   4.536
 9232SOL     OW28594   3.638   5.036   6.671
 9232SOL    HW128595   3.593   5.119   6.637
 9232SOL    HW228596   3.673   5.053   6.763
 9233SOL     OW28597   5.616   5.990   2.010
 9233SOL    HW128598   5.634   5.894   1.990
 9233SOL    HW228599   5.702   6.041   2.010
 9234SOL     OW28600   3.718   5.159   6.934
 9234SOL    HW128601   3.805   5.111   6.924
 9234SOL    HW228602   3.702   5.180   0.010
 9235SOL     OW28603   1.816   2.774   3.772
 9235SOL    HW128604   1.811   2.721   3.857
 9235SOL    HW228605   1.811   2.871   3.792
 9236SOL     OW28606   2.026   4.334   6.739
 9236SOL    HW128607   1.975   4.251   6.714
 9236SOL    HW228608   1.976   4.414   6.707
 9237SOL     OW28609   0.302   6.225   3.266
 9237SOL    HW128610   0.259   6.255   3.181
 9237SOL    HW228611   0.379   6.165   3.244
 9238SOL     OW28612   1.795   2.417   6.505
 9238SOL    HW128613   1.792   2.517   6.509
 9238SOL    HW228614   1.814   2.389   6.411
 9239SOL     OW28615   0.119   3.578   6.914
 9239SOL    HW128616   0.130   3.666   6.869
 9239SOL    HW228617   0.033   3.535   6.884
 9240SOL     OW28618   5.550   2.617   2.238
 9240SOL    HW128619   5.485   2.691   2.257
 9240SOL    HW228620   5.514   2.559   2.166
 9241SOL     OW28621   0.895   5.326   5.904
 9241SOL    HW128622   0.838   5.251   5.869
 9241SOL    HW228623   0.931   5.301   5.994
 9242SOL     OW28624   1.383   5.163   0.371
 9242SOL    HW128625   1.364   5.194   0.278
 9242SOL    HW228626   1.454   5.093   0.370
 9243SOL     OW28627   0.743   0.143   1.459
 9243SOL    HW128628   0.814   0.076   1.438
 9243SOL    HW228629   0.659   0.095   1.486
 9244SOL     OW28630   3.769   5.034   6.183
 9244SOL    HW128631   3.763   4.996   6.275
 9244SOL    HW228632   3.820   5.120   6.186
 9245SOL     OW28633   0.972   5.705   4.268
 9245SOL    HW128634   1.012   5.733   4.181
 9245SOL    HW228635   0.960   5.605   4.269
 9246SOL     OW28636   6.243   6.645   2.024
 9246SOL    HW128637   6.223   6.722   2.085
 9246SOL    HW228638   6.337   6.653   1.990
 9247SOL     OW28639   2.168   6.231   3.307
 9247SOL    HW128640   2.128   6.304   3.361
 9247SOL    HW228641   2.140   6.241   3.211
 9248SOL     OW28642   2.688   2.016   4.438
 9248SOL    HW128643   2.696   2.115   4.432
 9248SOL    HW228644   2.775   1.974   4.413
 9249SOL     OW28645   3.666   4.612   0.985
 9249SOL    HW128646   3.598   4.668   1.033
 9249SOL    HW228647   3.639   4.516   0.988
 9250SOL     OW28648   5.944   2.986   3.781
 9250SOL    HW128649   5.941   3.083   3.757
 9250SOL    HW228650   6.013   2.940   3.726
 9251SOL     OW28651   3.871   1.381   2.770
 9251SOL    HW128652   3.839   1.291   2.800
 9251SOL    HW228653   3.880   1.441   2.849
 9252SOL     OW28654   5.186   0.873   3.829
 9252SOL    HW128655   5.102   0.837   3.789
 9252SOL    HW228656   5.164   0.953   3.885
 9253SOL     OW28657   5.250   5.568   6.156
 9253SOL    HW128658   5.349   5.564   6.174
 9253SOL    HW228659   5.202   5.517   6.227
 9254SOL     OW28660   5.793   5.248   3.778
 9254SOL    HW128661   5.722   5.181   3.802
 9254SOL    HW228662   5.779   5.278   3.683
 9255SOL     OW28663   4.555   4.029   0.587
 9255SOL    HW128664   4.486   3.963   0.615
 9255SOL    HW228665   4.643   4.006   0.628
 9256SOL     OW28666   3.003   0.579   2.987
 9256SOL    HW128667   3.080   0.549   2.930
 9256SOL    HW228668   3.020   0.552   3.082
 9257SOL     OW28669   0.559   4.492   3.248
 9257SOL    HW128670   0.556   4.412   3.187
 9257SOL    HW228671   0.518   4.570   3.202
 9258SOL     OW28672   3.106   3.425   2.689
 9258SOL    HW128673   3.084   3.437   2.786
 9258SOL    HW228674   3.187   3.479   2.667
 9259SOL     OW28675   0.475   2.460   6.855
 9259SOL    HW128676   0.527   2.389   6.904
 9259SOL    HW228677   0.538   2.519   6.804
 9260SOL     OW28678   5.885   1.587   5.003
 9260SOL    HW128679   5.983   1.609   5.006
 9260SOL    HW228680   5.833   1.662   5.042
 9261SOL     OW28681   2.550   1.695   0.295
 9261SOL    HW128682   2.640   1.651   0.299
 9261SOL    HW228683   2.526   1.731   0.386
 9262SOL     OW28684   6.556   4.857   5.325
 9262SOL    HW128685   6.502   4.871   5.407
 9262SOL    HW228686   6.510   4.899   5.247
 9263SOL     OW28687   4.915   6.955   1.695
 9263SOL    HW128688   4.861   6.999   1.767
 9263SOL    HW228689   4.959   0.004   1.638
 9264SOL     OW28690   4.884   4.678   0.278
 9264SOL    HW128691   4.830   4.598   0.251
 9264SOL    HW228692   4.927   4.661   0.366
 9265SOL     OW28693   3.741   2.104   0.366
 9265SOL    HW128694   3.663   2.157   0.332
 9265SOL    HW228695   3.740   2.103   0.466
 9266SOL     OW28696   1.364   6.515   1.066
 9266SOL    HW128697   1.445   6.558   1.106
 9266SOL    HW228698   1.282   6.556   1.105
 9267SOL     OW28699   6.804   2.665   4.462
 9267SOL    HW128700   6.787   2.689   4.366
 9267SOL    HW228701   6.773   2.739   4.521
 9268SOL     OW28702   1.188   5.375   2.384
 9268SOL    HW128703   1.166   5.281   2.411
 9268SOL    HW228704   1.279   5.377   2.343
 9269SOL     OW28705   3.677   1.274   6.718
 9269SOL    HW128706   3.732   1.355   6.699
 9269SOL    HW228707   3.653   1.229   6.632
 9270SOL     OW28708   4.352   6.929   5.903
 9270SOL    HW128709   4.412   6.974   5.969
 9270SOL    HW228710   4.322   6.995   5.834
 9271SOL     OW28711   5.689   0.221   1.007
 9271SOL    HW128712   5.645   0.311   1.000
 9271SOL    HW228713   5.748   0.219   1.087
 9272SOL     OW28714   1.144   6.136   4.930
 9272SOL    HW128715   1.143   6.087   5.017
 9272SOL    HW228716   1.053   6.132   4.889
 9273SOL     OW28717   5.325   6.758   3.006
 9273SOL    HW128718   5.370   6.751   3.095
 9273SOL    HW228719   5.321   6.668   2.964
 9274SOL     OW28720   6.291   1.492   6.859
 9274SOL    HW128721   6.305   1.491   6.958
 9274SOL    HW228722   6.271   1.585   6.829
 9275SOL     OW28723   6.150   1.035   0.600
 9275SOL    HW128724   6.134   0.990   0.512
 9275SOL    HW228725   6.200   1.120   0.586
 9276SOL     OW28726   1.660   3.265   1.653
 9276SOL    HW128727   1.666   3.279   1.751
 9276SOL    HW228728   1.565   3.256   1.625
 9277SOL     OW28729   4.622   3.643   0.721
 9277SOL    HW128730   4.540   3.698   0.704
 9277SOL    HW228731   4.641   3.587   0.640
 9278SOL     OW28732   1.945   0.186   6.072
 9278SOL    HW128733   1.864   0.188   6.131
 9278SOL    HW228734   1.979   0.279   6.059
 9279SOL     OW28735   3.742   0.966   2.271
 9279SOL    HW128736   3.704   1.014   2.192
 9279SOL    HW228737   3.669   0.942   2.334
 9280SOL     OW28738   2.204   1.744   3.107
 9280SOL    HW128739   2.168   1.821   3.160
 9280SOL    HW228740   2.250   1.680   3.168
 9281SOL     OW28741   2.277   3.281   6.526
 9281SOL    HW128742   2.269   3.227   6.442
 9281SOL    HW228743   2.357   3.251   6.578
 9282SOL     OW28744   5.472   0.474   3.765
 9282SOL    HW128745   5.411   0.449   3.839
 9282SOL    HW228746   5.425   0.464   3.677
 9283SOL     OW28747   5.327   0.763   3.599
 9283SOL    HW128748   5.331   0.664   3.586
 9283SOL    HW228749   5.317   0.784   3.696
 9284SOL     OW28750   2.678   3.381   5.514
 9284SOL    HW128751   2.692   3.296   5.564
 9284SOL    HW228752   2.705   3.459   5.571
 9285SOL     OW28753   4.483   2.249   0.887
 9285SOL    HW128754   4.433   2.238   0.973
 9285SOL    HW228755   4.509   2.345   0.875
 9286SOL     OW28756   5.118   5.604   1.160
 9286SOL    HW128757   5.116   5.645   1.251
 9286SOL    HW228758   5.204   5.628   1.115
 9287SOL     OW28759   3.483   4.789   0.389
 9287SOL    HW128760   3.479   4.881   0.350
 9287SOL    HW228761   3.391   4.762   0.419
 9288SOL     OW28762   4.778   1.905   2.990
 9288SOL    HW128763   4.805   1.826   2.935
 9288SOL    HW228764   4.685   1.933   2.964
 9289SOL     OW28765   3.763   0.611   2.347
 9289SOL    HW128766   3.707   0.532   2.324
 9289SOL    HW228767   3.766   0.674   2.269
 9290SOL     OW28768   5.794   1.065   2.777
 9290SOL    HW128769   5.725   1.037   2.711
 9290SOL    HW228770   5.788   1.006   2.858
 9291SOL     OW28771   1.133   5.997   5.156
 9291SOL    HW128772   1.144   5.897   5.154
 9291SOL    HW228773   1.164   6.031   5.245
 9292SOL     OW28774   1.802   2.868   6.525
 9292SOL    HW128775   1.850   2.865   6.612
 9292SOL    HW228776   1.834   2.793   6.467
 9293SOL     OW28777   5.321   2.890   6.390
 9293SOL    HW128778   5.285   2.862   6.301
 9293SOL    HW228779   5.245   2.901   6.454
 9294SOL     OW28780   4.322   0.614   5.827
 9294SOL    HW128781   4.395   0.599   5.894
 9294SOL    HW228782   4.351   0.580   5.738
 9295SOL     OW28783   5.347   1.348   4.830
 9295SOL    HW128784   5.332   1.397   4.916
 9295SOL    HW228785   5.435   1.300   4.835
 9296SOL     OW28786   1.571   5.870   0.081
 9296SOL    HW128787   1.667   5.898   0.076
 9296SOL    HW228788   1.536   5.887   0.172
 9297SOL     OW28789   0.360   6.951   2.298
 9297SOL    HW128790   0.377   6.926   2.203
 9297SOL    HW228791   0.387   0.025   2.314
 9298SOL     OW28792   1.066   6.472   6.209
 9298SOL    HW128793   1.141   6.524   6.170
 9298SOL    HW228794   0.983   6.528   6.209
 9299SOL     OW28795   0.462   2.399   4.811
 9299SOL    HW128796   0.407   2.482   4.811
 9299SOL    HW228797   0.531   2.404   4.739
 9300SOL     OW28798   0.133   4.542   5.992
 9300SOL    HW128799   0.222   4.586   5.979
 9300SOL    HW228800   0.140   4.446   5.966
 9301SOL     OW28801   5.382   5.241   4.575
 9301SOL    HW128802   5.413   5.326   4.531
 9301SOL    HW228803   5.298   5.259   4.626
 9302SOL     OW28804   2.151   2.784   3.961
 9302SOL    HW128805   2.106   2.699   3.933
 9302SOL    HW228806   2.199   2.823   3.882
 9303SOL     OW28807   2.395   3.928   0.788
 9303SOL    HW128808   2.480   3.888   0.820
 9303SOL    HW228809   2.320   3.898   0.847
 9304SOL     OW28810   3.962   4.724   1.750
 9304SOL    HW128811   3.900   4.647   1.735
 9304SOL    HW228812   3.914   4.810   1.735
 9305SOL     OW28813   3.197   0.969   0.764
 9305SOL    HW128814   3.151   1.019   0.837
 9305SOL    HW228815   3.234   1.034   0.698
 9306SOL     OW28816   0.384   5.243   5.442
 9306SOL    HW128817   0.334   5.159   5.419
 9306SOL    HW228818   0.430   5.277   5.360
 9307SOL     OW28819   1.046   3.373   1.304
 9307SOL    HW128820   1.139   3.410   1.294
 9307SOL    HW228821   1.017   3.385   1.399
 9308SOL     OW28822   2.392   3.541   0.416
 9308SOL    HW128823   2.330   3.545   0.338
 9308SOL    HW228824   2.339   3.539   0.501
 9309SOL     OW28825   3.794   4.581   5.955
 9309SOL    HW128826   3.792   4.549   6.050
 9309SOL    HW228827   3.808   4.680   5.954
 9310SOL     OW28828   5.126   5.309   6.614
 9310SOL    HW128829   5.139   5.340   6.709
 9310SOL    HW228830   5.028   5.303   6.594
 9311SOL     OW28831   4.805   4.666   1.654
 9311SOL    HW128832   4.764   4.736   1.714
 9311SOL    HW228833   4.732   4.612   1.612
 9312SOL     OW28834   1.102   3.840   0.930
 9312SOL    HW128835   1.097   3.937   0.956
 9312SOL    HW228836   1.184   3.825   0.875
 9313SOL     OW28837   0.256   0.598   0.535
 9313SOL    HW128838   0.286   0.652   0.614
 9313SOL    HW228839   0.318   0.614   0.458
 9314SOL     OW28840   5.868   4.307   6.884
 9314SOL    HW128841   5.891   4.210   6.892
 9314SOL    HW228842   5.817   4.322   6.800
 9315SOL     OW28843   6.226   0.204   5.079
 9315SOL    HW128844   6.256   0.292   5.117
 9315SOL    HW228845   6.296   0.168   5.017
 9316SOL     OW28846   5.749   6.713   5.982
 9316SOL    HW128847   5.828   6.686   6.037
 9316SOL    HW228848   5.710   6.798   6.020
 9317SOL     OW28849   5.545   5.027   3.870
 9317SOL    HW128850   5.453   4.993   3.887
 9317SOL    HW228851   5.545   5.088   3.791
 9318SOL     OW28852   5.661   1.243   5.619
 9318SOL    HW128853   5.731   1.286   5.562
 9318SOL    HW228854   5.697   1.158   5.657
 9319SOL     OW28855   2.700   2.365   6.595
 9319SOL    HW128856   2.684   2.268   6.610
 9319SOL    HW228857   2.654   2.418   6.666
 9320SOL     OW28858   3.080   0.314   4.885
 9320SOL    HW128859   2.985   0.347   4.885
 9320SOL    HW228860   3.134   0.367   4.820
 9321SOL     OW28861   0.553   0.353   4.408
 9321SOL    HW128862   0.642   0.388   4.380
 9321SOL    HW228863   0.536   0.379   4.503
 9322SOL     OW28864   6.775   3.875   5.981
 9322SOL    HW128865   6.787   3.810   5.906
 9322SOL    HW228866   6.762   3.825   6.066
 9323SOL     OW28867   1.305   0.449   5.467
 9323SOL    HW128868   1.318   0.407   5.557
 9323SOL    HW228869   1.357   0.535   5.463
 9324SOL     OW28870   1.361   4.454   1.607
 9324SOL    HW128871   1.311   4.379   1.563
 9324SOL    HW228872   1.335   4.460   1.703
 9325SOL     OW28873   5.684   1.353   0.158
 9325SOL    HW128874   5.749   1.428   0.147
 9325SOL    HW228875   5.690   1.316   0.250
 9326SOL     OW28876   2.611   4.833   0.617
 9326SOL    HW128877   2.513   4.844   0.603
 9326SOL    HW228878   2.628   4.749   0.668
 9327SOL     OW28879   4.954   0.369   2.630
 9327SOL    HW128880   5.018   0.309   2.582
 9327SOL    HW228881   4.999   0.409   2.710
 9328SOL     OW28882   2.582   0.827   4.944
 9328SOL    HW128883   2.670   0.780   4.942
 9328SOL    HW228884   2.587   0.910   4.888
 9329SOL     OW28885   5.951   3.621   0.723
 9329SOL    HW128886   5.973   3.606   0.627
 9329SOL    HW228887   5.946   3.533   0.770
 9330SOL     OW28888   6.363   0.319   5.657
 9330SOL    HW128889   6.388   0.393   5.720
 9330SOL    HW228890   6.392   0.342   5.564
 9331SOL     OW28891   2.163   1.037   6.966
 9331SOL    HW128892   2.247   1.054   6.914
 9331SOL    HW228893   2.084   1.042   6.905
 9332SOL     OW28894   4.041   4.473   0.549
 9332SOL    HW128895   4.005   4.566   0.553
 9332SOL    HW228896   4.046   4.435   0.641
 9333SOL     OW28897   3.771   3.959   6.854
 9333SOL    HW128898   3.750   4.029   6.786
 9333SOL    HW228899   3.812   4.003   6.934
 9334SOL     OW28900   5.154   6.528   3.697
 9334SOL    HW128901   5.221   6.481   3.753
 9334SOL    HW228902   5.174   6.512   3.600
 9335SOL     OW28903   1.137   0.778   6.832
 9335SOL    HW128904   1.048   0.731   6.834
 9335SOL    HW228905   1.164   0.793   6.737
 9336SOL     OW28906   3.449   6.409   5.399
 9336SOL    HW128907   3.408   6.321   5.372
 9336SOL    HW228908   3.417   6.435   5.490
 9337SOL     OW28909   4.093   1.439   4.634
 9337SOL    HW128910   4.127   1.473   4.546
 9337SOL    HW228911   4.169   1.431   4.698
 9338SOL     OW28912   6.314   0.150   1.596
 9338SOL    HW128913   6.224   0.107   1.602
 9338SOL    HW228914   6.346   0.148   1.502
 9339SOL     OW28915   6.057   6.391   0.832
 9339SOL    HW128916   6.000   6.469   0.858
 9339SOL    HW228917   6.139   6.423   0.786
 9340SOL     OW28918   4.843   4.737   3.399
 9340SOL    HW128919   4.818   4.648   3.438
 9340SOL    HW228920   4.922   4.774   3.447
 9341SOL     OW28921   6.739   5.262   1.235
 9341SOL    HW128922   6.809   5.332   1.251
 9341SOL    HW228923   6.656   5.305   1.200
 9342SOL     OW28924   3.242   6.651   3.682
 9342SOL    HW128925   3.213   6.691   3.595
 9342SOL    HW228926   3.324   6.698   3.716
 9343SOL     OW28927   5.116   3.953   1.614
 9343SOL    HW128928   5.079   4.012   1.542
 9343SOL    HW228929   5.180   4.006   1.670
 9344SOL     OW28930   5.426   6.705   2.044
 9344SOL    HW128931   5.354   6.653   2.090
 9344SOL    HW228932   5.386   6.779   1.990
 9345SOL     OW28933   6.897   5.880   1.821
 9345SOL    HW128934   6.821   5.897   1.884
 9345SOL    HW228935   6.919   5.965   1.773
 9346SOL     OW28936   5.383   0.808   1.515
 9346SOL    HW128937   5.338   0.739   1.572
 9346SOL    HW228938   5.472   0.830   1.555
 9347SOL     OW28939   3.623   3.925   0.515
 9347SOL    HW128940   3.715   3.922   0.552
 9347SOL    HW228941   3.573   4.001   0.557
 9348SOL     OW28942   2.138   6.224   3.030
 9348SOL    HW128943   2.231   6.257   3.014
 9348SOL    HW228944   2.082   6.241   2.949
 9349SOL     OW28945   6.523   4.839   2.280
 9349SOL    HW128946   6.569   4.865   2.195
 9349SOL    HW228947   6.427   4.819   2.260
 9350SOL     OW28948   6.934   2.686   5.252
 9350SOL    HW128949   6.984   2.772   5.242
 9350SOL    HW228950   6.991   2.620   5.302
 9351SOL     OW28951   3.417   0.128   6.494
 9351SOL    HW128952   3.495   0.134   6.556
 9351SOL    HW228953   3.450   0.120   6.400
 9352SOL     OW28954   3.862   1.218   6.449
 9352SOL    HW128955   3.803   1.237   6.371
 9352SOL    HW228956   3.885   1.121   6.451
 9353SOL     OW28957   0.744   4.080   1.098
 9353SOL    HW128958   0.809   4.156   1.087
 9353SOL    HW228959   0.693   4.067   1.013
 9354SOL     OW28960   0.376   2.246   6.119
 9354SOL    HW128961   0.390   2.177   6.047
 9354SOL    HW228962   0.316   2.208   6.189
 9355SOL     OW28963   0.063   2.113   4.707
 9355SOL    HW128964   0.082   2.109   4.609
 9355SOL    HW228965   6.987   2.095   4.724
 9356SOL     OW28966   4.577   6.432   2.049
 9356SOL    HW128967   4.529   6.368   1.989
 9356SOL    HW228968   4.517   6.509   2.071
 9357SOL     OW28969   1.434   3.256   6.645
 9357SOL    HW128970   1.444   3.263   6.745
 9357SOL    HW228971   1.498   3.188   6.610
 9358SOL     OW28972   0.084   3.226   2.139
 9358SOL    HW128973   0.153   3.256   2.205
 9358SOL    HW228974   7.014   3.251   2.172
 9359SOL     OW28975   1.773   3.528   5.856
 9359SOL    HW128976   1.712   3.583   5.799
 9359SOL    HW228977   1.868   3.548   5.833
 9360SOL     OW28978   1.350   5.844   6.920
 9360SOL    HW128979   1.435   5.858   6.971
 9360SOL    HW228980   1.368   5.788   6.839
 9361SOL     OW28981   1.676   5.313   2.388
 9361SOL    HW128982   1.607   5.305   2.316
 9361SOL    HW228983   1.663   5.399   2.437
 9362SOL     OW28984   1.975   2.731   2.469
 9362SOL    HW128985   2.034   2.671   2.524
 9362SOL    HW228986   2.012   2.824   2.470
 9363SOL     OW28987   3.755   6.469   1.890
 9363SOL    HW128988   3.733   6.458   1.987
 9363SOL    HW228989   3.681   6.432   1.835
 9364SOL     OW28990   3.556   2.994   6.216
 9364SOL    HW128991   3.647   3.034   6.203
 9364SOL    HW228992   3.518   3.024   6.303
 9365SOL     OW28993   2.300   2.001   3.955
 9365SOL    HW128994   2.217   2.045   3.989
 9365SOL    HW228995   2.329   2.045   3.870
 9366SOL     OW28996   3.568   5.540   6.211
 9366SOL    HW128997   3.537   5.445   6.210
 9366SOL    HW228998   3.659   5.545   6.171
 9367SOL     OW28999   0.359   6.757   3.013
 9367SOL    HW129000   0.319   6.836   2.967
 9367SOL    HW229001   0.349   6.768   3.112
 9368SOL     OW29002   2.911   0.884   2.578
 9368SOL    HW129003   2.877   0.832   2.499
 9368SOL    HW229004   2.999   0.847   2.607
 9369SOL     OW29005   6.541   5.720   4.622
 9369SOL    HW129006   6.584   5.691   4.536
 9369SOL    HW229007   6.595   5.793   4.664
 9370SOL     OW29008   5.604   0.183   3.669
 9370SOL    HW129009   5.523   0.123   3.670
 9370SOL    HW229010   5.594   0.253   3.739
 9371SOL     OW29011   2.932   5.067   0.763
 9371SOL    HW129012   2.833   5.068   0.752
 9371SOL    HW229013   2.956   5.094   0.856
 9372SOL     OW29014   5.005   0.756   1.913
 9372SOL    HW129015   4.971   0.664   1.889
 9372SOL    HW229016   4.996   0.816   1.834
 9373SOL     OW29017   5.160   1.723   2.367
 9373SOL    HW129018   5.221   1.644   2.378
 9373SOL    HW229019   5.202   1.790   2.306
 9374SOL     OW29020   0.186   3.447   0.303
 9374SOL    HW129021   0.126   3.389   0.248
 9374SOL    HW229022   0.190   3.538   0.262
 9375SOL     OW29023   0.770   1.462   1.502
 9375SOL    HW129024   0.700   1.495   1.439
 9375SOL    HW229025   0.766   1.362   1.508
 9376SOL     OW29026   2.440   3.989   1.155
 9376SOL    HW129027   2.520   4.043   1.126
 9376SOL    HW229028   2.358   4.046   1.147
 9377SOL     OW29029   1.779   5.479   3.432
 9377SOL    HW129030   1.789   5.432   3.520
 9377SOL    HW229031   1.860   5.535   3.415
 9378SOL     OW29032   1.764   1.249   3.826
 9378SOL    HW129033   1.758   1.345   3.856
 9378SOL    HW229034   1.674   1.221   3.791
 9379SOL     OW29035   5.072   0.085   5.636
 9379SOL    HW129036   5.023   0.013   5.685
 9379SOL    HW229037   5.128   0.044   5.564
 9380SOL     OW29038   4.591   5.641   5.683
 9380SOL    HW129039   4.615   5.570   5.750
 9380SOL    HW229040   4.656   5.639   5.608
 9381SOL     OW29041   4.612   2.991   5.546
 9381SOL    HW129042   4.690   3.025   5.598
 9381SOL    HW229043   4.610   3.035   5.456
 9382SOL     OW29044   3.233   0.866   3.928
 9382SOL    HW129045   3.300   0.792   3.929
 9382SOL    HW229046   3.159   0.843   3.864
 9383SOL     OW29047   6.093   5.875   4.667
 9383SOL    HW129048   6.119   5.811   4.740
 9383SOL    HW229049   6.079   5.824   4.582
 9384SOL     OW29050   4.391   0.564   2.047
 9384SOL    HW129051   4.382   0.515   1.961
 9384SOL    HW229052   4.449   0.511   2.110
 9385SOL     OW29053   4.042   1.304   3.532
 9385SOL    HW129054   4.013   1.256   3.615
 9385SOL    HW229055   3.987   1.272   3.455
 9386SOL     OW29056   3.142   5.532   5.182
 9386SOL    HW129057   3.150   5.477   5.099
 9386SOL    HW229058   3.179   5.481   5.259
 9387SOL     OW29059   2.714   1.931   0.273
 9387SOL    HW129060   2.722   2.012   0.215
 9387SOL    HW229061   2.670   1.857   0.222
 9388SOL     OW29062   2.689   5.733   3.191
 9388SOL    HW129063   2.672   5.810   3.129
 9388SOL    HW229064   2.762   5.757   3.255
 9389SOL     OW29065   1.823   0.315   3.427
 9389SOL    HW129066   1.909   0.331   3.475
 9389SOL    HW229067   1.843   0.285   3.333
 9390SOL     OW29068   5.704   4.701   6.725
 9390SOL    HW129069   5.715   4.776   6.790
 9390SOL    HW229070   5.642   4.730   6.651
 9391SOL     OW29071   1.416   0.687   5.379
 9391SOL    HW129072   1.427   0.683   5.280
 9391SOL    HW229073   1.362   0.769   5.403
 9392SOL     OW29074   5.612   5.246   5.718
 9392SOL    HW129075   5.609   5.342   5.748
 9392SOL    HW229076   5.520   5.208   5.718
 9393SOL     OW29077   3.439   6.835   6.739
 9393SOL    HW129078   3.531   6.863   6.766
 9393SOL    HW229079   3.440   6.807   6.643
 9394SOL     OW29080   6.621   0.905   1.663
 9394SOL    HW129081   6.613   0.929   1.566
 9394SOL    HW229082   6.602   0.808   1.676
 9395SOL     OW29083   3.341   1.512   1.215
 9395SOL    HW129084   3.303   1.463   1.294
 9395SOL    HW229085   3.318   1.463   1.132
 9396SOL     OW29086   2.257   4.084   3.870
 9396SOL    HW129087   2.220   4.024   3.941
 9396SOL    HW229088   2.310   4.157   3.913
 9397SOL     OW29089   3.554   6.274   6.423
 9397SOL    HW129090   3.551   6.364   6.465
 9397SOL    HW229091   3.603   6.211   6.483
 9398SOL     OW29092   6.388   1.100   5.097
 9398SOL    HW129093   6.412   1.156   5.176
 9398SOL    HW229094   6.314   1.038   5.121
 9399SOL     OW29095   1.275   2.811   5.004
 9399SOL    HW129096   1.249   2.897   5.048
 9399SOL    HW229097   1.370   2.789   5.028
 9400SOL     OW29098   4.893   1.258   0.895
 9400SOL    HW129099   4.857   1.219   0.810
 9400SOL    HW229100   4.948   1.339   0.874
 9401SOL     OW29101   6.502   0.851   3.068
 9401SOL    HW129102   6.505   0.751   3.066
 9401SOL    HW229103   6.429   0.883   3.007
 9402SOL     OW29104   1.359   5.463   2.580
 9402SOL    HW129105   1.351   5.393   2.650
 9402SOL    HW229106   1.289   5.449   2.510
 9403SOL     OW29107   6.392   1.382   1.815
 9403SOL    HW129108   6.455   1.316   1.776
 9403SOL    HW229109   6.408   1.390   1.914
 9404SOL     OW29110   1.070   2.085   0.360
 9404SOL    HW129111   1.120   2.092   0.446
 9404SOL    HW229112   1.077   1.991   0.325
 9405SOL     OW29113   2.209   3.977   3.608
 9405SOL    HW129114   2.273   3.981   3.685
 9405SOL    HW229115   2.255   4.011   3.526
 9406SOL     OW29116   0.597   2.627   6.665
 9406SOL    HW129117   0.550   2.708   6.630
 9406SOL    HW229118   0.693   2.629   6.637
 9407SOL     OW29119   2.545   4.850   3.299
 9407SOL    HW129120   2.454   4.819   3.270
 9407SOL    HW229121   2.535   4.911   3.378
 9408SOL     OW29122   6.516   2.717   5.822
 9408SOL    HW129123   6.517   2.618   5.804
 9408SOL    HW229124   6.503   2.766   5.735
 9409SOL     OW29125   6.307   5.645   0.982
 9409SOL    HW129126   6.370   5.658   0.906
 9409SOL    HW229127   6.258   5.730   1.000
 9410SOL     OW29128   2.025   0.724   2.727
 9410SOL    HW129129   2.046   0.800   2.666
 9410SOL    HW229130   1.928   0.726   2.751
 9411SOL     OW29131   3.944   3.804   2.957
 9411SOL    HW129132   3.889   3.887   2.965
 9411SOL    HW229133   3.966   3.770   3.049
 9412SOL     OW29134   1.509   1.681   2.009
 9412SOL    HW129135   1.477   1.747   2.077
 9412SOL    HW229136   1.602   1.653   2.032
 9413SOL     OW29137   3.997   5.275   3.569
 9413SOL    HW129138   4.001   5.347   3.639
 9413SOL    HW229139   4.089   5.244   3.547
 9414SOL     OW29140   2.735   1.099   3.010
 9414SOL    HW129141   2.658   1.150   3.046
 9414SOL    HW229142   2.724   1.086   2.912
 9415SOL     OW29143   2.057   6.963   3.039
 9415SOL    HW129144   2.144   6.915   3.046
 9415SOL    HW229145   2.054   7.016   2.953
 9416SOL     OW29146   0.418   1.415   6.045
 9416SOL    HW129147   0.341   1.455   5.994
 9416SOL    HW229148   0.454   1.336   5.996
 9417SOL     OW29149   3.461   0.635   0.896
 9417SOL    HW129150   3.364   0.647   0.915
 9417SOL    HW229151   3.515   0.687   0.963
 9418SOL     OW29152   2.955   0.776   1.667
 9418SOL    HW129153   2.984   0.704   1.604
 9418SOL    HW229154   2.856   0.769   1.682
 9419SOL     OW29155   2.554   4.342   6.269
 9419SOL    HW129156   2.484   4.384   6.327
 9419SOL    HW229157   2.613   4.283   6.323
 9420SOL     OW29158   5.648   4.947   1.000
 9420SOL    HW129159   5.583   4.892   0.949
 9420SOL    HW229160   5.610   5.038   1.015
 9421SOL     OW29161   2.965   6.031   4.734
 9421SOL    HW129162   3.025   6.003   4.809
 9421SOL    HW229163   2.871   6.038   4.767
 9422SOL     OW29164   2.934   5.485   2.783
 9422SOL    HW129165   2.924   5.547   2.706
 9422SOL    HW229166   2.946   5.538   2.867
 9423SOL     OW29167   3.572   6.286   3.511
 9423SOL    HW129168   3.500   6.229   3.472
 9423SOL    HW229169   3.642   6.228   3.553
 9424SOL     OW29170   4.532   2.164   4.110
 9424SOL    HW129171   4.502   2.248   4.154
 9424SOL    HW229172   4.539   2.091   4.178
 9425SOL     OW29173   5.362   4.201   1.402
 9425SOL    HW129174   5.431   4.242   1.343
 9425SOL    HW229175   5.365   4.102   1.393
 9426SOL     OW29176   3.539   1.983   6.338
 9426SOL    HW129177   3.501   1.919   6.405
 9426SOL    HW229178   3.523   1.948   6.246
 9427SOL     OW29179   2.866   5.238   3.373
 9427SOL    HW129180   2.878   5.173   3.297
 9427SOL    HW229181   2.912   5.324   3.351
 9428SOL     OW29182   0.362   0.409   1.039
 9428SOL    HW129183   0.320   0.498   1.053
 9428SOL    HW229184   0.319   0.363   0.961
 9429SOL     OW29185   1.708   3.794   3.511
 9429SOL    HW129186   1.772   3.722   3.535
 9429SOL    HW229187   1.697   3.857   3.589
 9430SOL     OW29188   0.129   2.673   4.951
 9430SOL    HW129189   0.105   2.770   4.939
 9430SOL    HW229190   0.199   2.665   5.022
 9431SOL     OW29191   6.384   4.502   0.990
 9431SOL    HW129192   6.404   4.502   0.892
 9431SOL    HW229193   6.292   4.538   1.006
 9432SOL     OW29194   6.247   0.562   3.818
 9432SOL    HW129195   6.246   0.487   3.884
 9432SOL    HW229196   6.328   0.619   3.833
 9433SOL     OW29197   2.897   6.292   2.898
 9433SOL    HW129198   2.986   6.274   2.856
 9433SOL    HW229199   2.826   6.244   2.845
 9434SOL     OW29200   5.565   5.894   2.381
 9434SOL    HW129201   5.521   5.958   2.317
 9434SOL    HW229202   5.533   5.801   2.362
 9435SOL     OW29203   0.200   2.536   3.582
 9435SOL    HW129204   0.106   2.523   3.613
 9435SOL    HW229205   0.235   2.451   3.543
 9436SOL     OW29206   1.413   2.630   1.770
 9436SOL    HW129207   1.419   2.582   1.682
 9436SOL    HW229208   1.320   2.619   1.807
 9437SOL     OW29209   0.667   6.106   2.770
 9437SOL    HW129210   0.602   6.172   2.808
 9437SOL    HW229211   0.747   6.155   2.736
 9438SOL     OW29212   0.679   0.223   1.874
 9438SOL    HW129213   0.683   0.275   1.959
 9438SOL    HW229214   0.757   0.161   1.870
 9439SOL     OW29215   0.746   3.218   0.381
 9439SOL    HW129216   0.796   3.184   0.301
 9439SOL    HW229217   0.652   3.239   0.356
 9440SOL     OW29218   3.826   4.847   3.212
 9440SOL    HW129219   3.766   4.767   3.209
 9440SOL    HW229220   3.910   4.824   3.260
 9441SOL     OW29221   5.999   4.526   5.868
 9441SOL    HW129222   5.996   4.593   5.794
 9441SOL    HW229223   6.019   4.435   5.831
 9442SOL     OW29224   5.751   4.011   1.667
 9442SOL    HW129225   5.845   3.977   1.654
 9442SOL    HW229226   5.704   3.953   1.733
 9443SOL     OW29227   2.613   5.552   0.443
 9443SOL    HW129228   2.607   5.453   0.437
 9443SOL    HW229229   2.666   5.587   0.365
 9444SOL     OW29230   1.999   4.068   0.663
 9444SOL    HW129231   1.993   4.128   0.743
 9444SOL    HW229232   1.918   4.082   0.606
 9445SOL     OW29233   5.971   3.523   2.942
 9445SOL    HW129234   5.960   3.610   2.892
 9445SOL    HW229235   5.953   3.538   3.039
 9446SOL     OW29236   6.009   5.215   5.201
 9446SOL    HW129237   5.958   5.298   5.224
 9446SOL    HW229238   6.007   5.201   5.102
 9447SOL     OW29239   5.497   4.483   3.630
 9447SOL    HW129240   5.532   4.532   3.551
 9447SOL    HW229241   5.574   4.448   3.684
 9448SOL     OW29242   6.937   0.012   5.946
 9448SOL    HW129243   6.871   6.972   5.901
 9448SOL    HW229244   6.888   0.089   5.987
 9449SOL     OW29245   5.470   6.965   0.382
 9449SOL    HW129246   5.385   6.996   0.341
 9449SOL    HW229247   5.461   6.869   0.408
 9450SOL     OW29248   2.499   6.196   3.142
 9450SOL    HW129249   2.439   6.152   3.209
 9450SOL    HW229250   2.546   6.126   3.088
 9451SOL     OW29251   4.867   6.105   5.786
 9451SOL    HW129252   4.776   6.120   5.824
 9451SOL    HW229253   4.862   6.035   5.715
 9452SOL     OW29254   1.390   4.298   0.123
 9452SOL    HW129255   1.428   4.283   0.032
 9452SOL    HW229256   1.463   4.301   0.191
 9453SOL     OW29257   2.708   5.312   2.840
 9453SOL    HW129258   2.679   5.267   2.924
 9453SOL    HW229259   2.787   5.371   2.859
 9454SOL     OW29260   3.336   3.457   6.429
 9454SOL    HW129261   3.314   3.396   6.506
 9454SOL    HW229262   3.396   3.409   6.365
 9455SOL     OW29263   2.961   2.054   3.605
 9455SOL    HW129264   2.982   2.063   3.507
 9455SOL    HW229265   2.948   1.958   3.628
 9456SOL     OW29266   0.020   3.181   0.422
 9456SOL    HW129267   0.009   3.209   0.518
 9456SOL    HW229268   0.106   3.218   0.387
 9457SOL     OW29269   0.988   4.360   4.341
 9457SOL    HW129270   1.081   4.338   4.370
 9457SOL    HW229271   0.935   4.276   4.333
 9458SOL     OW29272   0.339   3.649   6.186
 9458SOL    HW129273   0.426   3.638   6.139
 9458SOL    HW229274   0.355   3.688   6.277
 9459SOL     OW29275   5.263   4.951   3.901
 9459SOL    HW129276   5.225   4.898   3.977
 9459SOL    HW229277   5.288   4.889   3.826
 9460SOL     OW29278   2.132   3.760   4.522
 9460SOL    HW129279   2.094   3.679   4.479
 9460SOL    HW229280   2.158   3.826   4.451
 9461SOL     OW29281   0.644   1.895   1.576
 9461SOL    HW129282   0.600   1.984   1.566
 9461SOL    HW229283   0.593   1.826   1.524
 9462SOL     OW29284   1.596   3.203   3.482
 9462SOL    HW129285   1.663   3.132   3.457
 9462SOL    HW229286   1.554   3.179   3.569
 9463SOL     OW29287   5.849   0.552   1.397
 9463SOL    HW129288   5.904   0.636   1.397
 9463SOL    HW229289   5.772   0.563   1.460
 9464SOL     OW29290   5.622   0.493   0.990
 9464SOL    HW129291   5.709   0.507   1.038
 9464SOL    HW229292   5.548   0.534   1.043
 9465SOL     OW29293   0.005   3.956   1.724
 9465SOL    HW129294   6.940   3.905   1.715
 9465SOL    HW229295   0.051   3.931   1.809
 9466SOL     OW29296   3.329   4.404   5.341
 9466SOL    HW129297   3.333   4.388   5.439
 9466SOL    HW229298   3.283   4.327   5.296
 9467SOL     OW29299   1.216   3.105   1.174
 9467SOL    HW129300   1.237   3.036   1.105
 9467SOL    HW229301   1.123   3.089   1.210
 9468SOL     OW29302   5.468   4.150   6.535
 9468SOL    HW129303   5.398   4.214   6.566
 9468SOL    HW229304   5.555   4.198   6.525
 9469SOL     OW29305   0.232   5.617   1.723
 9469SOL    HW129306   0.281   5.593   1.807
 9469SOL    HW229307   0.185   5.536   1.688
 9470SOL     OW29308   5.200   3.316   0.006
 9470SOL    HW129309   5.124   3.257   6.997
 9470SOL    HW229310   5.173   3.368   0.086
 9471SOL     OW29311   6.411   2.684   4.275
 9471SOL    HW129312   6.312   2.691   4.281
 9471SOL    HW229313   6.442   2.603   4.326
 9472SOL     OW29314   6.739   2.940   5.228
 9472SOL    HW129315   6.696   2.882   5.159
 9472SOL    HW229316   6.838   2.936   5.218
 9473SOL     OW29317   3.255   4.720   0.201
 9473SOL    HW129318   3.217   4.669   0.278
 9473SOL    HW229319   3.287   4.657   0.131
 9474SOL     OW29320   0.021   3.731   1.045
 9474SOL    HW129321   0.080   3.794   1.096
 9474SOL    HW229322   0.078   3.675   0.985
 9475SOL     OW29323   3.596   3.004   0.339
 9475SOL    HW129324   3.528   2.936   0.367
 9475SOL    HW229325   3.666   3.012   0.409
 9476SOL     OW29326   3.991   3.939   4.325
 9476SOL    HW129327   3.979   4.031   4.287
 9476SOL    HW229328   4.045   3.884   4.261
 9477SOL     OW29329   0.781   2.988   0.507
 9477SOL    HW129330   0.787   3.084   0.483
 9477SOL    HW229331   0.860   2.962   0.563
 9478SOL     OW29332   5.380   3.449   1.488
 9478SOL    HW129333   5.332   3.512   1.550
 9478SOL    HW229334   5.325   3.436   1.405
 9479SOL     OW29335   4.241   6.398   0.452
 9479SOL    HW129336   4.328   6.361   0.484
 9479SOL    HW229337   4.257   6.458   0.374
 9480SOL     OW29338   5.465   5.113   0.425
 9480SOL    HW129339   5.390   5.113   0.491
 9480SOL    HW229340   5.441   5.054   0.348
 9481SOL     OW29341   4.893   3.178   2.651
 9481SOL    HW129342   4.889   3.230   2.565
 9481SOL    HW229343   4.911   3.241   2.727
 9482SOL     OW29344   0.698   0.942   2.667
 9482SOL    HW129345   0.730   0.895   2.750
 9482SOL    HW229346   0.617   0.996   2.690
 9483SOL     OW29347   1.339   0.370   0.804
 9483SOL    HW129348   1.358   0.273   0.786
 9483SOL    HW229349   1.287   0.408   0.727
 9484SOL     OW29350   3.801   7.017   4.480
 9484SOL    HW129351   3.855   7.017   4.564
 9484SOL    HW229352   3.860   6.993   4.402
 9485SOL     OW29353   0.484   1.028   0.965
 9485SOL    HW129354   0.453   0.965   0.894
 9485SOL    HW229355   0.507   0.976   1.048
 9486SOL     OW29356   4.126   6.219   0.952
 9486SOL    HW129357   4.156   6.309   0.919
 9486SOL    HW229358   4.082   6.229   1.041
 9487SOL     OW29359   3.270   3.801   4.012
 9487SOL    HW129360   3.243   3.719   4.062
 9487SOL    HW229361   3.219   3.880   4.047
 9488SOL     OW29362   2.809   6.878   1.320
 9488SOL    HW129363   2.890   6.933   1.342
 9488SOL    HW229364   2.823   6.832   1.233
 9489SOL     OW29365   5.026   4.524   1.740
 9489SOL    HW129366   5.107   4.503   1.684
 9489SOL    HW229367   4.967   4.587   1.691
 9490SOL     OW29368   6.157   5.720   2.881
 9490SOL    HW129369   6.106   5.780   2.943
 9490SOL    HW229370   6.131   5.625   2.899
 9491SOL     OW29371   5.014   4.472   4.216
 9491SOL    HW129372   4.991   4.550   4.274
 9491SOL    HW229373   5.029   4.391   4.272
 9492SOL     OW29374   3.916   3.442   4.580
 9492SOL    HW129375   3.880   3.531   4.553
 9492SOL    HW229376   3.852   3.370   4.553
 9493SOL     OW29377   2.586   5.694   4.100
 9493SOL    HW129378   2.666   5.652   4.143
 9493SOL    HW229379   2.579   5.789   4.128
 9494SOL     OW29380   5.394   2.858   2.967
 9494SOL    HW129381   5.296   2.857   2.946
 9494SOL    HW229382   5.445   2.880   2.883
 9495SOL     OW29383   6.939   1.939   3.374
 9495SOL    HW129384   6.848   1.911   3.344
 9495SOL    HW229385   7.004   1.865   3.356
 9496SOL     OW29386   6.449   3.437   1.617
 9496SOL    HW129387   6.361   3.478   1.641
 9496SOL    HW229388   6.506   3.432   1.699
 9497SOL     OW29389   5.367   6.688   5.347
 9497SOL    HW129390   5.376   6.787   5.338
 9497SOL    HW229391   5.303   6.667   5.421
 9498SOL     OW29392   5.598   5.638   4.713
 9498SOL    HW129393   5.604   5.729   4.753
 9498SOL    HW229394   5.689   5.607   4.687
 9499SOL     OW29395   1.948   5.095   6.247
 9499SOL    HW129396   1.997   5.046   6.175
 9499SOL    HW229397   2.012   5.121   6.319
 9500SOL     OW29398   4.547   0.053   0.604
 9500SOL    HW129399   4.586   0.135   0.562
 9500SOL    HW229400   4.600   0.029   0.685
 9501SOL     OW29401   2.772   1.277   4.968
 9501SOL    HW129402   2.693   1.296   5.026
 9501SOL    HW229403   2.793   1.357   4.912
 9502SOL     OW29404   6.078   2.709   4.870
 9502SOL    HW129405   6.177   2.698   4.872
 9502SOL    HW229406   6.049   2.771   4.943
 9503SOL     OW29407   0.331   1.515   0.455
 9503SOL    HW129408   0.420   1.479   0.426
 9503SOL    HW229409   0.337   1.545   0.550
 9504SOL     OW29410   6.872   3.583   0.673
 9504SOL    HW129411   6.872   3.491   0.710
 9504SOL    HW229412   6.811   3.586   0.593
 9505SOL     OW29413   5.234   4.872   4.926
 9505SOL    HW129414   5.167   4.932   4.970
 9505SOL    HW229415   5.310   4.927   4.890
 9506SOL     OW29416   2.124   2.915   0.194
 9506SOL    HW129417   2.181   2.834   0.179
 9506SOL    HW229418   2.099   2.921   0.290
 9507SOL     OW29419   0.832   1.085   2.078
 9507SOL    HW129420   0.913   1.044   2.037
 9507SOL    HW229421   0.767   1.110   2.007
 9508SOL     OW29422   6.154   2.203   2.179
 9508SOL    HW129423   6.119   2.131   2.119
 9508SOL    HW229424   6.136   2.292   2.137
 9509SOL     OW29425   0.345   0.808   4.100
 9509SOL    HW129426   0.375   0.782   4.009
 9509SOL    HW229427   0.422   0.804   4.163
 9510SOL     OW29428   1.533   4.081   3.521
 9510SOL    HW129429   1.455   4.018   3.522
 9510SOL    HW229430   1.536   4.130   3.608
 9511SOL     OW29431   2.036   0.209   1.419
 9511SOL    HW129432   1.981   0.166   1.490
 9511SOL    HW229433   1.986   0.288   1.382
 9512SOL     OW29434   6.406   1.787   1.208
 9512SOL    HW129435   6.361   1.796   1.297
 9512SOL    HW229436   6.391   1.870   1.154
 9513SOL     OW29437   2.318   3.862   6.073
 9513SOL    HW129438   2.250   3.801   6.114
 9513SOL    HW229439   2.297   3.956   6.098
 9514SOL     OW29440   2.597   5.409   5.777
 9514SOL    HW129441   2.554   5.498   5.789
 9514SOL    HW229442   2.676   5.401   5.839
 9515SOL     OW29443   1.810   5.677   1.188
 9515SOL    HW129444   1.810   5.649   1.284
 9515SOL    HW229445   1.896   5.722   1.166
 9516SOL     OW29446   6.061   5.342   6.824
 9516SOL    HW129447   6.105   5.270   6.770
 9516SOL    HW229448   5.976   5.307   6.863
 9517SOL     OW29449   1.415   3.749   1.423
 9517SOL    HW129450   1.499   3.736   1.477
 9517SOL    HW229451   1.422   3.833   1.370
 9518SOL     OW29452   1.595   1.981   0.460
 9518SOL    HW129453   1.580   2.038   0.380
 9518SOL    HW229454   1.627   1.891   0.432
 9519SOL     OW29455   3.643   3.162   4.723
 9519SOL    HW129456   3.608   3.081   4.769
 9519SOL    HW229457   3.683   3.136   4.635
 9520SOL     OW29458   2.461   1.840   3.063
 9520SOL    HW129459   2.512   1.793   3.135
 9520SOL    HW229460   2.363   1.839   3.086
 9521SOL     OW29461   5.230   5.970   2.465
 9521SOL    HW129462   5.156   5.913   2.430
 9521SOL    HW229463   5.306   5.972   2.400
 9522SOL     OW29464   2.577   5.467   1.209
 9522SOL    HW129465   2.480   5.443   1.200
 9522SOL    HW229466   2.629   5.425   1.135
 9523SOL     OW29467   3.363   5.162   4.948
 9523SOL    HW129468   3.399   5.254   4.960
 9523SOL    HW229469   3.437   5.096   4.961
 9524SOL     OW29470   3.725   2.270   1.108
 9524SOL    HW129471   3.800   2.319   1.063
 9524SOL    HW229472   3.731   2.173   1.086
 9525SOL     OW29473   2.619   2.707   5.749
 9525SOL    HW129474   2.640   2.757   5.834
 9525SOL    HW229475   2.700   2.706   5.691
 9526SOL     OW29476   5.050   5.806   1.859
 9526SOL    HW129477   5.028   5.725   1.805
 9526SOL    HW229478   5.049   5.887   1.801
 9527SOL     OW29479   0.921   0.600   2.942
 9527SOL    HW129480   1.014   0.590   2.976
 9527SOL    HW229481   0.917   0.572   2.846
 9528SOL     OW29482   6.606   0.557   0.481
 9528SOL    HW129483   6.668   0.570   0.558
 9528SOL    HW229484   6.539   0.631   0.479
 9529SOL     OW29485   6.501   2.909   5.617
 9529SOL    HW129486   6.501   2.824   5.565
 9529SOL    HW229487   6.407   2.940   5.631
 9530SOL     OW29488   1.772   3.323   2.846
 9530SOL    HW129489   1.698   3.331   2.913
 9530SOL    HW229490   1.811   3.231   2.851
 9531SOL     OW29491   4.343   6.142   2.762
 9531SOL    HW129492   4.280   6.085   2.709
 9531SOL    HW229493   4.348   6.108   2.856
 9532SOL     OW29494   0.050   6.473   2.258
 9532SOL    HW129495   6.984   6.498   2.301
 9532SOL    HW229496   0.033   6.450   2.162
 9533SOL     OW29497   6.600   0.463   5.048
 9533SOL    HW129498   6.641   0.484   4.959
 9533SOL    HW229499   6.644   0.382   5.086
 9534SOL     OW29500   6.066   3.226   5.184
 9534SOL    HW129501   6.049   3.266   5.094
 9534SOL    HW229502   6.163   3.201   5.191
 9535SOL     OW29503   2.504   1.157   5.532
 9535SOL    HW129504   2.590   1.205   5.515
 9535SOL    HW229505   2.442   1.171   5.455
 9536SOL     OW29506   3.147   4.627   5.300
 9536SOL    HW129507   3.208   4.555   5.333
 9536SOL    HW229508   3.060   4.587   5.270
 9537SOL     OW29509   2.596   6.749   2.951
 9537SOL    HW129510   2.661   6.675   2.936
 9537SOL    HW229511   2.640   6.822   3.004
 9538SOL     OW29512   6.829   2.344   3.811
 9538SOL    HW129513   6.741   2.299   3.794
 9538SOL    HW229514   6.846   2.346   3.910
 9539SOL     OW29515   1.614   3.344   5.268
 9539SOL    HW129516   1.653   3.376   5.182
 9539SOL    HW229517   1.687   3.325   5.333
 9540SOL     OW29518   5.114   3.648   4.253
 9540SOL    HW129519   5.088   3.553   4.236
 9540SOL    HW229520   5.120   3.663   4.352
 9541SOL     OW29521   2.750   1.653   5.790
 9541SOL    HW129522   2.700   1.612   5.867
 9541SOL    HW229523   2.747   1.590   5.712
 9542SOL     OW29524   4.884   3.690   4.511
 9542SOL    HW129525   4.977   3.718   4.538
 9542SOL    HW229526   4.873   3.592   4.527
 9543SOL     OW29527   2.982   1.004   4.679
 9543SOL    HW129528   3.079   1.007   4.655
 9543SOL    HW229529   2.929   0.973   4.600
 9544SOL     OW29530   0.171   1.373   3.122
 9544SOL    HW129531   0.220   1.459   3.132
 9544SOL    HW229532   0.076   1.391   3.095
 9545SOL     OW29533   6.516   4.830   3.742
 9545SOL    HW129534   6.587   4.759   3.738
 9545SOL    HW229535   6.557   4.916   3.770
 9546SOL     OW29536   2.668   2.415   5.774
 9546SOL    HW129537   2.762   2.440   5.749
 9546SOL    HW229538   2.611   2.497   5.774
 9547SOL     OW29539   2.112   6.078   4.041
 9547SOL    HW129540   2.170   6.157   4.062
 9547SOL    HW229541   2.066   6.047   4.125
 9548SOL     OW29542   6.022   6.379   5.022
 9548SOL    HW129543   5.929   6.411   5.041
 9548SOL    HW229544   6.071   6.367   5.109
 9549SOL     OW29545   2.881   3.703   1.224
 9549SOL    HW129546   2.960   3.651   1.256
 9549SOL    HW229547   2.808   3.641   1.197
 9550SOL     OW29548   0.016   1.210   0.089
 9550SOL    HW129549   6.942   1.208   0.058
 9550SOL    HW229550   0.018   1.195   0.188
 9551SOL     OW29551   6.702   0.987   4.193
 9551SOL    HW129552   6.793   0.958   4.163
 9551SOL    HW229553   6.640   0.908   4.193
 9552SOL     OW29554   0.982   5.973   2.223
 9552SOL    HW129555   0.972   6.067   2.255
 9552SOL    HW229556   0.911   5.916   2.263
 9553SOL     OW29557   6.225   3.727   6.785
 9553SOL    HW129558   6.242   3.695   6.878
 9553SOL    HW229559   6.165   3.663   6.738
 9554SOL     OW29560   2.771   0.230   1.496
 9554SOL    HW129561   2.772   0.191   1.404
 9554SOL    HW229562   2.689   0.201   1.545
 9555SOL     OW29563   0.762   0.980   1.251
 9555SOL    HW129564   0.672   0.958   1.290
 9555SOL    HW229565   0.814   0.895   1.240
 9556SOL     OW29566   2.939   2.675   0.966
 9556SOL    HW129567   2.907   2.596   0.914
 9556SOL    HW229568   2.951   2.753   0.904
 9557SOL     OW29569   6.544   0.602   2.984
 9557SOL    HW129570   6.623   0.571   3.036
 9557SOL    HW229571   6.575   0.642   2.897
 9558SOL     OW29572   5.807   5.499   4.623
 9558SOL    HW129573   5.794   5.424   4.558
 9558SOL    HW229574   5.851   5.576   4.576
 9559SOL     OW29575   0.327   3.795   1.398
 9559SOL    HW129576   0.230   3.818   1.398
 9559SOL    HW229577   0.349   3.743   1.316
 9560SOL     OW29578   1.471   2.042   2.601
 9560SOL    HW129579   1.563   2.034   2.563
 9560SOL    HW229580   1.404   2.013   2.532
 9561SOL     OW29581   1.840   6.862   0.529
 9561SOL    HW129582   1.783   6.803   0.586
 9561SOL    HW229583   1.866   6.812   0.446
 9562SOL     OW29584   3.358   6.607   4.956
 9562SOL    HW129585   3.340   6.593   4.858
 9562SOL    HW229586   3.277   6.582   5.008
 9563SOL     OW29587   5.886   6.858   0.341
 9563SOL    HW129588   5.802   6.913   0.343
 9563SOL    HW229589   5.962   6.916   0.313
 9564SOL     OW29590   2.902   6.979   6.670
 9564SOL    HW129591   2.863   6.896   6.630
 9564SOL    HW229592   2.994   6.994   6.633
 9565SOL     OW29593   4.263   6.363   5.268
 9565SOL    HW129594   4.279   6.313   5.353
 9565SOL    HW229595   4.167   6.390   5.262
 9566SOL     OW29596   3.447   4.383   0.246
 9566SOL    HW129597   3.424   4.288   0.266
 9566SOL    HW229598   3.397   4.414   0.165
 9567SOL     OW29599   6.701   5.161   6.401
 9567SOL    HW129600   6.670   5.222   6.474
 9567SOL    HW229601   6.668   5.069   6.418
 9568SOL     OW29602   5.051   2.728   6.752
 9568SOL    HW129603   4.998   2.658   6.703
 9568SOL    HW229604   5.002   2.756   6.834
 9569SOL     OW29605   6.914   0.277   2.035
 9569SOL    HW129606   6.820   0.254   2.061
 9569SOL    HW229607   6.977   0.241   2.104
 9570SOL     OW29608   0.781   2.274   1.466
 9570SOL    HW129609   0.793   2.285   1.565
 9570SOL    HW229610   0.870   2.277   1.421
 9571SOL     OW29611   2.935   3.649   6.928
 9571SOL    HW129612   3.004   3.615   6.865
 9571SOL    HW229613   2.870   3.576   6.948
 9572SOL     OW29614   1.749   5.323   1.117
 9572SOL    HW129615   1.710   5.320   1.025
 9572SOL    HW229616   1.675   5.323   1.184
 9573SOL     OW29617   0.604   1.723   6.517
 9573SOL    HW129618   0.577   1.729   6.613
 9573SOL    HW229619   0.563   1.798   6.466
 9574SOL     OW29620   3.993   3.081   4.371
 9574SOL    HW129621   4.054   3.032   4.433
 9574SOL    HW229622   4.028   3.072   4.277
 9575SOL     OW29623   5.422   0.856   0.836
 9575SOL    HW129624   5.445   0.848   0.739
 9575SOL    HW229625   5.343   0.798   0.856
 9576SOL     OW29626   2.994   0.897   2.888
 9576SOL    HW129627   2.992   0.996   2.870
 9576SOL    HW229628   3.024   0.849   2.806
 9577SOL     OW29629   1.271   0.864   3.294
 9577SOL    HW129630   1.358   0.852   3.340
 9577SOL    HW229631   1.280   0.935   3.224
 9578SOL     OW29632   0.161   3.834   3.322
 9578SOL    HW129633   0.260   3.841   3.333
 9578SOL    HW229634   0.116   3.875   3.401
 9579SOL     OW29635   1.234   5.749   3.151
 9579SOL    HW129636   1.177   5.782   3.076
 9579SOL    HW229637   1.263   5.826   3.208
 9580SOL     OW29638   5.123   2.991   0.718
 9580SOL    HW129639   5.035   3.029   0.691
 9580SOL    HW229640   5.182   2.983   0.638
 9581SOL     OW29641   1.653   5.401   6.429
 9581SOL    HW129642   1.568   5.365   6.467
 9581SOL    HW229643   1.722   5.329   6.429
 9582SOL     OW29644   4.458   4.767   4.841
 9582SOL    HW129645   4.417   4.719   4.919
 9582SOL    HW229646   4.499   4.853   4.873
 9583SOL     OW29647   2.970   3.261   1.419
 9583SOL    HW129648   3.012   3.264   1.510
 9583SOL    HW229649   2.873   3.281   1.427
 9584SOL     OW29650   6.157   5.819   6.924
 9584SOL    HW129651   6.084   5.810   6.856
 9584SOL    HW229652   6.118   5.814   7.016
 9585SOL     OW29653   6.816   1.172   3.062
 9585SOL    HW129654   6.791   1.135   2.973
 9585SOL    HW229655   6.733   1.192   3.115
 9586SOL     OW29656   6.209   4.031   1.726
 9586SOL    HW129657   6.173   4.119   1.693
 9586SOL    HW229658   6.192   4.023   1.824
 9587SOL     OW29659   6.351   0.228   2.399
 9587SOL    HW129660   6.310   0.285   2.470
 9587SOL    HW229661   6.446   0.209   2.423
 9588SOL     OW29662   0.513   1.409   2.082
 9588SOL    HW129663   0.487   1.321   2.121
 9588SOL    HW229664   0.430   1.456   2.049
 9589SOL     OW29665   3.040   6.006   6.343
 9589SOL    HW129666   2.951   6.017   6.387
 9589SOL    HW229667   3.041   6.057   6.257
 9590SOL     OW29668   0.220   4.714   2.444
 9590SOL    HW129669   0.177   4.705   2.354
 9590SOL    HW229670   0.316   4.741   2.433
 9591SOL     OW29671   3.250   5.629   0.094
 9591SOL    HW129672   3.343   5.631   0.057
 9591SOL    HW229673   3.198   5.706   0.059
 9592SOL     OW29674   3.633   5.084   1.955
 9592SOL    HW129675   3.636   5.038   2.044
 9592SOL    HW229676   3.549   5.138   1.949
 9593SOL     OW29677   5.006   1.222   4.562
 9593SOL    HW129678   5.092   1.189   4.523
 9593SOL    HW229679   4.973   1.157   4.630
 9594SOL     OW29680   0.001   5.352   3.703
 9594SOL    HW129681   6.954   5.373   3.774
 9594SOL    HW229682   6.977   5.353   3.613
 9595SOL     OW29683   1.864   4.413   4.103
 9595SOL    HW129684   1.932   4.343   4.130
 9595SOL    HW229685   1.892   4.453   4.016
 9596SOL     OW29686   0.428   5.401   0.164
 9596SOL    HW129687   0.436   5.376   0.068
 9596SOL    HW229688   0.510   5.450   0.193
 9597SOL     OW29689   0.211   4.264   1.092
 9597SOL    HW129690   0.154   4.343   1.070
 9597SOL    HW229691   0.254   4.278   1.181
 9598SOL     OW29692   0.478   4.024   5.269
 9598SOL    HW129693   0.543   4.015   5.193
 9598SOL    HW229694   0.508   3.966   5.345
 9599SOL     OW29695   2.903   0.526   4.676
 9599SOL    HW129696   2.905   0.506   4.774
 9599SOL    HW229697   2.981   0.584   4.651
 9600SOL     OW29698   2.495   6.818   5.839
 9600SOL    HW129699   2.470   6.794   5.933
 9600SOL    HW229700   2.468   6.743   5.778
 9601SOL     OW29701   6.238   4.363   6.053
 9601SOL    HW129702   6.258   4.449   6.007
 9601SOL    HW229703   6.159   4.374   6.113
 9602SOL     OW29704   0.012   5.277   6.421
 9602SOL    HW129705   6.950   5.237   6.379
 9602SOL    HW229706   0.009   5.263   6.520
 9603SOL     OW29707   2.351   0.035   4.344
 9603SOL    HW129708   2.307   7.006   4.418
 9603SOL    HW229709   2.436   7.009   4.318
 9604SOL     OW29710   4.993   0.590   0.584
 9604SOL    HW129711   4.914   0.555   0.635
 9604SOL    HW229712   5.077   0.567   0.633
 9605SOL     OW29713   0.177   4.945   5.961
 9605SOL    HW129714   0.093   4.901   5.930
 9605SOL    HW229715   0.219   4.994   5.885
 9606SOL     OW29716   0.950   6.850   4.312
 9606SOL    HW129717   1.042   6.812   4.317
 9606SOL    HW229718   0.891   6.804   4.378
 9607SOL     OW29719   1.276   2.080   1.530
 9607SOL    HW129720   1.229   1.993   1.546
 9607SOL    HW229721   1.208   2.154   1.527
 9608SOL     OW29722   0.540   6.582   2.531
 9608SOL    HW129723   0.504   6.584   2.624
 9608SOL    HW229724   0.472   6.540   2.470
 9609SOL     OW29725   1.419   3.525   5.217
 9609SOL    HW129726   1.368   3.525   5.303
 9609SOL    HW229727   1.476   3.443   5.213
 9610SOL     OW29728   1.306   3.499   5.450
 9610SOL    HW129729   1.261   3.555   5.519
 9610SOL    HW229730   1.348   3.419   5.494
 9611SOL     OW29731   0.241   6.952   1.095
 9611SOL    HW129732   0.250   0.007   1.031
 9611SOL    HW229733   0.156   6.903   1.076
 9612SOL     OW29734   6.192   2.897   0.366
 9612SOL    HW129735   6.213   2.864   0.274
 9612SOL    HW229736   6.206   2.824   0.432
 9613SOL     OW29737   5.239   6.207   4.239
 9613SOL    HW129738   5.256   6.209   4.338
 9613SOL    HW229739   5.265   6.118   4.203
 9614SOL     OW29740   3.996   3.745   1.510
 9614SOL    HW129741   4.075   3.737   1.449
 9614SOL    HW229742   3.926   3.680   1.482
 9615SOL     OW29743   1.663   6.186   2.632
 9615SOL    HW129744   1.700   6.140   2.551
 9615SOL    HW229745   1.691   6.137   2.714
 9616SOL     OW29746   4.433   3.688   1.053
 9616SOL    HW129747   4.364   3.699   0.980
 9616SOL    HW229748   4.439   3.592   1.079
 9617SOL     OW29749   1.238   3.870   4.262
 9617SOL    HW129750   1.242   3.926   4.345
 9617SOL    HW229751   1.150   3.823   4.257
 9618SOL     OW29752   3.187   0.484   6.767
 9618SOL    HW129753   3.220   0.394   6.737
 9618SOL    HW229754   3.135   0.527   6.693
 9619SOL     OW29755   1.392   0.146   1.011
 9619SOL    HW129756   1.476   0.092   1.014
 9619SOL    HW229757   1.415   0.243   1.000
 9620SOL     OW29758   4.385   1.942   6.985
 9620SOL    HW129759   4.372   2.028   0.013
 9620SOL    HW229760   4.479   1.910   6.998
 9621SOL     OW29761   1.308   0.995   1.976
 9621SOL    HW129762   1.251   1.067   2.015
 9621SOL    HW229763   1.373   1.035   1.911
 9622SOL     OW29764   6.052   1.386   6.674
 9622SOL    HW129765   6.042   1.288   6.690
 9622SOL    HW229766   5.994   1.436   6.738
 9623SOL     OW29767   4.619   4.950   6.563
 9623SOL    HW129768   4.549   4.920   6.628
 9623SOL    HW229769   4.575   4.977   6.477
 9624SOL     OW29770   5.257   4.659   5.424
 9624SOL    HW129771   5.229   4.651   5.329
 9624SOL    HW229772   5.337   4.601   5.440
 9625SOL     OW29773   4.654   4.289   6.900
 9625SOL    HW129774   4.749   4.257   6.895
 9625SOL    HW229775   4.604   4.234   6.966
 9626SOL     OW29776   2.393   5.567   4.506
 9626SOL    HW129777   2.333   5.600   4.579
 9626SOL    HW229778   2.418   5.643   4.446
 9627SOL     OW29779   0.813   4.221   5.024
 9627SOL    HW129780   0.868   4.186   4.948
 9627SOL    HW229781   0.802   4.320   5.014
 9628SOL     OW29782   5.883   3.911   0.680
 9628SOL    HW129783   5.880   3.846   0.757
 9628SOL    HW229784   5.792   3.948   0.664
 9629SOL     OW29785   6.618   6.365   3.166
 9629SOL    HW129786   6.622   6.457   3.203
 9629SOL    HW229787   6.630   6.368   3.067
 9630SOL     OW29788   6.180   5.864   5.354
 9630SOL    HW129789   6.209   5.960   5.360
 9630SOL    HW229790   6.259   5.808   5.328
 9631SOL     OW29791   4.638   1.809   1.022
 9631SOL    HW129792   4.568   1.879   1.034
 9631SOL    HW229793   4.693   1.802   1.105
 9632SOL     OW29794   2.104   5.275   1.238
 9632SOL    HW129795   2.117   5.313   1.146
 9632SOL    HW229796   2.019   5.223   1.241
 9633SOL     OW29797   3.927   3.464   0.634
 9633SOL    HW129798   4.009   3.430   0.588
 9633SOL    HW229799   3.941   3.560   0.661
 9634SOL     OW29800   5.941   5.276   3.329
 9634SOL    HW129801   5.920   5.363   3.375
 9634SOL    HW229802   6.020   5.233   3.374
 9635SOL     OW29803   0.815   4.587   5.248
 9635SOL    HW129804   0.770   4.642   5.318
 9635SOL    HW229805   0.794   4.490   5.263
 9636SOL     OW29806   3.640   1.414   6.193
 9636SOL    HW129807   3.685   1.326   6.186
 9636SOL    HW229808   3.657   1.468   6.111
 9637SOL     OW29809   3.531   3.043   1.156
 9637SOL    HW129810   3.466   3.077   1.087
 9637SOL    HW229811   3.480   3.012   1.236
 9638SOL     OW29812   0.115   3.718   6.035
 9638SOL    HW129813   0.199   3.675   6.068
 9638SOL    HW229814   0.130   3.817   6.026
 9639SOL     OW29815   4.037   2.464   1.735
 9639SOL    HW129816   4.007   2.546   1.687
 9639SOL    HW229817   4.115   2.425   1.687
 9640SOL     OW29818   3.525   0.808   2.397
 9640SOL    HW129819   3.547   0.711   2.387
 9640SOL    HW229820   3.426   0.820   2.404
 9641SOL     OW29821   5.396   6.424   2.262
 9641SOL    HW129822   5.494   6.409   2.275
 9641SOL    HW229823   5.364   6.494   2.326
 9642SOL     OW29824   1.123   6.829   4.008
 9642SOL    HW129825   1.133   6.928   4.017
 9642SOL    HW229826   1.197   6.783   4.058
 9643SOL     OW29827   5.088   3.609   3.794
 9643SOL    HW129828   5.013   3.628   3.857
 9643SOL    HW229829   5.141   3.531   3.828
 9644SOL     OW29830   2.011   5.614   5.493
 9644SOL    HW129831   2.077   5.675   5.448
 9644SOL    HW229832   1.978   5.546   5.428
 9645SOL     OW29833   2.334   4.656   5.284
 9645SOL    HW129834   2.299   4.636   5.375
 9645SOL    HW229835   2.391   4.580   5.252
 9646SOL     OW29836   2.897   5.618   2.546
 9646SOL    HW129837   2.859   5.691   2.490
 9646SOL    HW229838   2.925   5.542   2.487
 9647SOL     OW29839   0.220   6.916   3.331
 9647SOL    HW129840   0.127   6.942   3.307
 9647SOL    HW229841   0.231   6.919   3.430
 9648SOL     OW29842   4.776   3.011   1.064
 9648SOL    HW129843   4.730   2.977   1.146
 9648SOL    HW229844   4.865   2.967   1.054
 9649SOL     OW29845   2.488   3.925   6.721
 9649SOL    HW129846   2.451   4.016   6.737
 9649SOL    HW229847   2.587   3.930   6.715
 9650SOL     OW29848   5.362   4.105   3.060
 9650SOL    HW129849   5.401   4.155   2.983
 9650SOL    HW229850   5.263   4.117   3.062
 9651SOL     OW29851   3.943   0.929   1.116
 9651SOL    HW129852   3.880   0.867   1.162
 9651SOL    HW229853   3.908   1.022   1.120
 9652SOL     OW29854   0.589   5.147   0.992
 9652SOL    HW129855   0.529   5.075   1.027
 9652SOL    HW229856   0.623   5.203   1.067
 9653SOL     OW29857   4.706   4.633   5.683
 9653SOL    HW129858   4.759   4.717   5.675
 9653SOL    HW229859   4.769   4.555   5.691
 9654SOL     OW29860   3.361   3.138   3.110
 9654SOL    HW129861   3.446   3.115   3.064
 9654SOL    HW229862   3.306   3.055   3.120
 9655SOL     OW29863   6.948   1.493   0.269
 9655SOL    HW129864   0.005   1.542   0.228
 9655SOL    HW229865   6.981   1.437   0.345
 9656SOL     OW29866   4.670   2.149   0.715
 9656SOL    HW129867   4.612   2.177   0.791
 9656SOL    HW229868   4.756   2.200   0.718
 9657SOL     OW29869   6.022   4.447   2.771
 9657SOL    HW129870   6.113   4.436   2.811
 9657SOL    HW229871   5.977   4.526   2.814
 9658SOL     OW29872   5.804   2.351   2.730
 9658SOL    HW129873   5.869   2.279   2.706
 9658SOL    HW229874   5.807   2.369   2.828
 9659SOL     OW29875   1.143   2.548   0.348
 9659SOL    HW129876   1.061   2.566   0.293
 9659SOL    HW229877   1.223   2.542   0.289
 9660SOL     OW29878   0.942   0.051   2.187
 9660SOL    HW129879   0.874   0.008   2.248
 9660SOL    HW229880   0.982   0.130   2.233
 9661SOL     OW29881   4.138   5.913   1.354
 9661SOL    HW129882   4.194   5.838   1.387
 9661SOL    HW229883   4.060   5.877   1.303
 9662SOL     OW29884   4.824   3.655   0.486
 9662SOL    HW129885   4.854   3.574   0.535
 9662SOL    HW229886   4.798   3.726   0.552
 9663SOL     OW29887   0.197   5.986   2.731
 9663SOL    HW129888   0.225   6.068   2.780
 9663SOL    HW229889   0.177   5.913   2.797
 9664SOL     OW29890   5.271   4.431   4.412
 9664SOL    HW129891   5.244   4.497   4.482
 9664SOL    HW229892   5.202   4.359   4.407
 9665SOL     OW29893   5.960   6.153   5.627
 9665SOL    HW129894   5.940   6.208   5.708
 9665SOL    HW229895   5.875   6.139   5.575
 9666SOL     OW29896   6.312   3.644   2.151
 9666SOL    HW129897   6.265   3.616   2.235
 9666SOL    HW229898   6.400   3.686   2.174
 9667SOL     OW29899   3.585   3.452   0.538
 9667SOL    HW129900   3.606   3.405   0.452
 9667SOL    HW229901   3.669   3.492   0.575
 9668SOL     OW29902   1.176   0.813   6.552
 9668SOL    HW129903   1.108   0.842   6.484
 9668SOL    HW229904   1.201   0.717   6.535
 9669SOL     OW29905   2.261   6.988   1.669
 9669SOL    HW129906   2.275   6.954   1.762
 9669SOL    HW229907   2.178   6.949   1.630
 9670SOL     OW29908   0.170   5.419   5.411
 9670SOL    HW129909   0.199   5.514   5.410
 9670SOL    HW229910   0.241   5.363   5.455
 9671SOL     OW29911   6.623   4.578   0.512
 9671SOL    HW129912   6.594   4.670   0.539
 9671SOL    HW229913   6.646   4.578   0.415
 9672SOL     OW29914   1.376   5.079   3.271
 9672SOL    HW129915   1.333   4.990   3.283
 9672SOL    HW229916   1.316   5.150   3.310
 9673SOL     OW29917   3.484   3.583   1.362
 9673SOL    HW129918   3.466   3.513   1.293
 9673SOL    HW229919   3.419   3.658   1.350
 9674SOL     OW29920   3.886   6.737   3.383
 9674SOL    HW129921   3.921   6.825   3.352
 9674SOL    HW229922   3.958   6.687   3.430
 9675SOL     OW29923   4.924   2.507   6.866
 9675SOL    HW129924   4.892   2.429   6.918
 9675SOL    HW229925   4.976   2.568   6.925
 9676SOL     OW29926   1.530   3.468   6.052
 9676SOL    HW129927   1.537   3.383   6.104
 9676SOL    HW229928   1.622   3.506   6.037
 9677SOL     OW29929   6.713   4.818   5.591
 9677SOL    HW129930   6.759   4.898   5.554
 9677SOL    HW229931   6.648   4.846   5.661
 9678SOL     OW29932   2.926   3.529   4.124
 9678SOL    HW129933   2.936   3.430   4.137
 9678SOL    HW229934   2.931   3.575   4.213
 9679SOL     OW29935   2.189   0.155   3.804
 9679SOL    HW129936   2.236   0.228   3.754
 9679SOL    HW229937   2.185   0.179   3.901
 9680SOL     OW29938   4.564   0.205   5.074
 9680SOL    HW129939   4.478   0.179   5.118
 9680SOL    HW229940   4.598   0.290   5.115
 9681SOL     OW29941   2.829   2.217   0.637
 9681SOL    HW129942   2.854   2.284   0.568
 9681SOL    HW229943   2.836   2.125   0.599
 9682SOL     OW29944   4.776   4.181   3.482
 9682SOL    HW129945   4.729   4.164   3.395
 9682SOL    HW229946   4.858   4.125   3.488
 9683SOL     OW29947   3.318   6.355   1.374
 9683SOL    HW129948   3.237   6.314   1.416
 9683SOL    HW229949   3.329   6.319   1.281
 9684SOL     OW29950   0.648   3.956   5.064
 9684SOL    HW129951   0.687   4.040   5.029
 9684SOL    HW229952   0.700   3.878   5.030
 9685SOL     OW29953   4.725   4.359   1.316
 9685SOL    HW129954   4.736   4.275   1.369
 9685SOL    HW229955   4.723   4.338   1.219
 9686SOL     OW29956   0.631   2.901   6.337
 9686SOL    HW129957   0.676   2.917   6.249
 9686SOL    HW229958   0.629   2.803   6.357
 9687SOL     OW29959   0.036   1.209   3.410
 9687SOL    HW129960   0.008   1.166   3.496
 9687SOL    HW229961   7.014   1.299   3.403
 9688SOL     OW29962   1.093   3.023   0.824
 9688SOL    HW129963   1.183   3.061   0.802
 9688SOL    HW229964   1.038   3.093   0.870
 9689SOL     OW29965   0.790   4.648   6.733
 9689SOL    HW129966   0.796   4.549   6.743
 9689SOL    HW229967   0.834   4.692   6.811
 9690SOL     OW29968   6.058   6.618   5.860
 9690SOL    HW129969   6.130   6.595   5.794
 9690SOL    HW229970   5.991   6.677   5.816
 9691SOL     OW29971   2.814   3.774   1.546
 9691SOL    HW129972   2.843   3.715   1.471
 9691SOL    HW229973   2.777   3.719   1.620
 9692SOL     OW29974   4.523   5.956   1.113
 9692SOL    HW129975   4.593   5.942   1.044
 9692SOL    HW229976   4.567   5.979   1.200
 9693SOL     OW29977   6.169   3.982   2.890
 9693SOL    HW129978   6.212   4.064   2.926
 9693SOL    HW229979   6.211   3.901   2.931
 9694SOL     OW29980   2.873   1.038   1.915
 9694SOL    HW129981   2.912   1.090   1.991
 9694SOL    HW229982   2.873   0.940   1.938
 9695SOL     OW29983   6.798   2.359   3.157
 9695SOL    HW129984   6.881   2.409   3.134
 9695SOL    HW229985   6.767   2.387   3.248
 9696SOL     OW29986   5.383   2.754   1.542
 9696SOL    HW129987   5.479   2.781   1.538
 9696SOL    HW229988   5.328   2.822   1.494
 9697SOL     OW29989   0.528   6.053   0.293
 9697SOL    HW129990   0.514   6.110   0.212
 9697SOL    HW229991   0.441   6.012   0.320
 9698SOL     OW29992   5.616   2.533   5.772
 9698SOL    HW129993   5.707   2.572   5.757
 9698SOL    HW229994   5.624   2.436   5.793
 9699SOL     OW29995   0.084   5.733   6.882
 9699SOL    HW129996   0.113   5.673   6.957
 9699SOL    HW229997   0.163   5.761   6.828
 9700SOL     OW29998   5.777   4.897   4.783
 9700SOL    HW129999   5.807   4.808   4.818
 9700SOL    HW230000   5.726   4.945   4.854
 9701SOL     OW30001   5.163   4.175   5.927
 9701SOL    HW130002   5.155   4.095   5.867
 9701SOL    HW230003   5.096   4.244   5.899
 9702SOL     OW30004   3.812   2.425   7.008
 9702SOL    HW130005   3.806   2.450   6.911
 9702SOL    HW230006   3.905   2.394   0.008
 9703SOL     OW30007   5.195   3.037   3.658
 9703SOL    HW130008   5.241   3.105   3.600
 9703SOL    HW230009   5.263   2.979   3.702
 9704SOL     OW30010   3.521   6.131   1.528
 9704SOL    HW130011   3.432   6.086   1.523
 9704SOL    HW230012   3.591   6.068   1.495
 9705SOL     OW30013   5.271   4.689   6.290
 9705SOL    HW130014   5.286   4.756   6.363
 9705SOL    HW230015   5.260   4.598   6.330
 9706SOL     OW30016   2.861   2.424   0.828
 9706SOL    HW130017   2.865   2.370   0.744
 9706SOL    HW230018   2.887   2.367   0.906
 9707SOL     OW30019   6.543   4.867   2.561
 9707SOL    HW130020   6.541   4.860   2.461
 9707SOL    HW230021   6.581   4.956   2.587
 9708SOL     OW30022   0.642   1.447   3.689
 9708SOL    HW130023   0.623   1.540   3.721
 9708SOL    HW230024   0.648   1.447   3.589
 9709SOL     OW30025   5.039   5.571   2.746
 9709SOL    HW130026   4.985   5.587   2.663
 9709SOL    HW230027   5.089   5.654   2.770
 9710SOL     OW30028   0.196   1.400   1.535
 9710SOL    HW130029   0.281   1.433   1.577
 9710SOL    HW230030   0.120   1.458   1.564
 9711SOL     OW30031   4.434   5.086   6.389
 9711SOL    HW130032   4.337   5.107   6.378
 9711SOL    HW230033   4.474   5.145   6.458
 9712SOL     OW30034   5.635   3.397   7.010
 9712SOL    HW130035   5.565   3.376   6.943
 9712SOL    HW230036   5.678   3.312   0.020
 9713SOL     OW30037   2.113   4.315   3.445
 9713SOL    HW130038   2.178   4.362   3.505
 9713SOL    HW230039   2.024   4.360   3.451
 9714SOL     OW30040   4.481   6.321   6.275
 9714SOL    HW130041   4.414   6.327   6.202
 9714SOL    HW230042   4.572   6.344   6.239
 9715SOL     OW30043   5.850   4.040   0.025
 9715SOL    HW130044   5.820   3.948   0.000
 9715SOL    HW230045   5.777   4.086   0.077
 9716SOL     OW30046   3.168   4.297   6.708
 9716SOL    HW130047   3.139   4.202   6.714
 9716SOL    HW230048   3.156   4.341   6.797
 9717SOL     OW30049   5.122   0.028   6.359
 9717SOL    HW130050   5.090   0.114   6.318
 9717SOL    HW230051   5.203   0.045   6.414
 9718SOL     OW30052   5.226   3.386   1.275
 9718SOL    HW130053   5.217   3.333   1.190
 9718SOL    HW230054   5.199   3.481   1.258
 9719SOL     OW30055   5.928   0.697   5.826
 9719SOL    HW130056   5.963   0.743   5.907
 9719SOL    HW230057   5.833   0.671   5.840
 9720SOL     OW30058   0.931   4.187   2.159
 9720SOL    HW130059   0.925   4.229   2.250
 9720SOL    HW230060   0.927   4.258   2.089
 9721SOL     OW30061   0.590   1.182   6.969
 9721SOL    HW130062   0.519   1.113   6.982
 9721SOL    HW230063   0.565   1.242   6.893
 9722SOL     OW30064   3.582   1.476   5.018
 9722SOL    HW130065   3.522   1.400   4.992
 9722SOL    HW230066   3.540   1.529   5.091
 9723SOL     OW30067   3.833   6.388   3.659
 9723SOL    HW130068   3.818   6.427   3.750
 9723SOL    HW230069   3.807   6.291   3.660
 9724SOL     OW30070   1.342   5.224   0.111
 9724SOL    HW130071   1.373   5.214   0.016
 9724SOL    HW230072   1.242   5.217   0.114
 9725SOL     OW30073   4.290   6.299   6.086
 9725SOL    HW130074   4.239   6.367   6.033
 9725SOL    HW230075   4.278   6.209   6.044
 9726SOL     OW30076   4.357   1.561   3.219
 9726SOL    HW130077   4.393   1.612   3.141
 9726SOL    HW230078   4.428   1.503   3.257
 9727SOL     OW30079   0.855   2.618   6.599
 9727SOL    HW130080   0.893   2.526   6.587
 9727SOL    HW230081   0.913   2.670   6.661
 9728SOL     OW30082   0.525   0.917   5.215
 9728SOL    HW130083   0.443   0.909   5.272
 9728SOL    HW230084   0.604   0.935   5.273
 9729SOL     OW30085   1.228   4.670   3.745
 9729SOL    HW130086   1.279   4.596   3.702
 9729SOL    HW230087   1.138   4.636   3.773
 9730SOL     OW30088   1.445   4.735   3.086
 9730SOL    HW130089   1.401   4.708   3.171
 9730SOL    HW230090   1.502   4.816   3.101
 9731SOL     OW30091   4.923   5.591   1.730
 9731SOL    HW130092   4.897   5.659   1.662
 9731SOL    HW230093   4.842   5.562   1.782
 9732SOL     OW30094   1.029   3.945   2.274
 9732SOL    HW130095   1.123   3.961   2.303
 9732SOL    HW230096   0.985   4.033   2.256
 9733SOL     OW30097   4.897   5.826   0.252
 9733SOL    HW130098   4.992   5.811   0.224
 9733SOL    HW230099   4.836   5.808   0.175
 9734SOL     OW30100   6.806   0.647   0.041
 9734SOL    HW130101   6.842   0.652   0.134
 9734SOL    HW230102   6.748   0.726   0.023
 9735SOL     OW30103   1.803   3.060   3.368
 9735SOL    HW130104   1.893   3.055   3.411
 9735SOL    HW230105   1.814   3.087   3.272
 9736SOL     OW30106   5.413   1.243   5.528
 9736SOL    HW130107   5.384   1.337   5.508
 9736SOL    HW230108   5.510   1.243   5.552
 9737SOL     OW30109   5.446   2.356   2.885
 9737SOL    HW130110   5.504   2.279   2.912
 9737SOL    HW230111   5.367   2.361   2.946
 9738SOL     OW30112   2.517   6.482   0.158
 9738SOL    HW130113   2.492   6.411   0.223
 9738SOL    HW230114   2.495   6.572   0.196
 9739SOL     OW30115   5.049   5.779   0.785
 9739SOL    HW130116   5.051   5.722   0.703
 9739SOL    HW230117   4.990   5.736   0.853
 9740SOL     OW30118   0.430   1.392   3.389
 9740SOL    HW130119   0.523   1.359   3.372
 9740SOL    HW230120   0.371   1.367   3.313
 9741SOL     OW30121   2.380   1.140   2.445
 9741SOL    HW130122   2.412   1.083   2.521
 9741SOL    HW230123   2.458   1.167   2.388
 9742SOL     OW30124   3.463   1.237   0.569
 9742SOL    HW130125   3.542   1.205   0.518
 9742SOL    HW230126   3.487   1.246   0.666
 9743SOL     OW30127   6.621   3.991   3.699
 9743SOL    HW130128   6.700   4.038   3.659
 9743SOL    HW230129   6.538   4.017   3.649
 9744SOL     OW30130   1.143   6.600   1.891
 9744SOL    HW130131   1.091   6.631   1.971
 9744SOL    HW230132   1.226   6.553   1.922
 9745SOL     OW30133   4.509   2.780   6.456
 9745SOL    HW130134   4.441   2.775   6.383
 9745SOL    HW230135   4.537   2.875   6.470
 9746SOL     OW30136   5.559   0.593   5.730
 9746SOL    HW130137   5.512   0.631   5.650
 9746SOL    HW230138   5.532   0.644   5.811
 9747SOL     OW30139   2.781   2.170   1.853
 9747SOL    HW130140   2.739   2.224   1.780
 9747SOL    HW230141   2.840   2.230   1.908
 9748SOL     OW30142   6.081   6.777   3.694
 9748SOL    HW130143   6.061   6.780   3.596
 9748SOL    HW230144   6.171   6.818   3.711
 9749SOL     OW30145   1.334   0.851   4.197
 9749SOL    HW130146   1.396   0.852   4.119
 9749SOL    HW230147   1.351   0.932   4.254
 9750SOL     OW30148   6.061   5.280   3.698
 9750SOL    HW130149   6.135   5.291   3.765
 9750SOL    HW230150   5.974   5.276   3.746
 9751SOL     OW30151   2.483   6.963   1.111
 9751SOL    HW130152   2.430   6.919   1.183
 9751SOL    HW230153   2.466   0.041   1.112
 9752SOL     OW30154   4.206   1.674   5.427
 9752SOL    HW130155   4.282   1.666   5.363
 9752SOL    HW230156   4.147   1.750   5.400
 9753SOL     OW30157   0.332   5.714   6.217
 9753SOL    HW130158   0.240   5.754   6.219
 9753SOL    HW230159   0.340   5.645   6.289
 9754SOL     OW30160   2.042   0.148   0.982
 9754SOL    HW130161   1.946   0.175   0.996
 9754SOL    HW230162   2.080   0.114   1.067
 9755SOL     OW30163   3.867   3.622   4.316
 9755SOL    HW130164   3.939   3.677   4.274
 9755SOL    HW230165   3.836   3.666   4.400
 9756SOL     OW30166   5.571   2.152   5.724
 9756SOL    HW130167   5.603   2.136   5.630
 9756SOL    HW230168   5.472   2.140   5.728
 9757SOL     OW30169   5.664   4.399   4.575
 9757SOL    HW130170   5.628   4.307   4.584
 9757SOL    HW230171   5.588   4.464   4.565
 9758SOL     OW30172   2.210   0.549   0.020
 9758SOL    HW130173   2.270   0.629   0.035
 9758SOL    HW230174   2.267   0.469   0.001
 9759SOL     OW30175   1.353   0.778   6.974
 9759SOL    HW130176   1.371   0.876   6.970
 9759SOL    HW230177   1.280   0.755   6.910
 9760SOL     OW30178   4.801   3.503   5.737
 9760SOL    HW130179   4.797   3.416   5.785
 9760SOL    HW230180   4.825   3.487   5.641
 9761SOL     OW30181   0.553   2.131   1.456
 9761SOL    HW130182   0.553   2.084   1.368
 9761SOL    HW230183   0.645   2.165   1.476
 9762SOL     OW30184   3.445   2.100   4.772
 9762SOL    HW130185   3.367   2.157   4.750
 9762SOL    HW230186   3.444   2.079   4.870
 9763SOL     OW30187   4.989   2.057   3.110
 9763SOL    HW130188   4.926   1.993   3.067
 9763SOL    HW230189   4.951   2.085   3.199
 9764SOL     OW30190   6.611   2.679   2.974
 9764SOL    HW130191   6.556   2.600   2.946
 9764SOL    HW230192   6.622   2.679   3.073
 9765SOL     OW30193   6.421   6.536   3.563
 9765SOL    HW130194   6.406   6.471   3.489
 9765SOL    HW230195   6.502   6.508   3.615
 9766SOL     OW30196   2.512   6.495   2.132
 9766SOL    HW130197   2.596   6.442   2.120
 9766SOL    HW230198   2.458   6.490   2.049
 9767SOL     OW30199   3.087   1.717   5.548
 9767SOL    HW130200   3.136   1.678   5.626
 9767SOL    HW230201   3.092   1.654   5.471
 9768SOL     OW30202   5.491   1.085   1.757
 9768SOL    HW130203   5.532   1.176   1.765
 9768SOL    HW230204   5.392   1.093   1.757
 9769SOL     OW30205   4.483   0.387   4.507
 9769SOL    HW130206   4.429   0.335   4.573
 9769SOL    HW230207   4.481   0.484   4.531
 9770SOL     OW30208   4.114   1.112   6.152
 9770SOL    HW130209   4.196   1.136   6.202
 9770SOL    HW230210   4.126   1.023   6.107
 9771SOL     OW30211   2.703   5.350   0.975
 9771SOL    HW130212   2.753   5.375   0.892
 9771SOL    HW230213   2.760   5.289   1.031
 9772SOL     OW30214   1.362   5.868   1.453
 9772SOL    HW130215   1.293   5.938   1.433
 9772SOL    HW230216   1.405   5.888   1.541
 9773SOL     OW30217   5.619   5.368   4.284
 9773SOL    HW130218   5.584   5.281   4.250
 9773SOL    HW230219   5.555   5.404   4.352
 9774SOL     OW30220   6.593   5.161   2.080
 9774SOL    HW130221   6.605   5.062   2.073
 9774SOL    HW230222   6.647   5.196   2.157
 9775SOL     OW30223   2.666   0.512   3.710
 9775SOL    HW130224   2.720   0.435   3.676
 9775SOL    HW230225   2.579   0.478   3.746
 9776SOL     OW30226   0.179   4.690   5.500
 9776SOL    HW130227   0.119   4.674   5.421
 9776SOL    HW230228   0.124   4.694   5.583
 9777SOL     OW30229   5.820   5.228   0.720
 9777SOL    HW130230   5.761   5.271   0.652
 9777SOL    HW230231   5.916   5.244   0.695
 9778SOL     OW30232   0.319   2.098   4.223
 9778SOL    HW130233   0.365   2.178   4.262
 9778SOL    HW230234   0.334   2.019   4.281
 9779SOL     OW30235   0.465   2.323   4.414
 9779SOL    HW130236   0.547   2.359   4.369
 9779SOL    HW230237   0.491   2.283   4.502
 9780SOL     OW30238   2.650   2.443   0.028
 9780SOL    HW130239   2.575   2.507   0.046
 9780SOL    HW230240   2.722   2.489   6.996
 9781SOL     OW30241   2.332   2.269   4.949
 9781SOL    HW130242   2.388   2.188   4.966
 9781SOL    HW230243   2.391   2.349   4.939
 9782SOL     OW30244   0.330   1.558   0.748
 9782SOL    HW130245   0.264   1.626   0.779
 9782SOL    HW230246   0.334   1.483   0.815
 9783SOL     OW30247   4.811   2.907   3.211
 9783SOL    HW130248   4.787   2.988   3.157
 9783SOL    HW230249   4.869   2.935   3.287
 9784SOL     OW30250   3.176   1.316   6.377
 9784SOL    HW130251   3.274   1.333   6.389
 9784SOL    HW230252   3.163   1.230   6.329
 9785SOL     OW30253   0.498   2.069   5.897
 9785SOL    HW130254   0.507   2.006   5.819
 9785SOL    HW230255   0.542   2.028   5.977
 9786SOL     OW30256   2.839   4.089   0.482
 9786SOL    HW130257   2.805   4.171   0.436
 9786SOL    HW230258   2.874   4.024   0.414
 9787SOL     OW30259   3.493   2.879   2.583
 9787SOL    HW130260   3.458   2.941   2.654
 9787SOL    HW230261   3.427   2.805   2.568
 9788SOL     OW30262   1.146   0.293   3.103
 9788SOL    HW130263   1.048   0.306   3.092
 9788SOL    HW230264   1.166   0.196   3.116
 9789SOL     OW30265   1.648   5.236   0.288
 9789SOL    HW130266   1.551   5.231   0.312
 9789SOL    HW230267   1.661   5.308   0.220
 9790SOL     OW30268   6.422   5.108   6.706
 9790SOL    HW130269   6.434   5.010   6.694
 9790SOL    HW230270   6.500   5.157   6.667
 9791SOL     OW30271   0.879   0.068   6.940
 9791SOL    HW130272   0.797   0.014   6.918
 9791SOL    HW230273   0.953   0.006   6.965
 9792SOL     OW30274   3.380   4.087   1.047
 9792SOL    HW130275   3.449   4.026   1.009
 9792SOL    HW230276   3.297   4.035   1.066
 9793SOL     OW30277   4.472   0.134   2.712
 9793SOL    HW130278   4.551   0.195   2.710
 9793SOL    HW230279   4.406   0.162   2.643
 9794SOL     OW30280   0.217   4.011   6.553
 9794SOL    HW130281   0.161   4.094   6.555
 9794SOL    HW230282   0.181   3.949   6.484
 9795SOL     OW30283   1.240   1.896   4.670
 9795SOL    HW130284   1.218   1.836   4.593
 9795SOL    HW230285   1.157   1.919   4.720
 9796SOL     OW30286   4.134   3.337   2.264
 9796SOL    HW130287   4.149   3.436   2.255
 9796SOL    HW230288   4.086   3.319   2.350
 9797SOL     OW30289   2.344   5.697   0.479
 9797SOL    HW130290   2.302   5.684   0.569
 9797SOL    HW230291   2.422   5.635   0.468
 9798SOL     OW30292   3.523   0.489   2.280
 9798SOL    HW130293   3.512   0.557   2.207
 9798SOL    HW230294   3.442   0.430   2.283
 9799SOL     OW30295   2.646   4.149   5.604
 9799SOL    HW130296   2.591   4.176   5.525
 9799SOL    HW230297   2.742   4.143   5.576
 9800SOL     OW30298   4.993   5.276   5.377
 9800SOL    HW130299   4.989   5.356   5.436
 9800SOL    HW230300   4.940   5.202   5.418
 9801SOL     OW30301   4.697   3.844   0.128
 9801SOL    HW130302   4.620   3.794   0.167
 9801SOL    HW230303   4.757   3.780   0.080
 9802SOL     OW30304   6.280   4.373   1.817
 9802SOL    HW130305   6.206   4.440   1.829
 9802SOL    HW230306   6.272   4.330   1.727
 9803SOL     OW30307   2.034   2.307   6.112
 9803SOL    HW130308   2.106   2.263   6.164
 9803SOL    HW230309   2.074   2.366   6.042
 9804SOL     OW30310   0.981   6.207   2.997
 9804SOL    HW130311   1.031   6.245   3.075
 9804SOL    HW230312   1.046   6.174   2.929
 9805SOL     OW30313   0.937   0.065   3.079
 9805SOL    HW130314   1.002   0.078   3.154
 9805SOL    HW230315   0.981   0.089   2.992
 9806SOL     OW30316   1.401   1.065   6.968
 9806SOL    HW130317   1.394   1.074   6.869
 9806SOL    HW230318   1.399   1.156   7.009
 9807SOL     OW30319   3.324   3.830   1.381
 9807SOL    HW130320   3.259   3.789   1.317
 9807SOL    HW230321   3.293   3.921   1.407
 9808SOL     OW30322   3.607   6.682   4.904
 9808SOL    HW130323   3.520   6.646   4.934
 9808SOL    HW230324   3.677   6.665   4.973
 9809SOL     OW30325   1.039   3.550   6.415
 9809SOL    HW130326   0.971   3.537   6.343
 9809SOL    HW230327   1.004   3.615   6.483
 9810SOL     OW30328   2.189   2.493   3.615
 9810SOL    HW130329   2.152   2.403   3.638
 9810SOL    HW230330   2.288   2.493   3.631
 9811SOL     OW30331   5.504   4.872   3.150
 9811SOL    HW130332   5.549   4.857   3.238
 9811SOL    HW230333   5.453   4.790   3.124
 9812SOL     OW30334   4.078   1.821   5.798
 9812SOL    HW130335   4.170   1.845   5.829
 9812SOL    HW230336   4.067   1.722   5.804
 9813SOL     OW30337   4.491   1.437   0.474
 9813SOL    HW130338   4.477   1.343   0.443
 9813SOL    HW230339   4.463   1.444   0.570
 9814SOL     OW30340   6.896   0.216   6.383
 9814SOL    HW130341   6.835   0.287   6.417
 9814SOL    HW230342   6.947   0.177   6.459
 9815SOL     OW30343   5.167   3.705   4.546
 9815SOL    HW130344   5.215   3.786   4.580
 9815SOL    HW230345   5.201   3.624   4.594
 9816SOL     OW30346   0.980   0.892   6.385
 9816SOL    HW130347   0.973   0.871   6.288
 9816SOL    HW230348   0.907   0.846   6.435
 9817SOL     OW30349   2.817   6.412   3.180
 9817SOL    HW130350   2.890   6.475   3.155
 9817SOL    HW230351   2.802   6.346   3.106
 9818SOL     OW30352   0.865   0.511   3.882
 9818SOL    HW130353   0.820   0.436   3.833
 9818SOL    HW230354   0.949   0.536   3.835
 9819SOL     OW30355   4.881   3.651   3.263
 9819SOL    HW130356   4.880   3.750   3.256
 9819SOL    HW230357   4.965   3.621   3.309
 9820SOL     OW30358   3.908   2.826   6.469
 9820SOL    HW130359   3.969   2.905   6.466
 9820SOL    HW230360   3.931   2.764   6.394
 9821SOL     OW30361   4.872   1.506   6.711
 9821SOL    HW130362   4.865   1.433   6.643
 9821SOL    HW230363   4.967   1.537   6.716
 9822SOL     OW30364   1.876   0.014   3.425
 9822SOL    HW130365   1.876   0.113   3.418
 9822SOL    HW230366   1.884   6.994   3.333
 9823SOL     OW30367   2.637   0.482   0.022
 9823SOL    HW130368   2.614   0.518   6.952
 9823SOL    HW230369   2.718   0.528   0.057
 9824SOL     OW30370   2.039   4.999   4.457
 9824SOL    HW130371   1.957   5.039   4.416
 9824SOL    HW230372   2.021   4.904   4.483
 9825SOL     OW30373   4.758   5.670   5.488
 9825SOL    HW130374   4.806   5.625   5.413
 9825SOL    HW230375   4.729   5.762   5.459
 9826SOL     OW30376   4.994   4.818   6.444
 9826SOL    HW130377   5.046   4.902   6.431
 9826SOL    HW230378   5.021   4.751   6.374
 9827SOL     OW30379   2.112   3.702   3.379
 9827SOL    HW130380   2.117   3.637   3.303
 9827SOL    HW230381   2.142   3.792   3.347
 9828SOL     OW30382   2.445   2.462   5.620
 9828SOL    HW130383   2.450   2.497   5.526
 9828SOL    HW230384   2.494   2.375   5.626
 9829SOL     OW30385   4.131   4.738   0.133
 9829SOL    HW130386   4.216   4.760   0.181
 9829SOL    HW230387   4.058   4.723   0.200
 9830SOL     OW30388   6.110   2.732   1.883
 9830SOL    HW130389   6.064   2.770   1.963
 9830SOL    HW230390   6.043   2.686   1.824
 9831SOL     OW30391   2.299   5.109   1.289
 9831SOL    HW130392   2.377   5.119   1.227
 9831SOL    HW230393   2.232   5.181   1.270
 9832SOL     OW30394   4.856   5.443   3.238
 9832SOL    HW130395   4.911   5.523   3.214
 9832SOL    HW230396   4.795   5.420   3.161
 9833SOL     OW30397   3.599   3.791   5.191
 9833SOL    HW130398   3.555   3.878   5.168
 9833SOL    HW230399   3.606   3.783   5.290
 9834SOL     OW30400   2.517   4.445   5.215
 9834SOL    HW130401   2.610   4.472   5.240
 9834SOL    HW230402   2.500   4.352   5.247
 9835SOL     OW30403   4.019   3.339   5.390
 9835SOL    HW130404   3.933   3.314   5.346
 9835SOL    HW230405   4.073   3.257   5.408
 9836SOL     OW30406   6.768   4.697   3.669
 9836SOL    HW130407   6.767   4.670   3.765
 9836SOL    HW230408   6.832   4.773   3.657
 9837SOL     OW30409   3.037   0.120   3.330
 9837SOL    HW130410   3.123   0.167   3.347
 9837SOL    HW230411   3.018   0.122   3.231
 9838SOL     OW30412   2.042   6.902   6.675
 9838SOL    HW130413   2.003   6.816   6.708
 9838SOL    HW230414   2.068   6.959   6.753
 9839SOL     OW30415   5.769   0.734   3.500
 9839SOL    HW130416   5.848   0.745   3.441
 9839SOL    HW230417   5.782   0.655   3.560
 9840SOL     OW30418   5.729   1.375   1.045
 9840SOL    HW130419   5.687   1.349   1.132
 9840SOL    HW230420   5.774   1.464   1.055
 9841SOL     OW30421   2.150   4.665   5.089
 9841SOL    HW130422   2.056   4.636   5.103
 9841SOL    HW230423   2.199   4.661   5.176
 9842SOL     OW30424   3.763   3.174   2.086
 9842SOL    HW130425   3.758   3.100   2.153
 9842SOL    HW230426   3.838   3.156   2.022
 9843SOL     OW30427   5.974   0.789   1.423
 9843SOL    HW130428   5.980   0.848   1.503
 9843SOL    HW230429   5.963   0.844   1.340
 9844SOL     OW30430   6.309   0.533   2.067
 9844SOL    HW130431   6.280   0.451   2.116
 9844SOL    HW230432   6.258   0.540   1.981
 9845SOL     OW30433   2.092   2.526   2.962
 9845SOL    HW130434   2.000   2.549   2.995
 9845SOL    HW230435   2.146   2.491   3.038
 9846SOL     OW30436   3.761   3.411   1.755
 9846SOL    HW130437   3.706   3.338   1.794
 9846SOL    HW230438   3.708   3.460   1.686
 9847SOL     OW30439   3.558   2.913   3.531
 9847SOL    HW130440   3.636   2.944   3.476
 9847SOL    HW230441   3.591   2.862   3.610
 9848SOL     OW30442   3.865   3.390   5.074
 9848SOL    HW130443   3.885   3.430   4.984
 9848SOL    HW230444   3.889   3.456   5.145
 9849SOL     OW30445   0.211   6.401   6.438
 9849SOL    HW130446   0.274   6.324   6.453
 9849SOL    HW230447   0.226   6.470   6.509
 9850SOL     OW30448   5.861   0.043   4.350
 9850SOL    HW130449   5.852   6.993   4.421
 9850SOL    HW230450   5.817   0.127   4.381
 9851SOL     OW30451   5.896   0.710   4.664
 9851SOL    HW130452   5.969   0.713   4.733
 9851SOL    HW230453   5.853   0.799   4.658
 9852SOL     OW30454   3.933   2.069   3.651
 9852SOL    HW130455   3.942   2.102   3.557
 9852SOL    HW230456   3.989   1.987   3.663
 9853SOL     OW30457   4.994   4.040   5.203
 9853SOL    HW130458   5.090   4.017   5.222
 9853SOL    HW230459   4.940   4.028   5.286
 9854SOL     OW30460   6.905   5.573   5.059
 9854SOL    HW130461   6.893   5.646   4.991
 9854SOL    HW230462   6.879   5.485   5.018
 9855SOL     OW30463   2.022   3.454   0.978
 9855SOL    HW130464   1.999   3.549   0.958
 9855SOL    HW230465   1.954   3.415   1.040
 9856SOL     OW30466   5.193   4.565   5.162
 9856SOL    HW130467   5.097   4.537   5.169
 9856SOL    HW230468   5.205   4.626   5.083
 9857SOL     OW30469   4.738   2.847   2.760
 9857SOL    HW130470   4.735   2.766   2.702
 9857SOL    HW230471   4.812   2.907   2.731
 9858SOL     OW30472   0.567   0.784   1.139
 9858SOL    HW130473   0.615   0.697   1.150
 9858SOL    HW230474   0.482   0.769   1.087
 9859SOL     OW30475   6.204   6.958   2.416
 9859SOL    HW130476   6.218   6.900   2.497
 9859SOL    HW230477   6.257   0.021   2.425
 9860SOL     OW30478   1.289   1.668   3.529
 9860SOL    HW130479   1.194   1.636   3.526
 9860SOL    HW230480   1.340   1.613   3.596
 9861SOL     OW30481   2.840   0.332   3.560
 9861SOL    HW130482   2.939   0.345   3.550
 9861SOL    HW230483   2.819   0.235   3.556
 9862SOL     OW30484   3.767   2.924   0.152
 9862SOL    HW130485   3.703   2.947   0.225
 9862SOL    HW230486   3.767   2.826   0.137
 9863SOL     OW30487   3.239   0.128   2.845
 9863SOL    HW130488   3.307   0.073   2.797
 9863SOL    HW230489   3.188   0.184   2.779
 9864SOL     OW30490   4.254   6.913   3.825
 9864SOL    HW130491   4.291   7.005   3.812
 9864SOL    HW230492   4.158   6.919   3.853
 9865SOL     OW30493   1.477   0.747   4.603
 9865SOL    HW130494   1.403   0.757   4.669
 9865SOL    HW230495   1.539   0.825   4.611
 9866SOL     OW30496   5.573   4.834   6.508
 9866SOL    HW130497   5.569   4.793   6.417
 9866SOL    HW230498   5.609   4.927   6.501
 9867SOL     OW30499   6.575   0.777   1.056
 9867SOL    HW130500   6.645   0.740   0.995
 9867SOL    HW230501   6.599   0.754   1.151
 9868SOL     OW30502   0.280   3.604   5.608
 9868SOL    HW130503   0.208   3.591   5.677
 9868SOL    HW230504   0.320   3.695   5.618
 9869SOL     OW30505   1.518   3.087   1.933
 9869SOL    HW130506   1.484   3.052   2.020
 9869SOL    HW230507   1.617   3.072   1.928
 9870SOL     OW30508   3.702   5.927   2.881
 9870SOL    HW130509   3.765   5.851   2.895
 9870SOL    HW230510   3.732   6.006   2.933
 9871SOL     OW30511   0.439   6.148   5.761
 9871SOL    HW130512   0.447   6.228   5.820
 9871SOL    HW230513   0.523   6.094   5.766
 9872SOL     OW30514   2.447   5.463   4.181
 9872SOL    HW130515   2.440   5.546   4.125
 9872SOL    HW230516   2.542   5.431   4.180
 9873SOL     OW30517   2.427   2.263   6.956
 9873SOL    HW130518   2.486   2.333   6.995
 9873SOL    HW230519   2.412   2.190   0.002
 9874SOL     OW30520   5.971   3.082   4.769
 9874SOL    HW130521   6.013   3.013   4.709
 9874SOL    HW230522   5.880   3.105   4.734
 9875SOL     OW30523   5.876   6.460   1.720
 9875SOL    HW130524   5.776   6.465   1.729
 9875SOL    HW230525   5.919   6.504   1.799
 9876SOL     OW30526   6.588   6.913   3.579
 9876SOL    HW130527   6.651   6.888   3.653
 9876SOL    HW230528   6.495   6.886   3.604
 9877SOL     OW30529   6.906   5.929   4.260
 9877SOL    HW130530   6.908   6.025   4.230
 9877SOL    HW230531   6.819   5.888   4.234
 9878SOL     OW30532   2.605   4.803   5.085
 9878SOL    HW130533   2.594   4.868   5.010
 9878SOL    HW230534   2.694   4.758   5.078
 9879SOL     OW30535   5.599   5.291   5.158
 9879SOL    HW130536   5.578   5.371   5.215
 9879SOL    HW230537   5.531   5.283   5.086
 9880SOL     OW30538   3.600   0.740   0.026
 9880SOL    HW130539   3.637   0.818   6.997
 9880SOL    HW230540   3.534   0.692   6.989
 9881SOL     OW30541   1.002   1.336   4.750
 9881SOL    HW130542   1.026   1.312   4.844
 9881SOL    HW230543   1.051   1.275   4.687
 9882SOL     OW30544   1.240   3.312   4.799
 9882SOL    HW130545   1.312   3.244   4.817
 9882SOL    HW230546   1.281   3.403   4.792
 9883SOL     OW30547   1.324   6.302   0.907
 9883SOL    HW130548   1.402   6.239   0.917
 9883SOL    HW230549   1.337   6.380   0.968
 9884SOL     OW30550   5.048   2.389   1.708
 9884SOL    HW130551   5.095   2.303   1.688
 9884SOL    HW230552   5.072   2.420   1.799
 9885SOL     OW30553   6.794   2.113   4.727
 9885SOL    HW130554   6.774   2.030   4.674
 9885SOL    HW230555   6.823   2.186   4.666
 9886SOL     OW30556   1.448   4.826   1.647
 9886SOL    HW130557   1.503   4.853   1.726
 9886SOL    HW230558   1.353   4.816   1.674
 9887SOL     OW30559   4.176   0.104   6.346
 9887SOL    HW130560   4.111   0.046   6.394
 9887SOL    HW230561   4.269   0.073   6.364
 9888SOL     OW30562   5.586   5.181   2.282
 9888SOL    HW130563   5.594   5.087   2.248
 9888SOL    HW230564   5.667   5.233   2.254
 9889SOL     OW30565   6.503   4.843   0.893
 9889SOL    HW130566   6.464   4.870   0.981
 9889SOL    HW230567   6.583   4.784   0.908
 9890SOL     OW30568   1.143   2.834   1.469
 9890SOL    HW130569   1.198   2.751   1.473
 9890SOL    HW230570   1.047   2.809   1.456
 9891SOL     OW30571   5.740   3.286   2.059
 9891SOL    HW130572   5.700   3.334   1.981
 9891SOL    HW230573   5.772   3.196   2.030
 9892SOL     OW30574   0.819   4.973   1.720
 9892SOL    HW130575   0.914   4.986   1.750
 9892SOL    HW230576   0.801   5.032   1.642
 9893SOL     OW30577   0.377   0.817   1.775
 9893SOL    HW130578   0.445   0.874   1.820
 9893SOL    HW230579   0.304   0.874   1.737
 9894SOL     OW30580   3.109   2.151   0.339
 9894SOL    HW130581   3.161   2.236   0.332
 9894SOL    HW230582   3.011   2.172   0.345
 9895SOL     OW30583   5.582   4.137   5.322
 9895SOL    HW130584   5.574   4.068   5.394
 9895SOL    HW230585   5.656   4.112   5.260
 9896SOL     OW30586   6.256   1.014   0.858
 9896SOL    HW130587   6.231   1.001   0.761
 9896SOL    HW230588   6.355   1.019   0.867
 9897SOL     OW30589   5.617   6.697   2.486
 9897SOL    HW130590   5.637   6.772   2.422
 9897SOL    HW230591   5.518   6.687   2.495
 9898SOL     OW30592   1.009   5.343   5.546
 9898SOL    HW130593   1.081   5.280   5.576
 9898SOL    HW230594   1.048   5.432   5.526
 9899SOL     OW30595   1.570   5.351   1.302
 9899SOL    HW130596   1.620   5.407   1.369
 9899SOL    HW230597   1.473   5.374   1.306
 9900SOL     OW30598   1.286   2.716   2.903
 9900SOL    HW130599   1.317   2.647   2.968
 9900SOL    HW230600   1.290   2.807   2.946
 9901SOL     OW30601   2.707   0.891   6.804
 9901SOL    HW130602   2.765   0.900   6.722
 9901SOL    HW230603   2.654   0.806   6.797
 9902SOL     OW30604   2.930   4.663   1.425
 9902SOL    HW130605   2.970   4.642   1.335
 9902SOL    HW230606   2.846   4.715   1.412
 9903SOL     OW30607   5.377   1.561   1.649
 9903SOL    HW130608   5.310   1.499   1.690
 9903SOL    HW230609   5.342   1.596   1.562
 9904SOL     OW30610   0.703   3.887   6.710
 9904SOL    HW130611   0.633   3.850   6.650
 9904SOL    HW230612   0.758   3.813   6.748
 9905SOL     OW30613   2.481   0.266   5.824
 9905SOL    HW130614   2.402   0.206   5.811
 9905SOL    HW230615   2.472   0.315   5.911
 9906SOL     OW30616   1.680   3.196   0.325
 9906SOL    HW130617   1.763   3.167   0.373
 9906SOL    HW230618   1.693   3.289   0.290
 9907SOL     OW30619   1.181   0.677   1.005
 9907SOL    HW130620   1.238   0.716   0.933
 9907SOL    HW230621   1.238   0.622   1.066
 9908SOL     OW30622   6.490   1.895   4.688
 9908SOL    HW130623   6.417   1.827   4.678
 9908SOL    HW230624   6.574   1.850   4.719
 9909SOL     OW30625   3.898   1.004   2.598
 9909SOL    HW130626   3.898   0.927   2.661
 9909SOL    HW230627   3.880   0.970   2.505
 9910SOL     OW30628   1.383   4.954   1.395
 9910SOL    HW130629   1.422   5.016   1.327
 9910SOL    HW230630   1.438   4.957   1.478
 9911SOL     OW30631   2.658   6.104   2.406
 9911SOL    HW130632   2.629   6.199   2.399
 9911SOL    HW230633   2.586   6.050   2.450
 9912SOL     OW30634   3.652   1.600   0.966
 9912SOL    HW130635   3.655   1.516   0.912
 9912SOL    HW230636   3.740   1.647   0.959
 9913SOL     OW30637   6.247   3.496   0.559
 9913SOL    HW130638   6.308   3.436   0.508
 9913SOL    HW230639   6.214   3.448   0.640
 9914SOL     OW30640   6.246   0.803   5.053
 9914SOL    HW130641   6.194   0.743   5.113
 9914SOL    HW230642   6.344   0.783   5.063
 9915SOL     OW30643   6.114   0.910   3.483
 9915SOL    HW130644   6.046   0.908   3.556
 9915SOL    HW230645   6.206   0.914   3.523
 9916SOL     OW30646   2.260   2.126   2.898
 9916SOL    HW130647   2.217   2.205   2.855
 9916SOL    HW230648   2.360   2.134   2.890
 9917SOL     OW30649   4.228   3.992   6.144
 9917SOL    HW130650   4.229   4.089   6.166
 9917SOL    HW230651   4.199   3.979   6.049
 9918SOL     OW30652   1.432   2.335   2.793
 9918SOL    HW130653   1.462   2.415   2.742
 9918SOL    HW230654   1.509   2.297   2.844
 9919SOL     OW30655   1.602   5.678   0.992
 9919SOL    HW130656   1.691   5.663   1.034
 9919SOL    HW230657   1.532   5.681   1.062
 9920SOL     OW30658   5.577   0.365   2.371
 9920SOL    HW130659   5.502   0.415   2.329
 9920SOL    HW230660   5.662   0.417   2.359
 9921SOL     OW30661   4.331   6.202   4.213
 9921SOL    HW130662   4.411   6.184   4.156
 9921SOL    HW230663   4.278   6.277   4.174
 9922SOL     OW30664   3.638   3.990   0.986
 9922SOL    HW130665   3.710   4.029   0.929
 9922SOL    HW230666   3.676   3.965   1.075
 9923SOL     OW30667   5.983   4.560   6.657
 9923SOL    HW130668   5.972   4.645   6.606
 9923SOL    HW230669   5.893   4.524   6.681
 9924SOL     OW30670   5.959   2.006   3.011
 9924SOL    HW130671   5.971   2.106   3.012
 9924SOL    HW230672   6.038   1.963   2.967
 9925SOL     OW30673   0.270   5.366   4.161
 9925SOL    HW130674   0.321   5.358   4.076
 9925SOL    HW230675   0.323   5.329   4.237
 9926SOL     OW30676   4.144   2.309   1.011
 9926SOL    HW130677   4.090   2.246   1.067
 9926SOL    HW230678   4.197   2.257   0.944
 9927SOL     OW30679   1.695   0.756   0.922
 9927SOL    HW130680   1.756   0.742   0.843
 9927SOL    HW230681   1.715   0.845   0.964
 9928SOL     OW30682   5.111   4.722   3.801
 9928SOL    HW130683   5.054   4.645   3.829
 9928SOL    HW230684   5.097   4.740   3.703
 9929SOL     OW30685   3.618   3.975   4.619
 9929SOL    HW130686   3.645   3.900   4.679
 9929SOL    HW230687   3.692   3.993   4.553
 9930SOL     OW30688   0.133   6.835   5.572
 9930SOL    HW130689   0.222   6.830   5.527
 9930SOL    HW230690   0.092   6.924   5.556
 9931SOL     OW30691   0.138   5.083   4.701
 9931SOL    HW130692   0.108   4.991   4.677
 9931SOL    HW230693   0.059   5.141   4.719
 9932SOL     OW30694   2.730   3.160   5.651
 9932SOL    HW130695   2.663   3.095   5.614
 9932SOL    HW230696   2.820   3.140   5.613
 9933SOL     OW30697   1.873   6.745   4.328
 9933SOL    HW130698   1.847   6.664   4.381
 9933SOL    HW230699   1.955   6.724   4.274
 9934SOL     OW30700   0.240   2.139   6.346
 9934SOL    HW130701   0.254   2.068   6.415
 9934SOL    HW230702   0.253   2.229   6.388
 9935SOL     OW30703   2.793   0.038   0.960
 9935SOL    HW130704   2.719   0.041   1.028
 9935SOL    HW230705   2.770   6.991   0.890
 9936SOL     OW30706   5.892   4.562   0.673
 9936SOL    HW130707   5.931   4.654   0.667
 9936SOL    HW230708   5.817   4.554   0.607
 9937SOL     OW30709   0.393   2.184   1.698
 9937SOL    HW130710   0.340   2.239   1.634
 9937SOL    HW230711   0.490   2.187   1.672
 9938SOL     OW30712   5.464   4.764   3.624
 9938SOL    HW130713   5.506   4.751   3.713
 9938SOL    HW230714   5.414   4.682   3.598
 9939SOL     OW30715   4.473   2.660   1.169
 9939SOL    HW130716   4.551   2.643   1.109
 9939SOL    HW230717   4.388   2.640   1.120
 9940SOL     OW30718   1.117   0.398   1.866
 9940SOL    HW130719   1.080   0.400   1.773
 9940SOL    HW230720   1.042   0.387   1.931
 9941SOL     OW30721   3.134   3.256   5.134
 9941SOL    HW130722   3.134   3.281   5.231
 9941SOL    HW230723   3.228   3.245   5.102
 9942SOL     OW30724   3.401   5.194   2.512
 9942SOL    HW130725   3.427   5.190   2.609
 9942SOL    HW230726   3.480   5.174   2.455
 9943SOL     OW30727   0.902   4.995   6.446
 9943SOL    HW130728   0.971   4.957   6.508
 9943SOL    HW230729   0.925   4.970   6.352
 9944SOL     OW30730   0.823   4.717   6.416
 9944SOL    HW130731   0.789   4.804   6.450
 9944SOL    HW230732   0.878   4.673   6.487
 9945SOL     OW30733   4.578   5.952   0.009
 9945SOL    HW130734   4.604   5.965   0.104
 9945SOL    HW230735   4.480   5.929   0.004
 9946SOL     OW30736   6.174   0.102   3.674
 9946SOL    HW130737   6.234   0.131   3.599
 9946SOL    HW230738   6.081   0.092   3.639
 9947SOL     OW30739   2.714   2.308   4.430
 9947SOL    HW130740   2.803   2.316   4.475
 9947SOL    HW230741   2.644   2.355   4.484
 9948SOL     OW30742   6.863   5.088   6.188
 9948SOL    HW130743   6.877   5.157   6.117
 9948SOL    HW230744   6.794   5.120   6.253
 9949SOL     OW30745   6.637   4.736   4.233
 9949SOL    HW130746   6.578   4.684   4.171
 9949SOL    HW230747   6.707   4.783   4.179
 9950SOL     OW30748   5.766   5.944   6.343
 9950SOL    HW130749   5.691   5.930   6.407
 9950SOL    HW230750   5.843   5.986   6.391
 9951SOL     OW30751   1.558   2.356   3.379
 9951SOL    HW130752   1.471   2.315   3.354
 9951SOL    HW230753   1.559   2.376   3.477
 9952SOL     OW30754   1.007   4.444   0.591
 9952SOL    HW130755   1.097   4.430   0.632
 9952SOL    HW230756   0.937   4.442   0.662
 9953SOL     OW30757   6.148   2.378   4.006
 9953SOL    HW130758   6.115   2.285   4.021
 9953SOL    HW230759   6.078   2.431   3.958
 9954SOL     OW30760   1.094   0.260   5.672
 9954SOL    HW130761   1.135   0.346   5.702
 9954SOL    HW230762   1.019   0.279   5.609
 9955SOL     OW30763   4.974   3.985   6.500
 9955SOL    HW130764   5.001   3.899   6.458
 9955SOL    HW230765   4.875   3.996   6.494
 9956SOL     OW30766   0.933   5.696   3.867
 9956SOL    HW130767   0.869   5.742   3.806
 9956SOL    HW230768   0.882   5.632   3.925
 9957SOL     OW30769   5.551   0.162   1.771
 9957SOL    HW130770   5.530   0.072   1.732
 9957SOL    HW230771   5.640   0.194   1.736
 9958SOL     OW30772   2.414   5.589   6.846
 9958SOL    HW130773   2.476   5.532   6.792
 9958SOL    HW230774   2.322   5.550   6.843
 9959SOL     OW30775   4.115   3.597   3.869
 9959SOL    HW130776   4.210   3.570   3.850
 9959SOL    HW230777   4.071   3.625   3.783
 9960SOL     OW30778   6.916   0.096   1.758
 9960SOL    HW130779   6.953   0.132   1.843
 9960SOL    HW230780   6.823   0.061   1.774
 9961SOL     OW30781   1.261   4.905   4.399
 9961SOL    HW130782   1.181   4.913   4.460
 9961SOL    HW230783   1.300   4.813   4.408
 9962SOL     OW30784   4.597   1.027   2.561
 9962SOL    HW130785   4.626   1.036   2.466
 9962SOL    HW230786   4.500   1.005   2.564
 9963SOL     OW30787   2.488   2.690   6.075
 9963SOL    HW130788   2.488   2.685   6.175
 9963SOL    HW230789   2.561   2.751   6.045
 9964SOL     OW30790   4.506   3.931   6.010
 9964SOL    HW130791   4.490   4.011   6.068
 9964SOL    HW230792   4.530   3.852   6.067
 9965SOL     OW30793   4.199   5.040   6.133
 9965SOL    HW130794   4.160   4.959   6.088
 9965SOL    HW230795   4.291   5.057   6.097
 9966SOL     OW30796   2.657   5.747   2.114
 9966SOL    HW130797   2.595   5.713   2.185
 9966SOL    HW230798   2.690   5.838   2.140
 9967SOL     OW30799   6.184   6.111   1.682
 9967SOL    HW130800   6.152   6.106   1.587
 9967SOL    HW230801   6.105   6.113   1.743
 9968SOL     OW30802   3.377   4.095   6.316
 9968SOL    HW130803   3.376   4.108   6.217
 9968SOL    HW230804   3.336   4.174   6.361
 9969SOL     OW30805   1.680   3.099   4.127
 9969SOL    HW130806   1.686   3.067   4.222
 9969SOL    HW230807   1.598   3.155   4.116
 9970SOL     OW30808   5.525   4.714   2.473
 9970SOL    HW130809   5.468   4.712   2.390
 9970SOL    HW230810   5.600   4.779   2.460
 9971SOL     OW30811   2.800   3.579   0.509
 9971SOL    HW130812   2.757   3.493   0.535
 9971SOL    HW230813   2.845   3.569   0.421
 9972SOL     OW30814   3.755   4.218   0.526
 9972SOL    HW130815   3.657   4.210   0.510
 9972SOL    HW230816   3.772   4.295   0.588
 9973SOL     OW30817   4.081   1.679   4.121
 9973SOL    HW130818   4.086   1.777   4.102
 9973SOL    HW230819   4.170   1.637   4.107
 9974SOL     OW30820   6.415   3.980   3.277
 9974SOL    HW130821   6.384   3.888   3.299
 9974SOL    HW230822   6.502   3.975   3.229
 9975SOL     OW30823   6.333   4.382   0.279
 9975SOL    HW130824   6.350   4.309   0.345
 9975SOL    HW230825   6.421   4.418   0.246
 9976SOL     OW30826   0.347   5.651   5.441
 9976SOL    HW130827   0.300   5.725   5.490
 9976SOL    HW230828   0.381   5.686   5.354
 9977SOL     OW30829   0.307   5.494   6.368
 9977SOL    HW130830   0.209   5.495   6.352
 9977SOL    HW230831   0.325   5.467   6.463
 9978SOL     OW30832   6.460   3.005   3.238
 9978SOL    HW130833   6.434   3.092   3.196
 9978SOL    HW230834   6.426   2.930   3.182
 9979SOL     OW30835   6.026   4.699   5.640
 9979SOL    HW130836   5.972   4.703   5.556
 9979SOL    HW230837   6.123   4.706   5.617
 9980SOL     OW30838   1.666   1.451   6.335
 9980SOL    HW130839   1.759   1.416   6.342
 9980SOL    HW230840   1.653   1.525   6.401
 9981SOL     OW30841   2.316   1.799   1.287
 9981SOL    HW130842   2.309   1.895   1.261
 9981SOL    HW230843   2.237   1.773   1.343
 9982SOL     OW30844   0.419   1.342   3.807
 9982SOL    HW130845   0.410   1.250   3.770
 9982SOL    HW230846   0.508   1.380   3.782
 9983SOL     OW30847   1.087   2.402   2.734
 9983SOL    HW130848   1.117   2.308   2.719
 9983SOL    HW230849   1.116   2.432   2.824
 9984SOL     OW30850   1.430   0.131   0.707
 9984SOL    HW130851   1.507   0.068   0.699
 9984SOL    HW230852   1.354   0.086   0.753
 9985SOL     OW30853   2.333   1.026   2.001
 9985SOL    HW130854   2.272   0.956   1.962
 9985SOL    HW230855   2.416   1.031   1.947
 9986SOL     OW30856   5.141   4.316   6.998
 9986SOL    HW130857   5.176   4.360   0.060
 9986SOL    HW230858   5.118   4.386   6.930
 9987SOL     OW30859   6.385   1.905   3.149
 9987SOL    HW130860   6.383   1.975   3.219
 9987SOL    HW230861   6.451   1.930   3.078
 9988SOL     OW30862   0.150   5.403   4.992
 9988SOL    HW130863   0.159   5.499   5.020
 9988SOL    HW230864   0.241   5.367   4.969
 9989SOL     OW30865   5.925   4.256   3.280
 9989SOL    HW130866   5.883   4.253   3.371
 9989SOL    HW230867   6.020   4.227   3.286
 9990SOL     OW30868   2.263   0.124   2.640
 9990SOL    HW130869   2.280   0.103   2.544
 9990SOL    HW230870   2.344   0.101   2.694
 9991SOL     OW30871   2.175   3.132   4.185
 9991SOL    HW130872   2.227   3.047   4.183
 9991SOL    HW230873   2.077   3.112   4.182
 9992SOL     OW30874   4.294   3.564   0.550
 9992SOL    HW130875   4.224   3.584   0.482
 9992SOL    HW230876   4.343   3.481   0.524
 9993SOL     OW30877   3.922   0.467   2.088
 9993SOL    HW130878   3.885   0.464   1.995
 9993SOL    HW230879   3.885   0.547   2.135
 9994SOL     OW30880   0.108   4.526   4.051
 9994SOL    HW130881   0.143   4.619   4.042
 9994SOL    HW230882   0.008   4.527   4.051
 9995SOL     OW30883   3.134   0.756   2.675
 9995SOL    HW130884   3.158   0.728   2.582
 9995SOL    HW230885   3.167   0.688   2.740
 9996SOL     OW30886   3.048   3.092   1.873
 9996SOL    HW130887   3.069   3.044   1.958
 9996SOL    HW230888   2.999   3.030   1.811
 9997SOL     OW30889   4.021   1.659   0.981
 9997SOL    HW130890   4.000   1.757   0.984
 9997SOL    HW230891   4.004   1.619   1.071
 9998SOL     OW30892   6.396   3.913   1.509
 9998SOL    HW130893   6.369   3.822   1.479
 9998SOL    HW230894   6.327   3.948   1.573
 9999SOL     OW30895   6.183   3.661   5.093
 9999SOL    HW130896   6.214   3.572   5.059
 9999SOL    HW230897   6.084   3.668   5.081
10000SOL     OW30898   5.830   3.571   6.835
10000SOL    HW130899   5.795   3.518   6.757
10000SOL    HW230900   5.754   3.598   6.894
10001SOL     OW30901   5.591   1.088   2.239
10001SOL    HW130902   5.571   1.006   2.292
10001SOL    HW230903   5.604   1.064   2.142
10002SOL     OW30904   2.028   0.553   1.011
10002SOL    HW130905   1.999   0.635   1.061
10002SOL    HW230906   1.960   0.531   0.941
10003SOL     OW30907   3.788   1.545   4.003
10003SOL    HW130908   3.865   1.547   4.067
10003SOL    HW230909   3.816   1.583   3.915
10004SOL     OW30910   4.838   2.203   4.360
10004SOL    HW130911   4.780   2.123   4.343
10004SOL    HW230912   4.915   2.202   4.296
10005SOL     OW30913   4.518   0.250   3.857
10005SOL    HW130914   4.551   0.288   3.944
10005SOL    HW230915   4.528   0.151   3.859
10006SOL     OW30916   5.167   1.121   3.601
10006SOL    HW130917   5.157   1.072   3.688
10006SOL    HW230918   5.082   1.114   3.549
10007SOL     OW30919   0.848   4.943   5.039
10007SOL    HW130920   0.944   4.923   5.020
10007SOL    HW230921   0.814   5.009   4.971
10008SOL     OW30922   4.610   1.404   4.077
10008SOL    HW130923   4.669   1.323   4.077
10008SOL    HW230924   4.639   1.466   4.004
10009SOL     OW30925   1.862   4.292   1.298
10009SOL    HW130926   1.764   4.301   1.316
10009SOL    HW230927   1.911   4.363   1.349
10010SOL     OW30928   2.243   6.385   6.587
10010SOL    HW130929   2.319   6.332   6.548
10010SOL    HW230930   2.275   6.479   6.605
10011SOL     OW30931   5.521   2.031   4.839
10011SOL    HW130932   5.502   2.103   4.773
10011SOL    HW230933   5.499   1.942   4.799
10012SOL     OW30934   4.739   0.859   3.201
10012SOL    HW130935   4.725   0.911   3.117
10012SOL    HW230936   4.680   0.894   3.274
10013SOL     OW30937   1.132   1.695   3.970
10013SOL    HW130938   1.216   1.739   3.936
10013SOL    HW230939   1.094   1.637   3.899
10014SOL     OW30940   6.478   2.913   6.784
10014SOL    HW130941   6.529   2.927   6.699
10014SOL    HW230942   6.536   2.866   6.850
10015SOL     OW30943   2.617   4.202   0.366
10015SOL    HW130944   2.571   4.149   0.294
10015SOL    HW230945   2.565   4.193   0.451
10016SOL     OW30946   2.167   0.007   5.240
10016SOL    HW130947   2.099   7.010   5.311
10016SOL    HW230948   2.242   0.060   5.279
10017SOL     OW30949   2.683   2.421   2.631
10017SOL    HW130950   2.686   2.388   2.537
10017SOL    HW230951   2.658   2.517   2.632
10018SOL     OW30952   4.458   0.166   5.608
10018SOL    HW130953   4.526   0.094   5.592
10018SOL    HW230954   4.387   0.132   5.670
10019SOL     OW30955   0.941   1.452   2.943
10019SOL    HW130956   1.032   1.494   2.942
10019SOL    HW230957   0.929   1.398   2.860
10020SOL     OW30958   0.476   2.762   1.395
10020SOL    HW130959   0.550   2.816   1.435
10020SOL    HW230960   0.440   2.810   1.314
10021SOL     OW30961   0.065   2.533   1.013
10021SOL    HW130962   0.024   2.554   0.924
10021SOL    HW230963   0.020   2.452   1.052
10022SOL     OW30964   3.102   0.099   6.891
10022SOL    HW130965   3.037   0.170   6.916
10022SOL    HW230966   3.054   0.024   6.846
10023SOL     OW30967   1.326   4.876   6.215
10023SOL    HW130968   1.387   4.797   6.207
10023SOL    HW230969   1.355   4.947   6.152
10024SOL     OW30970   2.058   6.637   2.210
10024SOL    HW130971   2.031   6.575   2.137
10024SOL    HW230972   2.013   6.611   2.295
10025SOL     OW30973   1.154   1.501   1.075
10025SOL    HW130974   1.122   1.596   1.066
10025SOL    HW230975   1.076   1.441   1.092
10026SOL     OW30976   5.385   6.736   3.648
10026SOL    HW130977   5.350   6.687   3.727
10026SOL    HW230978   5.452   6.678   3.600
10027SOL     OW30979   6.745   4.098   5.592
10027SOL    HW130980   6.799   4.014   5.591
10027SOL    HW230981   6.805   4.176   5.612
10028SOL     OW30982   1.574   1.485   0.851
10028SOL    HW130983   1.599   1.572   0.893
10028SOL    HW230984   1.476   1.485   0.830
10029SOL     OW30985   3.806   2.088   4.488
10029SOL    HW130986   3.776   2.102   4.583
10029SOL    HW230987   3.733   2.118   4.426
10030SOL     OW30988   2.241   6.792   3.726
10030SOL    HW130989   2.244   6.762   3.631
10030SOL    HW230990   2.153   6.837   3.743
10031SOL     OW30991   6.026   4.877   4.374
10031SOL    HW130992   6.061   4.866   4.281
10031SOL    HW230993   5.929   4.901   4.370
10032SOL     OW30994   2.691   2.065   4.853
10032SOL    HW130995   2.680   2.087   4.756
10032SOL    HW230996   2.737   2.140   4.900
10033SOL     OW30997   5.837   2.062   3.810
10033SOL    HW130998   5.877   2.069   3.718
10033SOL    HW230999   5.884   1.990   3.861
10034SOL     OW31000   2.594   6.878   4.333
10034SOL    HW131001   2.630   6.827   4.255
10034SOL    HW231002   2.658   6.952   4.356
10035SOL     OW31003   6.542   4.434   1.815
10035SOL    HW131004   6.444   4.426   1.833
10035SOL    HW231005   6.576   4.348   1.778
10036SOL     OW31006   5.987   2.217   1.747
10036SOL    HW131007   5.962   2.140   1.688
10036SOL    HW231008   5.904   2.262   1.780
10037SOL     OW31009   6.527   1.115   0.802
10037SOL    HW131010   6.559   1.095   0.895
10037SOL    HW231011   6.548   1.210   0.779
10038SOL     OW31012   5.011   0.729   0.356
10038SOL    HW131013   5.074   0.803   0.382
10038SOL    HW231014   4.993   0.672   0.436
10039SOL     OW31015   3.652   0.236   3.476
10039SOL    HW131016   3.645   0.139   3.453
10039SOL    HW231017   3.692   0.246   3.567
10040SOL     OW31018   4.873   5.337   6.529
10040SOL    HW131019   4.860   5.248   6.485
10040SOL    HW231020   4.787   5.388   6.528
10041SOL     OW31021   3.971   6.148   6.993
10041SOL    HW131022   3.877   6.171   6.968
10041SOL    HW231023   4.005   6.215   0.038
10042SOL     OW31024   0.844   1.641   4.225
10042SOL    HW131025   0.843   1.740   4.237
10042SOL    HW231026   0.921   1.602   4.274
10043SOL     OW31027   6.009   1.345   4.992
10043SOL    HW131028   5.986   1.442   4.997
10043SOL    HW231029   5.940   1.292   5.041
10044SOL     OW31030   2.285   1.776   4.495
10044SOL    HW131031   2.249   1.779   4.401
10044SOL    HW231032   2.360   1.843   4.504
10045SOL     OW31033   4.100   0.285   2.939
10045SOL    HW131034   4.068   0.326   2.854
10045SOL    HW231035   4.021   0.265   2.997
10046SOL     OW31036   2.187   3.843   0.981
10046SOL    HW131037   2.128   3.913   1.020
10046SOL    HW231038   2.205   3.772   1.049
10047SOL     OW31039   0.520   3.622   4.765
10047SOL    HW131040   0.605   3.653   4.807
10047SOL    HW231041   0.506   3.669   4.678
10048SOL     OW31042   6.999   0.203   2.497
10048SOL    HW131043   0.058   0.144   2.504
10048SOL    HW231044   6.941   0.174   2.421
10049SOL     OW31045   1.657   1.632   5.801
10049SOL    HW131046   1.707   1.598   5.721
10049SOL    HW231047   1.713   1.700   5.849
10050SOL     OW31048   5.240   3.733   5.111
10050SOL    HW131049   5.191   3.747   5.025
10050SOL    HW231050   5.250   3.820   5.158
10051SOL     OW31051   6.546   4.022   5.436
10051SOL    HW131052   6.522   4.080   5.358
10051SOL    HW231053   6.622   4.064   5.487
10052SOL     OW31054   2.036   1.282   3.014
10052SOL    HW131055   2.061   1.224   3.091
10052SOL    HW231056   2.093   1.258   2.935
10053SOL     OW31057   4.227   5.767   4.011
10053SOL    HW131058   4.261   5.858   3.987
10053SOL    HW231059   4.187   5.723   3.930
10054SOL     OW31060   5.557   6.279   5.637
10054SOL    HW131061   5.597   6.352   5.693
10054SOL    HW231062   5.515   6.318   5.556
10055SOL     OW31063   6.263   1.200   5.521
10055SOL    HW131064   6.169   1.168   5.514
10055SOL    HW231065   6.316   1.138   5.579
10056SOL     OW31066   5.487   4.449   3.159
10056SOL    HW131067   5.399   4.487   3.130
10056SOL    HW231068   5.550   4.447   3.081
10057SOL     OW31069   4.800   3.353   5.248
10057SOL    HW131070   4.737   3.425   5.218
10057SOL    HW231071   4.862   3.391   5.317
10058SOL     OW31072   6.483   3.541   4.958
10058SOL    HW131073   6.551   3.559   5.029
10058SOL    HW231074   6.412   3.480   4.994
10059SOL     OW31075   0.519   1.704   6.763
10059SOL    HW131076   0.458   1.775   6.799
10059SOL    HW231077   0.537   1.636   6.834
10060SOL     OW31078   2.350   2.800   2.571
10060SOL    HW131079   2.337   2.888   2.616
10060SOL    HW231080   2.361   2.815   2.472
10061SOL     OW31081   4.602   1.557   3.842
10061SOL    HW131082   4.508   1.571   3.874
10061SOL    HW231083   4.643   1.646   3.822
10062SOL     OW31084   6.766   0.670   4.360
10062SOL    HW131085   6.758   0.657   4.261
10062SOL    HW231086   6.811   0.590   4.401
10063SOL     OW31087   3.258   1.449   4.402
10063SOL    HW131088   3.175   1.504   4.418
10063SOL    HW231089   3.260   1.422   4.306
10064SOL     OW31090   5.095   6.603   0.100
10064SOL    HW131091   5.087   6.653   0.187
10064SOL    HW231092   5.190   6.606   0.069
10065SOL     OW31093   2.415   0.851   2.327
10065SOL    HW131094   2.362   0.936   2.319
10065SOL    HW231095   2.378   0.783   2.263
10066SOL     OW31096   0.394   2.995   4.812
10066SOL    HW131097   0.440   3.000   4.724
10066SOL    HW231098   0.420   3.074   4.868
10067SOL     OW31099   0.086   3.566   5.805
10067SOL    HW131100   0.071   3.611   5.893
10067SOL    HW231101   0.009   3.504   5.786
10068SOL     OW31102   0.876   3.303   3.483
10068SOL    HW131103   0.832   3.272   3.399
10068SOL    HW231104   0.833   3.388   3.514
10069SOL     OW31105   3.117   5.088   1.869
10069SOL    HW131106   3.032   5.127   1.835
10069SOL    HW231107   3.120   5.094   1.969
10070SOL     OW31108   0.075   6.066   5.424
10070SOL    HW131109   0.078   5.986   5.364
10070SOL    HW231110   0.090   6.149   5.369
10071SOL     OW31111   0.753   6.748   4.501
10071SOL    HW131112   0.669   6.788   4.539
10071SOL    HW231113   0.765   6.656   4.538
10072SOL     OW31114   0.372   0.743   3.820
10072SOL    HW131115   0.379   0.671   3.751
10072SOL    HW231116   0.367   0.832   3.775
10073SOL     OW31117   0.192   4.367   3.825
10073SOL    HW131118   0.290   4.369   3.806
10073SOL    HW231119   0.173   4.414   3.912
10074SOL     OW31120   2.507   6.526   6.384
10074SOL    HW131121   2.578   6.480   6.331
10074SOL    HW231122   2.524   6.512   6.482
10075SOL     OW31123   1.405   1.994   1.775
10075SOL    HW131124   1.503   1.991   1.753
10075SOL    HW231125   1.354   2.022   1.694
10076SOL     OW31126   4.844   6.308   3.048
10076SOL    HW131127   4.791   6.279   3.127
10076SOL    HW231128   4.889   6.395   3.066
10077SOL     OW31129   4.157   2.813   0.533
10077SOL    HW131130   4.190   2.903   0.507
10077SOL    HW231131   4.114   2.817   0.623
10078SOL     OW31132   6.353   5.888   4.874
10078SOL    HW131133   6.435   5.848   4.916
10078SOL    HW231134   6.285   5.816   4.859
10079SOL     OW31135   6.387   3.103   2.522
10079SOL    HW131136   6.397   3.003   2.527
10079SOL    HW231137   6.354   3.137   2.610
10080SOL     OW31138   4.914   1.738   6.057
10080SOL    HW131139   4.960   1.756   6.144
10080SOL    HW231140   4.974   1.766   5.982
10081SOL     OW31141   0.843   1.569   0.040
10081SOL    HW131142   0.821   1.497   0.106
10081SOL    HW231143   0.927   1.545   7.012
10082SOL     OW31144   0.739   5.495   2.479
10082SOL    HW131145   0.783   5.503   2.569
10082SOL    HW231146   0.659   5.555   2.476
10083SOL     OW31147   3.219   7.004   3.780
10083SOL    HW131148   3.275   6.928   3.814
10083SOL    HW231149   3.124   6.990   3.806
10084SOL     OW31150   0.557   6.997   5.245
10084SOL    HW131151   0.654   7.016   5.228
10084SOL    HW231152   0.545   6.900   5.264
10085SOL     OW31153   3.957   0.407   0.940
10085SOL    HW131154   3.944   0.318   0.985
10085SOL    HW231155   3.915   0.404   0.849
10086SOL     OW31156   6.006   6.484   3.002
10086SOL    HW131157   5.945   6.527   2.935
10086SOL    HW231158   5.951   6.428   3.065
10087SOL     OW31159   6.191   6.054   4.078
10087SOL    HW131160   6.234   6.135   4.039
10087SOL    HW231161   6.188   5.981   4.010
10088SOL     OW31162   0.040   0.267   1.479
10088SOL    HW131163   0.116   0.289   1.417
10088SOL    HW231164   0.076   0.254   1.571
10089SOL     OW31165   3.437   1.709   3.044
10089SOL    HW131166   3.358   1.688   2.987
10089SOL    HW231167   3.472   1.800   3.020
10090SOL     OW31168   0.454   5.184   2.171
10090SOL    HW131169   0.531   5.143   2.220
10090SOL    HW231170   0.369   5.162   2.219
10091SOL     OW31171   6.931   5.774   6.669
10091SOL    HW131172   6.975   5.777   6.759
10091SOL    HW231173   7.002   5.769   6.599
10092SOL     OW31174   0.796   3.157   6.055
10092SOL    HW131175   0.870   3.092   6.072
10092SOL    HW231176   0.771   3.155   5.959
10093SOL     OW31177   4.999   3.674   5.243
10093SOL    HW131178   5.098   3.671   5.231
10093SOL    HW231179   4.954   3.661   5.155
10094SOL     OW31180   2.556   6.363   0.989
10094SOL    HW131181   2.552   6.264   0.972
10094SOL    HW231182   2.642   6.385   1.034
10095SOL     OW31183   5.595   1.878   4.273
10095SOL    HW131184   5.529   1.907   4.342
10095SOL    HW231185   5.677   1.934   4.279
10096SOL     OW31186   4.760   0.409   2.998
10096SOL    HW131187   4.670   0.369   3.015
10096SOL    HW231188   4.824   0.379   3.068
10097SOL     OW31189   2.085   1.920   6.619
10097SOL    HW131190   2.123   1.832   6.593
10097SOL    HW231191   2.030   1.957   6.543
10098SOL     OW31192   2.972   6.489   4.815
10098SOL    HW131193   2.880   6.523   4.795
10098SOL    HW231194   2.993   6.506   4.911
10099SOL     OW31195   6.674   4.636   1.660
10099SOL    HW131196   6.610   4.562   1.682
10099SOL    HW231197   6.767   4.605   1.678
10100SOL     OW31198   5.504   6.084   5.799
10100SOL    HW131199   5.536   6.160   5.742
10100SOL    HW231200   5.583   6.031   5.830
10101SOL     OW31201   6.442   3.052   1.402
10101SOL    HW131202   6.396   2.963   1.402
10101SOL    HW231203   6.530   3.044   1.354
10102SOL     OW31204   6.870   0.404   1.218
10102SOL    HW131205   6.929   0.345   1.275
10102SOL    HW231206   6.876   0.498   1.250
10103SOL     OW31207   1.696   0.270   4.972
10103SOL    HW131208   1.722   0.314   5.058
10103SOL    HW231209   1.741   0.181   4.965
10104SOL     OW31210   1.292   1.053   5.780
10104SOL    HW131211   1.275   1.010   5.869
10104SOL    HW231212   1.346   1.136   5.793
10105SOL     OW31213   1.566   0.576   5.763
10105SOL    HW131214   1.642   0.581   5.828
10105SOL    HW231215   1.589   0.629   5.681
10106SOL     OW31216   3.907   6.519   0.735
10106SOL    HW131217   4.003   6.540   0.750
10106SOL    HW231218   3.894   6.420   0.731
10107SOL     OW31219   5.416   1.891   5.996
10107SOL    HW131220   5.501   1.919   5.952
10107SOL    HW231221   5.425   1.904   6.095
10108SOL     OW31222   0.562   2.287   0.230
10108SOL    HW131223   0.586   2.267   0.135
10108SOL    HW231224   0.628   2.352   0.268
10109SOL     OW31225   0.751   1.109   0.565
10109SOL    HW131226   0.817   1.124   0.491
10109SOL    HW231227   0.754   1.186   0.629
10110SOL     OW31228   4.580   4.827   3.979
10110SOL    HW131229   4.622   4.757   3.921
10110SOL    HW231230   4.582   4.915   3.931
10111SOL     OW31231   0.257   3.529   3.037
10111SOL    HW131232   0.202   3.602   2.995
10111SOL    HW231233   0.348   3.563   3.058
10112SOL     OW31234   5.550   3.599   2.646
10112SOL    HW131235   5.621   3.608   2.577
10112SOL    HW231236   5.531   3.688   2.687
10113SOL     OW31237   4.313   7.007   0.744
10113SOL    HW131238   4.309   6.908   0.756
10113SOL    HW231239   4.398   0.011   0.696
10114SOL     OW31240   3.996   2.162   3.412
10114SOL    HW131241   3.917   2.149   3.352
10114SOL    HW231242   4.066   2.215   3.364
10115SOL     OW31243   3.690   1.865   5.217
10115SOL    HW131244   3.741   1.808   5.281
10115SOL    HW231245   3.740   1.950   5.202
10116SOL     OW31246   6.797   0.147   6.123
10116SOL    HW131247   6.833   0.155   6.216
10116SOL    HW231248   6.703   0.113   6.126
10117SOL     OW31249   6.873   6.417   5.621
10117SOL    HW131250   6.953   6.398   5.677
10117SOL    HW231251   6.834   6.331   5.587
10118SOL     OW31252   2.678   4.668   4.054
10118SOL    HW131253   2.755   4.718   4.015
10118SOL    HW231254   2.614   4.644   3.982
10119SOL     OW31255   6.433   5.094   4.427
10119SOL    HW131256   6.525   5.126   4.406
10119SOL    HW231257   6.386   5.163   4.483
10120SOL     OW31258   1.746   3.295   3.750
10120SOL    HW131259   1.778   3.360   3.681
10120SOL    HW231260   1.695   3.344   3.820
10121SOL     OW31261   6.035   4.259   1.374
10121SOL    HW131262   5.965   4.192   1.349
10121SOL    HW231263   6.087   4.285   1.292
10122SOL     OW31264   6.116   2.693   3.780
10122SOL    HW131265   6.050   2.632   3.824
10122SOL    HW231266   6.154   2.649   3.699
10123SOL     OW31267   5.892   6.631   0.813
10123SOL    HW131268   5.894   6.579   0.727
10123SOL    HW231269   5.940   6.718   0.801
10124SOL     OW31270   1.141   5.402   1.104
10124SOL    HW131271   1.117   5.493   1.069
10124SOL    HW231272   1.085   5.333   1.058
10125SOL     OW31273   2.989   1.805   1.151
10125SOL    HW131274   3.025   1.765   1.067
10125SOL    HW231275   3.004   1.743   1.228
10126SOL     OW31276   6.524   0.088   6.054
10126SOL    HW131277   6.547   0.001   6.011
10126SOL    HW231278   6.473   0.071   6.138
10127SOL     OW31279   1.860   4.084   6.735
10127SOL    HW131280   1.850   4.099   6.834
10127SOL    HW231281   1.792   4.017   6.704
10128SOL     OW31282   2.975   1.008   6.180
10128SOL    HW131283   3.069   1.029   6.154
10128SOL    HW231284   2.943   0.929   6.128
10129SOL     OW31285   0.173   1.945   2.096
10129SOL    HW131286   0.250   1.919   2.038
10129SOL    HW231287   0.127   1.863   2.130
10130SOL     OW31288   0.831   3.110   1.636
10130SOL    HW131289   0.926   3.080   1.640
10130SOL    HW231290   0.829   3.209   1.618
10131SOL     OW31291   1.396   0.637   4.355
10131SOL    HW131292   1.369   0.702   4.283
10131SOL    HW231293   1.426   0.688   4.436
10132SOL     OW31294   1.302   0.312   2.789
10132SOL    HW131295   1.274   0.405   2.810
10132SOL    HW231296   1.318   0.262   2.874
10133SOL     OW31297   4.299   6.445   0.924
10133SOL    HW131298   4.370   6.461   0.856
10133SOL    HW231299   4.242   6.527   0.934
10134SOL     OW31300   6.695   1.591   3.401
10134SOL    HW131301   6.724   1.520   3.337
10134SOL    HW231302   6.694   1.679   3.354
10135SOL     OW31303   5.270   1.762   3.232
10135SOL    HW131304   5.249   1.805   3.144
10135SOL    HW231305   5.337   1.818   3.282
10136SOL     OW31306   5.387   2.084   2.543
10136SOL    HW131307   5.476   2.120   2.571
10136SOL    HW231308   5.314   2.137   2.585
10137SOL     OW31309   0.390   4.876   6.502
10137SOL    HW131310   0.338   4.807   6.452
10137SOL    HW231311   0.379   4.965   6.458
10138SOL     OW31312   5.327   2.248   0.478
10138SOL    HW131313   5.413   2.291   0.505
10138SOL    HW231314   5.320   2.157   0.520
10139SOL     OW31315   3.554   3.392   4.882
10139SOL    HW131316   3.615   3.318   4.856
10139SOL    HW231317   3.528   3.444   4.801
10140SOL     OW31318   6.969   6.229   6.022
10140SOL    HW131319   0.015   6.161   6.054
10140SOL    HW231320   6.956   6.299   6.092
10141SOL     OW31321   4.569   1.049   3.643
10141SOL    HW131322   4.489   1.073   3.698
10141SOL    HW231323   4.652   1.083   3.689
10142SOL     OW31324   6.415   6.553   5.494
10142SOL    HW131325   6.481   6.627   5.481
10142SOL    HW231326   6.443   6.473   5.442
10143SOL     OW31327   5.502   2.602   0.441
10143SOL    HW131328   5.514   2.630   0.346
10143SOL    HW231329   5.409   2.624   0.471
10144SOL     OW31330   4.399   0.118   5.282
10144SOL    HW131331   4.301   0.105   5.299
10144SOL    HW231332   4.441   0.162   5.361
10145SOL     OW31333   4.120   5.832   3.229
10145SOL    HW131334   4.171   5.887   3.295
10145SOL    HW231335   4.036   5.799   3.271
10146SOL     OW31336   6.966   4.589   4.455
10146SOL    HW131337   6.870   4.611   4.440
10146SOL    HW231338   6.974   4.524   4.531
10147SOL     OW31339   5.033   4.489   6.828
10147SOL    HW131340   4.955   4.519   6.883
10147SOL    HW231341   5.052   4.557   6.758
10148SOL     OW31342   5.831   4.113   1.277
10148SOL    HW131343   5.820   4.105   1.178
10148SOL    HW231344   5.756   4.066   1.323
10149SOL     OW31345   5.110   4.948   1.511
10149SOL    HW131346   5.109   4.911   1.604
10149SOL    HW231347   5.205   4.962   1.483
10150SOL     OW31348   5.218   3.284   1.747
10150SOL    HW131349   5.155   3.250   1.818
10150SOL    HW231350   5.298   3.224   1.743
10151SOL     OW31351   0.891   6.744   5.824
10151SOL    HW131352   0.867   6.748   5.727
10151SOL    HW231353   0.924   6.653   5.846
10152SOL     OW31354   6.202   5.649   3.557
10152SOL    HW131355   6.270   5.596   3.507
10152SOL    HW231356   6.220   5.641   3.655
10153SOL     OW31357   4.271   6.032   3.909
10153SOL    HW131358   4.211   6.049   3.831
10153SOL    HW231359   4.351   6.092   3.903
10154SOL     OW31360   3.547   5.595   6.500
10154SOL    HW131361   3.557   5.592   6.401
10154SOL    HW231362   3.606   5.526   6.542
10155SOL     OW31363   5.253   2.396   5.499
10155SOL    HW131364   5.183   2.466   5.484
10155SOL    HW231365   5.301   2.414   5.585
10156SOL     OW31366   4.548   0.674   1.019
10156SOL    HW131367   4.475   0.635   0.963
10156SOL    HW231368   4.613   0.722   0.960
10157SOL     OW31369   0.107   2.076   0.187
10157SOL    HW131370   0.200   2.038   0.193
10157SOL    HW231371   0.060   2.061   0.274
10158SOL     OW31372   6.076   6.556   2.406
10158SOL    HW131373   5.992   6.539   2.457
10158SOL    HW231374   6.155   6.543   2.466
10159SOL     OW31375   4.105   3.625   2.794
10159SOL    HW131376   4.146   3.555   2.852
10159SOL    HW231377   4.044   3.682   2.850
10160SOL     OW31378   1.575   4.367   3.261
10160SOL    HW131379   1.551   4.359   3.164
10160SOL    HW231380   1.645   4.300   3.283
10161SOL     OW31381   3.772   4.771   6.715
10161SOL    HW131382   3.742   4.866   6.706
10161SOL    HW231383   3.793   4.751   6.810
10162SOL     OW31384   2.506   4.309   1.299
10162SOL    HW131385   2.572   4.234   1.300
10162SOL    HW231386   2.414   4.272   1.311
10163SOL     OW31387   0.941   5.660   6.289
10163SOL    HW131388   1.028   5.688   6.329
10163SOL    HW231389   0.949   5.565   6.257
10164SOL     OW31390   6.045   3.659   3.749
10164SOL    HW131391   5.946   3.673   3.751
10164SOL    HW231392   6.068   3.578   3.803
10165SOL     OW31393   6.437   2.431   3.901
10165SOL    HW131394   6.478   2.386   3.980
10165SOL    HW231395   6.338   2.417   3.902
10166SOL     OW31396   1.233   2.848   1.025
10166SOL    HW131397   1.190   2.878   0.939
10166SOL    HW231398   1.271   2.756   1.013
10167SOL     OW31399   0.260   5.531   0.328
10167SOL    HW131400   0.318   5.564   0.402
10167SOL    HW231401   0.316   5.487   0.258
10168SOL     OW31402   6.309   1.359   5.926
10168SOL    HW131403   6.318   1.379   6.024
10168SOL    HW231404   6.398   1.332   5.890
10169SOL     OW31405   6.628   3.930   3.089
10169SOL    HW131406   6.665   3.870   3.159
10169SOL    HW231407   6.596   3.875   3.012
10170SOL     OW31408   6.269   5.343   6.411
10170SOL    HW131409   6.316   5.325   6.325
10170SOL    HW231410   6.318   5.413   6.462
10171SOL     OW31411   0.703   2.805   5.388
10171SOL    HW131412   0.723   2.739   5.316
10171SOL    HW231413   0.660   2.758   5.466
10172SOL     OW31414   0.271   0.002   4.494
10172SOL    HW131415   0.322   0.055   4.561
10172SOL    HW231416   0.264   0.054   4.409
10173SOL     OW31417   2.423   3.689   6.854
10173SOL    HW131418   2.442   3.773   6.804
10173SOL    HW231419   2.497   3.624   6.839
10174SOL     OW31420   4.360   5.023   3.789
10174SOL    HW131421   4.447   5.072   3.785
10174SOL    HW231422   4.309   5.051   3.870
10175SOL     OW31423   6.750   1.762   3.604
10175SOL    HW131424   6.799   1.826   3.545
10175SOL    HW231425   6.718   1.685   3.550
10176SOL     OW31426   5.899   4.094   5.480
10176SOL    HW131427   5.981   4.057   5.525
10176SOL    HW231428   5.905   4.080   5.382
10177SOL     OW31429   1.934   6.962   1.188
10177SOL    HW131430   1.893   6.889   1.134
10177SOL    HW231431   1.868   6.993   1.257
10178SOL     OW31432   1.565   1.345   0.549
10178SOL    HW131433   1.571   1.340   0.648
10178SOL    HW231434   1.587   1.438   0.518
10179SOL     OW31435   0.221   3.859   6.868
10179SOL    HW131436   0.178   3.945   6.896
10179SOL    HW231437   0.230   3.857   6.768
10180SOL     OW31438   4.088   0.669   0.047
10180SOL    HW131439   4.142   0.619   0.114
10180SOL    HW231440   4.028   0.734   0.093
10181SOL     OW31441   0.030   3.109   1.408
10181SOL    HW131442   0.063   3.046   1.478
10181SOL    HW231443   7.009   3.189   1.450
10182SOL     OW31444   5.148   1.181   6.997
10182SOL    HW131445   5.122   1.133   6.913
10182SOL    HW231446   5.246   1.174   7.011
10183SOL     OW31447   5.865   2.880   5.927
10183SOL    HW131448   5.811   2.847   6.004
10183SOL    HW231449   5.914   2.963   5.954
10184SOL     OW31450   5.753   3.109   6.611
10184SOL    HW131451   5.666   3.080   6.570
10184SOL    HW231452   5.757   3.208   6.614
10185SOL     OW31453   4.957   6.328   2.601
10185SOL    HW131454   4.993   6.272   2.676
10185SOL    HW231455   4.896   6.271   2.544
10186SOL     OW31456   4.850   3.905   4.983
10186SOL    HW131457   4.882   3.973   5.049
10186SOL    HW231458   4.827   3.820   5.030
10187SOL     OW31459   1.954   4.110   5.403
10187SOL    HW131460   1.974   4.055   5.322
10187SOL    HW231461   1.855   4.114   5.417
10188SOL     OW31462   3.332   5.520   6.790
10188SOL    HW131463   3.336   5.582   6.868
10188SOL    HW231464   3.323   5.573   6.706
10189SOL     OW31465   1.625   0.685   6.479
10189SOL    HW131466   1.578   0.721   6.399
10189SOL    HW231467   1.562   0.680   6.556
10190SOL     OW31468   3.735   2.883   1.030
10190SOL    HW131469   3.699   2.943   1.101
10190SOL    HW231470   3.687   2.899   0.944
10191SOL     OW31471   5.926   6.202   1.137
10191SOL    HW131472   5.924   6.154   1.049
10191SOL    HW231473   6.010   6.179   1.185
10192SOL     OW31474   2.827   1.824   4.802
10192SOL    HW131475   2.762   1.882   4.851
10192SOL    HW231476   2.891   1.882   4.751
10193SOL     OW31477   2.901   3.613   2.569
10193SOL    HW131478   2.872   3.648   2.658
10193SOL    HW231479   2.954   3.529   2.582
10194SOL     OW31480   4.015   0.252   4.831
10194SOL    HW131481   3.973   0.294   4.912
10194SOL    HW231482   4.032   0.322   4.762
10195SOL     OW31483   0.060   6.978   1.559
10195SOL    HW131484   0.129   0.002   1.501
10195SOL    HW231485   0.026   0.022   1.626
10196SOL     OW31486   5.788   1.748   3.328
10196SOL    HW131487   5.744   1.768   3.416
10196SOL    HW231488   5.752   1.662   3.292
10197SOL     OW31489   5.180   1.049   4.044
10197SOL    HW131490   5.260   1.007   4.086
10197SOL    HW231491   5.190   1.148   4.042
10198SOL     OW31492   3.503   0.013   0.961
10198SOL    HW131493   3.487   6.986   0.874
10198SOL    HW231494   3.488   0.111   0.948
10199SOL     OW31495   0.723   1.486   6.579
10199SOL    HW131496   0.693   1.488   6.675
10199SOL    HW231497   0.704   1.574   6.536
10200SOL     OW31498   4.919   3.240   5.004
10200SOL    HW131499   4.875   3.247   5.094
10200SOL    HW231500   4.946   3.145   4.988
10201SOL     OW31501   0.712   6.440   1.103
10201SOL    HW131502   0.638   6.439   1.170
10201SOL    HW231503   0.715   6.530   1.059
10202SOL     OW31504   1.602   3.499   0.510
10202SOL    HW131505   1.613   3.492   0.610
10202SOL    HW231506   1.506   3.491   0.487
10203SOL     OW31507   1.450   2.929   1.678
10203SOL    HW131508   1.471   2.991   1.754
10203SOL    HW231509   1.387   2.859   1.709
10204SOL     OW31510   3.727   4.935   6.420
10204SOL    HW131511   3.678   4.964   6.502
10204SOL    HW231512   3.804   4.877   6.446
10205SOL     OW31513   3.634   1.179   2.663
10205SOL    HW131514   3.703   1.244   2.696
10205SOL    HW231515   3.550   1.228   2.641
10206SOL     OW31516   4.756   6.325   6.223
10206SOL    HW131517   4.745   6.227   6.207
10206SOL    HW231518   4.822   6.362   6.159
10207SOL     OW31519   1.880   0.696   0.710
10207SOL    HW131520   1.839   0.628   0.649
10207SOL    HW231521   1.966   0.728   0.671
10208SOL     OW31522   6.425   4.654   4.622
10208SOL    HW131523   6.445   4.718   4.696
10208SOL    HW231524   6.337   4.677   4.580
10209SOL     OW31525   0.767   0.917   5.401
10209SOL    HW131526   0.781   0.988   5.469
10209SOL    HW231527   0.780   0.827   5.443
10210SOL     OW31528   4.964   0.213   1.616
10210SOL    HW131529   4.985   0.248   1.707
10210SOL    HW231530   4.870   0.235   1.592
10211SOL     OW31531   4.649   6.160   5.927
10211SOL    HW131532   4.637   6.257   5.905
10211SOL    HW231533   4.614   6.142   6.020
10212SOL     OW31534   0.303   1.557   4.544
10212SOL    HW131535   0.226   1.494   4.538
10212SOL    HW231536   0.286   1.635   4.483
10213SOL     OW31537   6.626   1.865   2.387
10213SOL    HW131538   6.639   1.834   2.293
10213SOL    HW231539   6.667   1.799   2.450
10214SOL     OW31540   1.101   2.015   2.373
10214SOL    HW131541   1.172   1.945   2.380
10214SOL    HW231542   1.144   2.105   2.360
10215SOL     OW31543   3.268   2.972   4.763
10215SOL    HW131544   3.280   2.929   4.852
10215SOL    HW231545   3.211   3.054   4.773
10216SOL     OW31546   6.948   0.220   0.628
10216SOL    HW131547   6.979   0.312   0.604
10216SOL    HW231548   6.849   0.215   0.617
10217SOL     OW31549   2.765   1.289   3.962
10217SOL    HW131550   2.712   1.227   3.904
10217SOL    HW231551   2.849   1.316   3.914
10218SOL     OW31552   1.332   0.621   1.249
10218SOL    HW131553   1.270   0.589   1.321
10218SOL    HW231554   1.364   0.713   1.271
10219SOL     OW31555   0.438   3.205   2.164
10219SOL    HW131556   0.470   3.112   2.145
10219SOL    HW231557   0.402   3.208   2.258
10220SOL     OW31558   4.291   1.522   2.514
10220SOL    HW131559   4.249   1.612   2.508
10220SOL    HW231560   4.222   1.455   2.544
10221SOL     OW31561   1.398   1.941   3.361
10221SOL    HW131562   1.389   2.025   3.309
10221SOL    HW231563   1.307   1.899   3.373
10222SOL     OW31564   1.548   3.076   6.088
10222SOL    HW131565   1.449   3.081   6.102
10222SOL    HW231566   1.570   3.098   5.993
10223SOL     OW31567   1.784   6.305   6.738
10223SOL    HW131568   1.792   6.389   6.685
10223SOL    HW231569   1.734   6.237   6.684
10224SOL     OW31570   6.948   1.356   4.989
10224SOL    HW131571   6.882   1.370   4.916
10224SOL    HW231572   0.008   1.309   4.953
10225SOL     OW31573   1.733   6.206   5.779
10225SOL    HW131574   1.830   6.228   5.783
10225SOL    HW231575   1.713   6.128   5.838
10226SOL     OW31576   2.712   6.861   6.921
10226SOL    HW131577   2.780   6.788   6.927
10226SOL    HW231578   2.758   6.947   6.899
10227SOL     OW31579   4.576   4.563   0.895
10227SOL    HW131580   4.506   4.510   0.845
10227SOL    HW231581   4.666   4.522   0.880
10228SOL     OW31582   1.484   5.853   2.177
10228SOL    HW131583   1.502   5.896   2.088
10228SOL    HW231584   1.386   5.833   2.185
10229SOL     OW31585   0.519   1.302   4.062
10229SOL    HW131586   0.565   1.390   4.056
10229SOL    HW231587   0.445   1.298   3.995
10230SOL     OW31588   6.659   6.684   4.136
10230SOL    HW131589   6.743   6.738   4.135
10230SOL    HW231590   6.586   6.737   4.180
10231SOL     OW31591   6.910   5.838   5.784
10231SOL    HW131592   6.947   5.911   5.728
10231SOL    HW231593   6.844   5.784   5.731
10232SOL     OW31594   2.892   0.983   4.061
10232SOL    HW131595   2.959   1.024   4.123
10232SOL    HW231596   2.801   1.021   4.080
10233SOL     OW31597   5.518   3.627   5.137
10233SOL    HW131598   5.421   3.647   5.149
10233SOL    HW231599   5.532   3.528   5.135
10234SOL     OW31600   5.045   1.107   1.246
10234SOL    HW131601   5.085   1.144   1.329
10234SOL    HW231602   5.103   1.033   1.211
10235SOL     OW31603   4.488   2.440   0.221
10235SOL    HW131604   4.484   2.346   0.253
10235SOL    HW231605   4.582   2.462   0.194
10236SOL     OW31606   2.042   6.887   2.278
10236SOL    HW131607   2.058   6.878   2.377
10236SOL    HW231608   2.045   6.796   2.236
10237SOL     OW31609   5.783   3.798   1.196
10237SOL    HW131610   5.699   3.831   1.239
10237SOL    HW231611   5.852   3.871   1.196
10238SOL     OW31612   3.460   4.189   4.068
10238SOL    HW131613   3.448   4.288   4.068
10238SOL    HW231614   3.492   4.160   4.159
10239SOL     OW31615   1.398   4.176   5.145
10239SOL    HW131616   1.392   4.249   5.213
10239SOL    HW231617   1.384   4.087   5.191
10240SOL     OW31618   1.923   4.912   3.385
10240SOL    HW131619   1.857   4.968   3.436
10240SOL    HW231620   1.959   4.965   3.308
10241SOL     OW31621   0.329   0.323   2.031
10241SOL    HW131622   0.391   0.363   2.098
10241SOL    HW231623   0.345   0.224   2.026
10242SOL     OW31624   6.477   1.334   6.690
10242SOL    HW131625   6.458   1.394   6.767
10242SOL    HW231626   6.400   1.336   6.626
10243SOL     OW31627   0.478   5.657   1.062
10243SOL    HW131628   0.540   5.606   1.121
10243SOL    HW231629   0.416   5.712   1.117
10244SOL     OW31630   1.885   5.100   0.383
10244SOL    HW131631   1.785   5.107   0.383
10244SOL    HW231632   1.916   5.071   0.292
10245SOL     OW31633   3.431   4.708   6.923
10245SOL    HW131634   3.510   4.765   6.946
10245SOL    HW231635   3.401   4.728   6.830
10246SOL     OW31636   2.920   3.712   3.915
10246SOL    HW131637   2.885   3.665   3.997
10246SOL    HW231638   3.015   3.685   3.900
10247SOL     OW31639   0.401   5.280   4.879
10247SOL    HW131640   0.396   5.315   4.785
10247SOL    HW231641   0.484   5.313   4.923
10248SOL     OW31642   3.465   6.621   2.284
10248SOL    HW131643   3.424   6.554   2.345
10248SOL    HW231644   3.397   6.653   2.218
10249SOL     OW31645   3.423   1.285   5.966
10249SOL    HW131646   3.509   1.331   5.945
10249SOL    HW231647   3.393   1.233   5.886
10250SOL     OW31648   6.466   1.983   0.910
10250SOL    HW131649   6.431   2.004   1.002
10250SOL    HW231650   6.563   1.958   0.916
10251SOL     OW31651   2.824   2.284   4.939
10251SOL    HW131652   2.772   2.344   5.000
10251SOL    HW231653   2.920   2.286   4.964
10252SOL     OW31654   6.240   6.064   0.688
10252SOL    HW131655   6.181   6.038   0.612
10252SOL    HW231656   6.318   6.001   0.693
10253SOL     OW31657   5.603   6.017   0.588
10253SOL    HW131658   5.578   6.060   0.674
10253SOL    HW231659   5.629   6.087   0.522
10254SOL     OW31660   4.041   1.861   5.350
10254SOL    HW131661   4.080   1.907   5.270
10254SOL    HW231662   3.970   1.919   5.391
10255SOL     OW31663   2.149   5.373   1.485
10255SOL    HW131664   2.118   5.363   1.391
10255SOL    HW231665   2.246   5.351   1.490
10256SOL     OW31666   5.636   0.505   1.582
10256SOL    HW131667   5.697   0.497   1.661
10256SOL    HW231668   5.560   0.440   1.592
10257SOL     OW31669   2.032   5.293   4.308
10257SOL    HW131670   2.085   5.374   4.283
10257SOL    HW231671   1.936   5.307   4.284
10258SOL     OW31672   4.849   0.214   4.248
10258SOL    HW131673   4.767   0.270   4.258
10258SOL    HW231674   4.912   0.258   4.184
10259SOL     OW31675   0.810   4.946   3.187
10259SOL    HW131676   0.889   4.972   3.243
10259SOL    HW231677   0.828   4.969   3.091
10260SOL     OW31678   0.528   0.390   2.992
10260SOL    HW131679   0.473   0.386   3.075
10260SOL    HW231680   0.525   0.483   2.955
10261SOL     OW31681   6.740   5.919   2.863
10261SOL    HW131682   6.807   5.868   2.917
10261SOL    HW231683   6.786   5.962   2.785
10262SOL     OW31684   2.440   6.491   4.097
10262SOL    HW131685   2.429   6.518   4.193
10262SOL    HW231686   2.465   6.572   4.043
10263SOL     OW31687   4.807   1.348   6.503
10263SOL    HW131688   4.798   1.253   6.532
10263SOL    HW231689   4.830   1.351   6.406
10264SOL     OW31690   5.622   2.037   6.970
10264SOL    HW131691   5.619   2.137   6.970
10264SOL    HW231692   5.559   2.002   0.020
10265SOL     OW31693   3.090   2.114   3.011
10265SOL    HW131694   3.136   2.189   3.058
10265SOL    HW231695   3.071   2.141   2.916
10266SOL     OW31696   3.335   2.845   5.256
10266SOL    HW131697   3.433   2.863   5.262
10266SOL    HW231698   3.314   2.760   5.303
10267SOL     OW31699   5.708   1.853   6.527
10267SOL    HW131700   5.624   1.859   6.582
10267SOL    HW231701   5.754   1.766   6.544
10268SOL     OW31702   4.263   5.696   2.099
10268SOL    HW131703   4.275   5.794   2.113
10268SOL    HW231704   4.167   5.672   2.113
10269SOL     OW31705   1.311   2.080   4.964
10269SOL    HW131706   1.362   2.143   4.904
10269SOL    HW231707   1.344   2.090   5.058
10270SOL     OW31708   2.320   5.421   3.118
10270SOL    HW131709   2.406   5.468   3.100
10270SOL    HW231710   2.296   5.431   3.215
10271SOL     OW31711   4.066   2.629   0.353
10271SOL    HW131712   4.096   2.673   0.437
10271SOL    HW231713   4.143   2.625   0.288
10272SOL     OW31714   0.363   0.182   4.262
10272SOL    HW131715   0.411   0.258   4.308
10272SOL    HW231716   0.430   0.117   4.226
10273SOL     OW31717   4.688   4.865   3.592
10273SOL    HW131718   4.705   4.857   3.494
10273SOL    HW231719   4.622   4.794   3.620
10274SOL     OW31720   0.752   3.768   4.885
10274SOL    HW131721   0.754   3.825   4.803
10274SOL    HW231722   0.840   3.721   4.895
10275SOL     OW31723   0.574   6.263   1.848
10275SOL    HW131724   0.628   6.347   1.859
10275SOL    HW231725   0.604   6.195   1.914
10276SOL     OW31726   5.570   5.590   5.770
10276SOL    HW131727   5.491   5.571   5.828
10276SOL    HW231728   5.608   5.680   5.793
10277SOL     OW31729   2.815   5.427   3.685
10277SOL    HW131730   2.755   5.487   3.739
10277SOL    HW231731   2.777   5.417   3.593
10278SOL     OW31732   6.067   1.065   4.446
10278SOL    HW131733   5.972   1.064   4.412
10278SOL    HW231734   6.068   1.042   4.543
10279SOL     OW31735   1.804   6.102   4.214
10279SOL    HW131736   1.765   6.184   4.256
10279SOL    HW231737   1.736   6.058   4.156
10280SOL     OW31738   1.687   3.477   1.388
10280SOL    HW131739   1.714   3.540   1.461
10280SOL    HW231740   1.618   3.414   1.423
10281SOL     OW31741   6.756   2.212   2.666
10281SOL    HW131742   6.721   2.299   2.700
10281SOL    HW231743   6.691   2.173   2.601
10282SOL     OW31744   6.141   4.398   4.623
10282SOL    HW131745   6.190   4.367   4.542
10282SOL    HW231746   6.199   4.388   4.703
10283SOL     OW31747   0.865   3.328   0.597
10283SOL    HW131748   0.814   3.313   0.512
10283SOL    HW231749   0.821   3.279   0.672
10284SOL     OW31750   5.069   3.840   5.533
10284SOL    HW131751   5.126   3.759   5.551
10284SOL    HW231752   4.999   3.849   5.604
10285SOL     OW31753   4.339   0.823   0.668
10285SOL    HW131754   4.336   0.767   0.751
10285SOL    HW231755   4.256   0.808   0.615
10286SOL     OW31756   3.028   2.243   3.999
10286SOL    HW131757   2.965   2.275   4.070
10286SOL    HW231758   3.114   2.215   4.040
10287SOL     OW31759   2.114   6.199   2.151
10287SOL    HW131760   2.208   6.219   2.123
10287SOL    HW231761   2.072   6.281   2.190
10288SOL     OW31762   4.959   6.589   2.344
10288SOL    HW131763   4.861   6.574   2.354
10288SOL    HW231764   5.008   6.504   2.364
10289SOL     OW31765   3.282   1.049   2.661
10289SOL    HW131766   3.292   1.005   2.571
10289SOL    HW231767   3.315   1.143   2.655
10290SOL     OW31768   3.364   4.082   2.151
10290SOL    HW131769   3.279   4.046   2.112
10290SOL    HW231770   3.365   4.181   2.146
10291SOL     OW31771   4.127   1.137   4.326
10291SOL    HW131772   4.060   1.197   4.282
10291SOL    HW231773   4.098   1.117   4.419
10292SOL     OW31774   1.053   1.162   4.558
10292SOL    HW131775   0.969   1.116   4.587
10292SOL    HW231776   1.055   1.170   4.459
10293SOL     OW31777   2.060   5.746   3.730
10293SOL    HW131778   2.007   5.772   3.810
10293SOL    HW231779   2.004   5.758   3.648
10294SOL     OW31780   4.903   3.937   2.462
10294SOL    HW131781   4.919   3.954   2.365
10294SOL    HW231782   4.919   3.840   2.482
10295SOL     OW31783   5.997   5.336   5.809
10295SOL    HW131784   6.062   5.386   5.867
10295SOL    HW231785   5.994   5.241   5.838
10296SOL     OW31786   5.126   2.908   6.569
10296SOL    HW131787   5.051   2.971   6.550
10296SOL    HW231788   5.095   2.837   6.632
10297SOL     OW31789   2.073   6.345   4.843
10297SOL    HW131790   2.120   6.307   4.923
10297SOL    HW231791   2.065   6.445   4.854
10298SOL     OW31792   4.095   4.950   2.454
10298SOL    HW131793   4.189   4.936   2.422
10298SOL    HW231794   4.031   4.914   2.386
10299SOL     OW31795   4.913   4.510   2.658
10299SOL    HW131796   4.926   4.603   2.622
10299SOL    HW231797   5.002   4.466   2.667
10300SOL     OW31798   1.888   4.808   2.903
10300SOL    HW131799   1.850   4.899   2.882
10300SOL    HW231800   1.855   4.742   2.835
10301SOL     OW31801   6.315   2.331   3.150
10301SOL    HW131802   6.227   2.291   3.178
10301SOL    HW231803   6.380   2.324   3.226
10302SOL     OW31804   0.253   6.308   4.025
10302SOL    HW131805   0.244   6.319   3.926
10302SOL    HW231806   0.323   6.239   4.043
10303SOL     OW31807   2.936   5.318   1.412
10303SOL    HW131808   2.940   5.402   1.358
10303SOL    HW231809   2.846   5.276   1.401
10304SOL     OW31810   5.489   0.728   2.796
10304SOL    HW131811   5.580   0.686   2.788
10304SOL    HW231812   5.420   0.657   2.803
10305SOL     OW31813   0.561   5.377   6.911
10305SOL    HW131814   0.564   5.465   6.863
10305SOL    HW231815   0.653   5.351   6.938
10306SOL     OW31816   4.741   6.545   6.718
10306SOL    HW131817   4.680   6.541   6.797
10306SOL    HW231818   4.815   6.480   6.729
10307SOL     OW31819   1.752   2.148   4.151
10307SOL    HW131820   1.813   2.211   4.199
10307SOL    HW231821   1.715   2.081   4.215
10308SOL     OW31822   2.519   5.170   3.795
10308SOL    HW131823   2.492   5.083   3.837
10308SOL    HW231824   2.486   5.245   3.852
10309SOL     OW31825   6.738   0.406   3.747
10309SOL    HW131826   6.719   0.499   3.779
10309SOL    HW231827   6.669   0.343   3.784
10310SOL     OW31828   3.946   2.704   1.575
10310SOL    HW131829   3.893   2.660   1.647
10310SOL    HW231830   3.900   2.788   1.546
10311SOL     OW31831   0.673   6.115   1.116
10311SOL    HW131832   0.641   6.146   1.206
10311SOL    HW231833   0.594   6.092   1.059
10312SOL     OW31834   2.915   5.664   1.014
10312SOL    HW131835   2.827   5.648   1.058
10312SOL    HW231836   2.989   5.638   1.075
10313SOL     OW31837   3.518   0.455   1.810
10313SOL    HW131838   3.475   0.403   1.736
10313SOL    HW231839   3.606   0.491   1.779
10314SOL     OW31840   6.555   0.632   1.631
10314SOL    HW131841   6.480   0.566   1.635
10314SOL    HW231842   6.641   0.587   1.653
10315SOL     OW31843   5.940   5.587   4.854
10315SOL    HW131844   5.903   5.544   4.772
10315SOL    HW231845   5.868   5.594   4.923
10316SOL     OW31846   6.380   3.032   4.938
10316SOL    HW131847   6.355   3.001   4.846
10316SOL    HW231848   6.417   2.955   4.990
10317SOL     OW31849   3.432   4.791   6.219
10317SOL    HW131850   3.528   4.814   6.233
10317SOL    HW231851   3.425   4.702   6.174
10318SOL     OW31852   5.419   5.811   0.544
10318SOL    HW131853   5.404   5.803   0.446
10318SOL    HW231854   5.509   5.851   0.561
10319SOL     OW31855   1.154   3.418   5.742
10319SOL    HW131856   1.251   3.430   5.763
10319SOL    HW231857   1.141   3.332   5.692
10320SOL     OW31858   0.918   0.605   1.007
10320SOL    HW131859   0.853   0.681   1.002
10320SOL    HW231860   1.008   0.635   0.978
10321SOL     OW31861   4.100   0.313   4.537
10321SOL    HW131862   4.072   0.405   4.563
10321SOL    HW231863   4.031   0.272   4.478
10322SOL     OW31864   6.316   5.519   0.085
10322SOL    HW131865   6.288   5.485   7.017
10322SOL    HW231866   6.329   5.618   0.081
10323SOL     OW31867   6.164   4.005   6.251
10323SOL    HW131868   6.239   3.987   6.314
10323SOL    HW231869   6.200   4.040   6.165
10324SOL     OW31870   3.586   2.894   3.218
10324SOL    HW131871   3.662   2.889   3.281
10324SOL    HW231872   3.504   2.855   3.261
10325SOL     OW31873   6.514   4.701   3.184
10325SOL    HW131874   6.430   4.746   3.214
10325SOL    HW231875   6.527   4.617   3.236
10326SOL     OW31876   4.683   2.733   6.814
10326SOL    HW131877   4.624   2.674   6.870
10326SOL    HW231878   4.668   2.712   6.717
10327SOL     OW31879   2.789   1.721   2.442
10327SOL    HW131880   2.775   1.622   2.444
10327SOL    HW231881   2.720   1.766   2.499
10328SOL     OW31882   6.211   3.371   1.286
10328SOL    HW131883   6.246   3.436   1.218
10328SOL    HW231884   6.178   3.422   1.366
10329SOL     OW31885   3.394   0.149   4.545
10329SOL    HW131886   3.453   0.111   4.474
10329SOL    HW231887   3.405   0.097   4.630
10330SOL     OW31888   3.179   5.753   2.790
10330SOL    HW131889   3.194   5.697   2.871
10330SOL    HW231890   3.175   5.695   2.709
10331SOL     OW31891   6.228   0.330   3.141
10331SOL    HW131892   6.188   0.242   3.118
10331SOL    HW231893   6.195   0.360   3.230
10332SOL     OW31894   5.829   1.422   0.588
10332SOL    HW131895   5.786   1.473   0.661
10332SOL    HW231896   5.929   1.427   0.597
10333SOL     OW31897   6.141   4.092   4.772
10333SOL    HW131898   6.213   4.088   4.702
10333SOL    HW231899   6.157   4.021   4.840
10334SOL     OW31900   2.348   5.808   3.469
10334SOL    HW131901   2.307   5.805   3.560
10334SOL    HW231902   2.373   5.902   3.447
10335SOL     OW31903   2.189   4.171   7.003
10335SOL    HW131904   2.176   4.255   0.036
10335SOL    HW231905   2.170   4.091   0.039
10336SOL     OW31906   5.471   7.015   3.227
10336SOL    HW131907   5.373   6.994   3.225
10336SOL    HW231908   5.523   6.931   3.241
10337SOL     OW31909   6.570   6.310   5.409
10337SOL    HW131910   6.530   6.282   5.322
10337SOL    HW231911   6.652   6.365   5.393
10338SOL     OW31912   3.246   6.587   1.224
10338SOL    HW131913   3.259   6.535   1.308
10338SOL    HW231914   3.333   6.598   1.177
10339SOL     OW31915   3.707   4.410   0.727
10339SOL    HW131916   3.661   4.437   0.811
10339SOL    HW231917   3.692   4.479   0.656
10340SOL     OW31918   1.390   5.644   0.128
10340SOL    HW131919   1.417   5.722   0.071
10340SOL    HW231920   1.291   5.632   0.124
10341SOL     OW31921   2.522   3.302   1.737
10341SOL    HW131922   2.455   3.356   1.788
10341SOL    HW231923   2.474   3.232   1.685
10342SOL     OW31924   2.633   5.681   5.517
10342SOL    HW131925   2.655   5.779   5.520
10342SOL    HW231926   2.667   5.637   5.601
10343SOL     OW31927   2.464   4.029   0.226
10343SOL    HW131928   2.422   4.008   0.138
10343SOL    HW231929   2.453   3.952   0.289
10344SOL     OW31930   3.893   3.971   3.156
10344SOL    HW131931   3.939   4.057   3.134
10344SOL    HW231932   3.795   3.987   3.168
10345SOL     OW31933   1.741   0.231   6.256
10345SOL    HW131934   1.656   0.204   6.212
10345SOL    HW231935   1.730   0.321   6.298
10346SOL     OW31936   6.254   0.546   1.352
10346SOL    HW131937   6.175   0.600   1.384
10346SOL    HW231938   6.289   0.585   1.267
10347SOL     OW31939   5.012   2.756   1.654
10347SOL    HW131940   4.919   2.762   1.689
10347SOL    HW231941   5.077   2.766   1.730
10348SOL     OW31942   6.962   1.365   6.358
10348SOL    HW131943   6.975   1.441   6.293
10348SOL    HW231944   0.012   1.296   6.343
10349SOL     OW31945   6.841   1.278   0.615
10349SOL    HW131946   6.868   1.216   0.689
10349SOL    HW231947   6.914   1.344   0.598
10350SOL     OW31948   3.173   6.069   4.965
10350SOL    HW131949   3.181   6.137   4.892
10350SOL    HW231950   3.199   6.111   5.052
10351SOL     OW31951   6.277   4.918   5.981
10351SOL    HW131952   6.262   4.851   6.055
10351SOL    HW231953   6.229   5.003   6.004
10352SOL     OW31954   5.522   2.353   6.455
10352SOL    HW131955   5.423   2.348   6.463
10352SOL    HW231956   5.551   2.449   6.456
10353SOL     OW31957   6.538   3.727   4.159
10353SOL    HW131958   6.598   3.728   4.240
10353SOL    HW231959   6.500   3.819   4.144
10354SOL     OW31960   0.971   3.055   1.300
10354SOL    HW131961   0.937   3.132   1.355
10354SOL    HW231962   0.996   2.980   1.361
10355SOL     OW31963   0.856   0.709   0.569
10355SOL    HW131964   0.845   0.613   0.594
10355SOL    HW231965   0.954   0.731   0.563
10356SOL     OW31966   6.793   3.473   5.961
10356SOL    HW131967   6.840   3.531   5.894
10356SOL    HW231968   6.856   3.453   6.037
10357SOL     OW31969   3.615   2.297   5.927
10357SOL    HW131970   3.673   2.252   5.859
10357SOL    HW231971   3.668   2.366   5.976
10358SOL     OW31972   1.148   3.300   3.499
10358SOL    HW131973   1.053   3.325   3.478
10358SOL    HW231974   1.190   3.372   3.555
10359SOL     OW31975   5.235   1.952   2.195
10359SOL    HW131976   5.145   1.945   2.152
10359SOL    HW231977   5.237   2.034   2.254
10360SOL     OW31978   5.162   5.799   2.838
10360SOL    HW131979   5.165   5.813   2.937
10360SOL    HW231980   5.150   5.887   2.792
10361SOL     OW31981   2.769   0.720   2.961
10361SOL    HW131982   2.844   0.655   2.954
10361SOL    HW231983   2.804   0.812   2.943
10362SOL     OW31984   0.630   5.334   2.824
10362SOL    HW131985   0.609   5.404   2.757
10362SOL    HW231986   0.556   5.328   2.891
10363SOL     OW31987   4.696   2.593   1.018
10363SOL    HW131988   4.633   2.572   0.943
10363SOL    HW231989   4.776   2.640   0.980
10364SOL     OW31990   4.945   4.566   2.006
10364SOL    HW131991   4.882   4.496   2.039
10364SOL    HW231992   4.973   4.543   1.913
10365SOL     OW31993   5.743   4.443   0.191
10365SOL    HW131994   5.833   4.420   0.154
10365SOL    HW231995   5.714   4.370   0.254
10366SOL     OW31996   3.754   6.750   3.629
10366SOL    HW131997   3.687   6.677   3.641
10366SOL    HW231998   3.774   6.762   3.532
10367SOL     OW31999   0.021   1.728   2.142
10367SOL    HW132000   7.019   1.652   2.081
10367SOL    HW232001   0.031   1.694   2.235
10368SOL     OW32002   2.060   0.874   2.256
10368SOL    HW132003   1.977   0.822   2.237
10368SOL    HW232004   2.096   0.846   2.345
10369SOL     OW32005   2.603   6.252   6.237
10369SOL    HW132006   2.628   6.263   6.140
10369SOL    HW232007   2.685   6.263   6.293
10370SOL     OW32008   6.406   1.318   5.282
10370SOL    HW132009   6.389   1.291   5.376
10370SOL    HW232010   6.436   1.414   5.279
10371SOL     OW32011   2.076   6.606   4.164
10371SOL    HW132012   2.108   6.555   4.084
10371SOL    HW232013   2.094   6.703   4.152
10372SOL     OW32014   2.835   1.013   0.854
10372SOL    HW132015   2.830   1.112   0.845
10372SOL    HW232016   2.915   0.989   0.910
10373SOL     OW32017   0.613   6.553   4.995
10373SOL    HW132018   0.706   6.532   4.966
10373SOL    HW232019   0.581   6.636   4.949
10374SOL     OW32020   3.109   0.353   3.555
10374SOL    HW132021   3.145   0.298   3.631
10374SOL    HW232022   3.175   0.353   3.480
10375SOL     OW32023   2.825   1.974   5.858
10375SOL    HW132024   2.763   2.052   5.867
10375SOL    HW232025   2.784   1.894   5.903
10376SOL     OW32026   0.761   6.446   4.296
10376SOL    HW132027   0.734   6.490   4.210
10376SOL    HW232028   0.848   6.484   4.327
10377SOL     OW32029   0.279   1.149   1.529
10377SOL    HW132030   0.220   1.114   1.601
10377SOL    HW232031   0.268   1.248   1.522
10378SOL     OW32032   6.107   6.008   6.087
10378SOL    HW132033   6.041   6.082   6.076
10378SOL    HW232034   6.153   5.992   5.999
10379SOL     OW32035   3.209   5.603   4.115
10379SOL    HW132036   3.120   5.629   4.078
10379SOL    HW232037   3.281   5.650   4.064
10380SOL     OW32038   0.614   2.558   5.070
10380SOL    HW132039   0.600   2.650   5.033
10380SOL    HW232040   0.704   2.553   5.113
10381SOL     OW32041   4.358   4.007   1.152
10381SOL    HW132042   4.448   3.970   1.173
10381SOL    HW232043   4.336   4.079   1.217
10382SOL     OW32044   3.087   6.034   1.688
10382SOL    HW132045   2.993   6.050   1.718
10382SOL    HW232046   3.147   6.024   1.768
10383SOL     OW32047   1.040   3.850   0.379
10383SOL    HW132048   0.991   3.877   0.461
10383SOL    HW232049   1.026   3.752   0.363
10384SOL     OW32050   6.611   6.916   0.285
10384SOL    HW132051   6.679   6.975   0.330
10384SOL    HW232052   6.522   6.960   0.290
10385SOL     OW32053   4.061   5.929   6.920
10385SOL    HW132054   4.062   5.904   6.824
10385SOL    HW232055   4.020   6.020   6.931
10386SOL     OW32056   0.453   0.731   5.652
10386SOL    HW132057   0.497   0.658   5.599
10386SOL    HW232058   0.415   0.694   5.736
10387SOL     OW32059   5.263   2.869   2.608
10387SOL    HW132060   5.349   2.910   2.636
10387SOL    HW232061   5.223   2.924   2.535
10388SOL     OW32062   1.194   6.496   1.318
10388SOL    HW132063   1.119   6.468   1.258
10388SOL    HW232064   1.262   6.422   1.321
10389SOL     OW32065   5.655   3.925   1.375
10389SOL    HW132066   5.714   3.896   1.451
10389SOL    HW232067   5.560   3.926   1.406
10390SOL     OW32068   2.185   3.167   0.148
10390SOL    HW132069   2.162   3.071   0.160
10390SOL    HW232070   2.199   3.210   0.238
10391SOL     OW32071   0.608   5.832   4.798
10391SOL    HW132072   0.607   5.876   4.888
10391SOL    HW232073   0.526   5.777   4.787
10392SOL     OW32074   5.649   5.137   5.410
10392SOL    HW132075   5.692   5.200   5.475
10392SOL    HW232076   5.648   5.179   5.319
10393SOL     OW32077   2.102   3.311   3.594
10393SOL    HW132078   2.116   3.312   3.495
10393SOL    HW232079   2.140   3.227   3.632
10394SOL     OW32080   2.523   5.573   4.935
10394SOL    HW132081   2.555   5.557   5.029
10394SOL    HW232082   2.577   5.519   4.871
10395SOL     OW32083   0.301   0.403   1.457
10395SOL    HW132084   0.314   0.438   1.550
10395SOL    HW232085   0.388   0.407   1.408
10396SOL     OW32086   3.541   1.848   4.126
10396SOL    HW132087   3.461   1.811   4.079
10396SOL    HW232088   3.546   1.808   4.218
10397SOL     OW32089   3.495   1.426   4.531
10397SOL    HW132090   3.562   1.474   4.474
10397SOL    HW232091   3.403   1.451   4.502
10398SOL     OW32092   5.882   2.398   0.462
10398SOL    HW132093   5.927   2.344   0.390
10398SOL    HW232094   5.850   2.484   0.424
10399SOL     OW32095   5.087   2.305   3.254
10399SOL    HW132096   5.006   2.246   3.245
10399SOL    HW232097   5.150   2.287   3.179
10400SOL     OW32098   4.316   5.876   7.017
10400SOL    HW132099   4.304   5.822   0.080
10400SOL    HW232100   4.229   5.919   6.993
10401SOL     OW32101   6.893   6.589   2.727
10401SOL    HW132102   6.934   6.556   2.812
10401SOL    HW232103   6.962   6.591   2.655
10402SOL     OW32104   6.813   1.524   5.373
10402SOL    HW132105   6.811   1.526   5.273
10402SOL    HW232106   6.898   1.563   5.406
10403SOL     OW32107   4.812   2.718   2.984
10403SOL    HW132108   4.790   2.768   2.900
10403SOL    HW232109   4.813   2.781   3.061
10404SOL     OW32110   5.854   6.642   4.600
10404SOL    HW132111   5.942   6.648   4.647
10404SOL    HW232112   5.869   6.614   4.505
10405SOL     OW32113   1.410   6.734   4.626
10405SOL    HW132114   1.437   6.661   4.688
10405SOL    HW232115   1.324   6.775   4.658
10406SOL     OW32116   2.066   3.587   3.623
10406SOL    HW132117   2.106   3.621   3.538
10406SOL    HW232118   2.074   3.487   3.625
10407SOL     OW32119   2.734   6.778   6.543
10407SOL    HW132120   2.654   6.794   6.601
10407SOL    HW232121   2.739   6.682   6.518
10408SOL     OW32122   4.238   0.381   1.143
10408SOL    HW132123   4.145   0.344   1.149
10408SOL    HW232124   4.245   0.464   1.199
10409SOL     OW32125   6.930   5.210   1.452
10409SOL    HW132126   6.923   5.142   1.525
10409SOL    HW232127   6.839   5.234   1.420
10410SOL     OW32128   4.976   2.152   1.919
10410SOL    HW132129   4.924   2.070   1.892
10410SOL    HW232130   4.962   2.224   1.852
10411SOL     OW32131   3.198   6.811   3.465
10411SOL    HW132132   3.130   6.744   3.434
10411SOL    HW232133   3.172   6.901   3.432
10412SOL     OW32134   0.147   1.452   7.014
10412SOL    HW132135   0.094   1.382   0.042
10412SOL    HW232136   0.084   1.520   6.976
10413SOL     OW32137   0.146   2.682   0.452
10413SOL    HW132138   0.237   2.684   0.494
10413SOL    HW232139   0.106   2.774   0.456
10414SOL     OW32140   4.186   5.562   5.815
10414SOL    HW132141   4.207   5.464   5.817
10414SOL    HW232142   4.087   5.574   5.806
10415SOL     OW32143   1.514   3.947   5.352
10415SOL    HW132144   1.518   3.861   5.403
10415SOL    HW232145   1.574   3.941   5.273
10416SOL     OW32146   5.786   0.625   5.433
10416SOL    HW132147   5.848   0.550   5.456
10416SOL    HW232148   5.709   0.589   5.380
10417SOL     OW32149   3.195   4.874   3.884
10417SOL    HW132150   3.262   4.861   3.810
10417SOL    HW232151   3.240   4.861   3.972
10418SOL     OW32152   6.471   4.043   6.511
10418SOL    HW132153   6.478   4.017   6.415
10418SOL    HW232154   6.390   4.099   6.525
10419SOL     OW32155   3.006   6.671   5.774
10419SOL    HW132156   2.971   6.704   5.686
10419SOL    HW232157   2.997   6.571   5.778
10420SOL     OW32158   0.220   3.638   4.041
10420SOL    HW132159   0.199   3.629   4.138
10420SOL    HW232160   0.253   3.550   4.006
10421SOL     OW32161   0.833   2.695   3.713
10421SOL    HW132162   0.931   2.712   3.707
10421SOL    HW232163   0.808   2.678   3.809
10422SOL     OW32164   5.809   3.407   5.346
10422SOL    HW132165   5.730   3.401   5.407
10422SOL    HW232166   5.850   3.317   5.336
10423SOL     OW32167   5.449   4.940   5.301
10423SOL    HW132168   5.442   4.896   5.391
10423SOL    HW232169   5.538   4.984   5.292
10424SOL     OW32170   4.276   3.039   0.433
10424SOL    HW132171   4.251   3.073   0.342
10424SOL    HW232172   4.345   3.100   0.473
10425SOL     OW32173   1.016   6.441   1.723
10425SOL    HW132174   0.988   6.471   1.632
10425SOL    HW232175   1.069   6.514   1.766
10426SOL     OW32176   5.227   5.047   0.625
10426SOL    HW132177   5.281   4.986   0.683
10426SOL    HW232178   5.162   4.993   0.571
10427SOL     OW32179   3.729   0.873   6.602
10427SOL    HW132180   3.706   0.889   6.698
10427SOL    HW232181   3.676   0.936   6.545
10428SOL     OW32182   3.804   0.855   4.063
10428SOL    HW132183   3.773   0.760   4.056
10428SOL    HW232184   3.837   0.873   4.156
10429SOL     OW32185   0.072   4.476   0.997
10429SOL    HW132186   7.005   4.471   0.949
10429SOL    HW232187   0.079   4.563   1.045
10430SOL     OW32188   4.970   0.318   4.997
10430SOL    HW132189   5.048   0.353   5.049
10430SOL    HW232190   4.903   0.392   4.984
10431SOL     OW32191   2.698   5.885   4.274
10431SOL    HW132192   2.656   5.971   4.302
10431SOL    HW232193   2.772   5.862   4.336
10432SOL     OW32194   5.265   6.903   4.674
10432SOL    HW132195   5.363   6.916   4.683
10432SOL    HW232196   5.224   6.889   4.764
10433SOL     OW32197   1.006   5.925   1.814
10433SOL    HW132198   1.067   5.846   1.811
10433SOL    HW232199   0.912   5.895   1.798
10434SOL     OW32200   4.016   6.082   3.146
10434SOL    HW132201   4.080   6.010   3.119
10434SOL    HW232202   4.027   6.103   3.243
10435SOL     OW32203   0.108   0.834   5.373
10435SOL    HW132204   0.199   0.871   5.355
10435SOL    HW232205   0.041   0.880   5.314
10436SOL     OW32206   6.964   4.841   5.948
10436SOL    HW132207   6.998   4.755   5.985
10436SOL    HW232208   6.866   4.849   5.964
10437SOL     OW32209   4.994   3.901   6.128
10437SOL    HW132210   5.015   3.910   6.031
10437SOL    HW232211   5.079   3.894   6.180
10438SOL     OW32212   6.142   6.249   0.052
10438SOL    HW132213   6.219   6.309   0.032
10438SOL    HW232214   6.057   6.292   0.020
10439SOL     OW32215   3.662   1.149   5.017
10439SOL    HW132216   3.579   1.101   4.991
10439SOL    HW232217   3.736   1.125   4.954
10440SOL     OW32218   1.659   6.725   0.673
10440SOL    HW132219   1.659   6.626   0.659
10440SOL    HW232220   1.579   6.765   0.628
10441SOL     OW32221   3.908   1.357   1.375
10441SOL    HW132222   3.864   1.400   1.453
10441SOL    HW232223   4.004   1.337   1.398
10442SOL     OW32224   4.169   5.895   6.522
10442SOL    HW132225   4.120   5.969   6.477
10442SOL    HW232226   4.108   5.848   6.586
10443SOL     OW32227   4.888   3.639   3.976
10443SOL    HW132228   4.869   3.554   4.026
10443SOL    HW232229   4.869   3.717   4.035
10444SOL     OW32230   4.462   5.680   4.137
10444SOL    HW132231   4.492   5.585   4.136
10444SOL    HW232232   4.365   5.684   4.113
10445SOL     OW32233   0.863   4.773   4.755
10445SOL    HW132234   0.810   4.800   4.835
10445SOL    HW232235   0.806   4.782   4.673
10446SOL     OW32236   1.222   3.205   5.588
10446SOL    HW132237   1.319   3.228   5.582
10446SOL    HW232238   1.203   3.124   5.532
10447SOL     OW32239   0.466   1.223   1.776
10447SOL    HW132240   0.512   1.305   1.743
10447SOL    HW232241   0.404   1.189   1.705
10448SOL     OW32242   5.013   0.651   2.303
10448SOL    HW132243   4.978   0.569   2.258
10448SOL    HW232244   4.945   0.725   2.295
10449SOL     OW32245   2.608   4.919   4.799
10449SOL    HW132246   2.625   5.017   4.807
10449SOL    HW232247   2.691   4.873   4.770
10450SOL     OW32248   0.910   1.702   0.596
10450SOL    HW132249   0.965   1.667   0.520
10450SOL    HW232250   0.818   1.725   0.563
10451SOL     OW32251   1.435   5.360   2.203
10451SOL    HW132252   1.432   5.264   2.175
10451SOL    HW232253   1.478   5.415   2.131
10452SOL     OW32254   6.496   3.006   2.099
10452SOL    HW132255   6.510   2.958   2.012
10452SOL    HW232256   6.534   2.951   2.174
10453SOL     OW32257   3.723   6.660   1.149
10453SOL    HW132258   3.731   6.713   1.065
10453SOL    HW232259   3.649   6.592   1.138
10454SOL     OW32260   4.094   3.572   0.391
10454SOL    HW132261   4.085   3.487   0.339
10454SOL    HW232262   4.006   3.621   0.390
10455SOL     OW32263   6.265   6.220   3.129
10455SOL    HW132264   6.306   6.299   3.084
10455SOL    HW232265   6.213   6.167   3.062
10456SOL     OW32266   2.661   6.437   0.745
10456SOL    HW132267   2.644   6.526   0.701
10456SOL    HW232268   2.612   6.434   0.832
10457SOL     OW32269   3.378   3.433   1.918
10457SOL    HW132270   3.387   3.416   2.016
10457SOL    HW232271   3.287   3.469   1.898
10458SOL     OW32272   6.883   1.710   6.660
10458SOL    HW132273   6.797   1.660   6.657
10458SOL    HW232274   6.866   1.808   6.644
10459SOL     OW32275   4.987   6.002   1.680
10459SOL    HW132276   5.048   6.075   1.647
10459SOL    HW232277   4.894   6.037   1.686
10460SOL     OW32278   0.702   4.435   2.194
10460SOL    HW132279   0.772   4.478   2.251
10460SOL    HW232280   0.614   4.480   2.209
10461SOL     OW32281   0.413   5.299   5.884
10461SOL    HW132282   0.369   5.313   5.973
10461SOL    HW232283   0.467   5.380   5.860
10462SOL     OW32284   6.036   1.592   3.574
10462SOL    HW132285   5.986   1.610   3.489
10462SOL    HW232286   6.057   1.495   3.581
10463SOL     OW32287   4.018   2.752   5.543
10463SOL    HW132288   4.081   2.830   5.539
10463SOL    HW232289   3.997   2.721   5.450
10464SOL     OW32290   6.618   0.310   0.835
10464SOL    HW132291   6.619   0.238   0.904
10464SOL    HW232292   6.637   0.270   0.745
10465SOL     OW32293   6.365   5.477   1.395
10465SOL    HW132294   6.430   5.551   1.379
10465SOL    HW232295   6.290   5.484   1.329
10466SOL     OW32296   4.434   4.786   6.699
10466SOL    HW132297   4.483   4.700   6.690
10466SOL    HW232298   4.361   4.791   6.631
10467SOL     OW32299   2.184   1.753   6.197
10467SOL    HW132300   2.125   1.701   6.258
10467SOL    HW232301   2.272   1.768   6.241
10468SOL     OW32302   3.928   5.149   3.160
10468SOL    HW132303   3.862   5.075   3.161
10468SOL    HW232304   4.021   5.112   3.166
10469SOL     OW32305   4.127   4.157   5.846
10469SOL    HW132306   4.150   4.136   5.751
10469SOL    HW232307   4.042   4.111   5.871
10470SOL     OW32308   2.455   2.479   3.675
10470SOL    HW132309   2.469   2.389   3.715
10470SOL    HW232310   2.470   2.550   3.744
10471SOL     OW32311   2.685   2.329   1.180
10471SOL    HW132312   2.703   2.408   1.240
10471SOL    HW232313   2.764   2.313   1.121
10472SOL     OW32314   4.183   5.332   0.676
10472SOL    HW132315   4.175   5.238   0.643
10472SOL    HW232316   4.182   5.395   0.598
10473SOL     OW32317   6.920   0.414   6.607
10473SOL    HW132318   6.941   0.502   6.566
10473SOL    HW232319   7.003   0.357   6.607
10474SOL     OW32320   4.422   1.965   4.385
10474SOL    HW132321   4.439   2.048   4.439
10474SOL    HW232322   4.423   1.885   4.446
10475SOL     OW32323   4.585   7.001   2.249
10475SOL    HW132324   4.626   6.923   2.202
10475SOL    HW232325   4.499   0.006   2.204
10476SOL     OW32326   6.969   6.259   6.942
10476SOL    HW132327   6.962   6.160   6.928
10476SOL    HW232328   7.011   6.278   0.010
10477SOL     OW32329   6.623   1.784   4.041
10477SOL    HW132330   6.641   1.858   3.977
10477SOL    HW232331   6.638   1.696   3.996
10478SOL     OW32332   0.497   0.397   1.292
10478SOL    HW132333   0.582   0.444   1.269
10478SOL    HW232334   0.452   0.367   1.208
10479SOL     OW32335   0.412   2.538   1.272
10479SOL    HW132336   0.499   2.494   1.251
10479SOL    HW232337   0.428   2.624   1.320
10480SOL     OW32338   6.669   6.986   1.878
10480SOL    HW132339   6.612   6.995   1.961
10480SOL    HW232340   6.629   0.021   1.805
10481SOL     OW32341   2.707   6.332   4.601
10481SOL    HW132342   2.732   6.373   4.688
10481SOL    HW232343   2.721   6.398   4.527
10482SOL     OW32344   6.570   5.445   5.044
10482SOL    HW132345   6.568   5.521   4.980
10482SOL    HW232346   6.566   5.359   4.994
10483SOL     OW32347   6.735   5.317   6.872
10483SOL    HW132348   6.737   5.410   6.834
10483SOL    HW232349   6.720   5.323   6.971
10484SOL     OW32350   6.092   1.291   1.497
10484SOL    HW132351   6.001   1.273   1.533
10484SOL    HW232352   6.114   1.223   1.427
10485SOL     OW32353   3.397   3.977   1.866
10485SOL    HW132354   3.436   4.044   1.930
10485SOL    HW232355   3.367   3.896   1.916
10486SOL     OW32356   6.851   0.526   6.071
10486SOL    HW132357   6.760   0.488   6.090
10486SOL    HW232358   6.913   0.451   6.047
10487SOL     OW32359   4.470   1.971   2.174
10487SOL    HW132360   4.510   1.972   2.266
10487SOL    HW232361   4.409   2.050   2.164
10488SOL     OW32362   2.366   1.734   5.363
10488SOL    HW132363   2.387   1.777   5.451
10488SOL    HW232364   2.452   1.714   5.315
10489SOL     OW32365   6.298   6.921   4.408
10489SOL    HW132366   6.302   7.003   4.464
10489SOL    HW232367   6.267   6.945   4.316
10490SOL     OW32368   6.095   1.798   0.827
10490SOL    HW132369   6.087   1.758   0.919
10490SOL    HW232370   6.016   1.771   0.772
10491SOL     OW32371   2.473   2.000   5.287
10491SOL    HW132372   2.511   1.979   5.198
10491SOL    HW232373   2.444   1.916   5.332
10492SOL     OW32374   5.035   5.997   1.034
10492SOL    HW132375   5.126   6.020   0.998
10492SOL    HW232376   5.032   5.900   1.058
10493SOL     OW32377   2.930   6.438   2.151
10493SOL    HW132378   3.007   6.377   2.136
10493SOL    HW232379   2.954   6.506   2.220
10494SOL     OW32380   5.558   4.512   6.435
10494SOL    HW132381   5.511   4.600   6.428
10494SOL    HW232382   5.649   4.519   6.394
10495SOL     OW32383   0.735   6.981   0.748
10495SOL    HW132384   0.780   6.892   0.744
10495SOL    HW232385   0.793   0.025   0.797
10496SOL     OW32386   6.146   4.409   6.442
10496SOL    HW132387   6.240   4.426   6.472
10496SOL    HW232388   6.082   4.443   6.511
10497SOL     OW32389   1.623   6.745   2.308
10497SOL    HW132390   1.610   6.829   2.256
10497SOL    HW232391   1.541   6.727   2.363
10498SOL     OW32392   5.214   5.425   0.792
10498SOL    HW132393   5.122   5.463   0.797
10498SOL    HW232394   5.220   5.344   0.850
10499SOL     OW32395   4.912   0.463   2.142
10499SOL    HW132396   4.940   0.368   2.157
10499SOL    HW232397   4.886   0.475   2.046
10500SOL     OW32398   5.929   1.321   5.446
10500SOL    HW132399   5.941   1.224   5.467
10500SOL    HW232400   5.871   1.331   5.366
10501SOL     OW32401   2.346   5.132   2.000
10501SOL    HW132402   2.290   5.162   2.077
10501SOL    HW232403   2.371   5.036   2.011
10502SOL     OW32404   2.739   3.011   1.136
10502SOL    HW132405   2.760   3.029   1.040
10502SOL    HW232406   2.643   3.033   1.154
10503SOL     OW32407   5.247   3.321   0.768
10503SOL    HW132408   5.155   3.356   0.754
10503SOL    HW232409   5.278   3.274   0.686
10504SOL     OW32410   0.237   3.360   5.328
10504SOL    HW132411   0.189   3.325   5.409
10504SOL    HW232412   0.229   3.460   5.325
10505SOL     OW32413   5.770   5.194   1.352
10505SOL    HW132414   5.820   5.145   1.424
10505SOL    HW232415   5.682   5.150   1.337
10506SOL     OW32416   0.877   3.805   7.012
10506SOL    HW132417   0.792   3.801   0.045
10506SOL    HW232418   0.867   3.748   6.930
10507SOL     OW32419   2.309   5.617   0.926
10507SOL    HW132420   2.261   5.625   0.838
10507SOL    HW232421   2.380   5.687   0.932
10508SOL     OW32422   0.044   5.480   4.721
10508SOL    HW132423   0.076   5.416   4.652
10508SOL    HW232424   0.054   5.439   4.812
10509SOL     OW32425   6.801   5.315   5.098
10509SOL    HW132426   6.735   5.390   5.089
10509SOL    HW232427   6.776   5.258   5.176
10510SOL     OW32428   4.481   6.626   0.417
10510SOL    HW132429   4.391   6.617   0.374
10510SOL    HW232430   4.506   6.723   0.422
10511SOL     OW32431   3.027   1.121   2.255
10511SOL    HW132432   2.973   1.196   2.217
10511SOL    HW232433   3.123   1.150   2.262
10512SOL     OW32434   3.762   0.708   6.144
10512SOL    HW132435   3.684   0.696   6.205
10512SOL    HW232436   3.730   0.719   6.050
10513SOL     OW32437   6.487   3.329   3.454
10513SOL    HW132438   6.500   3.399   3.384
10513SOL    HW232439   6.396   3.288   3.443
10514SOL     OW32440   0.869   2.811   1.425
10514SOL    HW132441   0.852   2.746   1.352
10514SOL    HW232442   0.783   2.854   1.453
10515SOL     OW32443   1.382   3.549   4.811
10515SOL    HW132444   1.475   3.584   4.823
10515SOL    HW232445   1.344   3.583   4.725
10516SOL     OW32446   2.767   1.682   0.631
10516SOL    HW132447   2.803   1.634   0.711
10516SOL    HW232448   2.669   1.694   0.641
10517SOL     OW32449   0.835   3.387   1.112
10517SOL    HW132450   0.898   3.385   1.189
10517SOL    HW232451   0.781   3.471   1.115
10518SOL     OW32452   6.968   6.354   1.482
10518SOL    HW132453   6.971   6.445   1.522
10518SOL    HW232454   0.035   6.334   1.438
10519SOL     OW32455   3.034   3.521   0.800
10519SOL    HW132456   3.060   3.606   0.755
10519SOL    HW232457   2.941   3.529   0.836
10520SOL     OW32458   0.477   2.890   5.779
10520SOL    HW132459   0.401   2.943   5.741
10520SOL    HW232460   0.444   2.835   5.855
10521SOL     OW32461   6.876   5.502   1.263
10521SOL    HW132462   6.835   5.593   1.258
10521SOL    HW232463   6.923   5.491   1.351
10522SOL     OW32464   0.086   2.004   4.418
10522SOL    HW132465   7.012   1.974   4.433
10522SOL    HW232466   0.089   2.065   4.338
10523SOL     OW32467   0.603   4.932   2.834
10523SOL    HW132468   0.619   4.833   2.826
10523SOL    HW232469   0.650   4.980   2.760
10524SOL     OW32470   6.790   6.500   4.548
10524SOL    HW132471   6.853   6.546   4.486
10524SOL    HW232472   6.807   6.401   4.545
10525SOL     OW32473   3.255   0.772   4.928
10525SOL    HW132474   3.193   0.768   5.006
10525SOL    HW232475   3.292   0.865   4.920
10526SOL     OW32476   1.288   0.172   1.858
10526SOL    HW132477   1.225   0.112   1.809
10526SOL    HW232478   1.256   0.267   1.850
10527SOL     OW32479   1.304   0.889   5.166
10527SOL    HW132480   1.235   0.928   5.227
10527SOL    HW232481   1.293   0.927   5.074
10528SOL     OW32482   1.580   4.110   6.424
10528SOL    HW132483   1.660   4.105   6.365
10528SOL    HW232484   1.595   4.056   6.507
10529SOL     OW32485   2.340   6.114   4.387
10529SOL    HW132486   2.293   6.163   4.314
10529SOL    HW232487   2.274   6.090   4.458
10530SOL     OW32488   1.354   0.024   6.272
10530SOL    HW132489   1.269   6.996   6.289
10530SOL    HW232490   1.428   7.004   6.325
10531SOL     OW32491   2.009   2.305   4.266
10531SOL    HW132492   2.040   2.397   4.285
10531SOL    HW232493   2.009   2.251   4.350
10532SOL     OW32494   0.519   6.591   6.506
10532SOL    HW132495   0.485   6.610   6.414
10532SOL    HW232496   0.526   6.492   6.519
10533SOL     OW32497   3.043   6.364   3.393
10533SOL    HW132498   2.988   6.334   3.315
10533SOL    HW232499   3.054   6.288   3.457
10534SOL     OW32500   6.252   5.195   2.413
10534SOL    HW132501   6.340   5.243   2.407
10534SOL    HW232502   6.255   5.131   2.490
10535SOL     OW32503   2.077   1.702   2.629
10535SOL    HW132504   2.016   1.712   2.708
10535SOL    HW232505   2.146   1.774   2.631
10536SOL     OW32506   4.697   0.698   4.332
10536SOL    HW132507   4.781   0.687   4.280
10536SOL    HW232508   4.661   0.790   4.318
10537SOL     OW32509   4.447   6.613   4.151
10537SOL    HW132510   4.367   6.573   4.108
10537SOL    HW232511   4.530   6.578   4.108
10538SOL     OW32512   6.460   3.432   0.427
10538SOL    HW132513   6.520   3.371   0.478
10538SOL    HW232514   6.443   3.394   0.336
10539SOL     OW32515   6.535   5.407   0.958
10539SOL    HW132516   6.441   5.417   0.991
10539SOL    HW232517   6.534   5.398   0.858
10540SOL     OW32518   1.468   2.841   5.350
10540SOL    HW132519   1.499   2.789   5.270
10540SOL    HW232520   1.454   2.937   5.324
10541SOL     OW32521   3.948   3.967   2.277
10541SOL    HW132522   4.026   4.029   2.288
10541SOL    HW232523   3.961   3.887   2.335
10542SOL     OW32524   6.700   1.290   5.398
10542SOL    HW132525   6.763   1.252   5.465
10542SOL    HW232526   6.719   1.388   5.386
10543SOL     OW32527   0.864   1.914   4.265
10543SOL    HW132528   0.920   1.958   4.334
10543SOL    HW232529   0.772   1.952   4.267
10544SOL     OW32530   2.709   6.275   2.084
10544SOL    HW132531   2.702   6.193   2.027
10544SOL    HW232532   2.802   6.312   2.079
10545SOL     OW32533   0.847   2.106   1.205
10545SOL    HW132534   0.898   2.020   1.190
10545SOL    HW232535   0.801   2.132   1.121
10546SOL     OW32536   2.724   6.245   0.402
10546SOL    HW132537   2.694   6.178   0.469
10546SOL    HW232538   2.684   6.225   0.313
10547SOL     OW32539   5.342   3.137   3.010
10547SOL    HW132540   5.249   3.119   2.977
10547SOL    HW232541   5.392   3.051   3.015
10548SOL     OW32542   0.096   4.265   4.203
10548SOL    HW132543   0.100   4.348   4.147
10548SOL    HW232544   0.010   4.218   4.188
10549SOL     OW32545   0.544   1.439   1.052
10549SOL    HW132546   0.477   1.409   0.985
10549SOL    HW232547   0.636   1.419   1.020
10550SOL     OW32548   4.644   6.851   4.027
10550SOL    HW132549   4.699   6.804   3.958
10550SOL    HW232550   4.566   6.794   4.053
10551SOL     OW32551   2.086   2.246   6.611
10551SOL    HW132552   2.042   2.255   6.701
10551SOL    HW232553   2.141   2.328   6.593
10552SOL     OW32554   1.979   0.664   5.669
10552SOL    HW132555   1.890   0.625   5.644
10552SOL    HW232556   1.969   0.762   5.685
10553SOL     OW32557   0.442   4.759   1.272
10553SOL    HW132558   0.389   4.827   1.322
10553SOL    HW232559   0.427   4.669   1.312
10554SOL     OW32560   4.924   4.957   1.175
10554SOL    HW132561   4.995   4.892   1.150
10554SOL    HW232562   4.839   4.908   1.195
10555SOL     OW32563   2.487   2.880   0.706
10555SOL    HW132564   2.497   2.786   0.738
10555SOL    HW232565   2.424   2.882   0.628
10556SOL     OW32566   1.291   1.100   3.946
10556SOL    HW132567   1.262   1.043   3.869
10556SOL    HW232568   1.210   1.127   3.999
10557SOL     OW32569   2.043   2.988   3.432
10557SOL    HW132570   2.111   3.012   3.362
10557SOL    HW232571   2.058   2.894   3.463
10558SOL     OW32572   3.768   5.941   5.680
10558SOL    HW132573   3.795   5.892   5.597
10558SOL    HW232574   3.670   5.960   5.677
10559SOL     OW32575   4.332   0.960   1.716
10559SOL    HW132576   4.310   1.040   1.660
10559SOL    HW232577   4.301   0.975   1.809
10560SOL     OW32578   4.655   0.033   3.043
10560SOL    HW132579   4.582   0.043   3.110
10560SOL    HW232580   4.739   0.076   3.077
10561SOL     OW32581   3.438   4.431   1.587
10561SOL    HW132582   3.394   4.356   1.635
10561SOL    HW232583   3.481   4.493   1.653
10562SOL     OW32584   4.520   5.236   0.114
10562SOL    HW132585   4.462   5.158   0.087
10562SOL    HW232586   4.489   5.271   0.203
10563SOL     OW32587   0.300   0.913   2.442
10563SOL    HW132588   0.300   1.007   2.475
10563SOL    HW232589   0.294   0.913   2.342
10564SOL     OW32590   5.484   6.316   3.747
10564SOL    HW132591   5.433   6.328   3.832
10564SOL    HW232592   5.576   6.355   3.758
10565SOL     OW32593   6.843   6.716   5.645
10565SOL    HW132594   6.807   6.626   5.619
10565SOL    HW232595   6.924   6.736   5.589
10566SOL     OW32596   3.873   1.547   6.691
10566SOL    HW132597   3.941   1.614   6.662
10566SOL    HW232598   3.920   1.466   6.727
10567SOL     OW32599   2.243   2.255   5.302
10567SOL    HW132600   2.244   2.310   5.218
10567SOL    HW232601   2.331   2.210   5.313
10568SOL     OW32602   6.610   3.347   0.882
10568SOL    HW132603   6.690   3.395   0.918
10568SOL    HW232604   6.566   3.296   0.957
10569SOL     OW32605   6.278   0.842   2.439
10569SOL    HW132606   6.239   0.751   2.453
10569SOL    HW232607   6.237   0.884   2.358
10570SOL     OW32608   1.737   4.845   3.689
10570SOL    HW132609   1.808   4.900   3.644
10570SOL    HW232610   1.774   4.754   3.710
10571SOL     OW32611   0.446   4.556   5.126
10571SOL    HW132612   0.502   4.624   5.078
10571SOL    HW232613   0.431   4.477   5.066
10572SOL     OW32614   6.955   4.369   2.747
10572SOL    HW132615   6.924   4.348   2.654
10572SOL    HW232616   0.011   4.434   2.743
10573SOL     OW32617   5.407   0.915   4.759
10573SOL    HW132618   5.355   0.987   4.805
10573SOL    HW232619   5.376   0.907   4.664
10574SOL     OW32620   0.719   1.481   4.023
10574SOL    HW132621   0.762   1.530   4.099
10574SOL    HW232622   0.790   1.435   3.969
10575SOL     OW32623   7.009   0.666   3.716
10575SOL    HW132624   0.055   0.711   3.657
10575SOL    HW232625   0.035   0.617   3.789
10576SOL     OW32626   0.615   6.005   4.541
10576SOL    HW132627   0.623   5.949   4.624
10576SOL    HW232628   0.648   5.953   4.462
10577SOL     OW32629   1.659   4.729   0.585
10577SOL    HW132630   1.571   4.717   0.539
10577SOL    HW232631   1.705   4.641   0.593
10578SOL     OW32632   4.118   1.654   3.160
10578SOL    HW132633   4.107   1.750   3.187
10578SOL    HW232634   4.200   1.617   3.202
10579SOL     OW32635   4.112   2.672   1.342
10579SOL    HW132636   4.075   2.672   1.249
10579SOL    HW232637   4.038   2.653   1.407
10580SOL     OW32638   6.761   6.717   6.508
10580SOL    HW132639   6.666   6.704   6.479
10580SOL    HW232640   6.792   6.638   6.559
10581SOL     OW32641   5.768   0.092   3.208
10581SOL    HW132642   5.723   0.004   3.219
10581SOL    HW232643   5.745   0.152   3.284
10582SOL     OW32644   4.591   4.620   5.941
10582SOL    HW132645   4.549   4.531   5.962
10582SOL    HW232646   4.629   4.617   5.848
10583SOL     OW32647   4.417   0.974   4.139
10583SOL    HW132648   4.324   0.965   4.174
10583SOL    HW232649   4.483   0.953   4.212
10584SOL     OW32650   6.654   0.456   6.919
10584SOL    HW132651   6.561   0.490   6.905
10584SOL    HW232652   6.709   0.527   6.963
10585SOL     OW32653   2.846   1.839   5.204
10585SOL    HW132654   2.914   1.897   5.160
10585SOL    HW232655   2.870   1.743   5.190
10586SOL     OW32656   5.023   4.636   5.573
10586SOL    HW132657   5.094   4.634   5.503
10586SOL    HW232658   5.020   4.548   5.621
10587SOL     OW32659   6.959   5.172   6.685
10587SOL    HW132660   6.972   5.261   6.728
10587SOL    HW232661   6.877   5.128   6.723
10588SOL     OW32662   1.610   1.819   5.046
10588SOL    HW132663   1.512   1.799   5.040
10588SOL    HW232664   1.657   1.774   4.970
10589SOL     OW32665   5.798   1.015   4.394
10589SOL    HW132666   5.740   0.978   4.467
10589SOL    HW232667   5.741   1.040   4.316
10590SOL     OW32668   0.211   0.132   0.543
10590SOL    HW132669   0.111   0.137   0.548
10590SOL    HW232670   0.240   0.040   0.567
10591SOL     OW32671   1.856   2.071   6.940
10591SOL    HW132672   1.823   2.012   7.013
10591SOL    HW232673   1.956   2.077   6.945
10592SOL     OW32674   5.851   3.555   3.218
10592SOL    HW132675   5.810   3.642   3.192
10592SOL    HW232676   5.794   3.480   3.186
10593SOL     OW32677   3.141   5.930   1.265
10593SOL    HW132678   3.048   5.947   1.233
10593SOL    HW232679   3.205   5.972   1.200
10594SOL     OW32680   5.126   1.491   2.574
10594SOL    HW132681   5.109   1.586   2.544
10594SOL    HW232682   5.144   1.490   2.672
10595SOL     OW32683   5.643   0.096   0.252
10595SOL    HW132684   5.635   0.189   0.287
10595SOL    HW232685   5.574   0.038   0.296
10596SOL     OW32686   4.008   0.884   0.242
10596SOL    HW132687   3.908   0.879   0.245
10596SOL    HW232688   4.036   0.967   0.194
10597SOL     OW32689   3.398   1.441   5.499
10597SOL    HW132690   3.445   1.513   5.549
10597SOL    HW232691   3.311   1.422   5.543
10598SOL     OW32692   3.403   2.800   0.314
10598SOL    HW132693   3.422   2.704   0.298
10598SOL    HW232694   3.320   2.826   0.265
10599SOL     OW32695   5.255   3.432   6.622
10599SOL    HW132696   5.217   3.413   6.531
10599SOL    HW232697   5.183   3.420   6.691
10600SOL     OW32698   3.448   2.401   1.722
10600SOL    HW132699   3.386   2.324   1.731
10600SOL    HW232700   3.538   2.375   1.758
10601SOL     OW32701   1.513   4.422   5.560
10601SOL    HW132702   1.466   4.444   5.475
10601SOL    HW232703   1.449   4.378   5.623
10602SOL     OW32704   1.267   1.135   0.993
10602SOL    HW132705   1.170   1.154   1.011
10602SOL    HW232706   1.302   1.073   1.062
10603SOL     OW32707   4.059   0.237   3.441
10603SOL    HW132708   4.056   0.192   3.352
10603SOL    HW232709   4.036   0.172   3.512
10604SOL     OW32710   6.374   5.134   5.289
10604SOL    HW132711   6.300   5.200   5.275
10604SOL    HW232712   6.368   5.063   5.219
10605SOL     OW32713   2.311   6.130   6.714
10605SOL    HW132714   2.407   6.123   6.741
10605SOL    HW232715   2.253   6.103   6.791
10606SOL     OW32716   7.016   0.462   0.503
10606SOL    HW132717   6.983   0.462   0.409
10606SOL    HW232718   0.089   0.496   0.506
10607SOL     OW32719   4.250   4.542   6.382
10607SOL    HW132720   4.341   4.576   6.360
10607SOL    HW232721   4.205   4.606   6.444
10608SOL     OW32722   6.853   4.482   4.120
10608SOL    HW132723   6.820   4.530   4.201
10608SOL    HW232724   6.821   4.387   4.122
10609SOL     OW32725   3.020   6.805   0.061
10609SOL    HW132726   3.104   6.810   0.007
10609SOL    HW232727   2.959   6.737   0.021
10610SOL     OW32728   0.879   2.502   4.128
10610SOL    HW132729   0.853   2.525   4.222
10610SOL    HW232730   0.812   2.540   4.065
10611SOL     OW32731   2.826   4.368   6.722
10611SOL    HW132732   2.866   4.439   6.780
10611SOL    HW232733   2.860   4.278   6.750
10612SOL     OW32734   4.105   2.001   4.610
10612SOL    HW132735   4.063   2.041   4.528
10612SOL    HW232736   4.160   1.922   4.583
10613SOL     OW32737   5.723   5.842   5.861
10613SOL    HW132738   5.743   5.770   5.927
10613SOL    HW232739   5.808   5.870   5.815
10614SOL     OW32740   4.928   1.429   4.898
10614SOL    HW132741   4.913   1.473   4.809
10614SOL    HW232742   4.881   1.341   4.900
10615SOL     OW32743   3.530   0.667   6.281
10615SOL    HW132744   3.510   0.637   6.374
10615SOL    HW232745   3.481   0.609   6.215
10616SOL     OW32746   2.389   0.036   6.922
10616SOL    HW132747   2.400   7.011   7.011
10616SOL    HW232748   2.464   0.101   6.909
10617SOL     OW32749   3.015   4.160   1.251
10617SOL    HW132750   2.919   4.184   1.263
10617SOL    HW232751   3.024   4.096   1.175
10618SOL     OW32752   1.466   4.342   6.035
10618SOL    HW132753   1.532   4.401   6.082
10618SOL    HW232754   1.486   4.246   6.056
10619SOL     OW32755   6.970   3.200   3.623
10619SOL    HW132756   0.027   3.239   3.575
10619SOL    HW232757   6.941   3.115   3.578
10620SOL     OW32758   1.206   6.829   4.848
10620SOL    HW132759   1.143   6.863   4.918
10620SOL    HW232760   1.220   6.901   4.779
10621SOL     OW32761   1.106   4.943   1.384
10621SOL    HW132762   1.199   4.961   1.416
10621SOL    HW232763   1.095   4.844   1.369
10622SOL     OW32764   5.043   1.763   2.611
10622SOL    HW132765   5.054   1.776   2.513
10622SOL    HW232766   5.113   1.816   2.660
10623SOL     OW32767   6.936   5.527   6.099
10623SOL    HW132768   7.001   5.535   6.175
10623SOL    HW232769   6.843   5.529   6.135
10624SOL     OW32770   0.353   2.611   5.164
10624SOL    HW132771   0.447   2.607   5.127
10624SOL    HW232772   0.345   2.688   5.226
10625SOL     OW32773   0.716   4.566   1.386
10625SOL    HW132774   0.617   4.565   1.401
10625SOL    HW232775   0.754   4.478   1.416
10626SOL     OW32776   3.419   3.012   0.737
10626SOL    HW132777   3.421   3.110   0.718
10626SOL    HW232778   3.496   2.968   0.691
10627SOL     OW32779   5.730   1.699   6.836
10627SOL    HW132780   5.803   1.767   6.848
10627SOL    HW232781   5.768   1.607   6.849
10628SOL     OW32782   5.036   6.390   1.193
10628SOL    HW132783   5.121   6.364   1.147
10628SOL    HW232784   5.017   6.487   1.176
10629SOL     OW32785   2.366   4.940   4.693
10629SOL    HW132786   2.351   4.893   4.605
10629SOL    HW232787   2.461   4.926   4.722
10630SOL     OW32788   6.490   1.722   2.892
10630SOL    HW132789   6.434   1.805   2.899
10630SOL    HW232790   6.586   1.748   2.882
10631SOL     OW32791   3.833   4.927   5.002
10631SOL    HW132792   3.837   4.862   5.077
10631SOL    HW232793   3.797   5.014   5.035
10632SOL     OW32794   5.647   6.747   3.553
10632SOL    HW132795   5.575   6.798   3.600
10632SOL    HW232796   5.662   6.659   3.598
10633SOL     OW32797   2.763   2.398   1.513
10633SOL    HW132798   2.749   2.470   1.444
10633SOL    HW232799   2.850   2.352   1.495
10634SOL     OW32800   2.182   4.196   0.339
10634SOL    HW132801   2.231   4.137   0.402
10634SOL    HW232802   2.184   4.290   0.373
10635SOL     OW32803   1.852   3.645   6.570
10635SOL    HW132804   1.919   3.679   6.636
10635SOL    HW232805   1.814   3.721   6.518
10636SOL     OW32806   0.341   2.275   1.075
10636SOL    HW132807   0.340   2.338   0.997
10636SOL    HW232808   0.358   2.326   1.159
10637SOL     OW32809   1.142   4.595   6.056
10637SOL    HW132810   1.188   4.606   5.968
10637SOL    HW232811   1.128   4.685   6.097
10638SOL     OW32812   5.479   5.896   2.981
10638SOL    HW132813   5.403   5.906   2.916
10638SOL    HW232814   5.539   5.822   2.950
10639SOL     OW32815   0.755   4.078   3.573
10639SOL    HW132816   0.727   4.160   3.623
10639SOL    HW232817   0.850   4.088   3.542
10640SOL     OW32818   5.185   6.995   4.162
10640SOL    HW132819   5.199   0.071   4.182
10640SOL    HW232820   5.108   6.961   4.216
10641SOL     OW32821   2.615   1.832   2.607
10641SOL    HW132822   2.524   1.861   2.577
10641SOL    HW232823   2.610   1.800   2.702
10642SOL     OW32824   5.962   2.127   0.868
10642SOL    HW132825   6.028   2.070   0.917
10642SOL    HW232826   6.009   2.170   0.790
10643SOL     OW32827   2.074   5.724   4.794
10643SOL    HW132828   2.054   5.731   4.696
10643SOL    HW232829   1.996   5.680   4.841
10644SOL     OW32830   5.678   2.801   1.552
10644SOL    HW132831   5.723   2.846   1.628
10644SOL    HW232832   5.674   2.863   1.474
10645SOL     OW32833   1.751   2.456   4.697
10645SOL    HW132834   1.696   2.377   4.669
10645SOL    HW232835   1.814   2.480   4.624
10646SOL     OW32836   0.548   6.710   5.722
10646SOL    HW132837   0.470   6.741   5.777
10646SOL    HW232838   0.633   6.738   5.767
10647SOL     OW32839   3.158   5.414   4.920
10647SOL    HW132840   3.180   5.442   4.826
10647SOL    HW232841   3.141   5.315   4.922
10648SOL     OW32842   5.790   4.568   6.334
10648SOL    HW132843   5.743   4.613   6.259
10648SOL    HW232844   5.841   4.636   6.387
10649SOL     OW32845   0.881   4.589   3.141
10649SOL    HW132846   0.967   4.539   3.134
10649SOL    HW232847   0.817   4.553   3.073
10650SOL     OW32848   0.788   0.379   3.638
10650SOL    HW132849   0.850   0.314   3.594
10650SOL    HW232850   0.765   0.453   3.574
10651SOL     OW32851   5.693   6.537   0.079
10651SOL    HW132852   5.676   6.558   0.175
10651SOL    HW232853   5.659   6.445   0.059
10652SOL     OW32854   3.596   6.724   5.733
10652SOL    HW132855   3.572   6.658   5.662
10652SOL    HW232856   3.514   6.772   5.764
10653SOL     OW32857   4.671   5.635   4.680
10653SOL    HW132858   4.648   5.618   4.585
10653SOL    HW232859   4.720   5.722   4.688
10654SOL     OW32860   5.015   0.623   0.106
10654SOL    HW132861   5.017   0.683   0.186
10654SOL    HW232862   5.026   0.678   0.023
10655SOL     OW32863   2.426   5.131   0.558
10655SOL    HW132864   2.354   5.198   0.542
10655SOL    HW232865   2.414   5.052   0.497
10656SOL     OW32866   0.434   1.867   2.639
10656SOL    HW132867   0.433   1.770   2.615
10656SOL    HW232868   0.529   1.898   2.650
10657SOL     OW32869   5.533   0.533   5.296
10657SOL    HW132870   5.547   0.562   5.201
10657SOL    HW232871   5.453   0.580   5.334
10658SOL     OW32872   6.468   4.934   4.700
10658SOL    HW132873   6.438   5.007   4.761
10658SOL    HW232874   6.478   4.971   4.607
10659SOL     OW32875   0.546   5.731   1.396
10659SOL    HW132876   0.527   5.768   1.487
10659SOL    HW232877   0.623   5.780   1.356
10660SOL     OW32878   5.211   3.900   6.327
10660SOL    HW132879   5.286   3.842   6.357
10660SOL    HW232880   5.243   3.994   6.316
10661SOL     OW32881   1.728   6.936   1.749
10661SOL    HW132882   1.630   6.942   1.767
10661SOL    HW232883   1.771   6.880   1.820
10662SOL     OW32884   5.205   0.672   2.112
10662SOL    HW132885   5.160   0.717   2.035
10662SOL    HW232886   5.141   0.665   2.188
10663SOL     OW32887   0.747   2.217   2.880
10663SOL    HW132888   0.785   2.275   2.952
10663SOL    HW232889   0.686   2.149   2.921
10664SOL     OW32890   6.235   3.890   4.946
10664SOL    HW132891   6.230   3.821   5.018
10664SOL    HW232892   6.326   3.889   4.904
10665SOL     OW32893   0.712   1.829   0.037
10665SOL    HW132894   0.738   1.893   0.109
10665SOL    HW232895   0.776   1.752   0.036
10666SOL     OW32896   3.789   3.669   1.823
10666SOL    HW132897   3.876   3.716   1.811
10666SOL    HW232898   3.805   3.570   1.824
10667SOL     OW32899   4.626   2.720   4.020
10667SOL    HW132900   4.710   2.672   3.992
10667SOL    HW232901   4.549   2.657   4.014
10668SOL     OW32902   2.413   0.450   5.387
10668SOL    HW132903   2.444   0.496   5.304
10668SOL    HW232904   2.316   0.426   5.378
10669SOL     OW32905   5.433   0.362   1.969
10669SOL    HW132906   5.376   0.303   2.026
10669SOL    HW232907   5.461   0.312   1.887
10670SOL     OW32908   5.558   4.681   5.164
10670SOL    HW132909   5.497   4.746   5.209
10670SOL    HW232910   5.558   4.595   5.215
10671SOL     OW32911   2.208   2.168   3.442
10671SOL    HW132912   2.261   2.085   3.426
10671SOL    HW232913   2.200   2.219   3.356
10672SOL     OW32914   6.560   3.631   0.795
10672SOL    HW132915   6.485   3.672   0.744
10672SOL    HW232916   6.547   3.532   0.798
10673SOL     OW32917   0.917   0.627   6.863
10673SOL    HW132918   0.844   0.673   6.813
10673SOL    HW232919   0.882   0.591   6.950
10674SOL     OW32920   3.584   4.016   2.323
10674SOL    HW132921   3.554   4.054   2.236
10674SOL    HW232922   3.684   4.019   2.329
10675SOL     OW32923   1.960   6.653   6.774
10675SOL    HW132924   1.916   6.711   6.843
10675SOL    HW232925   1.994   6.570   6.817
10676SOL     OW32926   6.124   5.777   5.636
10676SOL    HW132927   6.132   5.795   5.538
10676SOL    HW232928   6.068   5.695   5.650
10677SOL     OW32929   1.280   0.948   1.566
10677SOL    HW132930   1.284   0.858   1.611
10677SOL    HW232931   1.191   0.990   1.585
10678SOL     OW32932   4.493   5.415   4.080
10678SOL    HW132933   4.589   5.408   4.054
10678SOL    HW232934   4.460   5.327   4.114
10679SOL     OW32935   4.681   5.507   6.741
10679SOL    HW132936   4.777   5.487   6.761
10679SOL    HW232937   4.624   5.429   6.769
10680SOL     OW32938   3.627   1.550   4.325
10680SOL    HW132939   3.607   1.479   4.257
10680SOL    HW232940   3.718   1.589   4.307
10681SOL     OW32941   0.920   3.661   0.972
10681SOL    HW132942   0.932   3.590   0.903
10681SOL    HW232943   0.989   3.732   0.959
10682SOL     OW32944   0.909   1.401   5.479
10682SOL    HW132945   0.839   1.456   5.525
10682SOL    HW232946   0.998   1.419   5.521
10683SOL     OW32947   3.615   2.100   4.254
10683SOL    HW132948   3.630   2.147   4.167
10683SOL    HW232949   3.595   2.003   4.236
10684SOL     OW32950   5.326   4.705   2.867
10684SOL    HW132951   5.400   4.748   2.816
10684SOL    HW232952   5.239   4.745   2.840
10685SOL     OW32953   0.803   6.094   2.025
10685SOL    HW132954   0.816   5.995   2.033
10685SOL    HW232955   0.892   6.137   2.011
10686SOL     OW32956   0.433   4.537   6.225
10686SOL    HW132957   0.521   4.566   6.264
10686SOL    HW232958   0.427   4.567   6.130
10687SOL     OW32959   5.548   6.216   3.016
10687SOL    HW132960   5.530   6.120   3.035
10687SOL    HW232961   5.607   6.254   3.087
10688SOL     OW32962   6.545   3.763   2.167
10688SOL    HW132963   6.564   3.859   2.149
10688SOL    HW232964   6.628   3.719   2.203
10689SOL     OW32965   6.922   5.789   3.288
10689SOL    HW132966   6.898   5.870   3.235
10689SOL    HW232967   6.846   5.723   3.284
10690SOL     OW32968   6.612   5.967   3.914
10690SOL    HW132969   6.677   5.909   3.964
10690SOL    HW232970   6.593   6.049   3.967
10691SOL     OW32971   0.667   2.783   2.159
10691SOL    HW132972   0.649   2.872   2.118
10691SOL    HW232973   0.650   2.710   2.093
10692SOL     OW32974   3.153   6.013   3.366
10692SOL    HW132975   3.183   5.918   3.355
10692SOL    HW232976   3.134   6.053   3.277
10693SOL     OW32977   2.100   6.007   0.162
10693SOL    HW132978   2.188   5.975   0.196
10693SOL    HW232979   2.026   5.964   0.215
10694SOL     OW32980   5.460   6.694   1.766
10694SOL    HW132981   5.545   6.673   1.718
10694SOL    HW232982   5.467   6.667   1.862
10695SOL     OW32983   0.045   2.529   2.467
10695SOL    HW132984   0.128   2.526   2.411
10695SOL    HW232985   6.997   2.468   2.427
10696SOL     OW32986   0.390   3.966   3.768
10696SOL    HW132987   0.409   4.023   3.848
10696SOL    HW232988   0.449   3.885   3.770
10697SOL     OW32989   6.757   5.486   5.442
10697SOL    HW132990   6.729   5.406   5.389
10697SOL    HW232991   6.835   5.530   5.398
10698SOL     OW32992   4.647   4.871   6.042
10698SOL    HW132993   4.575   4.873   6.111
10698SOL    HW232994   4.653   4.780   6.001
10699SOL     OW32995   4.162   3.518   1.970
10699SOL    HW132996   4.215   3.550   1.892
10699SOL    HW232997   4.190   3.425   1.993
10700SOL     OW32998   0.023   6.827   1.036
10700SOL    HW132999   6.948   6.857   1.043
10700SOL    HW233000   0.033   6.769   0.955
10701SOL     OW33001   3.502   6.121   0.018
10701SOL    HW133002   3.475   6.214   7.011
10701SOL    HW233003   3.427   6.078   0.069
10702SOL     OW33004   6.060   2.646   1.579
10702SOL    HW133005   6.039   2.564   1.525
10702SOL    HW233006   6.036   2.728   1.527
10703SOL     OW33007   3.152   3.204   4.813
10703SOL    HW133008   3.073   3.233   4.867
10703SOL    HW233009   3.232   3.199   4.873
10704SOL     OW33010   6.217   5.915   1.926
10704SOL    HW133011   6.152   5.908   2.002
10704SOL    HW233012   6.200   5.999   1.875
10705SOL     OW33013   6.068   4.495   1.952
10705SOL    HW133014   6.109   4.585   1.965
10705SOL    HW233015   5.968   4.504   1.948
10706SOL     OW33016   5.005   6.714   1.745
10706SOL    HW133017   4.929   6.660   1.782
10706SOL    HW233018   4.970   6.795   1.698
10707SOL     OW33019   0.196   6.559   4.228
10707SOL    HW133020   0.182   6.460   4.234
10707SOL    HW233021   0.242   6.581   4.142
10708SOL     OW33022   3.936   0.704   2.523
10708SOL    HW133023   3.885   0.712   2.609
10708SOL    HW233024   3.872   0.678   2.450
10709SOL     OW33025   6.147   6.141   5.437
10709SOL    HW133026   6.071   6.141   5.501
10709SOL    HW233027   6.145   6.225   5.383
10710SOL     OW33028   0.070   6.596   4.645
10710SOL    HW133029   0.165   6.574   4.625
10710SOL    HW233030   0.022   6.515   4.679
10711SOL     OW33031   1.681   5.892   4.056
10711SOL    HW133032   1.644   5.910   3.965
10711SOL    HW233033   1.607   5.866   4.118
10712SOL     OW33034   2.878   1.059   1.421
10712SOL    HW133035   2.861   1.108   1.506
10712SOL    HW233036   2.950   1.105   1.369
10713SOL     OW33037   0.754   3.262   1.368
10713SOL    HW133038   0.713   3.353   1.375
10713SOL    HW233039   0.754   3.233   1.272
10714SOL     OW33040   6.376   4.137   5.003
10714SOL    HW133041   6.352   4.190   4.922
10714SOL    HW233042   6.314   4.059   5.011
10715SOL     OW33043   5.573   0.444   2.633
10715SOL    HW133044   5.618   0.529   2.658
10715SOL    HW233045   5.594   0.421   2.538
10716SOL     OW33046   5.863   2.394   4.539
10716SOL    HW133047   5.879   2.307   4.493
10716SOL    HW233048   5.825   2.378   4.630
10717SOL     OW33049   1.021   2.557   0.848
10717SOL    HW133050   0.925   2.544   0.874
10717SOL    HW233051   1.035   2.652   0.820
10718SOL     OW33052   0.899   2.736   6.297
10718SOL    HW133053   0.954   2.819   6.309
10718SOL    HW233054   0.879   2.697   6.387
10719SOL     OW33055   5.872   5.875   1.502
10719SOL    HW133056   5.883   5.813   1.579
10719SOL    HW233057   5.824   5.958   1.533
10720SOL     OW33058   0.122   4.237   5.094
10720SOL    HW133059   0.030   4.275   5.095
10720SOL    HW233060   0.129   4.167   5.166
10721SOL     OW33061   5.785   3.720   4.959
10721SOL    HW133062   5.695   3.675   4.955
10721SOL    HW233063   5.798   3.775   4.876
10722SOL     OW33064   0.938   4.720   0.800
10722SOL    HW133065   0.890   4.780   0.737
10722SOL    HW233066   0.895   4.629   0.800
10723SOL     OW33067   0.698   3.972   6.331
10723SOL    HW133068   0.784   4.019   6.348
10723SOL    HW233069   0.645   3.967   6.416
10724SOL     OW33070   5.490   0.955   6.991
10724SOL    HW133071   5.462   1.051   6.986
10724SOL    HW233072   5.444   0.902   6.920
10725SOL     OW33073   1.014   4.434   4.887
10725SOL    HW133074   0.925   4.453   4.927
10725SOL    HW233075   1.034   4.502   4.816
10726SOL     OW33076   5.134   0.504   5.545
10726SOL    HW133077   5.200   0.432   5.525
10726SOL    HW233078   5.083   0.527   5.462
10727SOL     OW33079   0.093   4.951   4.383
10727SOL    HW133080   0.036   4.949   4.465
10727SOL    HW233081   0.120   4.857   4.359
10728SOL     OW33082   6.704   6.426   0.421
10728SOL    HW133083   6.642   6.498   0.388
10728SOL    HW233084   6.796   6.441   0.383
10729SOL     OW33085   5.935   1.237   2.283
10729SOL    HW133086   5.917   1.236   2.185
10729SOL    HW233087   5.863   1.289   2.330
10730SOL     OW33088   2.322   6.976   2.154
10730SOL    HW133089   2.235   7.013   2.186
10730SOL    HW233090   2.308   6.924   2.070
10731SOL     OW33091   3.030   6.053   0.612
10731SOL    HW133092   2.977   6.118   0.667
10731SOL    HW233093   3.101   6.103   0.562
10732SOL     OW33094   5.121   4.788   3.541
10732SOL    HW133095   5.172   4.711   3.504
10732SOL    HW233096   5.155   4.873   3.501
10733SOL     OW33097   5.385   2.248   0.144
10733SOL    HW133098   5.395   2.304   0.227
10733SOL    HW233099   5.427   2.159   0.160
10734SOL     OW33100   1.366   0.027   6.687
10734SOL    HW133101   1.444   7.012   6.637
10734SOL    HW233102   1.350   6.992   6.768
10735SOL     OW33103   1.373   4.119   2.847
10735SOL    HW133104   1.344   4.025   2.829
10735SOL    HW233105   1.432   4.121   2.927
10736SOL     OW33106   0.494   6.902   3.284
10736SOL    HW133107   0.396   6.904   3.265
10736SOL    HW233108   0.532   6.994   3.270
10737SOL     OW33109   1.524   1.815   6.805
10737SOL    HW133110   1.532   1.736   6.866
10737SOL    HW233111   1.428   1.843   6.799
10738SOL     OW33112   2.421   0.457   3.899
10738SOL    HW133113   2.352   0.458   3.971
10738SOL    HW233114   2.512   0.463   3.940
10739SOL     OW33115   0.405   1.287   0.858
10739SOL    HW133116   0.435   1.206   0.907
10739SOL    HW233117   0.411   1.271   0.760
10740SOL     OW33118   0.646   4.611   5.471
10740SOL    HW133119   0.568   4.576   5.418
10740SOL    HW233120   0.694   4.534   5.513
10741SOL     OW33121   0.315   0.288   2.340
10741SOL    HW133122   0.297   0.384   2.364
10741SOL    HW233123   0.380   0.250   2.406
10742SOL     OW33124   5.823   0.273   1.681
10742SOL    HW133125   5.893   0.257   1.611
10742SOL    HW233126   5.868   0.293   1.768
10743SOL     OW33127   2.908   2.466   5.670
10743SOL    HW133128   2.915   2.559   5.633
10743SOL    HW233129   2.912   2.400   5.596
10744SOL     OW33130   2.858   0.779   2.302
10744SOL    HW133131   2.932   0.816   2.246
10744SOL    HW233132   2.770   0.801   2.260
10745SOL     OW33133   0.791   5.259   0.572
10745SOL    HW133134   0.767   5.352   0.599
10745SOL    HW233135   0.802   5.202   0.654
10746SOL     OW33136   1.894   3.682   1.216
10746SOL    HW133137   1.832   3.757   1.240
10746SOL    HW233138   1.902   3.620   1.294
10747SOL     OW33139   4.447   0.790   3.300
10747SOL    HW133140   4.424   0.795   3.203
10747SOL    HW233141   4.495   0.874   3.327
10748SOL     OW33142   3.517   0.927   1.840
10748SOL    HW133143   3.428   0.883   1.826
10748SOL    HW233144   3.590   0.867   1.807
10749SOL     OW33145   6.818   5.027   3.375
10749SOL    HW133146   6.833   5.021   3.474
10749SOL    HW233147   6.831   5.121   3.345
10750SOL     OW33148   4.673   5.924   4.502
10750SOL    HW133149   4.594   5.938   4.442
10750SOL    HW233150   4.643   5.923   4.598
10751SOL     OW33151   1.502   4.423   4.362
10751SOL    HW133152   1.523   4.333   4.325
10751SOL    HW233153   1.587   4.475   4.373
10752SOL     OW33154   6.206   4.137   6.502
10752SOL    HW133155   6.213   4.235   6.488
10752SOL    HW233156   6.147   4.097   6.432
10753SOL     OW33157   3.586   6.579   4.307
10753SOL    HW133158   3.545   6.499   4.351
10753SOL    HW233159   3.680   6.590   4.341
10754SOL     OW33160   1.183   1.918   3.629
10754SOL    HW133161   1.178   1.941   3.726
10754SOL    HW233162   1.216   1.824   3.619
10755SOL     OW33163   1.019   1.863   6.451
10755SOL    HW133164   0.966   1.808   6.386
10755SOL    HW233165   1.076   1.803   6.507
10756SOL     OW33166   6.726   4.250   0.250
10756SOL    HW133167   6.659   4.305   0.200
10756SOL    HW233168   6.700   4.246   0.346
10757SOL     OW33169   1.155   2.890   0.162
10757SOL    HW133170   1.229   2.830   0.132
10757SOL    HW233171   1.188   2.952   0.233
10758SOL     OW33172   0.846   6.607   5.168
10758SOL    HW133173   0.885   6.682   5.116
10758SOL    HW233174   0.872   6.520   5.127
10759SOL     OW33175   1.653   2.971   7.016
10759SOL    HW133176   1.612   3.001   0.081
10759SOL    HW233177   1.583   2.930   6.957
10760SOL     OW33178   5.859   1.602   1.097
10760SOL    HW133179   5.957   1.606   1.081
10760SOL    HW233180   5.812   1.666   1.036
10761SOL     OW33181   1.391   1.532   5.866
10761SOL    HW133182   1.332   1.590   5.922
10761SOL    HW233183   1.477   1.580   5.847
10762SOL     OW33184   3.814   2.110   5.163
10762SOL    HW133185   3.801   2.206   5.187
10762SOL    HW233186   3.851   2.103   5.070
10763SOL     OW33187   4.433   6.433   1.165
10763SOL    HW133188   4.383   6.435   1.251
10763SOL    HW233189   4.368   6.441   1.089
10764SOL     OW33190   5.422   2.051   6.379
10764SOL    HW133191   5.450   1.959   6.353
10764SOL    HW233192   5.484   2.086   6.450
10765SOL     OW33193   5.408   2.718   0.810
10765SOL    HW133194   5.394   2.787   0.881
10765SOL    HW233195   5.423   2.629   0.853
10766SOL     OW33196   4.193   2.960   1.077
10766SOL    HW133197   4.245   2.891   1.028
10766SOL    HW233198   4.231   3.050   1.060
10767SOL     OW33199   0.910   0.393   0.219
10767SOL    HW133200   0.866   0.459   0.158
10767SOL    HW233201   0.973   0.442   0.280
10768SOL     OW33202   4.273   4.519   0.830
10768SOL    HW133203   4.277   4.596   0.894
10768SOL    HW233204   4.319   4.440   0.870
10769SOL     OW33205   2.378   4.723   4.530
10769SOL    HW133206   2.455   4.687   4.583
10769SOL    HW233207   2.292   4.686   4.566
10770SOL     OW33208   5.196   0.427   5.127
10770SOL    HW133209   5.190   0.371   5.209
10770SOL    HW233210   5.291   0.434   5.097
10771SOL     OW33211   4.895   1.108   3.469
10771SOL    HW133212   4.822   1.045   3.439
10771SOL    HW233213   4.910   1.177   3.399
10772SOL     OW33214   0.073   6.792   4.888
10772SOL    HW133215   6.999   6.821   4.906
10772SOL    HW233216   0.072   6.706   4.837
10773SOL     OW33217   0.254   5.824   0.155
10773SOL    HW133218   0.226   5.733   0.184
10773SOL    HW233219   0.324   5.817   0.084
10774SOL     OW33220   1.739   1.097   6.270
10774SOL    HW133221   1.816   1.049   6.314
10774SOL    HW233222   1.741   1.193   6.295
10775SOL     OW33223   0.549   3.196   1.063
10775SOL    HW133224   0.450   3.205   1.072
10775SOL    HW233225   0.587   3.166   1.151
10776SOL     OW33226   1.542   6.511   6.670
10776SOL    HW133227   1.634   6.518   6.630
10776SOL    HW233228   1.551   6.485   6.766
10777SOL     OW33229   3.638   5.999   3.237
10777SOL    HW133230   3.545   6.036   3.243
10777SOL    HW233231   3.696   6.062   3.186
10778SOL     OW33232   5.365   6.657   4.868
10778SOL    HW133233   5.369   6.558   4.862
10778SOL    HW233234   5.370   6.696   4.776
10779SOL     OW33235   6.254   4.747   3.278
10779SOL    HW133236   6.167   4.699   3.263
10779SOL    HW233237   6.270   4.756   3.377
10780SOL     OW33238   1.631   0.225   3.636
10780SOL    HW133239   1.710   0.199   3.692
10780SOL    HW233240   1.662   0.248   3.544
10781SOL     OW33241   4.183   0.842   3.780
10781SOL    HW133242   4.087   0.847   3.751
10781SOL    HW233243   4.225   0.932   3.768
10782SOL     OW33244   6.551   2.234   3.048
10782SOL    HW133245   6.460   2.267   3.075
10782SOL    HW233246   6.621   2.293   3.089
10783SOL     OW33247   0.573   3.403   3.280
10783SOL    HW133248   0.647   3.336   3.271
10783SOL    HW233249   0.562   3.452   3.194
10784SOL     OW33250   3.237   1.152   3.983
10784SOL    HW133251   3.318   1.183   3.933
10784SOL    HW233252   3.210   1.061   3.950
10785SOL     OW33253   0.040   5.458   1.454
10785SOL    HW133254   0.004   5.367   1.476
10785SOL    HW233255   0.118   5.449   1.392
10786SOL     OW33256   4.902   5.161   2.629
10786SOL    HW133257   4.952   5.248   2.622
10786SOL    HW233258   4.824   5.162   2.567
10787SOL     OW33259   2.703   1.685   4.497
10787SOL    HW133260   2.634   1.630   4.546
10787SOL    HW233261   2.689   1.782   4.517
10788SOL     OW33262   2.344   5.201   6.440
10788SOL    HW133263   2.377   5.108   6.424
10788SOL    HW233264   2.385   5.262   6.372
10789SOL     OW33265   6.298   2.633   6.861
10789SOL    HW133266   6.292   2.733   6.865
10789SOL    HW233267   6.385   2.607   6.819
10790SOL     OW33268   1.547   1.347   2.319
10790SOL    HW133269   1.477   1.381   2.257
10790SOL    HW233270   1.555   1.248   2.309
10791SOL     OW33271   0.604   6.961   0.244
10791SOL    HW133272   0.532   7.001   0.302
10791SOL    HW233273   0.563   6.897   0.179
10792SOL     OW33274   3.135   3.425   3.237
10792SOL    HW133275   3.058   3.459   3.182
10792SOL    HW233276   3.119   3.446   3.333
10793SOL     OW33277   5.601   2.683   4.287
10793SOL    HW133278   5.621   2.753   4.356
10793SOL    HW233279   5.676   2.679   4.221
10794SOL     OW33280   3.027   3.927   3.827
10794SOL    HW133281   2.989   3.991   3.894
10794SOL    HW233282   3.002   3.834   3.851
10795SOL     OW33283   0.129   4.340   3.088
10795SOL    HW133284   0.158   4.421   3.036
10795SOL    HW233285   0.122   4.364   3.185
10796SOL     OW33286   5.583   6.816   0.774
10796SOL    HW133287   5.612   6.768   0.691
10796SOL    HW233288   5.632   6.903   0.781
10797SOL     OW33289   4.033   2.184   2.196
10797SOL    HW133290   3.998   2.210   2.106
10797SOL    HW233291   4.125   2.222   2.209
10798SOL     OW33292   2.842   6.593   0.372
10798SOL    HW133293   2.771   6.531   0.336
10798SOL    HW233294   2.932   6.550   0.361
10799SOL     OW33295   3.387   0.835   2.862
10799SOL    HW133296   3.468   0.828   2.804
10799SOL    HW233297   3.311   0.873   2.808
10800SOL     OW33298   0.568   6.606   6.804
10800SOL    HW133299   0.540   6.641   6.714
10800SOL    HW233300   0.662   6.633   6.823
10801SOL     OW33301   0.822   5.901   6.266
10801SOL    HW133302   0.889   5.829   6.249
10801SOL    HW233303   0.816   5.961   6.187
10802SOL     OW33304   0.858   2.359   3.365
10802SOL    HW133305   0.906   2.442   3.336
10802SOL    HW233306   0.856   2.355   3.465
10803SOL     OW33307   3.202   3.547   5.776
10803SOL    HW133308   3.193   3.626   5.715
10803SOL    HW233309   3.124   3.486   5.764
10804SOL     OW33310   6.227   3.555   1.743
10804SOL    HW133311   6.235   3.650   1.773
10804SOL    HW233312   6.226   3.495   1.824
10805SOL     OW33313   3.711   0.015   0.036
10805SOL    HW133314   3.626   0.068   0.029
10805SOL    HW233315   3.768   0.052   0.109
10806SOL     OW33316   4.777   3.510   6.148
10806SOL    HW133317   4.869   3.524   6.110
10806SOL    HW233318   4.767   3.415   6.177
10807SOL     OW33319   1.264   6.861   2.245
10807SOL    HW133320   1.269   6.898   2.338
10807SOL    HW233321   1.312   6.923   2.183
10808SOL     OW33322   6.354   2.996   6.223
10808SOL    HW133323   6.411   3.043   6.292
10808SOL    HW233324   6.321   2.910   6.261
10809SOL     OW33325   3.085   6.179   3.602
10809SOL    HW133326   3.115   6.122   3.525
10809SOL    HW233327   3.062   6.120   3.680
10810SOL     OW33328   1.963   0.543   5.027
10810SOL    HW133329   1.986   0.501   4.940
10810SOL    HW233330   1.922   0.475   5.088
10811SOL     OW33331   4.010   4.418   5.917
10811SOL    HW133332   3.937   4.486   5.921
10811SOL    HW233333   4.032   4.398   5.821
10812SOL     OW33334   0.988   3.374   1.577
10812SOL    HW133335   1.079   3.344   1.605
10812SOL    HW233336   0.934   3.398   1.658
10813SOL     OW33337   2.472   4.964   6.382
10813SOL    HW133338   2.481   4.929   6.289
10813SOL    HW233339   2.452   4.888   6.444
10814SOL     OW33340   1.792   6.749   6.291
10814SOL    HW133341   1.875   6.791   6.254
10814SOL    HW233342   1.735   6.819   6.333
10815SOL     OW33343   4.395   4.624   4.026
10815SOL    HW133344   4.454   4.704   4.020
10815SOL    HW233345   4.451   4.542   4.040
10816SOL     OW33346   2.251   2.825   1.280
10816SOL    HW133347   2.270   2.731   1.250
10816SOL    HW233348   2.273   2.834   1.377
10817SOL     OW33349   4.911   6.789   3.046
10817SOL    HW133350   4.846   6.762   2.976
10817SOL    HW233351   4.973   6.859   3.010
10818SOL     OW33352   4.305   4.711   5.419
10818SOL    HW133353   4.205   4.715   5.426
10818SOL    HW233354   4.342   4.668   5.501
10819SOL     OW33355   6.855   4.631   0.208
10819SOL    HW133356   6.924   4.692   0.170
10819SOL    HW233357   6.897   4.544   0.233
10820SOL     OW33358   5.968   5.797   4.249
10820SOL    HW133359   6.010   5.750   4.171
10820SOL    HW233360   5.878   5.830   4.223
10821SOL     OW33361   5.910   0.003   2.110
10821SOL    HW133362   5.818   0.014   2.072
10821SOL    HW233363   5.904   6.989   2.203
10822SOL     OW33364   6.802   3.177   3.062
10822SOL    HW133365   6.808   3.179   3.162
10822SOL    HW233366   6.883   3.222   3.023
10823SOL     OW33367   1.949   5.954   1.752
10823SOL    HW133368   1.994   5.874   1.792
10823SOL    HW233369   1.958   6.032   1.815
10824SOL     OW33370   6.586   0.488   3.490
10824SOL    HW133371   6.659   0.451   3.547
10824SOL    HW233372   6.601   0.585   3.474
10825SOL     OW33373   2.786   0.767   6.311
10825SOL    HW133374   2.852   0.715   6.258
10825SOL    HW233375   2.834   0.833   6.369
10826SOL     OW33376   1.319   2.895   3.354
10826SOL    HW133377   1.283   2.987   3.341
10826SOL    HW233378   1.419   2.901   3.365
10827SOL     OW33379   5.744   3.807   4.671
10827SOL    HW133380   5.818   3.811   4.604
10827SOL    HW233381   5.658   3.785   4.624
10828SOL     OW33382   0.783   5.776   1.711
10828SOL    HW133383   0.774   5.686   1.752
10828SOL    HW233384   0.696   5.804   1.671
10829SOL     OW33385   3.901   2.430   0.991
10829SOL    HW133386   3.825   2.486   0.958
10829SOL    HW233387   3.958   2.403   0.914
10830SOL     OW33388   5.622   2.209   3.378
10830SOL    HW133389   5.630   2.199   3.478
10830SOL    HW233390   5.656   2.127   3.333
10831SOL     OW33391   3.825   5.565   2.691
10831SOL    HW133392   3.759   5.512   2.638
10831SOL    HW233393   3.782   5.595   2.776
10832SOL     OW33394   1.509   2.542   0.265
10832SOL    HW133395   1.476   2.565   0.356
10832SOL    HW233396   1.446   2.478   0.222
10833SOL     OW33397   1.829   0.736   2.137
10833SOL    HW133398   1.877   0.669   2.080
10833SOL    HW233399   1.758   0.690   2.190
10834SOL     OW33400   0.881   2.315   6.286
10834SOL    HW133401   0.803   2.283   6.233
10834SOL    HW233402   0.916   2.399   6.245
10835SOL     OW33403   6.404   2.229   6.753
10835SOL    HW133404   6.496   2.220   6.715
10835SOL    HW233405   6.401   2.185   6.843
10836SOL     OW33406   6.692   1.692   4.739
10836SOL    HW133407   6.637   1.610   4.755
10836SOL    HW233408   6.754   1.707   4.816
10837SOL     OW33409   6.673   5.137   0.706
10837SOL    HW133410   6.719   5.104   0.624
10837SOL    HW233411   6.595   5.078   0.727
10838SOL     OW33412   5.512   6.372   4.600
10838SOL    HW133413   5.473   6.458   4.568
10838SOL    HW233414   5.474   6.348   4.689
10839SOL     OW33415   4.437   3.060   1.458
10839SOL    HW133416   4.377   2.987   1.425
10839SOL    HW233417   4.414   3.082   1.552
10840SOL     OW33418   3.100   5.634   2.263
10840SOL    HW133419   3.154   5.559   2.301
10840SOL    HW233420   3.008   5.600   2.240
10841SOL     OW33421   5.431   5.436   7.016
10841SOL    HW133422   5.447   5.508   6.948
10841SOL    HW233423   5.488   5.453   0.076
10842SOL     OW33424   4.471   2.532   1.738
10842SOL    HW133425   4.510   2.621   1.713
10842SOL    HW233426   4.435   2.488   1.655
10843SOL     OW33427   1.401   2.892   1.354
10843SOL    HW133428   1.378   2.872   1.449
10843SOL    HW233429   1.321   2.932   1.309
10844SOL     OW33430   0.142   6.956   3.575
10844SOL    HW133431   0.047   6.981   3.556
10844SOL    HW233432   0.193   0.016   3.605
10845SOL     OW33433   3.308   0.364   5.062
10845SOL    HW133434   3.215   0.375   5.026
10845SOL    HW233435   3.323   0.431   5.134
10846SOL     OW33436   4.745   1.569   0.548
10846SOL    HW133437   4.663   1.539   0.499
10846SOL    HW233438   4.718   1.607   0.637
10847SOL     OW33439   3.482   3.306   6.262
10847SOL    HW133440   3.510   3.238   6.330
10847SOL    HW233441   3.407   3.268   6.207
10848SOL     OW33442   3.055   3.507   6.702
10848SOL    HW133443   3.059   3.412   6.672
10848SOL    HW233444   3.012   3.563   6.631
10849SOL     OW33445   2.363   6.138   2.718
10849SOL    HW133446   2.376   6.101   2.626
10849SOL    HW233447   2.286   6.091   2.762
10850SOL     OW33448   3.445   4.747   6.658
10850SOL    HW133449   3.539   4.716   6.665
10850SOL    HW233450   3.440   4.824   6.594
10851SOL     OW33451   1.965   2.849   6.733
10851SOL    HW133452   2.059   2.856   6.698
10851SOL    HW233453   1.961   2.891   6.824
10852SOL     OW33454   1.347   0.341   0.016
10852SOL    HW133455   1.273   0.317   6.973
10852SOL    HW233456   1.430   0.292   7.010
10853SOL     OW33457   2.519   1.842   5.565
10853SOL    HW133458   2.474   1.874   5.648
10853SOL    HW233459   2.590   1.907   5.537
10854SOL     OW33460   4.169   5.565   5.336
10854SOL    HW133461   4.244   5.514   5.378
10854SOL    HW233462   4.168   5.547   5.237
10855SOL     OW33463   3.047   6.545   1.056
10855SOL    HW133464   3.000   6.633   1.046
10855SOL    HW233465   3.124   6.555   1.120
10856SOL     OW33466   6.101   1.871   1.173
10856SOL    HW133467   6.122   1.779   1.207
10856SOL    HW233468   6.180   1.908   1.124
10857SOL     OW33469   6.598   2.476   2.557
10857SOL    HW133470   6.549   2.398   2.520
10857SOL    HW233471   6.632   2.454   2.649
10858SOL     OW33472   0.699   2.096   6.108
10858SOL    HW133473   0.647   2.129   6.187
10858SOL    HW233474   0.778   2.042   6.140
10859SOL     OW33475   2.159   3.375   4.076
10859SOL    HW133476   2.154   3.275   4.068
10859SOL    HW233477   2.231   3.400   4.141
10860SOL     OW33478   6.492   1.627   5.864
10860SOL    HW133479   6.456   1.719   5.851
10860SOL    HW233480   6.424   1.560   5.835
10861SOL     OW33481   3.940   3.057   2.838
10861SOL    HW133482   3.864   3.001   2.804
10861SOL    HW233483   3.971   3.118   2.765
10862SOL     OW33484   2.389   1.790   5.944
10862SOL    HW133485   2.352   1.763   6.033
10862SOL    HW233486   2.386   1.712   5.882
10863SOL     OW33487   3.812   0.560   3.826
10863SOL    HW133488   3.911   0.561   3.840
10863SOL    HW233489   3.765   0.558   3.914
10864SOL     OW33490   3.217   5.121   0.598
10864SOL    HW133491   3.249   5.211   0.570
10864SOL    HW233492   3.118   5.124   0.613
10865SOL     OW33493   6.780   1.563   2.772
10865SOL    HW133494   6.698   1.510   2.751
10865SOL    HW233495   6.860   1.504   2.764
10866SOL     OW33496   5.106   4.896   0.293
10866SOL    HW133497   5.027   4.956   0.283
10866SOL    HW233498   5.085   4.824   0.359
10867SOL     OW33499   3.508   3.866   0.265
10867SOL    HW133500   3.548   3.885   0.355
10867SOL    HW233501   3.534   3.774   0.236
10868SOL     OW33502   3.145   2.173   3.758
10868SOL    HW133503   3.074   2.147   3.692
10868SOL    HW233504   3.102   2.197   3.845
10869NA      NA33505   0.370   2.245   5.771
10870NA      NA33506   4.410   4.643   5.206
10871NA      NA33507   1.701   3.940   2.455
10872NA      NA33508   5.071   4.057   3.717
10873NA      NA33509   4.312   2.412   5.269
10874NA      NA33510   3.152   4.883   1.753
10875NA      NA33511   0.012   4.669   0.511
10876NA      NA33512   3.379   3.339   3.235
10877NA      NA33513   4.905   5.201   1.211
10878NA      NA33514   3.688   6.372   5.458
10879NA      NA33515   6.117   5.396   1.933
10880NA      NA33516   2.222   1.154   4.549
10881NA      NA33517   3.884   5.086   1.916
10882NA      NA33518   3.933   3.218   1.669
   7.02067   7.02067   7.02067
