Generated by trjconv : CNT in water t= 532.00000
33518
    1C        C    1   2.840   2.770   4.749
    1C        C    2   2.898   2.723   4.869
    1C        C    3   2.847   2.777   4.988
    1C        C    4   2.860   2.784   4.264
    1C        C    5   2.911   2.736   4.386
    1C        C    6   2.849   2.776   4.507
    1C        C    7   3.012   2.642   4.630
    1C        C    8   2.896   2.723   4.629
    1C        C    9   3.079   2.609   4.750
    1C        C   10   3.011   2.638   4.870
    1C        C   11   3.179   2.492   4.974
    1C        C   12   3.058   2.562   4.978
    1C        C   13   2.850   2.775   3.774
    1C        C   14   2.904   2.727   3.895
    1C        C   15   2.853   2.779   4.017
    1C        C   16   3.021   2.653   4.141
    1C        C   17   2.906   2.734   4.140
    1C        C   18   3.085   2.621   4.263
    1C        C   19   3.025   2.653   4.387
    1C        C   20   3.212   2.562   4.507
    1C        C   21   3.080   2.611   4.510
    1C        C   22   3.281   2.539   4.628
    1C        C   23   3.211   2.558   4.750
    1C        C   24   3.415   2.486   4.869
    1C        C   25   3.274   2.510   4.868
    1C        C   26   3.489   2.487   4.988
    1C        C   27   2.851   2.771   3.285
    1C        C   28   2.906   2.730   3.408
    1C        C   29   2.854   2.777   3.531
    1C        C   30   3.022   2.647   3.652
    1C        C   31   2.907   2.729   3.653
    1C        C   32   3.082   2.613   3.775
    1C        C   33   3.019   2.645   3.897
    1C        C   34   3.213   2.563   4.019
    1C        C   35   3.081   2.612   4.019
    1C        C   36   3.284   2.544   4.140
    1C        C   37   3.215   2.565   4.262
    1C        C   38   3.419   2.513   4.384
    1C        C   39   3.280   2.540   4.385
    1C        C   40   3.488   2.502   4.506
    1C        C   41   3.418   2.505   4.628
    1C        C   42   3.632   2.487   4.747
    1C        C   43   3.490   2.486   4.748
    1C        C   44   3.705   2.489   4.868
    1C        C   45   3.627   2.476   4.984
    1C        C   46   2.841   2.758   2.798
    1C        C   47   2.899   2.715   2.920
    1C        C   48   2.849   2.770   3.040
    1C        C   49   3.021   2.646   3.164
    1C        C   50   2.902   2.722   3.162
    1C        C   51   3.083   2.609   3.285
    1C        C   52   3.021   2.648   3.406
    1C        C   53   3.211   2.554   3.529
    1C        C   54   3.082   2.612   3.528
    1C        C   55   3.279   2.534   3.651
    1C        C   56   3.211   2.555   3.774
    1C        C   57   3.418   2.517   3.895
    1C        C   58   3.278   2.537   3.897
    1C        C   59   3.489   2.503   4.016
    1C        C   60   3.420   2.509   4.140
    1C        C   61   3.632   2.506   4.262
    1C        C   62   3.490   2.502   4.262
    1C        C   63   3.702   2.508   4.384
    1C        C   64   3.630   2.500   4.505
    1C        C   65   3.839   2.540   4.628
    1C        C   66   3.703   2.500   4.626
    1C        C   67   3.905   2.569   4.749
    1C        C   68   3.838   2.534   4.868
    1C        C   69   4.054   2.588   4.979
    1C        C   70   3.923   2.539   4.980
    1C        C   71   2.827   2.738   2.311
    1C        C   72   2.887   2.697   2.432
    1C        C   73   2.835   2.750   2.552
    1C        C   74   3.012   2.636   2.675
    1C        C   75   2.892   2.710   2.675
    1C        C   76   3.073   2.597   2.796
    1C        C   77   3.015   2.635   2.920
    1C        C   78   3.210   2.550   3.041
    1C        C   79   3.083   2.611   3.042
    1C        C   80   3.277   2.530   3.163
    1C        C   81   3.210   2.549   3.286
    1C        C   82   3.417   2.497   3.406
    1C        C   83   3.279   2.527   3.408
    1C        C   84   3.487   2.491   3.529
    1C        C   85   3.417   2.504   3.651
    1C        C   86   3.629   2.497   3.770
    1C        C   87   3.488   2.503   3.773
    1C        C   88   3.698   2.510   3.893
    1C        C   89   3.630   2.507   4.017
    1C        C   90   3.839   2.542   4.139
    1C        C   91   3.701   2.514   4.139
    1C        C   92   3.907   2.560   4.262
    1C        C   93   3.840   2.539   4.384
    1C        C   94   4.029   2.633   4.501
    1C        C   95   3.906   2.564   4.507
    1C        C   96   4.095   2.668   4.621
    1C        C   97   4.035   2.627   4.743
    1C        C   98   4.190   2.771   4.864
    1C        C   99   4.104   2.656   4.863
    1C        C  100   4.217   2.843   4.981
    1C        C  101   2.822   2.730   2.075
    1C        C  102   2.992   2.591   2.194
    1C        C  103   2.880   2.681   2.192
    1C        C  104   3.067   2.578   2.314
    1C        C  105   3.008   2.625   2.434
    1C        C  106   3.203   2.535   2.553
    1C        C  107   3.074   2.593   2.555
    1C        C  108   3.270   2.516   2.676
    1C        C  109   3.204   2.545   2.797
    1C        C  110   3.414   2.499   2.916
    1C        C  111   3.275   2.524   2.918
    1C        C  112   3.486   2.496   3.038
    1C        C  113   3.416   2.503   3.160
    1C        C  114   3.627   2.497   3.281
    1C        C  115   3.486   2.495   3.283
    1C        C  116   3.695   2.511   3.404
    1C        C  117   3.628   2.503   3.528
    1C        C  118   3.838   2.539   3.649
    1C        C  119   3.701   2.504   3.649
    1C        C  120   3.901   2.564   3.773
    1C        C  121   3.836   2.540   3.896
    1C        C  122   4.027   2.636   4.014
    1C        C  123   3.906   2.564   4.016
    1C        C  124   4.087   2.672   4.136
    1C        C  125   4.033   2.624   4.258
    1C        C  126   4.193   2.766   4.378
    1C        C  127   4.089   2.670   4.379
    1C        C  128   4.237   2.823   4.500
    1C        C  129   4.197   2.765   4.622
    1C        C  130   4.323   2.940   4.744
    1C        C  131   4.247   2.819   4.743
    1C        C  132   4.353   3.010   4.862
    1C        C  133   4.291   2.961   4.978
    1C        C  134   3.176   2.469   2.085
    1C        C  135   3.042   2.510   2.087
    1C        C  136   3.264   2.482   2.194
    1C        C  137   3.199   2.527   2.311
    1C        C  138   3.409   2.480   2.431
    1C        C  139   3.271   2.511   2.431
    1C        C  140   3.481   2.476   2.552
    1C        C  141   3.409   2.493   2.672
    1C        C  142   3.624   2.492   2.792
    1C        C  143   3.482   2.491   2.793
    1C        C  144   3.696   2.498   2.914
    1C        C  145   3.627   2.490   3.036
    1C        C  146   3.834   2.533   3.158
    1C        C  147   3.697   2.498   3.158
    1C        C  148   3.901   2.560   3.280
    1C        C  149   3.834   2.539   3.402
    1C        C  150   4.029   2.621   3.523
    1C        C  151   3.902   2.558   3.524
    1C        C  152   4.082   2.668   3.645
    1C        C  153   4.025   2.631   3.769
    1C        C  154   4.192   2.765   3.888
    1C        C  155   4.086   2.671   3.890
    1C        C  156   4.245   2.811   4.010
    1C        C  157   4.192   2.766   4.133
    1C        C  158   4.333   2.925   4.256
    1C        C  159   4.243   2.816   4.256
    1C        C  160   4.371   2.988   4.376
    1C        C  161   4.328   2.932   4.498
    1C        C  162   4.432   3.118   4.616
    1C        C  163   4.362   2.995   4.620
    1C        C  164   4.471   3.186   4.734
    1C        C  165   4.433   3.126   4.856
    1C        C  166   4.508   3.326   4.975
    1C        C  167   4.476   3.190   4.973
    1C        C  168   3.478   2.429   2.077
    1C        C  169   3.403   2.456   2.192
    1C        C  170   3.622   2.465   2.308
    1C        C  171   3.480   2.459   2.310
    1C        C  172   3.694   2.487   2.427
    1C        C  173   3.622   2.483   2.549
    1C        C  174   3.831   2.528   2.668
    1C        C  175   3.694   2.496   2.670
    1C        C  176   3.899   2.553   2.790
    1C        C  177   3.833   2.532   2.913
    1C        C  178   4.021   2.630   3.032
    1C        C  179   3.900   2.557   3.035
    1C        C  180   4.084   2.661   3.155
    1C        C  181   4.028   2.620   3.278
    1C        C  182   4.192   2.754   3.400
    1C        C  183   4.088   2.659   3.400
    1C        C  184   4.242   2.807   3.521
    1C        C  185   4.191   2.758   3.643
    1C        C  186   4.335   2.917   3.764
    1C        C  187   4.244   2.809   3.764
    1C        C  188   4.373   2.977   3.886
    1C        C  189   4.335   2.920   4.010
    1C        C  190   4.436   3.106   4.129
    1C        C  191   4.373   2.980   4.132
    1C        C  192   4.462   3.177   4.248
    1C        C  193   4.432   3.115   4.372
    1C        C  194   4.506   3.315   4.492
    1C        C  195   4.461   3.181   4.493
    1C        C  196   4.520   3.390   4.611
    1C        C  197   4.512   3.322   4.735
    1C        C  198   4.557   3.536   4.851
    1C        C  199   4.531   3.395   4.855
    1C        C  200   4.584   3.620   4.963
    1C        C  201   3.618   2.415   2.072
    1C        C  202   3.827   2.511   2.185
    1C        C  203   3.694   2.458   2.185
    1C        C  204   3.901   2.539   2.303
    1C        C  205   3.832   2.518   2.424
    1C        C  206   4.022   2.616   2.544
    1C        C  207   3.898   2.549   2.545
    1C        C  208   4.080   2.656   2.666
    1C        C  209   4.022   2.622   2.790
    1C        C  210   4.196   2.750   2.910
    1C        C  211   4.081   2.667   2.910
    1C        C  212   4.248   2.798   3.032
    1C        C  213   4.195   2.749   3.153
    1C        C  214   4.331   2.910   3.275
    1C        C  215   4.243   2.800   3.276
    1C        C  216   4.370   2.973   3.395
    1C        C  217   4.325   2.921   3.519
    1C        C  218   4.424   3.108   3.640
    1C        C  219   4.363   2.981   3.641
    1C        C  220   4.452   3.173   3.762
    1C        C  221   4.435   3.104   3.884
    1C        C  222   4.496   3.308   4.004
    1C        C  223   4.461   3.172   4.006
    1C        C  224   4.509   3.381   4.125
    1C        C  225   4.503   3.312   4.248
    1C        C  226   4.518   3.525   4.366
    1C        C  227   4.516   3.384   4.369
    1C        C  228   4.516   3.598   4.487
    1C        C  229   4.535   3.530   4.610
    1C        C  230   4.506   3.744   4.729
    1C        C  231   4.539   3.606   4.729
    1C        C  232   4.499   3.823   4.846
    1C        C  233   4.550   3.756   4.958
    1C        C  234   4.015   2.611   2.065
    1C        C  235   3.892   2.547   2.066
    1C        C  236   4.086   2.647   2.181
    1C        C  237   4.027   2.604   2.302
    1C        C  238   4.201   2.731   2.423
    1C        C  239   4.088   2.646   2.422
    1C        C  240   4.249   2.786   2.545
    1C        C  241   4.193   2.741   2.667
    1C        C  242   4.336   2.904   2.784
    1C        C  243   4.249   2.792   2.786
    1C        C  244   4.376   2.963   2.906
    1C        C  245   4.335   2.910   3.030
    1C        C  246   4.437   3.095   3.149
    1C        C  247   4.371   2.970   3.153
    1C        C  248   4.455   3.165   3.271
    1C        C  249   4.431   3.100   3.394
    1C        C  250   4.487   3.305   3.516
    1C        C  251   4.455   3.168   3.515
    1C        C  252   4.503   3.375   3.637
    1C        C  253   4.494   3.308   3.762
    1C        C  254   4.521   3.520   3.878
    1C        C  255   4.512   3.379   3.883
    1C        C  256   4.522   3.591   4.000
    1C        C  257   4.520   3.521   4.123
    1C        C  258   4.495   3.735   4.242
    1C        C  259   4.513   3.595   4.243
    1C        C  260   4.475   3.806   4.362
    1C        C  261   4.488   3.736   4.484
    1C        C  262   4.431   3.941   4.605
    1C        C  263   4.478   3.808   4.605
    1C        C  264   4.405   4.013   4.723
    1C        C  265   4.439   3.951   4.846
    1C        C  266   4.330   4.141   4.959
    1C        C  267   4.395   4.019   4.960
    1C        C  268   4.264   2.774   2.064
    1C        C  269   4.202   2.728   2.181
    1C        C  270   4.349   2.884   2.301
    1C        C  271   4.257   2.776   2.302
    1C        C  272   4.386   2.949   2.421
    1C        C  273   4.336   2.897   2.542
    1C        C  274   4.441   3.086   2.661
    1C        C  275   4.374   2.962   2.662
    1C        C  276   4.465   3.155   2.782
    1C        C  277   4.443   3.088   2.904
    1C        C  278   4.502   3.292   3.025
    1C        C  279   4.472   3.153   3.026
    1C        C  280   4.513   3.365   3.145
    1C        C  281   4.496   3.300   3.270
    1C        C  282   4.517   3.512   3.390
    1C        C  283   4.503   3.371   3.392
    1C        C  284   4.516   3.585   3.510
    1C        C  285   4.515   3.516   3.633
    1C        C  286   4.495   3.729   3.754
    1C        C  287   4.515   3.589   3.755
    1C        C  288   4.483   3.799   3.876
    1C        C  289   4.501   3.731   3.999
    1C        C  290   4.433   3.935   4.117
    1C        C  291   4.485   3.804   4.119
    1C        C  292   4.402   4.001   4.238
    1C        C  293   4.431   3.941   4.363
    1C        C  294   4.328   4.127   4.478
    1C        C  295   4.404   4.008   4.484
    1C        C  296   4.287   4.189   4.599
    1C        C  297   4.331   4.134   4.722
    1C        C  298   4.200   4.314   4.837
    1C        C  299   4.284   4.199   4.839
    1C        C  300   4.169   4.402   4.946
    1C        C  301   4.348   2.886   2.062
    1C        C  302   4.461   3.070   2.179
    1C        C  303   4.397   2.942   2.181
    1C        C  304   4.476   3.145   2.299
    1C        C  305   4.449   3.076   2.419
    1C        C  306   4.506   3.284   2.538
    1C        C  307   4.479   3.146   2.539
    1C        C  308   4.514   3.359   2.658
    1C        C  309   4.499   3.292   2.781
    1C        C  310   4.521   3.503   2.899
    1C        C  311   4.516   3.362   2.903
    1C        C  312   4.522   3.575   3.021
    1C        C  313   4.520   3.506   3.144
    1C        C  314   4.488   3.717   3.264
    1C        C  315   4.514   3.579   3.265
    1C        C  316   4.478   3.791   3.384
    1C        C  317   4.496   3.725   3.508
    1C        C  318   4.424   3.925   3.629
    1C        C  319   4.476   3.793   3.630
    1C        C  320   4.396   3.990   3.752
    1C        C  321   4.432   3.931   3.875
    1C        C  322   4.320   4.114   3.989
    1C        C  323   4.400   3.998   3.995
    1C        C  324   4.280   4.172   4.112
    1C        C  325   4.327   4.121   4.234
    1C        C  326   4.189   4.284   4.354
    1C        C  327   4.288   4.184   4.355
    1C        C  328   4.131   4.332   4.474
    1C        C  329   4.191   4.292   4.595
    1C        C  330   4.028   4.437   4.714
    1C        C  331   4.146   4.357   4.712
    1C        C  332   3.974   4.495   4.831
    1C        C  333   4.055   4.484   4.945
    1C        C  334   4.548   3.267   2.065
    1C        C  335   4.528   3.128   2.067
    1C        C  336   4.536   3.351   2.176
    1C        C  337   4.506   3.284   2.297
    1C        C  338   4.526   3.497   2.412
    1C        C  339   4.522   3.356   2.417
    1C        C  340   4.525   3.571   2.532
    1C        C  341   4.521   3.500   2.654
    1C        C  342   4.497   3.711   2.775
    1C        C  343   4.518   3.572   2.776
    1C        C  344   4.480   3.781   2.897
    1C        C  345   4.498   3.714   3.020
    1C        C  346   4.429   3.918   3.140
    1C        C  347   4.471   3.783   3.140
    1C        C  348   4.395   3.984   3.260
    1C        C  349   4.426   3.923   3.383
    1C        C  350   4.326   4.109   3.502
    1C        C  351   4.402   3.989   3.506
    1C        C  352   4.278   4.166   3.622
    1C        C  353   4.322   4.110   3.744
    1C        C  354   4.181   4.270   3.868
    1C        C  355   4.279   4.168   3.865
    1C        C  356   4.127   4.321   3.988
    1C        C  357   4.184   4.276   4.110
    1C        C  358   4.014   4.404   4.231
    1C        C  359   4.133   4.328   4.231
    1C        C  360   3.952   4.445   4.351
    1C        C  361   4.016   4.413   4.473
    1C        C  362   3.827   4.511   4.593
    1C        C  363   3.958   4.460   4.594
    1C        C  364   3.763   4.542   4.715
    1C        C  365   3.840   4.540   4.834
    1C        C  366   3.629   4.588   4.951
    1C        C  367   3.767   4.573   4.949
    1C        C  368   4.522   3.567   2.054
    1C        C  369   4.525   3.492   2.172
    1C        C  370   4.501   3.708   2.290
    1C        C  371   4.513   3.568   2.290
    1C        C  372   4.488   3.780   2.411
    1C        C  373   4.507   3.711   2.532
    1C        C  374   4.433   3.912   2.650
    1C        C  375   4.485   3.781   2.653
    1C        C  376   4.403   3.979   2.771
    1C        C  377   4.428   3.913   2.893
    1C        C  378   4.321   4.095   3.013
    1C        C  379   4.395   3.975   3.015
    1C        C  380   4.281   4.155   3.135
    1C        C  381   4.316   4.101   3.261
    1C        C  382   4.177   4.264   3.379
    1C        C  383   4.277   4.163   3.381
    1C        C  384   4.126   4.312   3.502
    1C        C  385   4.181   4.268   3.624
    1C        C  386   4.007   4.391   3.743
    1C        C  387   4.128   4.316   3.746
    1C        C  388   3.946   4.430   3.864
    1C        C  389   4.009   4.398   3.986
    1C        C  390   3.820   4.491   4.108
    1C        C  391   3.949   4.434   4.109
    1C        C  392   3.752   4.515   4.230
    1C        C  393   3.823   4.501   4.352
    1C        C  394   3.617   4.553   4.476
    1C        C  395   3.756   4.530   4.473
    1C        C  396   3.547   4.558   4.598
    1C        C  397   3.624   4.564   4.717
    1C        C  398   3.410   4.562   4.838
    1C        C  399   3.550   4.578   4.836
    1C        C  400   3.342   4.523   4.955
    1C        C  401   4.509   3.706   2.055
    1C        C  402   4.460   3.920   2.164
    1C        C  403   4.495   3.783   2.171
    1C        C  404   4.421   3.981   2.286
    1C        C  405   4.441   3.913   2.408
    1C        C  406   4.332   4.098   2.527
    1C        C  407   4.404   3.977   2.528
    1C        C  408   4.284   4.153   2.648
    1C        C  409   4.328   4.099   2.771
    1C        C  410   4.177   4.252   2.891
    1C        C  411   4.280   4.155   2.892
    1C        C  412   4.126   4.299   3.014
    1C        C  413   4.180   4.254   3.136
    1C        C  414   4.001   4.377   3.256
    1C        C  415   4.122   4.304   3.255
    1C        C  416   3.941   4.414   3.378
    1C        C  417   4.005   4.384   3.501
    1C        C  418   3.812   4.476   3.618
    1C        C  419   3.942   4.421   3.621
    1C        C  420   3.748   4.503   3.741
    1C        C  421   3.814   4.482   3.863
    1C        C  422   3.612   4.534   3.988
    1C        C  423   3.751   4.509   3.986
    1C        C  424   3.543   4.544   4.110
    1C        C  425   3.614   4.544   4.232
    1C        C  426   3.403   4.549   4.358
    1C        C  427   3.544   4.554   4.355
    1C        C  428   3.332   4.550   4.480
    1C        C  429   3.405   4.554   4.600
    1C        C  430   3.193   4.518   4.726
    1C        C  431   3.333   4.546   4.721
    1C        C  432   3.124   4.497   4.849
    1C        C  433   3.205   4.498   4.963
    1C        C  434   4.383   4.124   2.047
    1C        C  435   4.445   3.998   2.049
    1C        C  436   4.309   4.164   2.163
    1C        C  437   4.340   4.098   2.285
    1C        C  438   4.183   4.248   2.401
    1C        C  439   4.287   4.153   2.404
    1C        C  440   4.130   4.295   2.523
    1C        C  441   4.183   4.252   2.647
    1C        C  442   4.006   4.373   2.766
    1C        C  443   4.124   4.296   2.767
    1C        C  444   3.945   4.407   2.889
    1C        C  445   4.005   4.372   3.012
    1C        C  446   3.812   4.465   3.131
    1C        C  447   3.940   4.406   3.132
    1C        C  448   3.742   4.489   3.252
    1C        C  449   3.809   4.465   3.374
    1C        C  450   3.607   4.532   3.499
    1C        C  451   3.743   4.493   3.496
    1C        C  452   3.538   4.540   3.622
    1C        C  453   3.610   4.534   3.744
    1C        C  454   3.399   4.552   3.868
    1C        C  455   3.541   4.547   3.866
    1C        C  456   3.330   4.547   3.991
    1C        C  457   3.402   4.550   4.113
    1C        C  458   3.194   4.512   4.238
    1C        C  459   3.332   4.540   4.236
    1C        C  460   3.125   4.499   4.361
    1C        C  461   3.193   4.525   4.482
    1C        C  462   2.999   4.438   4.605
    1C        C  463   3.126   4.499   4.604
    1C        C  464   2.930   4.406   4.725
    1C        C  465   2.989   4.450   4.846
    1C        C  466   2.804   4.340   4.959
    1C        C  467   2.909   4.432   4.963
    1C        C  468   4.123   4.286   2.045
    1C        C  469   4.192   4.246   2.161
    1C        C  470   4.009   4.371   2.280
    1C        C  471   4.131   4.297   2.279
    1C        C  472   3.944   4.397   2.403
    1C        C  473   4.009   4.367   2.524
    1C        C  474   3.816   4.466   2.644
    1C        C  475   3.944   4.406   2.644
    1C        C  476   3.748   4.486   2.766
    1C        C  477   3.816   4.466   2.888
    1C        C  478   3.609   4.521   3.010
    1C        C  479   3.748   4.494   3.009
    1C        C  480   3.534   4.529   3.129
    1C        C  481   3.604   4.520   3.252
    1C        C  482   3.397   4.539   3.379
    1C        C  483   3.539   4.539   3.375
    1C        C  484   3.327   4.532   3.501
    1C        C  485   3.397   4.546   3.623
    1C        C  486   3.192   4.507   3.745
    1C        C  487   3.329   4.542   3.746
    1C        C  488   3.128   4.483   3.869
    1C        C  489   3.194   4.509   3.991
    1C        C  490   3.007   4.417   4.115
    1C        C  491   3.131   4.485   4.115
    1C        C  492   2.948   4.383   4.238
    1C        C  493   3.006   4.424   4.361
    1C        C  494   2.835   4.301   4.483
    1C        C  495   2.944   4.391   4.483
    1C        C  496   2.779   4.255   4.605
    1C        C  497   2.823   4.313   4.726
    1C        C  498   2.665   4.166   4.845
    1C        C  499   2.758   4.272   4.845
    1C        C  500   2.596   4.121   4.958
    1C        C  501   4.003   4.356   2.044
    1C        C  502   3.819   4.471   2.160
    1C        C  503   3.946   4.410   2.160
    1C        C  504   3.746   4.479   2.281
    1C        C  505   3.813   4.449   2.402
    1C        C  506   3.609   4.513   2.521
    1C        C  507   3.746   4.482   2.522
    1C        C  508   3.538   4.519   2.644
    1C        C  509   3.609   4.512   2.765
    1C        C  510   3.397   4.527   2.888
    1C        C  511   3.539   4.522   2.887
    1C        C  512   3.323   4.525   3.008
    1C        C  513   3.393   4.531   3.131
    1C        C  514   3.191   4.493   3.257
    1C        C  515   3.328   4.530   3.256
    1C        C  516   3.124   4.468   3.378
    1C        C  517   3.190   4.495   3.499
    1C        C  518   3.002   4.410   3.627
    1C        C  519   3.126   4.479   3.624
    1C        C  520   2.945   4.372   3.751
    1C        C  521   3.007   4.410   3.872
    1C        C  522   2.841   4.280   3.998
    1C        C  523   2.947   4.373   3.995
    1C        C  524   2.792   4.235   4.123
    1C        C  525   2.838   4.294   4.243
    1C        C  526   2.702   4.130   4.365
    1C        C  527   2.785   4.244   4.364
    1C        C  528   2.662   4.074   4.488
    1C        C  529   2.692   4.143   4.607
    1C        C  530   2.583   3.961   4.732
    1C        C  531   2.640   4.092   4.728
    1C        C  532   2.541   3.903   4.855
    1C        C  533   2.529   3.998   4.961
    1C        C  534   3.620   4.559   2.043
    1C        C  535   3.754   4.518   2.045
    1C        C  536   3.538   4.539   2.158
    1C        C  537   3.609   4.515   2.279
    1C        C  538   3.396   4.513   2.402
    1C        C  539   3.536   4.523   2.400
    1C        C  540   3.324   4.508   2.523
    1C        C  541   3.397   4.519   2.644
    1C        C  542   3.189   4.486   2.766
    1C        C  543   3.327   4.519   2.766
    1C        C  544   3.122   4.465   2.889
    1C        C  545   3.186   4.488   3.012
    1C        C  546   2.997   4.400   3.134
    1C        C  547   3.123   4.464   3.136
    1C        C  548   2.939   4.369   3.259
    1C        C  549   2.997   4.406   3.382
    1C        C  550   2.834   4.278   3.508
    1C        C  551   2.939   4.371   3.507
    1C        C  552   2.784   4.230   3.631
    1C        C  553   2.836   4.282   3.752
    1C        C  554   2.703   4.121   3.877
    1C        C  555   2.790   4.232   3.875
    1C        C  556   2.667   4.061   4.000
    1C        C  557   2.705   4.124   4.120
    1C        C  558   2.600   3.942   4.250
    1C        C  559   2.666   4.067   4.244
    1C        C  560   2.574   3.875   4.372
    1C        C  561   2.600   3.947   4.491
    1C        C  562   2.532   3.749   4.618
    1C        C  563   2.568   3.886   4.614
    1C        C  564   2.513   3.684   4.741
    1C        C  565   2.520   3.761   4.860
    1C        C  566   2.530   3.547   4.978
    1C        C  567   2.525   3.686   4.979
    1C        C  568   3.331   4.472   2.041
    1C        C  569   3.400   4.508   2.158
    1C        C  570   3.186   4.480   2.282
    1C        C  571   3.326   4.508   2.279
    1C        C  572   3.115   4.462   2.402
    1C        C  573   3.185   4.482   2.523
    1C        C  574   2.990   4.405   2.649
    1C        C  575   3.118   4.465   2.646
    1C        C  576   2.931   4.362   2.770
    1C        C  577   2.996   4.402   2.889
    1C        C  578   2.828   4.274   3.019
    1C        C  579   2.936   4.365   3.011
    1C        C  580   2.784   4.221   3.142
    1C        C  581   2.833   4.275   3.262
    1C        C  582   2.699   4.113   3.386
    1C        C  583   2.785   4.225   3.386
    1C        C  584   2.666   4.054   3.510
    1C        C  585   2.701   4.116   3.632
    1C        C  586   2.604   3.931   3.758
    1C        C  587   2.665   4.058   3.756
    1C        C  588   2.578   3.868   3.882
    1C        C  589   2.607   3.933   4.004
    1C        C  590   2.532   3.739   4.129
    1C        C  591   2.575   3.874   4.129
    1C        C  592   2.515   3.672   4.252
    1C        C  593   2.528   3.742   4.374
    1C        C  594   2.506   3.534   4.499
    1C        C  595   2.514   3.676   4.498
    1C        C  596   2.515   3.466   4.623
    1C        C  597   2.509   3.542   4.742
    1C        C  598   2.532   3.328   4.864
    1C        C  599   2.525   3.469   4.862
    1C        C  600   2.534   3.252   4.982
    1C        C  601   3.197   4.440   2.044
    1C        C  602   2.986   4.394   2.160
    1C        C  603   3.120   4.443   2.161
    1C        C  604   2.926   4.360   2.285
    1C        C  605   2.989   4.396   2.406
    1C        C  606   2.819   4.275   2.531
    1C        C  607   2.928   4.365   2.529
    1C        C  608   2.767   4.224   2.652
    1C        C  609   2.821   4.273   2.773
    1C        C  610   2.692   4.110   2.896
    1C        C  611   2.776   4.224   2.897
    1C        C  612   2.653   4.054   3.020
    1C        C  613   2.694   4.112   3.142
    1C        C  614   2.592   3.928   3.268
    1C        C  615   2.656   4.053   3.265
    1C        C  616   2.570   3.864   3.392
    1C        C  617   2.606   3.927   3.514
    1C        C  618   2.531   3.730   3.639
    1C        C  619   2.575   3.865   3.637
    1C        C  620   2.518   3.665   3.763
    1C        C  621   2.533   3.734   3.885
    1C        C  622   2.504   3.527   4.012
    1C        C  623   2.517   3.668   4.009
    1C        C  624   2.507   3.457   4.135
    1C        C  625   2.503   3.531   4.255
    1C        C  626   2.529   3.322   4.381
    1C        C  627   2.506   3.462   4.378
    1C        C  628   2.554   3.255   4.503
    1C        C  629   2.537   3.327   4.623
    1C        C  630   2.598   3.122   4.749
    1C        C  631   2.549   3.256   4.744
    1C        C  632   2.617   3.048   4.869
    1C        C  633   2.562   3.115   4.984
    1C        C  634   2.780   4.309   2.058
    1C        C  635   2.891   4.395   2.053
    1C        C  636   2.749   4.232   2.171
    1C        C  637   2.816   4.270   2.288
    1C        C  638   2.679   4.113   2.411
    1C        C  639   2.762   4.226   2.411
    1C        C  640   2.640   4.050   2.532
    1C        C  641   2.683   4.110   2.652
    1C        C  642   2.590   3.923   2.779
    1C        C  643   2.652   4.049   2.775
    1C        C  644   2.563   3.859   2.902
    1C        C  645   2.591   3.927   3.023
    1C        C  646   2.527   3.725   3.148
    1C        C  647   2.570   3.860   3.146
    1C        C  648   2.511   3.661   3.273
    1C        C  649   2.523   3.731   3.395
    1C        C  650   2.503   3.520   3.519
    1C        C  651   2.511   3.661   3.517
    1C        C  652   2.506   3.453   3.643
    1C        C  653   2.504   3.524   3.765
    1C        C  654   2.533   3.319   3.891
    1C        C  655   2.503   3.457   3.889
    1C        C  656   2.553   3.251   4.014
    1C        C  657   2.530   3.318   4.136
    1C        C  658   2.603   3.123   4.261
    1C        C  659   2.545   3.252   4.260
    1C        C  660   2.639   3.062   4.383
    1C        C  661   2.607   3.124   4.506
    1C        C  662   2.711   2.940   4.625
    1C        C  663   2.631   3.057   4.629
    1C        C  664   2.753   2.883   4.747
    1C        C  665   2.699   2.931   4.869
    1C        C  666   2.746   2.872   4.987
    1C        C  667   2.681   4.025   2.055
    1C        C  668   2.692   4.103   2.170
    1C        C  669   2.592   3.914   2.294
    1C        C  670   2.650   4.043   2.292
    1C        C  671   2.559   3.849   2.415
    1C        C  672   2.582   3.921   2.534
    1C        C  673   2.524   3.720   2.661
    1C        C  674   2.560   3.857   2.657
    1C        C  675   2.509   3.652   2.783
    1C        C  676   2.528   3.723   2.904
    1C        C  677   2.505   3.513   3.030
    1C        C  678   2.517   3.653   3.027
    1C        C  679   2.506   3.446   3.154
    1C        C  680   2.507   3.520   3.275
    1C        C  681   2.528   3.310   3.401
    1C        C  682   2.505   3.449   3.397
    1C        C  683   2.553   3.245   3.524
    1C        C  684   2.533   3.314   3.645
    1C        C  685   2.603   3.118   3.773
    1C        C  686   2.554   3.250   3.770
    1C        C  687   2.639   3.056   3.895
    1C        C  688   2.606   3.120   4.017
    1C        C  689   2.715   2.940   4.142
    1C        C  690   2.640   3.060   4.140
    1C        C  691   2.764   2.888   4.264
    1C        C  692   2.718   2.945   4.385
    1C        C  693   2.755   2.881   4.505
    1C        C  694   2.633   3.894   2.057
    1C        C  695   2.536   3.706   2.177
    1C        C  696   2.575   3.842   2.174
    1C        C  697   2.511   3.639   2.299
    1C        C  698   2.518   3.713   2.419
    1C        C  699   2.487   3.506   2.543
    1C        C  700   2.502   3.647   2.542
    1C        C  701   2.502   3.438   2.666
    1C        C  702   2.496   3.511   2.786
    1C        C  703   2.524   3.301   2.911
    1C        C  704   2.502   3.440   2.909
    1C        C  705   2.541   3.235   3.035
    1C        C  706   2.527   3.306   3.156
    1C        C  707   2.600   3.109   3.281
    1C        C  708   2.546   3.240   3.280
    1C        C  709   2.633   3.048   3.404
    1C        C  710   2.604   3.113   3.526
    1C        C  711   2.712   2.936   3.652
    1C        C  712   2.631   3.052   3.651
    1C        C  713   2.753   2.879   3.774
    1C        C  714   2.714   2.937   3.897
    1C        C  715   2.758   2.883   4.020
    1C        C  716   2.448   3.507   2.070
    1C        C  717   2.499   3.638   2.061
    1C        C  718   2.466   3.422   2.184
    1C        C  719   2.486   3.499   2.302
    1C        C  720   2.517   3.292   2.425
    1C        C  721   2.485   3.429   2.425
    1C        C  722   2.540   3.225   2.548
    1C        C  723   2.518   3.298   2.667
    1C        C  724   2.594   3.100   2.793
    1C        C  725   2.541   3.231   2.789
    1C        C  726   2.626   3.040   2.916
    1C        C  727   2.591   3.103   3.037
    1C        C  728   2.712   2.930   3.162
    1C        C  729   2.625   3.042   3.160
    1C        C  730   2.758   2.878   3.284
    1C        C  731   2.716   2.934   3.407
    1C        C  732   2.759   2.881   3.531
    1C        C  733   2.489   3.199   2.071
    1C        C  734   2.488   3.281   2.184
    1C        C  735   2.579   3.086   2.306
    1C        C  736   2.521   3.216   2.306
    1C        C  737   2.618   3.028   2.429
    1C        C  738   2.591   3.094   2.551
    1C        C  739   2.695   2.909   2.672
    1C        C  740   2.622   3.030   2.673
    1C        C  741   2.743   2.860   2.795
    1C        C  742   2.704   2.922   2.916
    1C        C  743   2.751   2.871   3.039
    1C        C  744   2.558   3.078   2.068
    1C        C  745   2.690   2.905   2.187
    1C        C  746   2.611   3.022   2.184
    1C        C  747   2.736   2.848   2.307
    1C        C  748   2.694   2.908   2.428
    1C        C  749   2.740   2.854   2.550
    1C        C  750   2.736   2.839   2.072
    1C        C  751   3.659   2.308   1.978
    1C        O  752   3.606   2.194   1.986
    1C        O  753   3.716   2.336   1.854
    1C        C  754   4.618   3.041   1.988
    1C        O  755   4.609   3.021   1.864
    1C        O  756   4.713   2.952   2.039
    1C        C  757   4.450   4.228   1.967
    1C        O  758   4.564   4.271   1.999
    1C        O  759   4.436   4.223   1.828
    1C        C  760   3.583   4.641   1.925
    1C        O  761   3.664   4.732   1.896
    1C        O  762   3.536   4.566   1.817
    1C        C  763   2.864   4.528   1.994
    1C        O  764   2.876   4.547   1.870
    1C        O  765   2.790   4.628   2.059
    1C        C  766   2.313   3.493   2.010
    1C        O  767   2.300   3.435   1.899
    1C        O  768   2.204   3.557   2.070
    1C        C  769   4.702   3.598   5.050
    1C        O  770   4.693   3.595   5.175
    1C        O  771   4.809   3.516   5.011
    1C        C  772   4.265   4.451   5.047
    1C        O  773   4.256   4.423   5.169
    1C        O  774   4.332   4.573   5.033
    1C        C  775   4.148   2.500   5.052
    1C        O  776   4.258   2.457   5.007
    1C        O  777   4.161   2.516   5.191
    1C        C  778   2.873   4.548   5.048
    1C        O  779   2.765   4.613   5.037
    1C        O  780   2.922   4.581   5.175
    1C        C  781   2.482   3.045   5.087
    1C        O  782   2.364   3.015   5.052
    1C        O  783   2.488   3.066   5.224
    1C        C  784   2.449   3.977   5.084
    1C        O  785   2.323   3.976   5.078
    1C        O  786   2.498   3.991   5.214
    1C        C  787   2.950   2.428   2.006
    1C        O  788   2.941   2.434   1.880
    1C        O  789   2.917   2.298   2.045
    1C        C  790   3.180   2.356   5.033
    1C        O  791   3.098   2.269   4.995
    1C        O  792   3.201   2.337   5.170
    1C        H  793   4.286   3.022   5.066
    1C        H  794   4.150   2.831   5.063
    1C        H  795   4.516   3.137   5.056
    1C        H  796   4.496   3.379   5.067
    1C        H  797   4.555   3.811   5.050
    1C        H  798   4.428   3.985   5.056
    1C        H  799   4.288   4.178   5.050
    1C        H  800   4.009   4.495   5.041
    1C        H  801   3.816   4.624   5.030
    1C        H  802   3.585   4.648   5.028
    1C        H  803   3.388   4.546   5.049
    1C        H  804   3.158   4.512   5.058
    1C        H  805   3.898   2.495   5.075
    1C        H  806   3.672   2.449   5.078
    1C        H  807   2.987   2.525   5.050
    1C        H  808   3.436   2.470   5.080
    1C        H  809   2.898   2.762   5.081
    1C        H  810   2.710   2.904   5.083
    1C        H  811   2.485   3.296   5.066
    1C        H  812   2.576   3.502   5.064
    1C        H  813   2.498   3.734   5.070
    1C        H  814   2.584   4.182   5.045
    1C        H  815   2.786   4.293   5.053
    1C        H  816   2.737   2.898   1.982
    1C        H  817   2.819   2.667   1.989
    1C        H  818   3.203   2.386   2.024
    1C        H  819   3.425   2.436   1.985
    1C        H  820   3.862   2.503   1.973
    1C        H  821   4.067   2.606   1.972
    1C        H  822   4.227   2.745   1.968
    1C        H  823   4.346   2.946   1.974
    1C        H  824   4.622   3.301   1.995
    1C        H  825   4.515   3.517   1.959
    1C        H  826   4.510   3.752   1.958
    1C        H  827   3.794   4.491   1.949
    1C        H  828   3.967   4.378   1.946
    1C        H  829   4.147   4.234   1.955
    1C        H  830   4.514   3.976   1.971
    1C        H  831   2.695   3.826   2.002
    1C        H  832   2.666   4.077   1.962
    1C        H  833   2.731   4.284   1.966
    1C        H  834   3.390   4.427   1.963
    1C        H  835   3.166   4.381   1.961
    1C        H  836   2.544   3.012   1.985
    1C        H  837   2.406   3.204   2.004
    1C        H  838   2.460   3.698   1.982
    2V3OU   H29  839   2.802   3.556   5.923
    2V3OU   C27  840   2.780   3.502   6.019
    2V3OU   H27  841   2.726   3.573   6.087
    2V3OU   H28  842   2.729   3.403   6.009
    2V3OU   O11  843   2.909   3.476   6.076
    2V3OU   C15  844   2.920   3.391   6.183
    2V3OU   C13  845   3.055   3.374   6.224
    2V3OU   C14  846   3.078   3.266   6.309
    2V3OU   C16  847   2.978   3.183   6.357
    2V3OU    H6  848   2.995   3.104   6.432
    2V3OU   C12  849   3.219   3.227   6.332
    2V3OU    O2  850   3.244   3.135   6.413
    2V3OU   C10  851   3.330   3.312   6.288
    2V3OU    C8  852   3.463   3.275   6.302
    2V3OU   O10  853   3.493   3.153   6.354
    2V3OU   H26  854   3.401   3.121   6.363
    2V3OU    C6  855   3.568   3.351   6.240
    2V3OU    C5  856   3.537   3.468   6.170
    2V3OU    C4  857   3.705   3.295   6.240
    2V3OU    H4  858   3.725   3.231   6.331
    2V3OU    H5  859   3.714   3.227   6.150
    2V3OU    C2  860   3.818   3.398   6.232
    2V3OU    O6  861   3.802   3.473   6.353
    2V3OU   H21  862   3.760   3.558   6.330
    2V3OU    C3  863   3.783   3.495   6.119
    2V3OU    H2  864   3.861   3.575   6.115
    2V3OU    H3  865   3.780   3.435   6.025
    2V3OU   C25  866   3.954   3.329   6.222
    2V3OU    O7  867   4.000   3.297   6.113
    2V3OU   C26  868   4.032   3.289   6.347
    2V3OU   H22  869   4.060   3.383   6.401
    2V3OU   H23  870   4.123   3.231   6.318
    2V3OU    O8  871   3.967   3.202   6.436
    2V3OU   H24  872   3.926   3.261   6.502
    2V3OU    C1  873   3.648   3.564   6.139
    2V3OU    H1  874   3.624   3.620   6.044
    2V3OU    O3  875   3.667   3.659   6.244
    2V3OU   C19  876   3.620   3.793   6.233
    2V3OU    H9  877   3.524   3.810   6.176
    2V3OU    O4  878   3.711   3.853   6.143
    2V3OU   C20  879   3.844   3.876   6.191
    2V3OU   H10  880   3.899   3.778   6.205
    2V3OU   C24  881   3.612   3.858   6.371
    2V3OU   H16  882   3.548   3.800   6.443
    2V3OU   H17  883   3.569   3.962   6.367
    2V3OU   C23  884   3.754   3.878   6.424
    2V3OU   H15  885   3.791   3.773   6.449
    2V3OU    N1  886   3.743   3.961   6.542
    2V3OU   H19  887   3.816   3.932   6.605
    2V3OU   H20  888   3.658   3.934   6.588
    2V3OU   C21  889   3.854   3.947   6.326
    2V3OU   H11  890   3.958   3.932   6.367
    2V3OU    O5  891   3.829   4.087   6.325
    2V3OU   H18  892   3.788   4.110   6.410
    2V3OU   C22  893   3.917   3.948   6.079
    2V3OU   H12  894   3.866   4.044   6.051
    2V3OU   H13  895   3.913   3.887   5.986
    2V3OU   H14  896   4.026   3.957   6.105
    2V3OU   C11  897   3.159   3.476   6.205
    2V3OU    O1  898   3.135   3.590   6.159
    2V3OU    C9  899   3.300   3.431   6.216
    2V3OU    C7  900   3.401   3.508   6.160
    2V3OU    O9  901   3.378   3.608   6.067
    2V3OU   H25  902   3.284   3.630   6.071
    2V3OU   C17  903   2.818   3.317   6.247
    2V3OU    H7  904   2.719   3.337   6.206
    2V3OU   C18  905   2.844   3.209   6.330
    2V3OU    H8  906   2.765   3.153   6.382
    3SOL     OW  907   2.996   3.409   3.851
    3SOL    HW1  908   2.978   3.467   3.771
    3SOL    HW2  909   2.921   3.418   3.916
    4SOL     OW  910   6.757   6.121   1.035
    4SOL    HW1  911   6.817   6.176   1.092
    4SOL    HW2  912   6.713   6.180   0.967
    5SOL     OW  913   4.043   2.703   0.500
    5SOL    HW1  914   4.128   2.651   0.503
    5SOL    HW2  915   4.060   2.792   0.458
    6SOL     OW  916   4.289   1.746   2.126
    6SOL    HW1  917   4.379   1.714   2.154
    6SOL    HW2  918   4.299   1.825   2.066
    7SOL     OW  919   2.280   3.018   4.593
    7SOL    HW1  920   2.225   3.066   4.661
    7SOL    HW2  921   2.343   2.956   4.639
    8SOL     OW  922   1.345   2.538   5.590
    8SOL    HW1  923   1.312   2.624   5.552
    8SOL    HW2  924   1.278   2.501   5.654
    9SOL     OW  925   1.333   1.881   5.996
    9SOL    HW1  926   1.354   1.860   6.091
    9SOL    HW2  927   1.362   1.975   5.976
   10SOL     OW  928   5.539   5.052   1.561
   10SOL    HW1  929   5.445   5.047   1.595
   10SOL    HW2  930   5.593   4.979   1.603
   11SOL     OW  931   2.971   1.912   0.466
   11SOL    HW1  932   3.049   1.952   0.417
   11SOL    HW2  933   2.897   1.894   0.401
   12SOL     OW  934   4.827   5.109   1.988
   12SOL    HW1  935   4.741   5.067   2.019
   12SOL    HW2  936   4.903   5.047   2.007
   13SOL     OW  937   5.118   6.287   1.752
   13SOL    HW1  938   5.145   6.291   1.848
   13SOL    HW2  939   5.045   6.219   1.740
   14SOL     OW  940   4.606   6.476   7.017
   14SOL    HW1  941   4.677   6.534   6.976
   14SOL    HW2  942   4.650   6.403   0.044
   15SOL     OW  943   0.821   5.705   6.502
   15SOL    HW1  944   0.879   5.630   6.533
   15SOL    HW2  945   0.728   5.691   6.535
   16SOL     OW  946   2.115   6.000   4.702
   16SOL    HW1  947   2.072   5.979   4.615
   16SOL    HW2  948   2.053   6.054   4.759
   17SOL     OW  949   0.023   1.156   4.850
   17SOL    HW1  950   7.001   1.211   4.782
   17SOL    HW2  951   0.018   1.201   4.939
   18SOL     OW  952   2.946   0.739   5.513
   18SOL    HW1  953   2.974   0.814   5.572
   18SOL    HW2  954   3.000   0.657   5.535
   19SOL     OW  955   2.941   6.217   2.590
   19SOL    HW1  956   2.973   6.174   2.506
   19SOL    HW2  957   2.961   6.158   2.668
   20SOL     OW  958   0.095   1.749   5.886
   20SOL    HW1  959   0.175   1.767   5.943
   20SOL    HW2  960   0.098   1.808   5.805
   21SOL     OW  961   2.188   4.088   2.469
   21SOL    HW1  962   2.224   4.180   2.452
   21SOL    HW2  963   2.203   4.064   2.565
   22SOL     OW  964   0.836   1.106   0.318
   22SOL    HW1  965   0.773   1.073   0.249
   22SOL    HW2  966   0.930   1.096   0.286
   23SOL     OW  967   6.701   5.088   0.808
   23SOL    HW1  968   6.610   5.113   0.776
   23SOL    HW2  969   6.768   5.103   0.734
   24SOL     OW  970   5.042   1.443   6.986
   24SOL    HW1  971   5.076   1.496   0.037
   24SOL    HW2  972   5.117   1.390   6.946
   25SOL     OW  973   1.558   0.909   4.347
   25SOL    HW1  974   1.472   0.917   4.398
   25SOL    HW2  975   1.574   0.814   4.322
   26SOL     OW  976   1.750   0.890   6.409
   26SOL    HW1  977   1.819   0.876   6.480
   26SOL    HW2  978   1.665   0.845   6.435
   27SOL     OW  979   0.080   0.280   2.568
   27SOL    HW1  980   0.076   0.232   2.656
   27SOL    HW2  981   0.080   0.378   2.584
   28SOL     OW  982   1.242   0.991   5.675
   28SOL    HW1  983   1.154   0.951   5.701
   28SOL    HW2  984   1.233   1.038   5.587
   29SOL     OW  985   5.663   0.389   1.260
   29SOL    HW1  986   5.706   0.361   1.174
   29SOL    HW2  987   5.592   0.457   1.242
   30SOL     OW  988   4.805   0.260   5.061
   30SOL    HW1  989   4.721   0.304   5.093
   30SOL    HW2  990   4.787   0.165   5.038
   31SOL     OW  991   6.851   4.625   4.178
   31SOL    HW1  992   6.795   4.552   4.218
   31SOL    HW2  993   6.792   4.688   4.128
   32SOL     OW  994   2.573   1.041   0.887
   32SOL    HW1  995   2.575   0.943   0.869
   32SOL    HW2  996   2.600   1.091   0.804
   33SOL     OW  997   2.414   5.202   5.566
   33SOL    HW1  998   2.465   5.140   5.505
   33SOL    HW2  999   2.345   5.250   5.512
   34SOL     OW 1000   2.329   6.196   5.420
   34SOL    HW1 1001   2.266   6.139   5.367
   34SOL    HW2 1002   2.319   6.292   5.392
   35SOL     OW 1003   1.546   3.637   5.333
   35SOL    HW1 1004   1.447   3.639   5.343
   35SOL    HW2 1005   1.587   3.696   5.403
   36SOL     OW 1006   6.131   1.052   3.818
   36SOL    HW1 1007   6.122   1.142   3.860
   36SOL    HW2 1008   6.202   0.999   3.867
   37SOL     OW 1009   2.253   6.449   4.387
   37SOL    HW1 1010   2.187   6.521   4.366
   37SOL    HW2 1011   2.283   6.457   4.481
   38SOL     OW 1012   1.013   4.093   2.268
   38SOL    HW1 1013   1.073   4.026   2.311
   38SOL    HW2 1014   0.940   4.046   2.218
   39SOL     OW 1015   6.493   5.097   1.226
   39SOL    HW1 1016   6.525   5.025   1.164
   39SOL    HW2 1017   6.558   5.172   1.226
   40SOL     OW 1018   3.644   0.871   6.486
   40SOL    HW1 1019   3.633   0.943   6.417
   40SOL    HW2 1020   3.554   0.837   6.513
   41SOL     OW 1021   4.931   3.576   1.522
   41SOL    HW1 1022   4.899   3.565   1.616
   41SOL    HW2 1023   4.948   3.673   1.504
   42SOL     OW 1024   3.029   3.630   6.546
   42SOL    HW1 1025   2.960   3.667   6.484
   42SOL    HW2 1026   2.995   3.636   6.640
   43SOL     OW 1027   5.390   6.982   4.887
   43SOL    HW1 1028   5.295   7.011   4.874
   43SOL    HW2 1029   5.448   0.037   4.895
   44SOL     OW 1030   6.327   1.336   5.914
   44SOL    HW1 1031   6.229   1.333   5.897
   44SOL    HW2 1032   6.360   1.430   5.901
   45SOL     OW 1033   2.699   4.323   6.083
   45SOL    HW1 1034   2.645   4.260   6.139
   45SOL    HW2 1035   2.698   4.293   5.988
   46SOL     OW 1036   0.910   4.588   5.285
   46SOL    HW1 1037   0.876   4.524   5.354
   46SOL    HW2 1038   0.839   4.603   5.216
   47SOL     OW 1039   6.173   4.108   0.008
   47SOL    HW1 1040   6.196   4.076   0.100
   47SOL    HW2 1041   6.077   4.135   0.006
   48SOL     OW 1042   0.037   4.146   0.742
   48SOL    HW1 1043   6.972   4.148   0.703
   48SOL    HW2 1044   0.043   4.213   0.816
   49SOL     OW 1045   2.896   2.584   6.691
   49SOL    HW1 1046   2.937   2.572   6.600
   49SOL    HW2 1047   2.885   2.682   6.709
   50SOL     OW 1048   5.153   2.073   0.028
   50SOL    HW1 1049   5.178   1.994   6.999
   50SOL    HW2 1050   5.217   2.083   0.104
   51SOL     OW 1051   0.980   6.279   1.858
   51SOL    HW1 1052   0.922   6.273   1.940
   51SOL    HW2 1053   1.067   6.233   1.876
   52SOL     OW 1054   5.701   2.088   2.167
   52SOL    HW1 1055   5.791   2.061   2.134
   52SOL    HW2 1056   5.711   2.151   2.244
   53SOL     OW 1057   4.573   0.754   0.769
   53SOL    HW1 1058   4.605   0.681   0.708
   53SOL    HW2 1059   4.530   0.826   0.715
   54SOL     OW 1060   6.118   0.491   6.703
   54SOL    HW1 1061   6.073   0.408   6.670
   54SOL    HW2 1062   6.075   0.571   6.662
   55SOL     OW 1063   1.623   3.881   5.958
   55SOL    HW1 1064   1.581   3.848   6.042
   55SOL    HW2 1065   1.713   3.919   5.978
   56SOL     OW 1066   0.625   2.229   6.718
   56SOL    HW1 1067   0.695   2.244   6.648
   56SOL    HW2 1068   0.613   2.313   6.771
   57SOL     OW 1069   4.008   5.786   1.279
   57SOL    HW1 1070   4.035   5.872   1.236
   57SOL    HW2 1071   3.952   5.806   1.360
   58SOL     OW 1072   1.315   0.449   6.871
   58SOL    HW1 1073   1.387   0.432   6.939
   58SOL    HW2 1074   1.227   0.416   6.907
   59SOL     OW 1075   4.137   2.772   6.543
   59SOL    HW1 1076   4.218   2.827   6.561
   59SOL    HW2 1077   4.077   2.821   6.479
   60SOL     OW 1078   6.732   3.532   2.784
   60SOL    HW1 1079   6.764   3.550   2.877
   60SOL    HW2 1080   6.701   3.437   2.777
   61SOL     OW 1081   1.527   5.898   3.048
   61SOL    HW1 1082   1.428   5.913   3.053
   61SOL    HW2 1083   1.551   5.868   2.956
   62SOL     OW 1084   5.999   2.486   3.472
   62SOL    HW1 1085   5.962   2.535   3.551
   62SOL    HW2 1086   5.928   2.478   3.402
   63SOL     OW 1087   3.860   6.794   5.971
   63SOL    HW1 1088   3.875   6.819   6.067
   63SOL    HW2 1089   3.926   6.842   5.913
   64SOL     OW 1090   1.500   2.200   6.288
   64SOL    HW1 1091   1.542   2.234   6.204
   64SOL    HW2 1092   1.465   2.276   6.342
   65SOL     OW 1093   1.596   5.110   4.866
   65SOL    HW1 1094   1.628   5.017   4.845
   65SOL    HW2 1095   1.625   5.135   4.958
   66SOL     OW 1096   4.621   1.085   1.416
   66SOL    HW1 1097   4.662   1.028   1.487
   66SOL    HW2 1098   4.571   1.161   1.458
   67SOL     OW 1099   0.198   3.780   1.267
   67SOL    HW1 1100   0.120   3.717   1.267
   67SOL    HW2 1101   0.175   3.861   1.322
   68SOL     OW 1102   0.596   0.852   6.531
   68SOL    HW1 1103   0.615   0.914   6.455
   68SOL    HW2 1104   0.561   0.766   6.495
   69SOL     OW 1105   1.626   6.495   0.048
   69SOL    HW1 1106   1.666   6.526   0.134
   69SOL    HW2 1107   1.555   6.426   0.067
   70SOL     OW 1108   4.803   4.660   3.307
   70SOL    HW1 1109   4.752   4.742   3.281
   70SOL    HW2 1110   4.900   4.674   3.288
   71SOL     OW 1111   5.182   1.357   5.334
   71SOL    HW1 1112   5.134   1.276   5.299
   71SOL    HW2 1113   5.179   1.429   5.265
   72SOL     OW 1114   0.295   0.674   2.122
   72SOL    HW1 1115   0.273   0.578   2.140
   72SOL    HW2 1116   0.236   0.732   2.177
   73SOL     OW 1117   2.328   1.165   0.853
   73SOL    HW1 1118   2.328   1.162   0.753
   73SOL    HW2 1119   2.413   1.125   0.888
   74SOL     OW 1120   2.531   1.365   6.987
   74SOL    HW1 1121   2.573   1.422   6.917
   74SOL    HW2 1122   2.555   1.400   0.051
   75SOL     OW 1123   2.212   2.487   0.955
   75SOL    HW1 1124   2.228   2.494   0.856
   75SOL    HW2 1125   2.228   2.393   0.985
   76SOL     OW 1126   3.936   4.894   5.688
   76SOL    HW1 1127   3.966   4.984   5.659
   76SOL    HW2 1128   3.866   4.903   5.759
   77SOL     OW 1129   0.400   5.245   4.432
   77SOL    HW1 1130   0.472   5.310   4.458
   77SOL    HW2 1131   0.327   5.293   4.383
   78SOL     OW 1132   5.649   1.953   1.527
   78SOL    HW1 1133   5.631   2.020   1.455
   78SOL    HW2 1134   5.588   1.874   1.514
   79SOL     OW 1135   1.431   4.136   4.425
   79SOL    HW1 1136   1.445   4.037   4.415
   79SOL    HW2 1137   1.515   4.184   4.402
   80SOL     OW 1138   3.622   2.106   5.079
   80SOL    HW1 1139   3.536   2.065   5.047
   80SOL    HW2 1140   3.698   2.068   5.026
   81SOL     OW 1141   3.253   5.185   2.271
   81SOL    HW1 1142   3.294   5.273   2.248
   81SOL    HW2 1143   3.246   5.176   2.370
   82SOL     OW 1144   3.130   0.418   2.315
   82SOL    HW1 1145   3.168   0.510   2.324
   82SOL    HW2 1146   3.058   0.404   2.383
   83SOL     OW 1147   5.765   0.775   4.898
   83SOL    HW1 1148   5.855   0.737   4.918
   83SOL    HW2 1149   5.695   0.704   4.910
   84SOL     OW 1150   5.970   2.908   3.184
   84SOL    HW1 1151   6.033   2.864   3.248
   84SOL    HW2 1152   5.938   2.994   3.223
   85SOL     OW 1153   2.205   5.783   3.302
   85SOL    HW1 1154   2.131   5.843   3.332
   85SOL    HW2 1155   2.274   5.777   3.374
   86SOL     OW 1156   4.661   0.556   0.604
   86SOL    HW1 1157   4.739   0.495   0.618
   86SOL    HW2 1158   4.646   0.569   0.506
   87SOL     OW 1159   3.113   2.899   6.641
   87SOL    HW1 1160   3.020   2.880   6.609
   87SOL    HW2 1161   3.179   2.865   6.575
   88SOL     OW 1162   2.140   2.650   1.782
   88SOL    HW1 1163   2.197   2.608   1.711
   88SOL    HW2 1164   2.195   2.715   1.834
   89SOL     OW 1165   3.329   3.680   5.426
   89SOL    HW1 1166   3.365   3.734   5.349
   89SOL    HW2 1167   3.391   3.605   5.446
   90SOL     OW 1168   6.900   4.480   1.770
   90SOL    HW1 1169   6.824   4.513   1.713
   90SOL    HW2 1170   6.945   4.404   1.723
   91SOL     OW 1171   4.317   6.509   0.780
   91SOL    HW1 1172   4.231   6.539   0.739
   91SOL    HW2 1173   4.371   6.457   0.714
   92SOL     OW 1174   5.904   5.231   0.069
   92SOL    HW1 1175   5.809   5.225   0.038
   92SOL    HW2 1176   5.941   5.138   0.080
   93SOL     OW 1177   3.012   3.934   1.710
   93SOL    HW1 1178   3.033   3.977   1.798
   93SOL    HW2 1179   2.954   3.854   1.724
   94SOL     OW 1180   2.949   1.659   4.224
   94SOL    HW1 1181   2.959   1.745   4.175
   94SOL    HW2 1182   2.946   1.677   4.323
   95SOL     OW 1183   0.627   6.936   3.799
   95SOL    HW1 1184   0.587   7.021   3.765
   95SOL    HW2 1185   0.720   6.953   3.832
   96SOL     OW 1186   0.275   5.478   6.667
   96SOL    HW1 1187   0.348   5.543   6.690
   96SOL    HW2 1188   0.227   5.450   6.750
   97SOL     OW 1189   3.517   4.392   5.236
   97SOL    HW1 1190   3.523   4.293   5.235
   97SOL    HW2 1191   3.437   4.420   5.289
   98SOL     OW 1192   0.378   2.700   4.684
   98SOL    HW1 1193   0.331   2.748   4.610
   98SOL    HW2 1194   0.313   2.682   4.758
   99SOL     OW 1195   4.233   4.822   5.241
   99SOL    HW1 1196   4.233   4.902   5.300
   99SOL    HW2 1197   4.139   4.786   5.233
  100SOL     OW 1198   1.651   0.548   5.356
  100SOL    HW1 1199   1.615   0.487   5.285
  100SOL    HW2 1200   1.593   0.629   5.364
  101SOL     OW 1201   5.383   3.461   2.366
  101SOL    HW1 1202   5.467   3.498   2.404
  101SOL    HW2 1203   5.404   3.379   2.312
  102SOL     OW 1204   3.630   0.344   6.796
  102SOL    HW1 1205   3.658   0.335   6.892
  102SOL    HW2 1206   3.667   0.428   6.758
  103SOL     OW 1207   1.280   1.602   1.654
  103SOL    HW1 1208   1.300   1.525   1.714
  103SOL    HW2 1209   1.181   1.611   1.644
  104SOL     OW 1210   6.406   4.613   1.590
  104SOL    HW1 1211   6.354   4.529   1.606
  104SOL    HW2 1212   6.487   4.613   1.648
  105SOL     OW 1213   0.193   0.518   4.975
  105SOL    HW1 1214   0.134   0.587   5.019
  105SOL    HW2 1215   0.260   0.564   4.917
  106SOL     OW 1216   4.462   2.706   1.773
  106SOL    HW1 1217   4.424   2.796   1.750
  106SOL    HW2 1218   4.531   2.716   1.844
  107SOL     OW 1219   4.817   6.885   2.086
  107SOL    HW1 1220   4.734   6.934   2.113
  107SOL    HW2 1221   4.813   6.791   2.118
  108SOL     OW 1222   3.623   1.787   4.712
  108SOL    HW1 1223   3.582   1.878   4.702
  108SOL    HW2 1224   3.608   1.735   4.628
  109SOL     OW 1225   2.408   1.144   5.412
  109SOL    HW1 1226   2.338   1.073   5.410
  109SOL    HW2 1227   2.498   1.101   5.415
  110SOL     OW 1228   4.121   4.583   5.565
  110SOL    HW1 1229   4.170   4.665   5.593
  110SOL    HW2 1230   4.113   4.521   5.643
  111SOL     OW 1231   6.027   3.385   1.972
  111SOL    HW1 1232   6.118   3.364   2.008
  111SOL    HW2 1233   6.037   3.443   1.891
  112SOL     OW 1234   4.834   6.994   5.081
  112SOL    HW1 1235   4.820   6.939   4.998
  112SOL    HW2 1236   4.753   6.987   5.140
  113SOL     OW 1237   0.796   4.939   2.592
  113SOL    HW1 1238   0.848   4.911   2.512
  113SOL    HW2 1239   0.858   4.959   2.667
  114SOL     OW 1240   6.960   2.053   1.985
  114SOL    HW1 1241   7.007   1.967   1.967
  114SOL    HW2 1242   6.869   2.034   2.022
  115SOL     OW 1243   4.353   0.987   2.617
  115SOL    HW1 1244   4.286   1.013   2.687
  115SOL    HW2 1245   4.342   1.046   2.537
  116SOL     OW 1246   6.719   5.250   1.215
  116SOL    HW1 1247   6.730   5.269   1.117
  116SOL    HW2 1248   6.731   5.335   1.267
  117SOL     OW 1249   3.046   1.607   0.546
  117SOL    HW1 1250   3.122   1.602   0.480
  117SOL    HW2 1251   3.018   1.702   0.557
  118SOL     OW 1252   6.954   2.411   2.077
  118SOL    HW1 1253   6.863   2.389   2.111
  118SOL    HW2 1254   6.946   2.464   1.992
  119SOL     OW 1255   6.458   6.313   4.697
  119SOL    HW1 1256   6.425   6.286   4.787
  119SOL    HW2 1257   6.390   6.373   4.653
  120SOL     OW 1258   4.395   1.813   4.501
  120SOL    HW1 1259   4.404   1.749   4.577
  120SOL    HW2 1260   4.302   1.851   4.500
  121SOL     OW 1261   0.392   5.754   6.322
  121SOL    HW1 1262   0.491   5.765   6.319
  121SOL    HW2 1263   0.349   5.833   6.278
  122SOL     OW 1264   6.479   5.034   5.912
  122SOL    HW1 1265   6.453   5.130   5.916
  122SOL    HW2 1266   6.402   4.977   5.940
  123SOL     OW 1267   0.497   2.754   1.387
  123SOL    HW1 1268   0.434   2.827   1.362
  123SOL    HW2 1269   0.587   2.773   1.347
  124SOL     OW 1270   1.914   3.630   6.991
  124SOL    HW1 1271   1.816   3.645   6.985
  124SOL    HW2 1272   1.957   3.706   0.013
  125SOL     OW 1273   4.424   2.426   0.373
  125SOL    HW1 1274   4.479   2.456   0.450
  125SOL    HW2 1275   4.474   2.357   0.321
  126SOL     OW 1276   3.520   3.286   5.093
  126SOL    HW1 1277   3.566   3.363   5.049
  126SOL    HW2 1278   3.453   3.247   5.029
  127SOL     OW 1279   0.276   5.027   6.155
  127SOL    HW1 1280   0.303   5.123   6.158
  127SOL    HW2 1281   0.213   5.007   6.230
  128SOL     OW 1282   4.423   3.847   6.190
  128SOL    HW1 1283   4.359   3.850   6.267
  128SOL    HW2 1284   4.376   3.812   6.109
  129SOL     OW 1285   0.515   4.775   1.701
  129SOL    HW1 1286   0.495   4.722   1.619
  129SOL    HW2 1287   0.475   4.867   1.693
  130SOL     OW 1288   6.230   3.487   5.051
  130SOL    HW1 1289   6.205   3.545   5.129
  130SOL    HW2 1290   6.148   3.444   5.015
  131SOL     OW 1291   0.934   3.669   3.377
  131SOL    HW1 1292   1.027   3.654   3.412
  131SOL    HW2 1293   0.922   3.622   3.290
  132SOL     OW 1294   4.438   2.761   1.436
  132SOL    HW1 1295   4.377   2.728   1.508
  132SOL    HW2 1296   4.464   2.685   1.376
  133SOL     OW 1297   4.495   4.410   6.488
  133SOL    HW1 1298   4.431   4.334   6.491
  133SOL    HW2 1299   4.586   4.377   6.513
  134SOL     OW 1300   6.220   1.592   0.948
  134SOL    HW1 1301   6.312   1.564   0.921
  134SOL    HW2 1302   6.187   1.662   0.885
  135SOL     OW 1303   4.310   4.665   3.850
  135SOL    HW1 1304   4.232   4.700   3.800
  135SOL    HW2 1305   4.296   4.680   3.948
  136SOL     OW 1306   3.975   6.851   6.238
  136SOL    HW1 1307   4.026   6.936   6.227
  136SOL    HW2 1308   4.038   6.776   6.256
  137SOL     OW 1309   2.277   4.260   6.689
  137SOL    HW1 1310   2.252   4.213   6.604
  137SOL    HW2 1311   2.319   4.348   6.668
  138SOL     OW 1312   1.285   5.613   6.708
  138SOL    HW1 1313   1.370   5.637   6.755
  138SOL    HW2 1314   1.307   5.570   6.621
  139SOL     OW 1315   0.213   0.498   1.040
  139SOL    HW1 1316   0.293   0.553   1.017
  139SOL    HW2 1317   0.217   0.471   1.136
  140SOL     OW 1318   3.817   7.024   1.728
  140SOL    HW1 1319   3.815   0.036   1.635
  140SOL    HW2 1320   3.886   0.046   1.783
  141SOL     OW 1321   0.693   1.386   6.798
  141SOL    HW1 1322   0.606   1.431   6.816
  141SOL    HW2 1323   0.725   1.339   6.880
  142SOL     OW 1324   1.900   4.042   0.171
  142SOL    HW1 1325   1.887   4.141   0.166
  142SOL    HW2 1326   1.823   3.996   0.126
  143SOL     OW 1327   5.197   5.381   1.592
  143SOL    HW1 1328   5.286   5.418   1.565
  143SOL    HW2 1329   5.194   5.369   1.691
  144SOL     OW 1330   3.321   5.469   3.072
  144SOL    HW1 1331   3.311   5.373   3.042
  144SOL    HW2 1332   3.261   5.486   3.150
  145SOL     OW 1333   0.301   5.588   3.194
  145SOL    HW1 1334   0.223   5.527   3.204
  145SOL    HW2 1335   0.349   5.567   3.109
  146SOL     OW 1336   6.898   0.600   5.704
  146SOL    HW1 1337   6.879   0.525   5.641
  146SOL    HW2 1338   6.878   0.571   5.798
  147SOL     OW 1339   6.089   1.257   5.121
  147SOL    HW1 1340   6.005   1.242   5.173
  147SOL    HW2 1341   6.109   1.355   5.117
  148SOL     OW 1342   1.762   6.519   1.346
  148SOL    HW1 1343   1.674   6.479   1.321
  148SOL    HW2 1344   1.821   6.448   1.384
  149SOL     OW 1345   1.296   3.248   4.626
  149SOL    HW1 1346   1.364   3.210   4.689
  149SOL    HW2 1347   1.320   3.343   4.606
  150SOL     OW 1348   4.592   2.350   5.659
  150SOL    HW1 1349   4.607   2.252   5.644
  150SOL    HW2 1350   4.679   2.398   5.657
  151SOL     OW 1351   6.051   2.736   1.058
  151SOL    HW1 1352   6.146   2.752   1.029
  151SOL    HW2 1353   6.049   2.725   1.157
  152SOL     OW 1354   0.119   2.641   1.259
  152SOL    HW1 1355   0.054   2.707   1.221
  152SOL    HW2 1356   0.081   2.601   1.343
  153SOL     OW 1357   1.581   1.911   3.561
  153SOL    HW1 1358   1.605   1.819   3.529
  153SOL    HW2 1359   1.544   1.964   3.484
  154SOL     OW 1360   0.304   1.453   4.077
  154SOL    HW1 1361   0.256   1.443   4.164
  154SOL    HW2 1362   0.239   1.442   4.002
  155SOL     OW 1363   5.478   4.802   3.646
  155SOL    HW1 1364   5.537   4.735   3.691
  155SOL    HW2 1365   5.492   4.799   3.547
  156SOL     OW 1366   4.797   0.925   1.635
  156SOL    HW1 1367   4.814   1.023   1.638
  156SOL    HW2 1368   4.880   0.877   1.604
  157SOL     OW 1369   4.818   0.357   1.256
  157SOL    HW1 1370   4.861   0.441   1.289
  157SOL    HW2 1371   4.859   0.279   1.301
  158SOL     OW 1372   0.831   2.982   4.185
  158SOL    HW1 1373   0.899   2.910   4.201
  158SOL    HW2 1374   0.872   3.056   4.133
  159SOL     OW 1375   6.401   5.348   6.974
  159SOL    HW1 1376   6.383   5.444   6.992
  159SOL    HW2 1377   6.453   5.308   0.023
  160SOL     OW 1378   4.181   0.624   1.138
  160SOL    HW1 1379   4.090   0.585   1.154
  160SOL    HW2 1380   4.204   0.688   1.211
  161SOL     OW 1381   0.240   6.560   0.474
  161SOL    HW1 1382   0.280   6.475   0.439
  161SOL    HW2 1383   0.292   6.638   0.440
  162SOL     OW 1384   4.471   7.024   5.801
  162SOL    HW1 1385   4.433   7.010   5.709
  162SOL    HW2 1386   4.565   0.030   5.793
  163SOL     OW 1387   0.920   3.754   2.595
  163SOL    HW1 1388   0.906   3.853   2.608
  163SOL    HW2 1389   0.905   3.707   2.681
  164SOL     OW 1390   1.534   1.999   2.270
  164SOL    HW1 1391   1.477   1.989   2.352
  164SOL    HW2 1392   1.482   1.973   2.189
  165SOL     OW 1393   0.029   6.525   4.029
  165SOL    HW1 1394   7.002   6.509   3.946
  165SOL    HW2 1395   0.117   6.564   4.004
  166SOL     OW 1396   0.514   4.473   3.895
  166SOL    HW1 1397   0.515   4.497   3.798
  166SOL    HW2 1398   0.584   4.404   3.913
  167SOL     OW 1399   1.030   1.310   3.516
  167SOL    HW1 1400   1.035   1.373   3.594
  167SOL    HW2 1401   1.034   1.361   3.431
  168SOL     OW 1402   3.174   3.812   2.948
  168SOL    HW1 1403   3.093   3.807   3.006
  168SOL    HW2 1404   3.155   3.867   2.867
  169SOL     OW 1405   5.229   2.417   0.037
  169SOL    HW1 1406   5.309   2.475   0.052
  169SOL    HW2 1407   5.248   2.325   0.071
  170SOL     OW 1408   0.013   5.618   1.552
  170SOL    HW1 1409   7.017   5.592   1.458
  170SOL    HW2 1410   0.042   5.713   1.554
  171SOL     OW 1411   3.033   2.611   0.810
  171SOL    HW1 1412   2.957   2.618   0.746
  171SOL    HW2 1413   3.084   2.698   0.810
  172SOL     OW 1414   1.297   1.061   0.080
  172SOL    HW1 1415   1.376   1.019   0.036
  172SOL    HW2 1416   1.232   1.092   0.010
  173SOL     OW 1417   5.943   1.033   4.700
  173SOL    HW1 1418   5.953   1.122   4.656
  173SOL    HW2 1419   5.845   1.016   4.716
  174SOL     OW 1420   6.022   4.336   4.948
  174SOL    HW1 1421   6.121   4.324   4.945
  174SOL    HW2 1422   5.991   4.335   5.043
  175SOL     OW 1423   0.476   6.631   2.934
  175SOL    HW1 1424   0.486   6.687   2.851
  175SOL    HW2 1425   0.468   6.535   2.908
  176SOL     OW 1426   6.734   3.725   0.978
  176SOL    HW1 1427   6.776   3.804   0.933
  176SOL    HW2 1428   6.798   3.648   0.978
  177SOL     OW 1429   6.505   2.002   3.803
  177SOL    HW1 1430   6.454   2.036   3.882
  177SOL    HW2 1431   6.441   1.967   3.734
  178SOL     OW 1432   2.337   5.669   4.928
  178SOL    HW1 1433   2.427   5.627   4.942
  178SOL    HW2 1434   2.338   5.724   4.845
  179SOL     OW 1435   3.707   4.137   1.758
  179SOL    HW1 1436   3.699   4.093   1.847
  179SOL    HW2 1437   3.641   4.212   1.750
  180SOL     OW 1438   4.565   1.938   6.624
  180SOL    HW1 1439   4.476   1.944   6.579
  180SOL    HW2 1440   4.575   2.013   6.690
  181SOL     OW 1441   3.859   0.610   5.267
  181SOL    HW1 1442   3.765   0.583   5.290
  181SOL    HW2 1443   3.904   0.643   5.349
  182SOL     OW 1444   2.932   2.829   5.707
  182SOL    HW1 1445   2.939   2.918   5.751
  182SOL    HW2 1446   2.863   2.833   5.634
  183SOL     OW 1447   2.956   1.111   3.394
  183SOL    HW1 1448   3.011   1.131   3.475
  183SOL    HW2 1449   2.971   1.182   3.325
  184SOL     OW 1450   4.799   5.471   3.379
  184SOL    HW1 1451   4.705   5.505   3.383
  184SOL    HW2 1452   4.806   5.387   3.434
  185SOL     OW 1453   0.292   6.490   4.878
  185SOL    HW1 1454   0.308   6.524   4.970
  185SOL    HW2 1455   0.266   6.566   4.818
  186SOL     OW 1456   2.959   5.718   5.346
  186SOL    HW1 1457   3.000   5.788   5.287
  186SOL    HW2 1458   3.017   5.637   5.347
  187SOL     OW 1459   3.952   5.512   1.267
  187SOL    HW1 1460   3.895   5.486   1.344
  187SOL    HW2 1461   3.979   5.608   1.276
  188SOL     OW 1462   1.610   3.577   2.987
  188SOL    HW1 1463   1.512   3.560   2.976
  188SOL    HW2 1464   1.649   3.603   2.898
  189SOL     OW 1465   5.609   4.674   5.846
  189SOL    HW1 1466   5.678   4.674   5.774
  189SOL    HW2 1467   5.653   4.669   5.935
  190SOL     OW 1468   6.011   6.475   0.900
  190SOL    HW1 1469   6.031   6.435   0.990
  190SOL    HW2 1470   6.096   6.490   0.850
  191SOL     OW 1471   1.729   2.590   5.590
  191SOL    HW1 1472   1.682   2.547   5.513
  191SOL    HW2 1473   1.809   2.639   5.557
  192SOL     OW 1474   0.135   6.350   1.878
  192SOL    HW1 1475   0.125   6.259   1.918
  192SOL    HW2 1476   0.211   6.350   1.813
  193SOL     OW 1477   3.384   0.582   2.198
  193SOL    HW1 1478   3.352   0.489   2.183
  193SOL    HW2 1479   3.306   0.643   2.211
  194SOL     OW 1480   4.159   6.347   2.716
  194SOL    HW1 1481   4.216   6.416   2.761
  194SOL    HW2 1482   4.062   6.369   2.731
  195SOL     OW 1483   3.304   0.452   0.805
  195SOL    HW1 1484   3.239   0.399   0.751
  195SOL    HW2 1485   3.380   0.393   0.833
  196SOL     OW 1486   4.447   2.549   1.001
  196SOL    HW1 1487   4.397   2.577   1.083
  196SOL    HW2 1488   4.470   2.452   1.008
  197SOL     OW 1489   2.130   6.115   0.406
  197SOL    HW1 1490   2.134   6.203   0.453
  197SOL    HW2 1491   2.138   6.041   0.473
  198SOL     OW 1492   4.840   7.012   6.701
  198SOL    HW1 1493   4.809   0.005   6.608
  198SOL    HW2 1494   4.768   6.964   6.751
  199SOL     OW 1495   1.800   0.756   2.734
  199SOL    HW1 1496   1.763   0.670   2.700
  199SOL    HW2 1497   1.765   0.832   2.679
  200SOL     OW 1498   0.995   3.466   4.168
  200SOL    HW1 1499   1.033   3.401   4.103
  200SOL    HW2 1500   1.044   3.459   4.255
  201SOL     OW 1501   4.291   1.911   6.516
  201SOL    HW1 1502   4.201   1.932   6.554
  201SOL    HW2 1503   4.289   1.922   6.417
  202SOL     OW 1504   3.844   0.854   3.105
  202SOL    HW1 1505   3.753   0.889   3.080
  202SOL    HW2 1506   3.851   0.758   3.078
  203SOL     OW 1507   5.775   2.536   0.264
  203SOL    HW1 1508   5.862   2.558   0.309
  203SOL    HW2 1509   5.779   2.441   0.232
  204SOL     OW 1510   2.102   6.191   1.055
  204SOL    HW1 1511   2.122   6.283   1.091
  204SOL    HW2 1512   2.066   6.134   1.128
  205SOL     OW 1513   5.619   0.406   1.523
  205SOL    HW1 1514   5.651   0.412   1.429
  205SOL    HW2 1515   5.642   0.490   1.572
  206SOL     OW 1516   6.564   6.063   1.229
  206SOL    HW1 1517   6.628   6.079   1.154
  206SOL    HW2 1518   6.474   6.040   1.192
  207SOL     OW 1519   6.044   1.978   6.172
  207SOL    HW1 1520   6.009   1.943   6.258
  207SOL    HW2 1521   6.114   2.048   6.190
  208SOL     OW 1522   3.969   4.419   6.982
  208SOL    HW1 1523   4.037   4.483   7.019
  208SOL    HW2 1524   3.885   4.425   0.010
  209SOL     OW 1525   0.028   6.077   3.614
  209SOL    HW1 1526   0.038   5.978   3.616
  209SOL    HW2 1527   0.085   6.118   3.685
  210SOL     OW 1528   3.980   2.220   0.739
  210SOL    HW1 1529   3.892   2.198   0.780
  210SOL    HW2 1530   3.966   2.259   0.648
  211SOL     OW 1531   0.901   3.190   1.407
  211SOL    HW1 1532   0.858   3.278   1.428
  211SOL    HW2 1533   0.890   3.128   1.486
  212SOL     OW 1534   0.715   5.323   4.773
  212SOL    HW1 1535   0.642   5.359   4.831
  212SOL    HW2 1536   0.722   5.224   4.785
  213SOL     OW 1537   3.739   2.271   6.828
  213SOL    HW1 1538   3.648   2.231   6.817
  213SOL    HW2 1539   3.735   2.369   6.808
  214SOL     OW 1540   1.618   6.385   3.228
  214SOL    HW1 1541   1.626   6.286   3.218
  214SOL    HW2 1542   1.701   6.421   3.271
  215SOL     OW 1543   3.281   4.110   2.998
  215SOL    HW1 1544   3.279   4.013   2.974
  215SOL    HW2 1545   3.252   4.122   3.093
  216SOL     OW 1546   3.033   0.105   5.686
  216SOL    HW1 1547   2.956   0.043   5.698
  216SOL    HW2 1548   3.119   0.056   5.703
  217SOL     OW 1549   6.773   2.147   4.824
  217SOL    HW1 1550   6.694   2.191   4.781
  217SOL    HW2 1551   6.855   2.169   4.771
  218SOL     OW 1552   2.589   3.862   5.647
  218SOL    HW1 1553   2.537   3.803   5.584
  218SOL    HW2 1554   2.525   3.909   5.708
  219SOL     OW 1555   3.681   5.196   0.118
  219SOL    HW1 1556   3.750   5.162   0.055
  219SOL    HW2 1557   3.632   5.273   0.075
  220SOL     OW 1558   1.615   4.364   0.093
  220SOL    HW1 1559   1.624   4.332   0.187
  220SOL    HW2 1560   1.543   4.433   0.088
  221SOL     OW 1561   5.901   2.436   4.303
  221SOL    HW1 1562   5.937   2.345   4.282
  221SOL    HW2 1563   5.976   2.500   4.318
  222SOL     OW 1564   1.846   6.529   4.536
  222SOL    HW1 1565   1.899   6.562   4.458
  222SOL    HW2 1566   1.829   6.605   4.599
  223SOL     OW 1567   5.791   4.776   2.402
  223SOL    HW1 1568   5.886   4.777   2.435
  223SOL    HW2 1569   5.769   4.866   2.364
  224SOL     OW 1570   4.285   2.308   2.538
  224SOL    HW1 1571   4.227   2.232   2.569
  224SOL    HW2 1572   4.274   2.320   2.440
  225SOL     OW 1573   4.907   6.590   0.992
  225SOL    HW1 1574   5.002   6.568   0.969
  225SOL    HW2 1575   4.848   6.564   0.916
  226SOL     OW 1576   0.330   5.572   2.516
  226SOL    HW1 1577   0.281   5.656   2.541
  226SOL    HW2 1578   0.428   5.589   2.519
  227SOL     OW 1579   1.338   3.541   2.924
  227SOL    HW1 1580   1.316   3.444   2.938
  227SOL    HW2 1581   1.331   3.562   2.826
  228SOL     OW 1582   3.916   6.397   2.431
  228SOL    HW1 1583   3.948   6.477   2.381
  228SOL    HW2 1584   3.975   6.319   2.410
  229SOL     OW 1585   6.501   5.204   2.883
  229SOL    HW1 1586   6.462   5.132   2.939
  229SOL    HW2 1587   6.493   5.292   2.931
  230SOL     OW 1588   0.941   4.312   6.335
  230SOL    HW1 1589   0.912   4.242   6.401
  230SOL    HW2 1590   0.863   4.370   6.313
  231SOL     OW 1591   0.314   1.760   6.799
  231SOL    HW1 1592   0.292   1.825   6.873
  231SOL    HW2 1593   0.367   1.807   6.729
  232SOL     OW 1594   1.242   3.935   6.184
  232SOL    HW1 1595   1.284   3.980   6.105
  232SOL    HW2 1596   1.175   3.868   6.151
  233SOL     OW 1597   3.214   6.513   6.665
  233SOL    HW1 1598   3.289   6.448   6.655
  233SOL    HW2 1599   3.151   6.502   6.587
  234SOL     OW 1600   2.729   4.742   5.954
  234SOL    HW1 1601   2.749   4.799   6.034
  234SOL    HW2 1602   2.640   4.698   5.965
  235SOL     OW 1603   3.207   3.441   5.869
  235SOL    HW1 1604   3.224   3.451   5.771
  235SOL    HW2 1605   3.168   3.526   5.905
  236SOL     OW 1606   0.247   2.045   6.182
  236SOL    HW1 1607   0.219   2.038   6.086
  236SOL    HW2 1608   0.168   2.029   6.241
  237SOL     OW 1609   6.516   6.623   1.755
  237SOL    HW1 1610   6.492   6.526   1.765
  237SOL    HW2 1611   6.616   6.633   1.755
  238SOL     OW 1612   6.822   2.006   2.543
  238SOL    HW1 1613   6.806   2.090   2.594
  238SOL    HW2 1614   6.782   2.015   2.451
  239SOL     OW 1615   6.445   5.544   0.586
  239SOL    HW1 1616   6.444   5.444   0.579
  239SOL    HW2 1617   6.357   5.576   0.623
  240SOL     OW 1618   0.468   2.345   5.501
  240SOL    HW1 1619   0.440   2.262   5.547
  240SOL    HW2 1620   0.408   2.420   5.527
  241SOL     OW 1621   5.919   2.387   4.679
  241SOL    HW1 1622   5.991   2.424   4.737
  241SOL    HW2 1623   5.960   2.330   4.608
  242SOL     OW 1624   2.756   2.332   4.076
  242SOL    HW1 1625   2.683   2.393   4.046
  242SOL    HW2 1626   2.789   2.362   4.166
  243SOL     OW 1627   4.653   1.259   6.725
  243SOL    HW1 1628   4.581   1.212   6.674
  243SOL    HW2 1629   4.625   1.353   6.745
  244SOL     OW 1630   0.737   1.600   5.945
  244SOL    HW1 1631   0.701   1.595   5.851
  244SOL    HW2 1632   0.767   1.693   5.964
  245SOL     OW 1633   5.143   2.685   3.674
  245SOL    HW1 1634   5.232   2.656   3.640
  245SOL    HW2 1635   5.116   2.627   3.752
  246SOL     OW 1636   4.903   2.951   3.801
  246SOL    HW1 1637   4.893   3.050   3.812
  246SOL    HW2 1638   4.988   2.933   3.751
  247SOL     OW 1639   2.819   0.641   3.137
  247SOL    HW1 1640   2.905   0.593   3.146
  247SOL    HW2 1641   2.836   0.739   3.128
  248SOL     OW 1642   6.887   1.537   2.453
  248SOL    HW1 1643   6.896   1.467   2.524
  248SOL    HW2 1644   6.792   1.569   2.450
  249SOL     OW 1645   2.347   5.320   5.066
  249SOL    HW1 1646   2.298   5.396   5.108
  249SOL    HW2 1647   2.357   5.246   5.133
  250SOL     OW 1648   5.543   2.423   0.347
  250SOL    HW1 1649   5.592   2.489   0.290
  250SOL    HW2 1650   5.597   2.402   0.428
  251SOL     OW 1651   1.713   1.630   0.667
  251SOL    HW1 1652   1.762   1.602   0.585
  251SOL    HW2 1653   1.614   1.621   0.652
  252SOL     OW 1654   0.603   1.662   0.411
  252SOL    HW1 1655   0.654   1.738   0.451
  252SOL    HW2 1656   0.506   1.684   0.407
  253SOL     OW 1657   1.863   4.550   6.238
  253SOL    HW1 1658   1.854   4.601   6.152
  253SOL    HW2 1659   1.911   4.606   6.305
  254SOL     OW 1660   4.612   3.559   6.037
  254SOL    HW1 1661   4.675   3.591   5.966
  254SOL    HW2 1662   4.623   3.616   6.118
  255SOL     OW 1663   4.017   2.105   2.384
  255SOL    HW1 1664   4.026   2.203   2.399
  255SOL    HW2 1665   3.944   2.088   2.318
  256SOL     OW 1666   6.725   5.472   1.412
  256SOL    HW1 1667   6.764   5.411   1.480
  256SOL    HW2 1668   6.668   5.541   1.457
  257SOL     OW 1669   2.776   5.824   5.952
  257SOL    HW1 1670   2.738   5.745   5.903
  257SOL    HW2 1671   2.766   5.905   5.895
  258SOL     OW 1672   4.256   4.762   4.097
  258SOL    HW1 1673   4.179   4.813   4.058
  258SOL    HW2 1674   4.242   4.752   4.195
  259SOL     OW 1675   0.604   2.114   2.798
  259SOL    HW1 1676   0.533   2.062   2.846
  259SOL    HW2 1677   0.575   2.209   2.788
  260SOL     OW 1678   0.100   6.739   5.659
  260SOL    HW1 1679   0.193   6.744   5.622
  260SOL    HW2 1680   0.103   6.716   5.756
  261SOL     OW 1681   0.673   1.314   3.980
  261SOL    HW1 1682   0.588   1.261   3.980
  261SOL    HW2 1683   0.699   1.338   3.886
  262SOL     OW 1684   1.024   4.710   1.973
  262SOL    HW1 1685   1.004   4.616   2.003
  262SOL    HW2 1686   1.122   4.721   1.962
  263SOL     OW 1687   0.521   3.844   4.360
  263SOL    HW1 1688   0.563   3.882   4.278
  263SOL    HW2 1689   0.428   3.879   4.369
  264SOL     OW 1690   3.407   4.330   0.053
  264SOL    HW1 1691   3.484   4.335   7.016
  264SOL    HW2 1692   3.323   4.311   0.002
  265SOL     OW 1693   4.314   5.450   3.491
  265SOL    HW1 1694   4.297   5.524   3.426
  265SOL    HW2 1695   4.247   5.377   3.478
  266SOL     OW 1696   4.211   3.479   6.974
  266SOL    HW1 1697   4.119   3.484   7.013
  266SOL    HW2 1698   4.264   3.409   7.022
  267SOL     OW 1699   1.888   2.412   6.174
  267SOL    HW1 1700   1.966   2.461   6.212
  267SOL    HW2 1701   1.886   2.424   6.074
  268SOL     OW 1702   2.671   4.650   3.602
  268SOL    HW1 1703   2.575   4.668   3.581
  268SOL    HW2 1704   2.682   4.638   3.700
  269SOL     OW 1705   2.049   2.199   5.258
  269SOL    HW1 1706   2.074   2.210   5.162
  269SOL    HW2 1707   2.117   2.141   5.304
  270SOL     OW 1708   4.970   6.375   4.536
  270SOL    HW1 1709   4.874   6.402   4.546
  270SOL    HW2 1710   5.029   6.452   4.561
  271SOL     OW 1711   2.041   1.776   0.379
  271SOL    HW1 1712   2.009   1.686   0.349
  271SOL    HW2 1713   2.010   1.793   0.472
  272SOL     OW 1714   4.726   5.304   0.232
  272SOL    HW1 1715   4.807   5.359   0.250
  272SOL    HW2 1716   4.707   5.246   0.311
  273SOL     OW 1717   1.913   6.260   4.020
  273SOL    HW1 1718   2.005   6.294   4.003
  273SOL    HW2 1719   1.847   6.318   3.972
  274SOL     OW 1720   5.736   2.235   1.116
  274SOL    HW1 1721   5.743   2.327   1.078
  274SOL    HW2 1722   5.639   2.211   1.126
  275SOL     OW 1723   5.442   5.975   5.670
  275SOL    HW1 1724   5.464   5.946   5.763
  275SOL    HW2 1725   5.517   5.951   5.608
  276SOL     OW 1726   0.343   0.194   4.347
  276SOL    HW1 1727   0.421   0.134   4.333
  276SOL    HW2 1728   0.272   0.146   4.399
  277SOL     OW 1729   4.114   2.729   5.320
  277SOL    HW1 1730   4.143   2.644   5.274
  277SOL    HW2 1731   4.177   2.751   5.394
  278SOL     OW 1732   5.598   4.252   3.037
  278SOL    HW1 1733   5.621   4.296   3.123
  278SOL    HW2 1734   5.675   4.196   3.006
  279SOL     OW 1735   7.001   3.628   3.707
  279SOL    HW1 1736   7.023   3.533   3.684
  279SOL    HW2 1737   6.918   3.655   3.658
  280SOL     OW 1738   4.146   1.637   3.623
  280SOL    HW1 1739   4.197   1.583   3.556
  280SOL    HW2 1740   4.147   1.590   3.712
  281SOL     OW 1741   4.618   5.951   5.032
  281SOL    HW1 1742   4.592   6.037   5.076
  281SOL    HW2 1743   4.646   5.885   5.102
  282SOL     OW 1744   0.666   2.646   0.554
  282SOL    HW1 1745   0.687   2.726   0.498
  282SOL    HW2 1746   0.735   2.575   0.539
  283SOL     OW 1747   6.229   3.865   3.555
  283SOL    HW1 1748   6.186   3.947   3.519
  283SOL    HW2 1749   6.186   3.784   3.516
  284SOL     OW 1750   5.166   6.988   2.477
  284SOL    HW1 1751   5.168   6.966   2.380
  284SOL    HW2 1752   5.159   6.903   2.530
  285SOL     OW 1753   3.885   6.456   5.962
  285SOL    HW1 1754   3.985   6.463   5.966
  285SOL    HW2 1755   3.849   6.522   5.896
  286SOL     OW 1756   2.970   4.647   5.665
  286SOL    HW1 1757   3.040   4.717   5.683
  286SOL    HW2 1758   2.880   4.689   5.668
  287SOL     OW 1759   3.468   5.554   0.184
  287SOL    HW1 1760   3.557   5.522   0.214
  287SOL    HW2 1761   3.452   5.646   0.219
  288SOL     OW 1762   4.246   1.462   0.394
  288SOL    HW1 1763   4.260   1.463   0.295
  288SOL    HW2 1764   4.244   1.368   0.427
  289SOL     OW 1765   5.817   4.945   4.850
  289SOL    HW1 1766   5.891   4.920   4.912
  289SOL    HW2 1767   5.779   4.863   4.807
  290SOL     OW 1768   3.398   0.368   5.722
  290SOL    HW1 1769   3.421   0.466   5.718
  290SOL    HW2 1770   3.405   0.336   5.816
  291SOL     OW 1771   4.890   0.935   5.257
  291SOL    HW1 1772   4.938   0.988   5.327
  291SOL    HW2 1773   4.887   0.839   5.286
  292SOL     OW 1774   3.520   0.257   4.231
  292SOL    HW1 1775   3.462   0.319   4.179
  292SOL    HW2 1776   3.612   0.257   4.193
  293SOL     OW 1777   4.798   0.457   2.900
  293SOL    HW1 1778   4.847   0.435   2.985
  293SOL    HW2 1779   4.804   0.379   2.837
  294SOL     OW 1780   6.899   1.185   6.730
  294SOL    HW1 1781   6.905   1.224   6.822
  294SOL    HW2 1782   6.814   1.215   6.687
  295SOL     OW 1783   0.548   0.662   4.875
  295SOL    HW1 1784   0.458   0.704   4.859
  295SOL    HW2 1785   0.539   0.562   4.871
  296SOL     OW 1786   0.736   2.025   1.618
  296SOL    HW1 1787   0.757   2.044   1.522
  296SOL    HW2 1788   0.691   1.936   1.625
  297SOL     OW 1789   5.195   3.107   3.370
  297SOL    HW1 1790   5.164   3.062   3.286
  297SOL    HW2 1791   5.291   3.084   3.387
  298SOL     OW 1792   4.084   0.891   5.958
  298SOL    HW1 1793   4.155   0.962   5.965
  298SOL    HW2 1794   4.075   0.845   6.046
  299SOL     OW 1795   0.716   1.046   6.311
  299SOL    HW1 1796   0.739   1.143   6.319
  299SOL    HW2 1797   0.792   0.991   6.347
  300SOL     OW 1798   4.322   6.292   3.384
  300SOL    HW1 1799   4.365   6.382   3.392
  300SOL    HW2 1800   4.365   6.241   3.309
  301SOL     OW 1801   0.086   5.721   5.774
  301SOL    HW1 1802   0.043   5.793   5.720
  301SOL    HW2 1803   0.156   5.761   5.834
  302SOL     OW 1804   6.978   6.933   2.487
  302SOL    HW1 1805   0.029   6.918   2.550
  302SOL    HW2 1806   7.013   6.961   2.398
  303SOL     OW 1807   5.599   5.732   2.582
  303SOL    HW1 1808   5.534   5.794   2.537
  303SOL    HW2 1809   5.682   5.781   2.605
  304SOL     OW 1810   1.917   0.096   4.454
  304SOL    HW1 1811   1.862   0.173   4.422
  304SOL    HW2 1812   1.966   0.122   4.537
  305SOL     OW 1813   0.928   2.026   1.108
  305SOL    HW1 1814   1.019   2.010   1.068
  305SOL    HW2 1815   0.865   2.056   1.037
  306SOL     OW 1816   0.270   7.000   2.836
  306SOL    HW1 1817   0.302   0.062   2.802
  306SOL    HW2 1818   0.223   7.012   2.923
  307SOL     OW 1819   4.003   3.683   3.525
  307SOL    HW1 1820   3.943   3.737   3.584
  307SOL    HW2 1821   4.035   3.603   3.576
  308SOL     OW 1822   6.576   1.538   2.441
  308SOL    HW1 1823   6.622   1.479   2.374
  308SOL    HW2 1824   6.490   1.572   2.402
  309SOL     OW 1825   1.898   4.872   0.265
  309SOL    HW1 1826   1.960   4.879   0.344
  309SOL    HW2 1827   1.923   4.943   0.199
  310SOL     OW 1828   5.054   6.628   4.861
  310SOL    HW1 1829   4.975   6.569   4.878
  310SOL    HW2 1830   5.127   6.574   4.817
  311SOL     OW 1831   1.479   6.121   1.854
  311SOL    HW1 1832   1.486   6.031   1.897
  311SOL    HW2 1833   1.469   6.110   1.755
  312SOL     OW 1834   3.486   0.585   4.154
  312SOL    HW1 1835   3.423   0.635   4.213
  312SOL    HW2 1836   3.434   0.543   4.079
  313SOL     OW 1837   3.113   3.120   2.681
  313SOL    HW1 1838   3.147   3.049   2.620
  313SOL    HW2 1839   3.119   3.209   2.635
  314SOL     OW 1840   2.784   5.682   6.248
  314SOL    HW1 1841   2.855   5.738   6.290
  314SOL    HW2 1842   2.826   5.608   6.195
  315SOL     OW 1843   5.675   0.669   4.619
  315SOL    HW1 1844   5.635   0.701   4.705
  315SOL    HW2 1845   5.771   0.696   4.615
  316SOL     OW 1846   3.318   0.928   6.233
  316SOL    HW1 1847   3.415   0.931   6.254
  316SOL    HW2 1848   3.266   0.968   6.309
  317SOL     OW 1849   0.623   2.339   1.109
  317SOL    HW1 1850   0.601   2.385   1.195
  317SOL    HW2 1851   0.598   2.243   1.114
  318SOL     OW 1852   0.935   0.226   3.590
  318SOL    HW1 1853   1.027   0.191   3.576
  318SOL    HW2 1854   0.888   0.233   3.502
  319SOL     OW 1855   0.252   0.917   3.017
  319SOL    HW1 1856   0.298   0.955   2.936
  319SOL    HW2 1857   0.313   0.852   3.062
  320SOL     OW 1858   4.834   1.479   0.299
  320SOL    HW1 1859   4.819   1.389   0.341
  320SOL    HW2 1860   4.810   1.474   0.202
  321SOL     OW 1861   4.594   2.796   1.053
  321SOL    HW1 1862   4.693   2.782   1.058
  321SOL    HW2 1863   4.550   2.710   1.026
  322SOL     OW 1864   3.464   2.704   6.578
  322SOL    HW1 1865   3.417   2.744   6.499
  322SOL    HW2 1866   3.431   2.611   6.593
  323SOL     OW 1867   1.532   3.797   2.486
  323SOL    HW1 1868   1.627   3.824   2.501
  323SOL    HW2 1869   1.486   3.787   2.574
  324SOL     OW 1870   0.488   0.274   3.370
  324SOL    HW1 1871   0.539   0.356   3.395
  324SOL    HW2 1872   0.551   0.202   3.341
  325SOL     OW 1873   6.446   3.803   0.820
  325SOL    HW1 1874   6.397   3.890   0.827
  325SOL    HW2 1875   6.425   3.745   0.899
  326SOL     OW 1876   6.979   5.885   6.907
  326SOL    HW1 1877   7.003   5.976   6.871
  326SOL    HW2 1878   6.925   5.896   6.991
  327SOL     OW 1879   4.051   6.361   6.281
  327SOL    HW1 1880   4.122   6.290   6.270
  327SOL    HW2 1881   4.005   6.375   6.194
  328SOL     OW 1882   1.259   5.052   3.653
  328SOL    HW1 1883   1.211   5.129   3.695
  328SOL    HW2 1884   1.287   4.987   3.724
  329SOL     OW 1885   3.522   3.267   1.868
  329SOL    HW1 1886   3.470   3.352   1.875
  329SOL    HW2 1887   3.525   3.238   1.772
  330SOL     OW 1888   2.501   3.172   0.032
  330SOL    HW1 1889   2.472   3.173   0.127
  330SOL    HW2 1890   2.585   3.224   0.021
  331SOL     OW 1891   5.681   4.721   4.816
  331SOL    HW1 1892   5.635   4.679   4.894
  331SOL    HW2 1893   5.615   4.737   4.743
  332SOL     OW 1894   5.939   2.299   3.147
  332SOL    HW1 1895   6.020   2.271   3.199
  332SOL    HW2 1896   5.873   2.342   3.209
  333SOL     OW 1897   3.899   6.956   4.299
  333SOL    HW1 1898   3.953   7.018   4.355
  333SOL    HW2 1899   3.919   6.861   4.326
  334SOL     OW 1900   3.377   3.563   3.642
  334SOL    HW1 1901   3.371   3.535   3.546
  334SOL    HW2 1902   3.355   3.660   3.650
  335SOL     OW 1903   3.301   0.841   1.248
  335SOL    HW1 1904   3.239   0.918   1.261
  335SOL    HW2 1905   3.282   0.770   1.316
  336SOL     OW 1906   4.497   2.132   5.019
  336SOL    HW1 1907   4.484   2.039   4.985
  336SOL    HW2 1908   4.586   2.140   5.064
  337SOL     OW 1909   0.084   1.005   5.206
  337SOL    HW1 1910   7.022   0.958   5.196
  337SOL    HW2 1911   0.069   1.093   5.251
  338SOL     OW 1912   4.463   1.438   1.345
  338SOL    HW1 1913   4.551   1.414   1.386
  338SOL    HW2 1914   4.422   1.513   1.395
  339SOL     OW 1915   4.290   5.249   6.028
  339SOL    HW1 1916   4.244   5.232   6.115
  339SOL    HW2 1917   4.223   5.284   5.961
  340SOL     OW 1918   5.359   3.050   4.876
  340SOL    HW1 1919   5.397   2.963   4.844
  340SOL    HW2 1920   5.259   3.044   4.880
  341SOL     OW 1921   0.226   0.040   2.287
  341SOL    HW1 1922   0.227   6.988   2.225
  341SOL    HW2 1923   0.315   0.049   2.331
  342SOL     OW 1924   4.645   1.710   2.473
  342SOL    HW1 1925   4.583   1.787   2.460
  342SOL    HW2 1926   4.681   1.680   2.385
  343SOL     OW 1927   5.174   0.101   1.171
  343SOL    HW1 1928   5.242   0.141   1.232
  343SOL    HW2 1929   5.125   0.028   1.218
  344SOL     OW 1930   6.774   3.179   1.952
  344SOL    HW1 1931   6.862   3.132   1.957
  344SOL    HW2 1932   6.708   3.133   2.011
  345SOL     OW 1933   6.875   2.583   4.336
  345SOL    HW1 1934   6.888   2.681   4.347
  345SOL    HW2 1935   6.802   2.566   4.270
  346SOL     OW 1936   2.384   6.292   2.904
  346SOL    HW1 1937   2.471   6.334   2.932
  346SOL    HW2 1938   2.394   6.192   2.907
  347SOL     OW 1939   2.351   4.843   0.657
  347SOL    HW1 1940   2.317   4.867   0.748
  347SOL    HW2 1941   2.412   4.915   0.624
  348SOL     OW 1942   4.603   4.830   1.475
  348SOL    HW1 1943   4.686   4.855   1.425
  348SOL    HW2 1944   4.539   4.906   1.474
  349SOL     OW 1945   5.414   4.255   0.476
  349SOL    HW1 1946   5.493   4.199   0.501
  349SOL    HW2 1947   5.420   4.344   0.522
  350SOL     OW 1948   2.281   1.546   7.022
  350SOL    HW1 1949   2.302   1.535   6.924
  350SOL    HW2 1950   2.230   1.466   0.028
  351SOL     OW 1951   3.386   4.174   0.868
  351SOL    HW1 1952   3.301   4.129   0.894
  351SOL    HW2 1953   3.418   4.138   0.781
  352SOL     OW 1954   4.673   0.357   2.468
  352SOL    HW1 1955   4.612   0.371   2.546
  352SOL    HW2 1956   4.696   0.445   2.427
  353SOL     OW 1957   1.928   6.625   0.480
  353SOL    HW1 1958   1.976   6.691   0.538
  353SOL    HW2 1959   1.992   6.588   0.412
  354SOL     OW 1960   1.161   2.486   0.317
  354SOL    HW1 1961   1.260   2.496   0.307
  354SOL    HW2 1962   1.123   2.446   0.234
  355SOL     OW 1963   0.423   3.247   3.671
  355SOL    HW1 1964   0.454   3.342   3.670
  355SOL    HW2 1965   0.502   3.185   3.667
  356SOL     OW 1966   2.775   0.270   5.459
  356SOL    HW1 1967   2.704   0.330   5.496
  356SOL    HW2 1968   2.855   0.324   5.435
  357SOL     OW 1969   6.022   6.368   4.536
  357SOL    HW1 1970   5.985   6.417   4.615
  357SOL    HW2 1971   5.955   6.301   4.503
  358SOL     OW 1972   3.363   5.689   6.384
  358SOL    HW1 1973   3.304   5.762   6.418
  358SOL    HW2 1974   3.339   5.603   6.429
  359SOL     OW 1975   1.484   2.184   1.905
  359SOL    HW1 1976   1.415   2.198   1.976
  359SOL    HW2 1977   1.574   2.177   1.947
  360SOL     OW 1978   2.072   4.128   3.694
  360SOL    HW1 1979   1.983   4.125   3.648
  360SOL    HW2 1980   2.142   4.155   3.628
  361SOL     OW 1981   0.065   1.813   2.003
  361SOL    HW1 1982   0.025   1.781   2.088
  361SOL    HW2 1983   0.146   1.869   2.023
  362SOL     OW 1984   3.821   3.800   2.442
  362SOL    HW1 1985   3.846   3.894   2.422
  362SOL    HW2 1986   3.895   3.756   2.493
  363SOL     OW 1987   4.507   5.304   1.356
  363SOL    HW1 1988   4.593   5.335   1.397
  363SOL    HW2 1989   4.431   5.359   1.393
  364SOL     OW 1990   1.029   0.569   0.361
  364SOL    HW1 1991   1.030   0.477   0.400
  364SOL    HW2 1992   1.117   0.589   0.320
  365SOL     OW 1993   5.774   0.666   4.123
  365SOL    HW1 1994   5.809   0.759   4.117
  365SOL    HW2 1995   5.730   0.653   4.211
  366SOL     OW 1996   5.518   1.668   0.211
  366SOL    HW1 1997   5.463   1.638   0.289
  366SOL    HW2 1998   5.467   1.653   0.127
  367SOL     OW 1999   5.094   0.884   6.569
  367SOL    HW1 2000   5.060   0.796   6.605
  367SOL    HW2 2001   5.176   0.911   6.620
  368SOL     OW 2002   1.567   1.832   5.270
  368SOL    HW1 2003   1.579   1.916   5.218
  368SOL    HW2 2004   1.504   1.848   5.346
  369SOL     OW 2005   5.880   4.543   0.243
  369SOL    HW1 2006   5.953   4.504   0.187
  369SOL    HW2 2007   5.911   4.551   0.338
  370SOL     OW 2008   2.377   2.751   3.149
  370SOL    HW1 2009   2.385   2.784   3.243
  370SOL    HW2 2010   2.341   2.824   3.091
  371SOL     OW 2011   1.533   6.106   6.967
  371SOL    HW1 2012   1.593   6.119   0.020
  371SOL    HW2 2013   1.538   6.187   6.908
  372SOL     OW 2014   2.506   5.393   5.736
  372SOL    HW1 2015   2.483   5.380   5.833
  372SOL    HW2 2016   2.468   5.318   5.682
  373SOL     OW 2017   6.178   4.631   3.246
  373SOL    HW1 2018   6.243   4.580   3.302
  373SOL    HW2 2019   6.100   4.572   3.223
  374SOL     OW 2020   3.068   1.422   2.593
  374SOL    HW1 2021   3.125   1.400   2.673
  374SOL    HW2 2022   3.065   1.521   2.580
  375SOL     OW 2023   1.191   5.864   4.143
  375SOL    HW1 2024   1.222   5.896   4.053
  375SOL    HW2 2025   1.092   5.875   4.150
  376SOL     OW 2026   3.732   0.682   3.304
  376SOL    HW1 2027   3.783   0.763   3.276
  376SOL    HW2 2028   3.635   0.703   3.308
  377SOL     OW 2029   2.296   2.275   6.690
  377SOL    HW1 2030   2.248   2.349   6.644
  377SOL    HW2 2031   2.313   2.201   6.625
  378SOL     OW 2032   4.384   1.291   2.025
  378SOL    HW1 2033   4.371   1.352   2.104
  378SOL    HW2 2034   4.333   1.326   1.947
  379SOL     OW 2035   4.046   2.485   6.293
  379SOL    HW1 2036   4.135   2.463   6.332
  379SOL    HW2 2037   4.052   2.570   6.240
  380SOL     OW 2038   4.210   2.036   0.373
  380SOL    HW1 2039   4.283   1.992   0.426
  380SOL    HW2 2040   4.151   2.087   0.436
  381SOL     OW 2041   2.142   3.952   3.042
  381SOL    HW1 2042   2.050   3.989   3.052
  381SOL    HW2 2043   2.157   3.880   3.110
  382SOL     OW 2044   5.532   0.039   7.014
  382SOL    HW1 2045   5.617   0.024   6.964
  382SOL    HW2 2046   5.551   0.049   0.085
  383SOL     OW 2047   4.393   2.982   0.938
  383SOL    HW1 2048   4.300   2.952   0.959
  383SOL    HW2 2049   4.458   2.930   0.994
  384SOL     OW 2050   0.155   3.910   5.073
  384SOL    HW1 2051   0.150   4.010   5.079
  384SOL    HW2 2052   0.230   3.884   5.013
  385SOL     OW 2053   4.443   2.934   0.451
  385SOL    HW1 2054   4.447   2.840   0.487
  385SOL    HW2 2055   4.390   2.991   0.513
  386SOL     OW 2056   4.379   6.644   4.990
  386SOL    HW1 2057   4.385   6.544   4.986
  386SOL    HW2 2058   4.465   6.681   5.022
  387SOL     OW 2059   2.963   5.818   4.119
  387SOL    HW1 2060   2.928   5.901   4.164
  387SOL    HW2 2061   3.016   5.764   4.185
  388SOL     OW 2062   1.565   5.261   6.024
  388SOL    HW1 2063   1.480   5.283   6.074
  388SOL    HW2 2064   1.632   5.224   6.088
  389SOL     OW 2065   2.852   2.801   1.667
  389SOL    HW1 2066   2.834   2.711   1.708
  389SOL    HW2 2067   2.815   2.802   1.574
  390SOL     OW 2068   2.354   1.291   4.854
  390SOL    HW1 2069   2.279   1.279   4.920
  390SOL    HW2 2070   2.321   1.344   4.775
  391SOL     OW 2071   1.394   2.329   6.859
  391SOL    HW1 2072   1.426   2.251   6.806
  391SOL    HW2 2073   1.340   2.389   6.801
  392SOL     OW 2074   3.667   5.984   3.841
  392SOL    HW1 2075   3.714   6.069   3.863
  392SOL    HW2 2076   3.638   5.939   3.925
  393SOL     OW 2077   5.946   4.012   5.452
  393SOL    HW1 2078   5.876   3.997   5.382
  393SOL    HW2 2079   6.013   4.079   5.418
  394SOL     OW 2080   2.246   1.043   6.182
  394SOL    HW1 2081   2.277   0.980   6.253
  394SOL    HW2 2082   2.239   0.994   6.095
  395SOL     OW 2083   6.556   3.531   1.041
  395SOL    HW1 2084   6.465   3.562   1.068
  395SOL    HW2 2085   6.620   3.609   1.044
  396SOL     OW 2086   3.669   3.069   5.127
  396SOL    HW1 2087   3.629   3.127   5.198
  396SOL    HW2 2088   3.674   3.120   5.041
  397SOL     OW 2089   3.575   1.618   6.779
  397SOL    HW1 2090   3.484   1.651   6.754
  397SOL    HW2 2091   3.618   1.682   6.843
  398SOL     OW 2092   1.197   4.965   2.672
  398SOL    HW1 2093   1.137   4.938   2.597
  398SOL    HW2 2094   1.183   4.904   2.749
  399SOL     OW 2095   4.891   4.704   2.437
  399SOL    HW1 2096   4.899   4.605   2.428
  399SOL    HW2 2097   4.960   4.738   2.501
  400SOL     OW 2098   2.557   4.996   4.639
  400SOL    HW1 2099   2.630   4.932   4.665
  400SOL    HW2 2100   2.506   4.958   4.562
  401SOL     OW 2101   5.411   1.550   0.480
  401SOL    HW1 2102   5.352   1.470   0.494
  401SOL    HW2 2103   5.358   1.633   0.498
  402SOL     OW 2104   6.611   4.521   1.095
  402SOL    HW1 2105   6.525   4.470   1.097
  402SOL    HW2 2106   6.601   4.601   1.036
  403SOL     OW 2107   5.287   4.221   0.219
  403SOL    HW1 2108   5.188   4.213   0.232
  403SOL    HW2 2109   5.330   4.241   0.307
  404SOL     OW 2110   0.389   6.416   4.603
  404SOL    HW1 2111   0.478   6.460   4.595
  404SOL    HW2 2112   0.362   6.412   4.699
  405SOL     OW 2113   0.745   2.816   1.291
  405SOL    HW1 2114   0.816   2.754   1.259
  405SOL    HW2 2115   0.774   2.911   1.276
  406SOL     OW 2116   0.630   2.416   2.946
  406SOL    HW1 2117   0.679   2.442   2.863
  406SOL    HW2 2118   0.685   2.441   3.026
  407SOL     OW 2119   2.931   1.589   3.596
  407SOL    HW1 2120   2.889   1.590   3.505
  407SOL    HW2 2121   2.995   1.665   3.604
  408SOL     OW 2122   1.939   0.722   3.341
  408SOL    HW1 2123   1.983   0.705   3.253
  408SOL    HW2 2124   1.871   0.795   3.330
  409SOL     OW 2125   6.461   3.376   4.079
  409SOL    HW1 2126   6.363   3.372   4.058
  409SOL    HW2 2127   6.477   3.337   4.170
  410SOL     OW 2128   2.848   6.775   6.661
  410SOL    HW1 2129   2.940   6.787   6.697
  410SOL    HW2 2130   2.834   6.835   6.582
  411SOL     OW 2131   0.285   3.239   4.882
  411SOL    HW1 2132   0.374   3.209   4.847
  411SOL    HW2 2133   0.241   3.163   4.930
  412SOL     OW 2134   4.201   0.717   2.271
  412SOL    HW1 2135   4.131   0.660   2.315
  412SOL    HW2 2136   4.273   0.738   2.336
  413SOL     OW 2137   2.570   0.727   2.286
  413SOL    HW1 2138   2.472   0.742   2.304
  413SOL    HW2 2139   2.624   0.785   2.347
  414SOL     OW 2140   4.927   3.654   0.605
  414SOL    HW1 2141   4.945   3.752   0.596
  414SOL    HW2 2142   4.895   3.618   0.517
  415SOL     OW 2143   3.663   6.345   2.359
  415SOL    HW1 2144   3.621   6.397   2.285
  415SOL    HW2 2145   3.762   6.341   2.346
  416SOL     OW 2146   3.632   5.750   6.430
  416SOL    HW1 2147   3.547   5.716   6.390
  416SOL    HW2 2148   3.618   5.843   6.465
  417SOL     OW 2149   5.109   4.672   0.919
  417SOL    HW1 2150   5.176   4.744   0.905
  417SOL    HW2 2151   5.017   4.710   0.912
  418SOL     OW 2152   6.666   5.087   0.384
  418SOL    HW1 2153   6.644   4.990   0.396
  418SOL    HW2 2154   6.764   5.098   0.373
  419SOL     OW 2155   5.554   6.220   1.139
  419SOL    HW1 2156   5.614   6.286   1.095
  419SOL    HW2 2157   5.459   6.248   1.127
  420SOL     OW 2158   4.726   4.015   7.004
  420SOL    HW1 2159   4.810   3.963   7.017
  420SOL    HW2 2160   4.719   4.045   6.909
  421SOL     OW 2161   1.421   6.116   6.475
  421SOL    HW1 2162   1.353   6.189   6.466
  421SOL    HW2 2163   1.389   6.035   6.425
  422SOL     OW 2164   5.410   4.001   6.732
  422SOL    HW1 2165   5.350   3.940   6.680
  422SOL    HW2 2166   5.494   3.952   6.756
  423SOL     OW 2167   1.015   3.373   5.988
  423SOL    HW1 2168   0.928   3.420   5.996
  423SOL    HW2 2169   1.086   3.425   6.035
  424SOL     OW 2170   2.046   3.908   0.344
  424SOL    HW1 2171   2.020   3.816   0.315
  424SOL    HW2 2172   1.994   3.975   0.292
  425SOL     OW 2173   3.088   0.168   0.911
  425SOL    HW1 2174   3.073   0.171   0.812
  425SOL    HW2 2175   3.180   0.133   0.929
  426SOL     OW 2176   6.100   4.243   5.688
  426SOL    HW1 2177   6.151   4.260   5.603
  426SOL    HW2 2178   6.077   4.146   5.694
  427SOL     OW 2179   4.886   2.936   0.782
  427SOL    HW1 2180   4.806   2.996   0.776
  427SOL    HW2 2181   4.862   2.845   0.748
  428SOL     OW 2182   3.415   1.613   5.702
  428SOL    HW1 2183   3.433   1.543   5.771
  428SOL    HW2 2184   3.500   1.662   5.681
  429SOL     OW 2185   2.616   5.489   6.772
  429SOL    HW1 2186   2.710   5.503   6.741
  429SOL    HW2 2187   2.553   5.540   6.712
  430SOL     OW 2188   2.374   6.972   4.962
  430SOL    HW1 2189   2.307   6.992   5.034
  430SOL    HW2 2190   2.351   7.026   4.881
  431SOL     OW 2191   2.876   1.729   6.634
  431SOL    HW1 2192   2.939   1.652   6.639
  431SOL    HW2 2193   2.789   1.704   6.676
  432SOL     OW 2194   0.074   1.450   1.216
  432SOL    HW1 2195   0.127   1.378   1.260
  432SOL    HW2 2196   0.011   1.491   1.282
  433SOL     OW 2197   2.692   6.156   4.750
  433SOL    HW1 2198   2.635   6.075   4.760
  433SOL    HW2 2199   2.763   6.156   4.821
  434SOL     OW 2200   6.319   3.903   1.142
  434SOL    HW1 2201   6.412   3.936   1.155
  434SOL    HW2 2202   6.262   3.931   1.219
  435SOL     OW 2203   3.763   3.370   0.937
  435SOL    HW1 2204   3.859   3.383   0.965
  435SOL    HW2 2205   3.740   3.272   0.943
  436SOL     OW 2206   2.561   0.251   0.622
  436SOL    HW1 2207   2.467   0.260   0.591
  436SOL    HW2 2208   2.563   0.219   0.716
  437SOL     OW 2209   6.925   0.107   6.160
  437SOL    HW1 2210   6.962   0.014   6.151
  437SOL    HW2 2211   6.831   0.102   6.194
  438SOL     OW 2212   1.974   2.983   1.618
  438SOL    HW1 2213   2.007   2.984   1.713
  438SOL    HW2 2214   2.048   2.955   1.558
  439SOL     OW 2215   6.002   4.520   2.189
  439SOL    HW1 2216   5.948   4.436   2.186
  439SOL    HW2 2217   6.052   4.525   2.276
  440SOL     OW 2218   1.390   3.118   3.459
  440SOL    HW1 2219   1.490   3.126   3.461
  440SOL    HW2 2220   1.357   3.136   3.366
  441SOL     OW 2221   1.268   1.189   3.231
  441SOL    HW1 2222   1.247   1.133   3.151
  441SOL    HW2 2223   1.185   1.232   3.265
  442SOL     OW 2224   7.008   4.435   0.335
  442SOL    HW1 2225   0.066   4.385   0.354
  442SOL    HW2 2226   7.004   4.458   0.238
  443SOL     OW 2227   0.996   4.281   5.892
  443SOL    HW1 2228   0.955   4.235   5.970
  443SOL    HW2 2229   0.972   4.232   5.807
  444SOL     OW 2230   4.821   3.124   6.643
  444SOL    HW1 2231   4.818   3.223   6.653
  444SOL    HW2 2232   4.744   3.094   6.586
  445SOL     OW 2233   2.122   4.497   3.194
  445SOL    HW1 2234   2.096   4.564   3.124
  445SOL    HW2 2235   2.196   4.534   3.250
  446SOL     OW 2236   4.160   5.395   4.057
  446SOL    HW1 2237   4.083   5.335   4.079
  446SOL    HW2 2238   4.235   5.340   4.020
  447SOL     OW 2239   0.274   5.906   0.089
  447SOL    HW1 2240   0.244   5.839   0.157
  447SOL    HW2 2241   0.271   5.864   7.025
  448SOL     OW 2242   4.304   1.061   5.932
  448SOL    HW1 2243   4.337   0.970   5.956
  448SOL    HW2 2244   4.380   1.126   5.932
  449SOL     OW 2245   6.038   6.766   4.571
  449SOL    HW1 2246   6.019   6.733   4.478
  449SOL    HW2 2247   6.017   6.694   4.637
  450SOL     OW 2248   0.112   5.777   3.537
  450SOL    HW1 2249   0.170   5.815   3.465
  450SOL    HW2 2250   0.016   5.789   3.512
  451SOL     OW 2251   6.187   2.340   3.796
  451SOL    HW1 2252   6.160   2.281   3.872
  451SOL    HW2 2253   6.127   2.420   3.795
  452SOL     OW 2254   6.881   4.513   6.488
  452SOL    HW1 2255   6.795   4.558   6.467
  452SOL    HW2 2256   6.899   4.442   6.420
  453SOL     OW 2257   2.776   0.438   5.821
  453SOL    HW1 2258   2.850   0.385   5.780
  453SOL    HW2 2259   2.720   0.377   5.878
  454SOL     OW 2260   1.026   5.832   0.174
  454SOL    HW1 2261   1.080   5.884   0.240
  454SOL    HW2 2262   1.087   5.776   0.118
  455SOL     OW 2263   4.861   0.695   5.417
  455SOL    HW1 2264   4.814   0.617   5.456
  455SOL    HW2 2265   4.947   0.710   5.466
  456SOL     OW 2266   4.669   5.668   6.991
  456SOL    HW1 2267   4.687   5.671   0.063
  456SOL    HW2 2268   4.680   5.760   6.953
  457SOL     OW 2269   0.587   5.019   2.124
  457SOL    HW1 2270   0.668   5.031   2.066
  457SOL    HW2 2271   0.533   4.943   2.090
  458SOL     OW 2272   6.933   6.551   6.064
  458SOL    HW1 2273   6.943   6.464   6.113
  458SOL    HW2 2274   6.893   6.619   6.125
  459SOL     OW 2275   1.806   0.478   3.042
  459SOL    HW1 2276   1.879   0.538   3.010
  459SOL    HW2 2277   1.787   0.496   3.138
  460SOL     OW 2278   6.813   1.592   4.007
  460SOL    HW1 2279   6.718   1.603   4.033
  460SOL    HW2 2280   6.833   1.496   3.988
  461SOL     OW 2281   5.202   6.126   5.684
  461SOL    HW1 2282   5.155   6.122   5.596
  461SOL    HW2 2283   5.276   6.059   5.685
  462SOL     OW 2284   3.259   2.746   0.017
  462SOL    HW1 2285   3.322   2.668   0.024
  462SOL    HW2 2286   3.180   2.719   6.989
  463SOL     OW 2287   0.076   5.907   1.560
  463SOL    HW1 2288   0.030   5.923   1.473
  463SOL    HW2 2289   0.013   5.926   1.635
  464SOL     OW 2290   1.693   1.089   5.817
  464SOL    HW1 2291   1.756   1.160   5.787
  464SOL    HW2 2292   1.663   1.036   5.737
  465SOL     OW 2293   6.674   3.272   5.312
  465SOL    HW1 2294   6.693   3.176   5.291
  465SOL    HW2 2295   6.600   3.305   5.253
  466SOL     OW 2296   2.051   0.683   3.076
  466SOL    HW1 2297   2.037   0.741   2.996
  466SOL    HW2 2298   2.102   0.601   3.051
  467SOL     OW 2299   1.473   1.310   4.916
  467SOL    HW1 2300   1.527   1.346   4.840
  467SOL    HW2 2301   1.509   1.221   4.943
  468SOL     OW 2302   3.610   4.036   1.513
  468SOL    HW1 2303   3.628   4.070   1.605
  468SOL    HW2 2304   3.520   4.067   1.483
  469SOL     OW 2305   2.478   4.759   6.958
  469SOL    HW1 2306   2.388   4.788   6.992
  469SOL    HW2 2307   2.543   4.834   6.968
  470SOL     OW 2308   3.574   0.948   2.381
  470SOL    HW1 2309   3.563   0.983   2.288
  470SOL    HW2 2310   3.521   1.004   2.444
  471SOL     OW 2311   2.501   1.649   4.895
  471SOL    HW1 2312   2.499   1.605   4.805
  471SOL    HW2 2313   2.588   1.630   4.940
  472SOL     OW 2314   4.051   4.345   5.287
  472SOL    HW1 2315   4.010   4.430   5.318
  472SOL    HW2 2316   4.129   4.365   5.227
  473SOL     OW 2317   1.096   4.252   3.142
  473SOL    HW1 2318   1.184   4.204   3.148
  473SOL    HW2 2319   1.024   4.186   3.120
  474SOL     OW 2320   4.472   5.052   4.558
  474SOL    HW1 2321   4.400   5.071   4.491
  474SOL    HW2 2322   4.561   5.050   4.512
  475SOL     OW 2323   0.700   6.623   6.024
  475SOL    HW1 2324   0.708   6.596   6.120
  475SOL    HW2 2325   0.754   6.560   5.968
  476SOL     OW 2326   6.921   5.090   2.357
  476SOL    HW1 2327   6.905   5.178   2.314
  476SOL    HW2 2328   7.001   5.046   2.316
  477SOL     OW 2329   1.374   5.540   4.543
  477SOL    HW1 2330   1.453   5.597   4.521
  477SOL    HW2 2331   1.395   5.485   4.624
  478SOL     OW 2332   1.735   5.339   3.402
  478SOL    HW1 2333   1.782   5.410   3.455
  478SOL    HW2 2334   1.655   5.306   3.453
  479SOL     OW 2335   3.176   1.334   1.231
  479SOL    HW1 2336   3.101   1.387   1.271
  479SOL    HW2 2337   3.201   1.373   1.142
  480SOL     OW 2338   1.254   6.676   2.507
  480SOL    HW1 2339   1.236   6.765   2.464
  480SOL    HW2 2340   1.347   6.647   2.486
  481SOL     OW 2341   2.939   6.588   1.560
  481SOL    HW1 2342   2.904   6.539   1.480
  481SOL    HW2 2343   3.012   6.534   1.602
  482SOL     OW 2344   5.672   4.835   1.243
  482SOL    HW1 2345   5.589   4.781   1.254
  482SOL    HW2 2346   5.716   4.847   1.332
  483SOL     OW 2347   5.842   1.690   1.122
  483SOL    HW1 2348   5.806   1.640   1.044
  483SOL    HW2 2349   5.936   1.719   1.104
  484SOL     OW 2350   6.993   2.229   5.372
  484SOL    HW1 2351   6.913   2.265   5.323
  484SOL    HW2 2352   6.993   2.129   5.369
  485SOL     OW 2353   3.752   5.442   1.944
  485SOL    HW1 2354   3.748   5.347   1.912
  485SOL    HW2 2355   3.749   5.443   2.044
  486SOL     OW 2356   0.152   0.599   6.800
  486SOL    HW1 2357   0.057   0.608   6.768
  486SOL    HW2 2358   0.212   0.581   6.722
  487SOL     OW 2359   6.634   2.852   6.657
  487SOL    HW1 2360   6.684   2.780   6.706
  487SOL    HW2 2361   6.539   2.823   6.643
  488SOL     OW 2362   0.390   2.979   2.454
  488SOL    HW1 2363   0.433   2.966   2.543
  488SOL    HW2 2364   0.455   2.953   2.382
  489SOL     OW 2365   3.085   6.298   5.773
  489SOL    HW1 2366   3.168   6.350   5.751
  489SOL    HW2 2367   3.022   6.301   5.695
  490SOL     OW 2368   5.114   6.267   4.313
  490SOL    HW1 2369   5.179   6.305   4.378
  490SOL    HW2 2370   5.021   6.288   4.342
  491SOL     OW 2371   0.329   2.462   3.416
  491SOL    HW1 2372   0.260   2.441   3.485
  491SOL    HW2 2373   0.305   2.548   3.370
  492SOL     OW 2374   1.717   0.837   4.858
  492SOL    HW1 2375   1.772   0.916   4.884
  492SOL    HW2 2376   1.630   0.839   4.906
  493SOL     OW 2377   6.267   4.068   3.754
  493SOL    HW1 2378   6.306   4.005   3.686
  493SOL    HW2 2379   6.282   4.031   3.845
  494SOL     OW 2380   6.568   1.110   0.083
  494SOL    HW1 2381   6.623   1.123   0.165
  494SOL    HW2 2382   6.471   1.111   0.107
  495SOL     OW 2383   4.405   4.812   1.236
  495SOL    HW1 2384   4.434   4.888   1.294
  495SOL    HW2 2385   4.416   4.726   1.286
  496SOL     OW 2386   6.303   3.390   3.719
  496SOL    HW1 2387   6.394   3.373   3.755
  496SOL    HW2 2388   6.263   3.470   3.764
  497SOL     OW 2389   4.380   0.475   4.053
  497SOL    HW1 2390   4.407   0.449   4.145
  497SOL    HW2 2391   4.440   0.432   3.986
  498SOL     OW 2392   1.080   3.117   2.936
  498SOL    HW1 2393   1.111   3.034   2.982
  498SOL    HW2 2394   0.990   3.100   2.894
  499SOL     OW 2395   3.443   1.662   5.269
  499SOL    HW1 2396   3.429   1.752   5.229
  499SOL    HW2 2397   3.392   1.655   5.354
  500SOL     OW 2398   1.368   3.841   2.924
  500SOL    HW1 2399   1.370   3.780   3.003
  500SOL    HW2 2400   1.305   3.806   2.855
  501SOL     OW 2401   0.505   4.797   6.357
  501SOL    HW1 2402   0.539   4.872   6.414
  501SOL    HW2 2403   0.510   4.823   6.261
  502SOL     OW 2404   2.967   5.226   6.250
  502SOL    HW1 2405   3.053   5.187   6.215
  502SOL    HW2 2406   2.979   5.256   6.344
  503SOL     OW 2407   5.483   5.378   4.950
  503SOL    HW1 2408   5.435   5.401   4.865
  503SOL    HW2 2409   5.574   5.419   4.948
  504SOL     OW 2410   2.001   5.763   4.236
  504SOL    HW1 2411   2.101   5.760   4.236
  504SOL    HW2 2412   1.970   5.846   4.189
  505SOL     OW 2413   4.109   0.116   5.030
  505SOL    HW1 2414   4.129   0.042   5.094
  505SOL    HW2 2415   4.156   0.099   4.944
  506SOL     OW 2416   2.480   3.700   0.028
  506SOL    HW1 2417   2.432   3.787   0.030
  506SOL    HW2 2418   2.579   3.716   0.021
  507SOL     OW 2419   3.350   1.518   4.329
  507SOL    HW1 2420   3.319   1.604   4.287
  507SOL    HW2 2421   3.335   1.443   4.265
  508SOL     OW 2422   6.212   4.531   3.785
  508SOL    HW1 2423   6.141   4.576   3.732
  508SOL    HW2 2424   6.299   4.577   3.771
  509SOL     OW 2425   4.566   2.288   2.052
  509SOL    HW1 2426   4.587   2.338   1.968
  509SOL    HW2 2427   4.496   2.338   2.103
  510SOL     OW 2428   0.267   4.194   4.379
  510SOL    HW1 2429   0.350   4.157   4.337
  510SOL    HW2 2430   0.208   4.231   4.308
  511SOL     OW 2431   0.538   6.395   1.264
  511SOL    HW1 2432   0.569   6.403   1.359
  511SOL    HW2 2433   0.470   6.466   1.245
  512SOL     OW 2434   0.198   3.686   6.752
  512SOL    HW1 2435   0.158   3.648   6.669
  512SOL    HW2 2436   0.254   3.617   6.797
  513SOL     OW 2437   0.039   5.566   4.542
  513SOL    HW1 2438   0.071   5.496   4.479
  513SOL    HW2 2439   6.979   5.538   4.582
  514SOL     OW 2440   6.085   1.736   3.826
  514SOL    HW1 2441   6.085   1.660   3.761
  514SOL    HW2 2442   6.173   1.784   3.822
  515SOL     OW 2443   1.905   6.200   0.278
  515SOL    HW1 2444   1.994   6.153   0.276
  515SOL    HW2 2445   1.902   6.262   0.356
  516SOL     OW 2446   1.529   5.334   2.422
  516SOL    HW1 2447   1.528   5.375   2.331
  516SOL    HW2 2448   1.583   5.249   2.419
  517SOL     OW 2449   4.854   0.838   0.085
  517SOL    HW1 2450   4.771   0.781   0.078
  517SOL    HW2 2451   4.896   0.848   7.022
  518SOL     OW 2452   2.535   2.012   0.380
  518SOL    HW1 2453   2.443   1.980   0.356
  518SOL    HW2 2454   2.529   2.076   0.457
  519SOL     OW 2455   0.524   6.643   0.876
  519SOL    HW1 2456   0.579   6.726   0.868
  519SOL    HW2 2457   0.572   6.567   0.833
  520SOL     OW 2458   6.276   4.230   4.926
  520SOL    HW1 2459   6.276   4.131   4.939
  520SOL    HW2 2460   6.259   4.252   4.830
  521SOL     OW 2461   6.836   0.818   1.103
  521SOL    HW1 2462   6.911   0.836   1.040
  521SOL    HW2 2463   6.833   0.721   1.126
  522SOL     OW 2464   3.820   3.719   5.032
  522SOL    HW1 2465   3.819   3.698   5.129
  522SOL    HW2 2466   3.882   3.795   5.014
  523SOL     OW 2467   6.855   6.272   4.965
  523SOL    HW1 2468   6.835   6.365   4.935
  523SOL    HW2 2469   6.771   6.226   4.992
  524SOL     OW 2470   3.747   1.314   5.438
  524SOL    HW1 2471   3.806   1.286   5.363
  524SOL    HW2 2472   3.796   1.379   5.496
  525SOL     OW 2473   2.344   3.074   6.819
  525SOL    HW1 2474   2.432   3.122   6.823
  525SOL    HW2 2475   2.317   3.063   6.724
  526SOL     OW 2476   4.083   6.098   4.905
  526SOL    HW1 2477   4.163   6.079   4.847
  526SOL    HW2 2478   4.005   6.044   4.874
  527SOL     OW 2479   1.129   2.047   6.429
  527SOL    HW1 2480   1.103   2.057   6.334
  527SOL    HW2 2481   1.065   1.986   6.476
  528SOL     OW 2482   2.414   0.739   5.490
  528SOL    HW1 2483   2.496   0.761   5.542
  528SOL    HW2 2484   2.337   0.728   5.553
  529SOL     OW 2485   0.047   4.436   4.449
  529SOL    HW1 2486   0.034   4.337   4.439
  529SOL    HW2 2487   6.988   4.483   4.425
  530SOL     OW 2488   1.473   2.987   5.235
  530SOL    HW1 2489   1.550   2.924   5.222
  530SOL    HW2 2490   1.410   2.949   5.302
  531SOL     OW 2491   6.993   0.380   0.418
  531SOL    HW1 2492   6.983   0.414   0.325
  531SOL    HW2 2493   6.931   0.430   0.479
  532SOL     OW 2494   1.904   0.565   5.457
  532SOL    HW1 2495   1.917   0.518   5.544
  532SOL    HW2 2496   1.809   0.555   5.427
  533SOL     OW 2497   5.285   6.783   4.361
  533SOL    HW1 2498   5.294   6.750   4.455
  533SOL    HW2 2499   5.217   6.726   4.312
  534SOL     OW 2500   3.954   5.971   1.875
  534SOL    HW1 2501   3.951   5.879   1.835
  534SOL    HW2 2502   3.897   5.973   1.957
  535SOL     OW 2503   6.892   4.051   3.278
  535SOL    HW1 2504   6.934   4.142   3.279
  535SOL    HW2 2505   6.794   4.060   3.262
  536SOL     OW 2506   1.320   5.212   0.845
  536SOL    HW1 2507   1.288   5.305   0.867
  536SOL    HW2 2508   1.341   5.163   0.929
  537SOL     OW 2509   2.489   0.471   2.566
  537SOL    HW1 2510   2.495   0.535   2.489
  537SOL    HW2 2511   2.551   0.500   2.639
  538SOL     OW 2512   1.467   4.538   3.484
  538SOL    HW1 2513   1.514   4.496   3.407
  538SOL    HW2 2514   1.456   4.636   3.467
  539SOL     OW 2515   1.325   4.680   1.295
  539SOL    HW1 2516   1.287   4.596   1.255
  539SOL    HW2 2517   1.266   4.757   1.272
  540SOL     OW 2518   1.298   2.576   1.663
  540SOL    HW1 2519   1.226   2.507   1.672
  540SOL    HW2 2520   1.325   2.584   1.567
  541SOL     OW 2521   3.991   5.415   4.791
  541SOL    HW1 2522   3.893   5.396   4.804
  541SOL    HW2 2523   4.010   5.427   4.694
  542SOL     OW 2524   6.010   5.904   6.887
  542SOL    HW1 2525   6.089   5.900   6.826
  542SOL    HW2 2526   5.927   5.918   6.834
  543SOL     OW 2527   0.007   6.295   0.194
  543SOL    HW1 2528   0.009   6.391   0.220
  543SOL    HW2 2529   0.099   6.257   0.199
  544SOL     OW 2530   1.313   5.461   6.994
  544SOL    HW1 2531   1.226   5.414   6.978
  544SOL    HW2 2532   1.362   5.470   6.908
  545SOL     OW 2533   3.403   1.952   3.758
  545SOL    HW1 2534   3.494   1.912   3.746
  545SOL    HW2 2535   3.397   2.038   3.707
  546SOL     OW 2536   1.394   3.501   0.195
  546SOL    HW1 2537   1.373   3.462   0.105
  546SOL    HW2 2538   1.489   3.532   0.196
  547SOL     OW 2539   2.897   2.301   0.303
  547SOL    HW1 2540   2.838   2.286   0.382
  547SOL    HW2 2541   2.920   2.398   0.296
  548SOL     OW 2542   3.321   3.238   4.936
  548SOL    HW1 2543   3.231   3.259   4.975
  548SOL    HW2 2544   3.310   3.176   4.859
  549SOL     OW 2545   6.685   3.585   1.686
  549SOL    HW1 2546   6.633   3.585   1.601
  549SOL    HW2 2547   6.760   3.518   1.679
  550SOL     OW 2548   6.782   3.743   1.374
  550SOL    HW1 2549   6.809   3.793   1.456
  550SOL    HW2 2550   6.705   3.682   1.395
  551SOL     OW 2551   6.888   1.923   6.558
  551SOL    HW1 2552   6.880   1.995   6.626
  551SOL    HW2 2553   6.954   1.854   6.590
  552SOL     OW 2554   4.739   5.606   0.797
  552SOL    HW1 2555   4.684   5.630   0.717
  552SOL    HW2 2556   4.812   5.543   0.768
  553SOL     OW 2557   1.333   1.940   1.474
  553SOL    HW1 2558   1.401   1.918   1.544
  553SOL    HW2 2559   1.318   2.039   1.473
  554SOL     OW 2560   5.227   5.771   5.016
  554SOL    HW1 2561   5.172   5.688   5.006
  554SOL    HW2 2562   5.306   5.752   5.074
  555SOL     OW 2563   1.928   4.228   4.553
  555SOL    HW1 2564   2.022   4.198   4.568
  555SOL    HW2 2565   1.921   4.327   4.570
  556SOL     OW 2566   5.636   3.171   3.088
  556SOL    HW1 2567   5.610   3.179   2.992
  556SOL    HW2 2568   5.668   3.260   3.121
  557SOL     OW 2569   6.997   5.084   6.227
  557SOL    HW1 2570   6.980   5.183   6.231
  557SOL    HW2 2571   6.959   5.040   6.308
  558SOL     OW 2572   4.630   3.838   5.549
  558SOL    HW1 2573   4.681   3.808   5.629
  558SOL    HW2 2574   4.545   3.882   5.578
  559SOL     OW 2575   5.795   6.031   6.271
  559SOL    HW1 2576   5.861   5.971   6.225
  559SOL    HW2 2577   5.716   6.046   6.212
  560SOL     OW 2578   4.133   6.579   6.928
  560SOL    HW1 2579   4.185   6.662   6.947
  560SOL    HW2 2580   4.067   6.597   6.855
  561SOL     OW 2581   5.311   6.314   1.148
  561SOL    HW1 2582   5.281   6.267   1.231
  561SOL    HW2 2583   5.289   6.411   1.154
  562SOL     OW 2584   6.606   0.729   6.504
  562SOL    HW1 2585   6.528   0.670   6.526
  562SOL    HW2 2586   6.573   0.819   6.476
  563SOL     OW 2587   3.273   0.196   4.908
  563SOL    HW1 2588   3.222   0.225   4.989
  563SOL    HW2 2589   3.238   0.244   4.828
  564SOL     OW 2590   0.037   1.755   6.699
  564SOL    HW1 2591   7.022   1.771   6.789
  564SOL    HW2 2592   0.137   1.759   6.707
  565SOL     OW 2593   4.586   4.518   5.225
  565SOL    HW1 2594   4.585   4.486   5.131
  565SOL    HW2 2595   4.611   4.443   5.286
  566SOL     OW 2596   5.015   4.956   2.141
  566SOL    HW1 2597   4.961   4.975   2.223
  566SOL    HW2 2598   5.111   4.941   2.167
  567SOL     OW 2599   4.073   3.869   4.360
  567SOL    HW1 2600   4.072   3.820   4.273
  567SOL    HW2 2601   4.146   3.938   4.358
  568SOL     OW 2602   2.111   1.247   5.891
  568SOL    HW1 2603   2.139   1.151   5.883
  568SOL    HW2 2604   2.111   1.274   5.987
  569SOL     OW 2605   2.367   3.498   0.164
  569SOL    HW1 2606   2.411   3.572   0.113
  569SOL    HW2 2607   2.432   3.459   0.228
  570SOL     OW 2608   0.400   6.194   1.107
  570SOL    HW1 2609   0.462   6.264   1.142
  570SOL    HW2 2610   0.451   6.109   1.092
  571SOL     OW 2611   4.213   5.471   2.492
  571SOL    HW1 2612   4.220   5.376   2.522
  571SOL    HW2 2613   4.193   5.473   2.394
  572SOL     OW 2614   1.932   4.034   4.817
  572SOL    HW1 2615   1.843   3.988   4.814
  572SOL    HW2 2616   1.921   4.128   4.784
  573SOL     OW 2617   3.814   2.587   6.368
  573SOL    HW1 2618   3.902   2.540   6.359
  573SOL    HW2 2619   3.820   2.656   6.440
  574SOL     OW 2620   2.759   1.424   4.519
  574SOL    HW1 2621   2.787   1.519   4.521
  574SOL    HW2 2622   2.797   1.379   4.438
  575SOL     OW 2623   5.092   2.186   6.602
  575SOL    HW1 2624   5.026   2.240   6.551
  575SOL    HW2 2625   5.105   2.226   6.693
  576SOL     OW 2626   0.765   2.125   2.525
  576SOL    HW1 2627   0.742   2.032   2.553
  576SOL    HW2 2628   0.697   2.189   2.562
  577SOL     OW 2629   3.156   2.186   4.047
  577SOL    HW1 2630   3.203   2.175   4.135
  577SOL    HW2 2631   3.223   2.177   3.973
  578SOL     OW 2632   6.997   3.180   4.811
  578SOL    HW1 2633   0.007   3.266   4.773
  578SOL    HW2 2634   0.041   3.135   4.864
  579SOL     OW 2635   3.472   3.165   0.660
  579SOL    HW1 2636   3.547   3.230   0.673
  579SOL    HW2 2637   3.505   3.086   0.608
  580SOL     OW 2638   0.316   6.111   6.748
  580SOL    HW1 2639   0.264   6.046   6.803
  580SOL    HW2 2640   0.329   6.196   6.799
  581SOL     OW 2641   3.453   3.445   2.296
  581SOL    HW1 2642   3.425   3.389   2.218
  581SOL    HW2 2643   3.474   3.385   2.374
  582SOL     OW 2644   6.563   4.372   2.130
  582SOL    HW1 2645   6.532   4.287   2.173
  582SOL    HW2 2646   6.491   4.441   2.138
  583SOL     OW 2647   2.074   5.578   6.595
  583SOL    HW1 2648   2.128   5.526   6.529
  583SOL    HW2 2649   1.980   5.587   6.562
  584SOL     OW 2650   0.761   5.027   4.855
  584SOL    HW1 2651   0.860   5.041   4.853
  584SOL    HW2 2652   0.735   4.963   4.783
  585SOL     OW 2653   6.352   1.591   5.854
  585SOL    HW1 2654   6.292   1.621   5.780
  585SOL    HW2 2655   6.445   1.623   5.835
  586SOL     OW 2656   2.493   6.105   0.502
  586SOL    HW1 2657   2.516   6.192   0.547
  586SOL    HW2 2658   2.577   6.062   0.470
  587SOL     OW 2659   1.208   3.505   6.134
  587SOL    HW1 2660   1.152   3.585   6.112
  587SOL    HW2 2661   1.274   3.490   6.060
  588SOL     OW 2662   2.305   0.172   1.618
  588SOL    HW1 2663   2.308   0.133   1.526
  588SOL    HW2 2664   2.337   0.104   1.684
  589SOL     OW 2665   4.472   4.920   2.088
  589SOL    HW1 2666   4.497   4.894   2.182
  589SOL    HW2 2667   4.494   5.016   2.074
  590SOL     OW 2668   6.379   2.369   1.823
  590SOL    HW1 2669   6.360   2.452   1.770
  590SOL    HW2 2670   6.471   2.337   1.804
  591SOL     OW 2671   3.154   6.666   2.499
  591SOL    HW1 2672   3.249   6.658   2.469
  591SOL    HW2 2673   3.128   6.584   2.550
  592SOL     OW 2674   5.124   0.671   6.782
  592SOL    HW1 2675   5.161   0.646   6.871
  592SOL    HW2 2676   5.110   0.588   6.727
  593SOL     OW 2677   6.236   1.204   4.149
  593SOL    HW1 2678   6.209   1.185   4.244
  593SOL    HW2 2679   6.255   1.118   4.102
  594SOL     OW 2680   5.151   3.051   1.836
  594SOL    HW1 2681   5.058   3.023   1.861
  594SOL    HW2 2682   5.152   3.084   1.742
  595SOL     OW 2683   4.534   0.152   3.850
  595SOL    HW1 2684   4.576   0.230   3.895
  595SOL    HW2 2685   4.511   0.082   3.918
  596SOL     OW 2686   0.782   4.095   2.459
  596SOL    HW1 2687   0.861   4.042   2.430
  596SOL    HW2 2688   0.810   4.187   2.483
  597SOL     OW 2689   4.083   2.194   6.060
  597SOL    HW1 2690   4.022   2.184   6.139
  597SOL    HW2 2691   4.066   2.281   6.015
  598SOL     OW 2692   3.013   4.124   1.341
  598SOL    HW1 2693   3.081   4.053   1.362
  598SOL    HW2 2694   3.048   4.182   1.267
  599SOL     OW 2695   0.145   6.637   3.211
  599SOL    HW1 2696   0.142   6.561   3.275
  599SOL    HW2 2697   0.052   6.668   3.191
  600SOL     OW 2698   2.292   0.817   1.338
  600SOL    HW1 2699   2.272   0.729   1.380
  600SOL    HW2 2700   2.343   0.803   1.253
  601SOL     OW 2701   2.559   4.879   3.441
  601SOL    HW1 2702   2.614   4.963   3.444
  601SOL    HW2 2703   2.521   4.867   3.349
  602SOL     OW 2704   0.340   0.634   1.718
  602SOL    HW1 2705   0.301   0.706   1.776
  602SOL    HW2 2706   0.412   0.586   1.769
  603SOL     OW 2707   4.152   2.228   3.227
  603SOL    HW1 2708   4.066   2.205   3.182
  603SOL    HW2 2709   4.210   2.280   3.164
  604SOL     OW 2710   0.883   4.170   5.658
  604SOL    HW1 2711   0.793   4.136   5.633
  604SOL    HW2 2712   0.953   4.113   5.615
  605SOL     OW 2713   6.145   6.871   4.910
  605SOL    HW1 2714   6.139   6.785   4.860
  605SOL    HW2 2715   6.112   6.858   5.004
  606SOL     OW 2716   3.781   6.938   2.876
  606SOL    HW1 2717   3.878   6.926   2.858
  606SOL    HW2 2718   3.735   6.968   2.793
  607SOL     OW 2719   4.222   0.975   3.894
  607SOL    HW1 2720   4.188   0.904   3.955
  607SOL    HW2 2721   4.311   1.006   3.926
  608SOL     OW 2722   4.757   1.835   1.802
  608SOL    HW1 2723   4.815   1.897   1.854
  608SOL    HW2 2724   4.783   1.740   1.823
  609SOL     OW 2725   2.903   3.409   4.438
  609SOL    HW1 2726   2.922   3.507   4.442
  609SOL    HW2 2727   2.890   3.374   4.531
  610SOL     OW 2728   5.784   1.434   4.626
  610SOL    HW1 2729   5.735   1.354   4.661
  610SOL    HW2 2730   5.882   1.414   4.623
  611SOL     OW 2731   6.028   0.001   0.124
  611SOL    HW1 2732   6.112   0.041   0.089
  611SOL    HW2 2733   5.996   6.955   0.063
  612SOL     OW 2734   2.955   5.207   5.623
  612SOL    HW1 2735   2.976   5.176   5.530
  612SOL    HW2 2736   3.041   5.225   5.672
  613SOL     OW 2737   3.237   1.964   6.751
  613SOL    HW1 2738   3.261   1.942   6.845
  613SOL    HW2 2739   3.297   1.913   6.689
  614SOL     OW 2740   5.573   3.629   0.923
  614SOL    HW1 2741   5.500   3.672   0.870
  614SOL    HW2 2742   5.578   3.670   1.014
  615SOL     OW 2743   5.048   6.934   1.329
  615SOL    HW1 2744   5.098   6.849   1.345
  615SOL    HW2 2745   4.967   6.915   1.274
  616SOL     OW 2746   5.553   0.626   4.977
  616SOL    HW1 2747   5.600   0.538   4.969
  616SOL    HW2 2748   5.454   0.611   4.974
  617SOL     OW 2749   6.978   5.863   5.571
  617SOL    HW1 2750   6.979   5.824   5.478
  617SOL    HW2 2751   6.894   5.836   5.617
  618SOL     OW 2752   5.976   4.936   0.069
  618SOL    HW1 2753   6.070   4.928   0.035
  618SOL    HW2 2754   5.978   4.949   0.169
  619SOL     OW 2755   2.867   6.931   5.782
  619SOL    HW1 2756   2.935   6.859   5.777
  619SOL    HW2 2757   2.777   6.894   5.756
  620SOL     OW 2758   5.061   1.789   2.580
  620SOL    HW1 2759   5.018   1.704   2.610
  620SOL    HW2 2760   5.008   1.828   2.505
  621SOL     OW 2761   2.775   0.419   6.802
  621SOL    HW1 2762   2.857   0.366   6.782
  621SOL    HW2 2763   2.700   0.357   6.823
  622SOL     OW 2764   0.455   2.843   5.486
  622SOL    HW1 2765   0.453   2.835   5.586
  622SOL    HW2 2766   0.480   2.754   5.447
  623SOL     OW 2767   6.508   0.063   3.555
  623SOL    HW1 2768   6.565   0.120   3.613
  623SOL    HW2 2769   6.427   0.115   3.526
  624SOL     OW 2770   6.963   0.817   6.037
  624SOL    HW1 2771   7.009   0.776   6.116
  624SOL    HW2 2772   6.982   0.915   6.035
  625SOL     OW 2773   3.586   1.197   1.193
  625SOL    HW1 2774   3.563   1.212   1.097
  625SOL    HW2 2775   3.578   1.100   1.214
  626SOL     OW 2776   6.853   5.849   3.500
  626SOL    HW1 2777   6.853   5.753   3.469
  626SOL    HW2 2778   6.795   5.858   3.581
  627SOL     OW 2779   6.411   5.953   0.602
  627SOL    HW1 2780   6.347   5.895   0.653
  627SOL    HW2 2781   6.502   5.911   0.605
  628SOL     OW 2782   3.757   4.837   6.165
  628SOL    HW1 2783   3.813   4.782   6.103
  628SOL    HW2 2784   3.816   4.897   6.218
  629SOL     OW 2785   1.045   6.352   0.016
  629SOL    HW1 2786   1.108   6.304   0.077
  629SOL    HW2 2787   1.079   6.445   7.026
  630SOL     OW 2788   6.397   1.500   1.351
  630SOL    HW1 2789   6.410   1.449   1.265
  630SOL    HW2 2790   6.485   1.508   1.397
  631SOL     OW 2791   1.649   2.502   3.566
  631SOL    HW1 2792   1.724   2.506   3.500
  631SOL    HW2 2793   1.629   2.407   3.588
  632SOL     OW 2794   3.206   4.018   0.654
  632SOL    HW1 2795   3.120   4.012   0.605
  632SOL    HW2 2796   3.216   3.939   0.714
  633SOL     OW 2797   1.461   5.494   0.532
  633SOL    HW1 2798   1.479   5.400   0.561
  633SOL    HW2 2799   1.426   5.494   0.438
  634SOL     OW 2800   2.979   3.207   4.700
  634SOL    HW1 2801   2.968   3.256   4.786
  634SOL    HW2 2802   2.974   3.109   4.716
  635SOL     OW 2803   5.811   0.061   6.402
  635SOL    HW1 2804   5.762   0.148   6.410
  635SOL    HW2 2805   5.906   0.078   6.376
  636SOL     OW 2806   2.760   0.566   5.402
  636SOL    HW1 2807   2.848   0.604   5.431
  636SOL    HW2 2808   2.711   0.531   5.482
  637SOL     OW 2809   0.220   1.286   2.990
  637SOL    HW1 2810   0.297   1.349   2.983
  637SOL    HW2 2811   0.144   1.319   2.933
  638SOL     OW 2812   6.652   3.011   5.219
  638SOL    HW1 2813   6.712   2.996   5.140
  638SOL    HW2 2814   6.598   2.928   5.235
  639SOL     OW 2815   5.865   4.278   2.144
  639SOL    HW1 2816   5.926   4.206   2.177
  639SOL    HW2 2817   5.803   4.241   2.076
  640SOL     OW 2818   0.043   3.215   2.635
  640SOL    HW1 2819   0.023   3.122   2.665
  640SOL    HW2 2820   0.102   3.211   2.554
  641SOL     OW 2821   2.566   5.263   4.684
  641SOL    HW1 2822   2.515   5.323   4.622
  641SOL    HW2 2823   2.567   5.170   4.647
  642SOL     OW 2824   0.134   5.072   4.886
  642SOL    HW1 2825   0.208   5.113   4.940
  642SOL    HW2 2826   0.103   5.138   4.818
  643SOL     OW 2827   4.014   5.051   0.470
  643SOL    HW1 2828   4.067   5.000   0.402
  643SOL    HW2 2829   4.076   5.099   0.531
  644SOL     OW 2830   0.003   6.395   5.571
  644SOL    HW1 2831   0.033   6.455   5.497
  644SOL    HW2 2832   6.941   6.428   5.605
  645SOL     OW 2833   3.920   5.704   2.390
  645SOL    HW1 2834   3.907   5.635   2.318
  645SOL    HW2 2835   3.902   5.795   2.353
  646SOL     OW 2836   3.654   2.136   4.555
  646SOL    HW1 2837   3.564   2.108   4.587
  646SOL    HW2 2838   3.721   2.126   4.628
  647SOL     OW 2839   3.685   2.679   6.157
  647SOL    HW1 2840   3.733   2.630   6.230
  647SOL    HW2 2841   3.708   2.776   6.162
  648SOL     OW 2842   6.422   1.321   3.595
  648SOL    HW1 2843   6.509   1.275   3.580
  648SOL    HW2 2844   6.351   1.252   3.613
  649SOL     OW 2845   3.009   5.421   0.218
  649SOL    HW1 2846   2.976   5.385   0.131
  649SOL    HW2 2847   3.104   5.391   0.232
  650SOL     OW 2848   0.200   3.402   0.995
  650SOL    HW1 2849   0.231   3.495   0.975
  650SOL    HW2 2850   0.229   3.375   1.087
  651SOL     OW 2851   0.781   0.441   3.657
  651SOL    HW1 2852   0.841   0.363   3.637
  651SOL    HW2 2853   0.749   0.435   3.752
  652SOL     OW 2854   4.048   5.682   0.676
  652SOL    HW1 2855   4.026   5.653   0.770
  652SOL    HW2 2856   4.145   5.667   0.659
  653SOL     OW 2857   1.524   6.346   2.327
  653SOL    HW1 2858   1.551   6.338   2.231
  653SOL    HW2 2859   1.565   6.272   2.380
  654SOL     OW 2860   0.930   0.327   5.872
  654SOL    HW1 2861   0.881   0.241   5.889
  654SOL    HW2 2862   0.893   0.399   5.930
  655SOL     OW 2863   0.678   3.818   1.414
  655SOL    HW1 2864   0.722   3.752   1.475
  655SOL    HW2 2865   0.619   3.768   1.350
  656SOL     OW 2866   2.787   6.015   6.658
  656SOL    HW1 2867   2.806   5.963   6.741
  656SOL    HW2 2868   2.706   5.976   6.612
  657SOL     OW 2869   3.795   3.602   3.323
  657SOL    HW1 2870   3.894   3.594   3.334
  657SOL    HW2 2871   3.754   3.630   3.410
  658SOL     OW 2872   0.990   1.618   4.116
  658SOL    HW1 2873   1.035   1.549   4.060
  658SOL    HW2 2874   1.011   1.709   4.080
  659SOL     OW 2875   1.783   5.744   6.596
  659SOL    HW1 2876   1.750   5.654   6.624
  659SOL    HW2 2877   1.793   5.746   6.496
  660SOL     OW 2878   5.241   4.772   3.018
  660SOL    HW1 2879   5.271   4.686   2.977
  660SOL    HW2 2880   5.319   4.833   3.030
  661SOL     OW 2881   4.366   5.227   3.969
  661SOL    HW1 2882   4.331   5.162   3.901
  661SOL    HW2 2883   4.419   5.298   3.923
  662SOL     OW 2884   4.809   3.512   0.314
  662SOL    HW1 2885   4.885   3.490   0.253
  662SOL    HW2 2886   4.815   3.455   0.396
  663SOL     OW 2887   6.958   4.162   0.321
  663SOL    HW1 2888   6.961   4.258   0.349
  663SOL    HW2 2889   0.017   4.138   0.276
  664SOL     OW 2890   1.527   0.002   6.262
  664SOL    HW1 2891   1.597   7.006   6.330
  664SOL    HW2 2892   1.570   0.016   6.173
  665SOL     OW 2893   3.296   5.004   2.776
  665SOL    HW1 2894   3.311   5.064   2.698
  665SOL    HW2 2895   3.199   4.980   2.783
  666SOL     OW 2896   3.300   0.917   6.652
  666SOL    HW1 2897   3.306   0.899   6.750
  666SOL    HW2 2898   3.353   0.848   6.602
  667SOL     OW 2899   1.604   3.415   2.242
  667SOL    HW1 2900   1.591   3.389   2.147
  667SOL    HW2 2901   1.689   3.468   2.250
  668SOL     OW 2902   5.117   0.275   0.660
  668SOL    HW1 2903   5.117   0.280   0.560
  668SOL    HW2 2904   5.108   0.179   0.688
  669SOL     OW 2905   0.831   5.883   2.881
  669SOL    HW1 2906   0.815   5.809   2.945
  669SOL    HW2 2907   0.903   5.857   2.817
  670SOL     OW 2908   3.653   3.576   3.100
  670SOL    HW1 2909   3.706   3.628   3.033
  670SOL    HW2 2910   3.697   3.582   3.189
  671SOL     OW 2911   1.889   0.084   6.510
  671SOL    HW1 2912   1.880   0.182   6.528
  671SOL    HW2 2913   1.948   0.042   6.579
  672SOL     OW 2914   0.840   2.110   2.962
  672SOL    HW1 2915   0.906   2.054   2.912
  672SOL    HW2 2916   0.758   2.124   2.906
  673SOL     OW 2917   4.919   0.419   0.017
  673SOL    HW1 2918   4.953   0.455   0.104
  673SOL    HW2 2919   4.967   0.334   7.022
  674SOL     OW 2920   6.968   2.244   4.677
  674SOL    HW1 2921   0.037   2.215   4.666
  674SOL    HW2 2922   6.936   2.287   4.592
  675SOL     OW 2923   6.449   6.746   3.964
  675SOL    HW1 2924   6.518   6.789   3.906
  675SOL    HW2 2925   6.460   6.778   4.058
  676SOL     OW 2926   2.562   5.247   4.289
  676SOL    HW1 2927   2.527   5.157   4.316
  676SOL    HW2 2928   2.528   5.316   4.352
  677SOL     OW 2929   4.898   6.859   1.109
  677SOL    HW1 2930   4.867   6.774   1.066
  677SOL    HW2 2931   4.895   6.933   1.042
  678SOL     OW 2932   2.556   1.143   5.840
  678SOL    HW1 2933   2.484   1.074   5.852
  678SOL    HW2 2934   2.518   1.234   5.855
  679SOL     OW 2935   6.374   0.484   2.311
  679SOL    HW1 2936   6.428   0.557   2.352
  679SOL    HW2 2937   6.404   0.396   2.347
  680SOL     OW 2938   5.787   4.311   4.420
  680SOL    HW1 2939   5.877   4.323   4.462
  680SOL    HW2 2940   5.753   4.399   4.387
  681SOL     OW 2941   1.412   6.768   2.222
  681SOL    HW1 2942   1.499   6.817   2.209
  681SOL    HW2 2943   1.424   6.696   2.291
  682SOL     OW 2944   0.226   0.182   6.258
  682SOL    HW1 2945   0.139   0.141   6.285
  682SOL    HW2 2946   0.210   0.274   6.224
  683SOL     OW 2947   5.058   1.846   0.716
  683SOL    HW1 2948   5.038   1.944   0.708
  683SOL    HW2 2949   5.091   1.811   0.628
  684SOL     OW 2950   0.523   5.907   6.083
  684SOL    HW1 2951   0.521   6.007   6.077
  684SOL    HW2 2952   0.602   5.879   6.138
  685SOL     OW 2953   6.479   0.955   6.469
  685SOL    HW1 2954   6.385   0.972   6.443
  685SOL    HW2 2955   6.511   1.028   6.530
  686SOL     OW 2956   5.753   4.751   3.185
  686SOL    HW1 2957   5.791   4.840   3.212
  686SOL    HW2 2958   5.793   4.724   3.097
  687SOL     OW 2959   6.036   2.474   5.662
  687SOL    HW1 2960   5.948   2.519   5.679
  687SOL    HW2 2961   6.092   2.531   5.603
  688SOL     OW 2962   0.016   3.383   5.053
  688SOL    HW1 2963   0.010   3.482   5.038
  688SOL    HW2 2964   0.049   3.338   4.970
  689SOL     OW 2965   6.089   3.974   4.722
  689SOL    HW1 2966   6.010   4.019   4.765
  689SOL    HW2 2967   6.155   3.950   4.793
  690SOL     OW 2968   0.155   3.409   4.095
  690SOL    HW1 2969   0.195   3.332   4.044
  690SOL    HW2 2970   0.062   3.424   4.064
  691SOL     OW 2971   0.068   3.082   6.711
  691SOL    HW1 2972   0.138   3.137   6.755
  691SOL    HW2 2973   0.093   3.065   6.616
  692SOL     OW 2974   2.519   0.146   3.104
  692SOL    HW1 2975   2.603   0.093   3.115
  692SOL    HW2 2976   2.465   0.140   3.188
  693SOL     OW 2977   6.367   1.633   2.247
  693SOL    HW1 2978   6.355   1.590   2.158
  693SOL    HW2 2979   6.281   1.675   2.277
  694SOL     OW 2980   1.558   0.329   2.200
  694SOL    HW1 2981   1.581   0.247   2.253
  694SOL    HW2 2982   1.636   0.355   2.143
  695SOL     OW 2983   4.539   5.636   6.140
  695SOL    HW1 2984   4.525   5.721   6.192
  695SOL    HW2 2985   4.528   5.654   6.043
  696SOL     OW 2986   5.196   6.404   2.577
  696SOL    HW1 2987   5.113   6.349   2.588
  696SOL    HW2 2988   5.215   6.453   2.662
  697SOL     OW 2989   1.548   3.836   3.730
  697SOL    HW1 2990   1.579   3.923   3.769
  697SOL    HW2 2991   1.459   3.812   3.768
  698SOL     OW 2992   5.068   5.955   3.995
  698SOL    HW1 2993   5.006   5.935   4.071
  698SOL    HW2 2994   5.015   5.969   3.911
  699SOL     OW 2995   0.681   4.131   6.961
  699SOL    HW1 2996   0.688   4.123   6.862
  699SOL    HW2 2997   0.744   4.067   7.005
  700SOL     OW 2998   2.037   1.533   4.278
  700SOL    HW1 2999   2.059   1.574   4.189
  700SOL    HW2 3000   2.076   1.589   4.351
  701SOL     OW 3001   0.913   4.713   5.977
  701SOL    HW1 3002   0.848   4.784   6.002
  701SOL    HW2 3003   1.006   4.743   6.001
  702SOL     OW 3004   5.348   6.053   4.900
  702SOL    HW1 3005   5.386   6.038   4.991
  702SOL    HW2 3006   5.276   5.985   4.883
  703SOL     OW 3007   4.036   3.803   0.010
  703SOL    HW1 3008   4.113   3.798   6.972
  703SOL    HW2 3009   4.006   3.898   0.018
  704SOL     OW 3010   2.618   0.475   1.579
  704SOL    HW1 3011   2.621   0.575   1.580
  704SOL    HW2 3012   2.524   0.444   1.590
  705SOL     OW 3013   6.802   2.129   3.822
  705SOL    HW1 3014   6.719   2.074   3.817
  705SOL    HW2 3015   6.880   2.075   3.792
  706SOL     OW 3016   5.001   2.544   3.896
  706SOL    HW1 3017   4.910   2.586   3.898
  706SOL    HW2 3018   5.058   2.585   3.967
  707SOL     OW 3019   4.831   1.900   2.476
  707SOL    HW1 3020   4.836   1.916   2.378
  707SOL    HW2 3021   4.758   1.833   2.496
  708SOL     OW 3022   4.320   0.386   2.244
  708SOL    HW1 3023   4.386   0.312   2.265
  708SOL    HW2 3024   4.318   0.450   2.320
  709SOL     OW 3025   0.725   5.086   0.273
  709SOL    HW1 3026   0.758   5.179   0.256
  709SOL    HW2 3027   0.792   5.037   0.329
  710SOL     OW 3028   2.920   3.517   2.468
  710SOL    HW1 3029   2.995   3.456   2.495
  710SOL    HW2 3030   2.959   3.601   2.430
  711SOL     OW 3031   1.215   1.480   4.697
  711SOL    HW1 3032   1.276   1.402   4.686
  711SOL    HW2 3033   1.122   1.447   4.715
  712SOL     OW 3034   1.091   3.752   2.154
  712SOL    HW1 3035   1.143   3.816   2.097
  712SOL    HW2 3036   1.063   3.673   2.099
  713SOL     OW 3037   3.611   3.502   3.809
  713SOL    HW1 3038   3.596   3.583   3.866
  713SOL    HW2 3039   3.530   3.487   3.751
  714SOL     OW 3040   5.082   5.140   5.458
  714SOL    HW1 3041   5.129   5.071   5.512
  714SOL    HW2 3042   5.031   5.201   5.518
  715SOL     OW 3043   4.827   0.761   6.640
  715SOL    HW1 3044   4.809   0.854   6.670
  715SOL    HW2 3045   4.786   0.696   6.705
  716SOL     OW 3046   6.844   5.230   1.910
  716SOL    HW1 3047   6.778   5.305   1.908
  716SOL    HW2 3048   6.801   5.150   1.953
  717SOL     OW 3049   6.042   3.068   0.061
  717SOL    HW1 3050   6.086   3.121   0.134
  717SOL    HW2 3051   6.032   3.126   7.006
  718SOL     OW 3052   2.073   3.413   6.853
  718SOL    HW1 3053   2.030   3.493   6.895
  718SOL    HW2 3054   2.148   3.381   6.910
  719SOL     OW 3055   5.051   5.284   0.489
  719SOL    HW1 3056   5.111   5.209   0.517
  719SOL    HW2 3057   4.959   5.248   0.472
  720SOL     OW 3058   2.827   0.798   6.174
  720SOL    HW1 3059   2.924   0.779   6.161
  720SOL    HW2 3060   2.815   0.887   6.217
  721SOL     OW 3061   1.501   6.361   5.498
  721SOL    HW1 3062   1.532   6.402   5.413
  721SOL    HW2 3063   1.408   6.391   5.519
  722SOL     OW 3064   4.514   6.574   5.592
  722SOL    HW1 3065   4.558   6.524   5.518
  722SOL    HW2 3066   4.425   6.533   5.612
  723SOL     OW 3067   1.864   3.157   2.059
  723SOL    HW1 3068   1.792   3.208   2.012
  723SOL    HW2 3069   1.952   3.201   2.040
  724SOL     OW 3070   6.503   0.544   4.541
  724SOL    HW1 3071   6.407   0.536   4.515
  724SOL    HW2 3072   6.511   0.600   4.623
  725SOL     OW 3073   2.711   4.809   1.238
  725SOL    HW1 3074   2.734   4.716   1.209
  725SOL    HW2 3075   2.711   4.814   1.338
  726SOL     OW 3076   4.465   6.791   5.963
  726SOL    HW1 3077   4.395   6.814   6.031
  726SOL    HW2 3078   4.461   6.859   5.889
  727SOL     OW 3079   2.299   4.326   3.808
  727SOL    HW1 3080   2.265   4.419   3.819
  727SOL    HW2 3081   2.290   4.298   3.713
  728SOL     OW 3082   6.997   3.068   5.220
  728SOL    HW1 3083   6.920   3.015   5.184
  728SOL    HW2 3084   6.996   3.064   5.320
  729SOL     OW 3085   3.420   0.645   0.648
  729SOL    HW1 3086   3.394   0.571   0.710
  729SOL    HW2 3087   3.481   0.610   0.577
  730SOL     OW 3088   5.588   1.364   5.089
  730SOL    HW1 3089   5.589   1.401   5.182
  730SOL    HW2 3090   5.527   1.285   5.085
  731SOL     OW 3091   6.479   3.123   4.230
  731SOL    HW1 3092   6.508   3.027   4.228
  731SOL    HW2 3093   6.396   3.134   4.176
  732SOL     OW 3094   6.786   2.984   3.038
  732SOL    HW1 3095   6.787   3.066   3.096
  732SOL    HW2 3096   6.729   2.914   3.081
  733SOL     OW 3097   4.566   4.758   4.390
  733SOL    HW1 3098   4.633   4.792   4.456
  733SOL    HW2 3099   4.574   4.809   4.305
  734SOL     OW 3100   0.698   4.555   0.176
  734SOL    HW1 3101   0.638   4.533   0.253
  734SOL    HW2 3102   0.700   4.654   0.162
  735SOL     OW 3103   2.363   4.763   6.650
  735SOL    HW1 3104   2.345   4.831   6.579
  735SOL    HW2 3105   2.446   4.789   6.700
  736SOL     OW 3106   5.892   0.679   3.008
  736SOL    HW1 3107   5.833   0.606   2.973
  736SOL    HW2 3108   5.902   0.750   2.939
  737SOL     OW 3109   5.687   4.066   0.472
  737SOL    HW1 3110   5.716   4.130   0.401
  737SOL    HW2 3111   5.650   3.983   0.431
  738SOL     OW 3112   0.551   4.673   3.002
  738SOL    HW1 3113   0.523   4.769   3.005
  738SOL    HW2 3114   0.637   4.665   2.953
  739SOL     OW 3115   4.329   6.190   6.594
  739SOL    HW1 3116   4.360   6.181   6.689
  739SOL    HW2 3117   4.409   6.206   6.535
  740SOL     OW 3118   5.614   0.334   0.690
  740SOL    HW1 3119   5.534   0.333   0.629
  740SOL    HW2 3120   5.585   0.362   0.782
  741SOL     OW 3121   2.321   0.349   3.937
  741SOL    HW1 3122   2.361   0.288   4.005
  741SOL    HW2 3123   2.336   0.312   3.845
  742SOL     OW 3124   1.606   0.084   2.360
  742SOL    HW1 3125   1.552   0.038   2.431
  742SOL    HW2 3126   1.628   0.019   2.287
  743SOL     OW 3127   1.937   3.252   4.608
  743SOL    HW1 3128   1.849   3.205   4.618
  743SOL    HW2 3129   1.932   3.342   4.651
  744SOL     OW 3130   0.224   5.688   0.923
  744SOL    HW1 3131   0.136   5.731   0.941
  744SOL    HW2 3132   0.282   5.751   0.871
  745SOL     OW 3133   1.913   5.781   3.125
  745SOL    HW1 3134   1.957   5.693   3.142
  745SOL    HW2 3135   1.949   5.820   3.040
  746SOL     OW 3136   2.637   0.588   4.296
  746SOL    HW1 3137   2.643   0.561   4.392
  746SOL    HW2 3138   2.683   0.676   4.283
  747SOL     OW 3139   6.084   4.333   1.396
  747SOL    HW1 3140   6.089   4.344   1.297
  747SOL    HW2 3141   6.176   4.346   1.435
  748SOL     OW 3142   3.881   2.995   2.242
  748SOL    HW1 3143   3.810   2.930   2.214
  748SOL    HW2 3144   3.944   3.010   2.166
  749SOL     OW 3145   6.869   1.579   5.186
  749SOL    HW1 3146   6.803   1.541   5.250
  749SOL    HW2 3147   6.961   1.572   5.225
  750SOL     OW 3148   3.140   3.859   1.429
  750SOL    HW1 3149   3.047   3.823   1.424
  750SOL    HW2 3150   3.160   3.888   1.523
  751SOL     OW 3151   4.790   1.246   0.426
  751SOL    HW1 3152   4.819   1.170   0.368
  751SOL    HW2 3153   4.797   1.220   0.522
  752SOL     OW 3154   4.936   1.065   1.915
  752SOL    HW1 3155   4.979   1.155   1.913
  752SOL    HW2 3156   4.984   1.003   1.853
  753SOL     OW 3157   2.816   1.340   2.497
  753SOL    HW1 3158   2.902   1.368   2.538
  753SOL    HW2 3159   2.740   1.389   2.540
  754SOL     OW 3160   4.955   5.725   7.005
  754SOL    HW1 3161   4.900   5.739   6.922
  754SOL    HW2 3162   4.983   5.630   7.010
  755SOL     OW 3163   0.082   6.308   2.944
  755SOL    HW1 3164   0.121   6.223   2.908
  755SOL    HW2 3165   0.147   6.383   2.932
  756SOL     OW 3166   3.609   6.602   3.606
  756SOL    HW1 3167   3.622   6.503   3.611
  756SOL    HW2 3168   3.688   6.648   3.646
  757SOL     OW 3169   6.581   0.904   5.055
  757SOL    HW1 3170   6.623   0.949   5.134
  757SOL    HW2 3171   6.637   0.918   4.974
  758SOL     OW 3172   4.267   2.044   2.105
  758SOL    HW1 3173   4.258   2.144   2.101
  758SOL    HW2 3174   4.291   2.016   2.198
  759SOL     OW 3175   1.735   0.866   0.537
  759SOL    HW1 3176   1.784   0.821   0.611
  759SOL    HW2 3177   1.776   0.955   0.519
  760SOL     OW 3178   4.470   2.302   5.881
  760SOL    HW1 3179   4.495   2.321   5.786
  760SOL    HW2 3180   4.471   2.204   5.898
  761SOL     OW 3181   5.817   1.882   6.936
  761SOL    HW1 3182   5.816   1.876   0.010
  761SOL    HW2 3183   5.769   1.804   6.897
  762SOL     OW 3184   1.983   5.320   4.130
  762SOL    HW1 3185   2.030   5.280   4.209
  762SOL    HW2 3186   1.904   5.372   4.161
  763SOL     OW 3187   5.909   5.383   6.763
  763SOL    HW1 3188   5.917   5.284   6.772
  763SOL    HW2 3189   5.821   5.406   6.722
  764SOL     OW 3190   4.706   1.066   2.733
  764SOL    HW1 3191   4.619   1.057   2.685
  764SOL    HW2 3192   4.722   0.986   2.790
  765SOL     OW 3193   6.961   6.287   3.412
  765SOL    HW1 3194   6.958   6.235   3.497
  765SOL    HW2 3195   6.949   6.225   3.334
  766SOL     OW 3196   0.290   6.321   6.946
  766SOL    HW1 3197   0.284   6.251   7.017
  766SOL    HW2 3198   0.284   6.412   6.988
  767SOL     OW 3199   6.068   6.827   1.727
  767SOL    HW1 3200   5.988   6.862   1.777
  767SOL    HW2 3201   6.041   6.806   1.633
  768SOL     OW 3202   3.193   6.423   3.585
  768SOL    HW1 3203   3.265   6.378   3.638
  768SOL    HW2 3204   3.149   6.493   3.642
  769SOL     OW 3205   3.091   0.641   6.879
  769SOL    HW1 3206   3.117   0.628   6.783
  769SOL    HW2 3207   3.003   0.688   6.884
  770SOL     OW 3208   3.267   5.118   3.479
  770SOL    HW1 3209   3.183   5.130   3.426
  770SOL    HW2 3210   3.339   5.082   3.419
  771SOL     OW 3211   0.202   5.428   4.352
  771SOL    HW1 3212   0.271   5.499   4.337
  771SOL    HW2 3213   0.156   5.406   4.266
  772SOL     OW 3214   6.595   4.537   5.121
  772SOL    HW1 3215   6.514   4.586   5.153
  772SOL    HW2 3216   6.657   4.601   5.076
  773SOL     OW 3217   0.334   3.633   1.568
  773SOL    HW1 3218   0.344   3.721   1.522
  773SOL    HW2 3219   0.390   3.564   1.522
  774SOL     OW 3220   1.586   1.232   1.223
  774SOL    HW1 3221   1.639   1.151   1.246
  774SOL    HW2 3222   1.648   1.309   1.208
  775SOL     OW 3223   1.410   2.312   4.161
  775SOL    HW1 3224   1.365   2.267   4.238
  775SOL    HW2 3225   1.382   2.269   4.076
  776SOL     OW 3226   2.153   0.388   5.995
  776SOL    HW1 3227   2.142   0.453   6.070
  776SOL    HW2 3228   2.249   0.387   5.966
  777SOL     OW 3229   3.973   0.516   0.315
  777SOL    HW1 3230   4.069   0.486   0.318
  777SOL    HW2 3231   3.966   0.608   0.352
  778SOL     OW 3232   4.163   6.333   3.875
  778SOL    HW1 3233   4.239   6.319   3.811
  778SOL    HW2 3234   4.197   6.374   3.959
  779SOL     OW 3235   1.194   1.166   2.292
  779SOL    HW1 3236   1.230   1.141   2.382
  779SOL    HW2 3237   1.135   1.093   2.258
  780SOL     OW 3238   5.098   3.416   5.081
  780SOL    HW1 3239   5.165   3.373   5.142
  780SOL    HW2 3240   5.106   3.377   4.990
  781SOL     OW 3241   0.823   1.998   6.493
  781SOL    HW1 3242   0.784   1.955   6.411
  781SOL    HW2 3243   0.865   1.928   6.550
  782SOL     OW 3244   0.310   4.080   0.719
  782SOL    HW1 3245   0.311   3.981   0.729
  782SOL    HW2 3246   0.216   4.113   0.728
  783SOL     OW 3247   2.555   3.957   0.522
  783SOL    HW1 3248   2.558   3.954   0.422
  783SOL    HW2 3249   2.481   4.017   0.551
  784SOL     OW 3250   5.008   6.405   3.652
  784SOL    HW1 3251   4.914   6.371   3.646
  784SOL    HW2 3252   5.068   6.331   3.685
  785SOL     OW 3253   6.012   2.237   4.023
  785SOL    HW1 3254   6.026   2.261   4.119
  785SOL    HW2 3255   5.916   2.251   3.999
  786SOL     OW 3256   6.250   0.137   6.769
  786SOL    HW1 3257   6.331   0.113   6.715
  786SOL    HW2 3258   6.270   0.124   6.866
  787SOL     OW 3259   4.021   1.375   6.685
  787SOL    HW1 3260   4.038   1.446   6.616
  787SOL    HW2 3261   3.923   1.366   6.699
  788SOL     OW 3262   0.968   4.334   3.898
  788SOL    HW1 3263   0.920   4.364   3.816
  788SOL    HW2 3264   1.043   4.273   3.872
  789SOL     OW 3265   6.052   3.392   0.986
  789SOL    HW1 3266   5.980   3.457   0.960
  789SOL    HW2 3267   6.017   3.299   0.976
  790SOL     OW 3268   3.346   1.103   4.411
  790SOL    HW1 3269   3.406   1.075   4.337
  790SOL    HW2 3270   3.359   1.043   4.490
  791SOL     OW 3271   3.815   2.173   4.340
  791SOL    HW1 3272   3.743   2.164   4.409
  791SOL    HW2 3273   3.775   2.162   4.249
  792SOL     OW 3274   5.692   0.005   3.567
  792SOL    HW1 3275   5.623   6.983   3.621
  792SOL    HW2 3276   5.747   6.965   3.516
  793SOL     OW 3277   6.628   0.029   6.198
  793SOL    HW1 3278   6.569   0.098   6.240
  793SOL    HW2 3279   6.617   0.031   6.099
  794SOL     OW 3280   3.717   5.320   4.811
  794SOL    HW1 3281   3.774   5.243   4.784
  794SOL    HW2 3282   3.629   5.315   4.764
  795SOL     OW 3283   4.924   4.759   6.292
  795SOL    HW1 3284   4.843   4.774   6.350
  795SOL    HW2 3285   5.002   4.807   6.332
  796SOL     OW 3286   0.797   2.274   6.204
  796SOL    HW1 3287   0.781   2.256   6.301
  796SOL    HW2 3288   0.870   2.215   6.171
  797SOL     OW 3289   6.117   2.481   4.839
  797SOL    HW1 3290   6.068   2.565   4.864
  797SOL    HW2 3291   6.181   2.457   4.911
  798SOL     OW 3292   6.236   0.887   5.343
  798SOL    HW1 3293   6.314   0.839   5.383
  798SOL    HW2 3294   6.248   0.986   5.354
  799SOL     OW 3295   6.776   3.708   3.582
  799SOL    HW1 3296   6.676   3.711   3.578
  799SOL    HW2 3297   6.813   3.767   3.510
  800SOL     OW 3298   6.670   1.397   2.236
  800SOL    HW1 3299   6.590   1.340   2.217
  800SOL    HW2 3300   6.683   1.462   2.161
  801SOL     OW 3301   0.636   2.297   3.911
  801SOL    HW1 3302   0.652   2.208   3.870
  801SOL    HW2 3303   0.598   2.359   3.843
  802SOL     OW 3304   5.556   1.385   1.140
  802SOL    HW1 3305   5.512   1.296   1.154
  802SOL    HW2 3306   5.593   1.418   1.226
  803SOL     OW 3307   1.593   0.221   4.637
  803SOL    HW1 3308   1.506   0.244   4.594
  803SOL    HW2 3309   1.625   0.132   4.604
  804SOL     OW 3310   6.154   6.672   1.227
  804SOL    HW1 3311   6.073   6.623   1.194
  804SOL    HW2 3312   6.216   6.688   1.151
  805SOL     OW 3313   1.450   3.584   5.968
  805SOL    HW1 3314   1.547   3.586   5.941
  805SOL    HW2 3315   1.441   3.618   6.061
  806SOL     OW 3316   4.963   0.910   1.031
  806SOL    HW1 3317   4.978   0.985   0.967
  806SOL    HW2 3318   4.880   0.927   1.083
  807SOL     OW 3319   1.074   0.350   2.790
  807SOL    HW1 3320   1.029   0.272   2.747
  807SOL    HW2 3321   1.147   0.384   2.731
  808SOL     OW 3322   6.331   3.110   5.363
  808SOL    HW1 3323   6.403   3.089   5.296
  808SOL    HW2 3324   6.271   3.181   5.326
  809SOL     OW 3325   0.553   5.189   6.293
  809SOL    HW1 3326   0.531   5.117   6.360
  809SOL    HW2 3327   0.608   5.260   6.338
  810SOL     OW 3328   6.640   4.861   6.683
  810SOL    HW1 3329   6.665   4.942   6.736
  810SOL    HW2 3330   6.648   4.882   6.585
  811SOL     OW 3331   4.528   5.094   3.713
  811SOL    HW1 3332   4.549   5.191   3.726
  811SOL    HW2 3333   4.613   5.042   3.704
  812SOL     OW 3334   0.701   0.323   2.523
  812SOL    HW1 3335   0.800   0.326   2.532
  812SOL    HW2 3336   0.673   0.367   2.438
  813SOL     OW 3337   5.942   5.542   2.069
  813SOL    HW1 3338   5.999   5.485   2.010
  813SOL    HW2 3339   5.885   5.601   2.013
  814SOL     OW 3340   5.854   5.623   1.620
  814SOL    HW1 3341   5.769   5.574   1.640
  814SOL    HW2 3342   5.926   5.557   1.598
  815SOL     OW 3343   0.820   2.140   0.195
  815SOL    HW1 3344   0.852   2.055   0.153
  815SOL    HW2 3345   0.819   2.130   0.294
  816SOL     OW 3346   6.183   0.302   1.211
  816SOL    HW1 3347   6.261   0.343   1.164
  816SOL    HW2 3348   6.123   0.375   1.246
  817SOL     OW 3349   0.862   1.779   2.002
  817SOL    HW1 3350   0.960   1.799   2.004
  817SOL    HW2 3351   0.845   1.693   2.050
  818SOL     OW 3352   6.337   1.522   1.990
  818SOL    HW1 3353   6.433   1.548   1.980
  818SOL    HW2 3354   6.280   1.583   1.934
  819SOL     OW 3355   0.572   4.512   3.224
  819SOL    HW1 3356   0.569   4.592   3.163
  819SOL    HW2 3357   0.479   4.480   3.242
  820SOL     OW 3358   1.605   2.809   4.754
  820SOL    HW1 3359   1.607   2.863   4.670
  820SOL    HW2 3360   1.637   2.865   4.830
  821SOL     OW 3361   1.175   3.494   0.897
  821SOL    HW1 3362   1.185   3.473   0.995
  821SOL    HW2 3363   1.080   3.513   0.876
  822SOL     OW 3364   1.603   3.749   5.080
  822SOL    HW1 3365   1.602   3.696   4.995
  822SOL    HW2 3366   1.588   3.689   5.158
  823SOL     OW 3367   2.960   3.238   0.822
  823SOL    HW1 3368   2.967   3.227   0.921
  823SOL    HW2 3369   3.047   3.211   0.780
  824SOL     OW 3370   5.710   2.279   6.182
  824SOL    HW1 3371   5.747   2.367   6.154
  824SOL    HW2 3372   5.696   2.279   6.281
  825SOL     OW 3373   1.338   4.124   1.739
  825SOL    HW1 3374   1.409   4.068   1.696
  825SOL    HW2 3375   1.362   4.221   1.730
  826SOL     OW 3376   0.806   4.512   5.850
  826SOL    HW1 3377   0.862   4.441   5.893
  826SOL    HW2 3378   0.835   4.602   5.883
  827SOL     OW 3379   3.885   5.855   0.808
  827SOL    HW1 3380   3.938   5.810   0.736
  827SOL    HW2 3381   3.906   5.953   0.808
  828SOL     OW 3382   6.091   6.686   5.767
  828SOL    HW1 3383   5.991   6.687   5.770
  828SOL    HW2 3384   6.125   6.779   5.754
  829SOL     OW 3385   3.797   2.951   4.670
  829SOL    HW1 3386   3.811   3.024   4.603
  829SOL    HW2 3387   3.871   2.952   4.737
  830SOL     OW 3388   4.871   3.823   5.967
  830SOL    HW1 3389   4.857   3.747   5.904
  830SOL    HW2 3390   4.844   3.909   5.922
  831SOL     OW 3391   6.799   6.954   4.905
  831SOL    HW1 3392   6.863   0.002   4.892
  831SOL    HW2 3393   6.717   6.970   4.850
  832SOL     OW 3394   2.358   1.353   5.868
  832SOL    HW1 3395   2.356   1.422   5.795
  832SOL    HW2 3396   2.266   1.319   5.885
  833SOL     OW 3397   1.186   6.825   5.618
  833SOL    HW1 3398   1.089   6.804   5.605
  833SOL    HW2 3399   1.197   6.918   5.652
  834SOL     OW 3400   3.178   4.467   5.772
  834SOL    HW1 3401   3.172   4.378   5.727
  834SOL    HW2 3402   3.088   4.509   5.776
  835SOL     OW 3403   4.478   0.918   3.415
  835SOL    HW1 3404   4.556   0.975   3.389
  835SOL    HW2 3405   4.397   0.976   3.429
  836SOL     OW 3406   2.137   0.392   0.049
  836SOL    HW1 3407   2.209   0.326   0.071
  836SOL    HW2 3408   2.097   0.428   0.134
  837SOL     OW 3409   3.777   0.834   4.968
  837SOL    HW1 3410   3.814   0.842   5.061
  837SOL    HW2 3411   3.691   0.884   4.962
  838SOL     OW 3412   1.405   4.560   2.460
  838SOL    HW1 3413   1.500   4.529   2.459
  838SOL    HW2 3414   1.347   4.491   2.502
  839SOL     OW 3415   3.613   0.830   1.631
  839SOL    HW1 3416   3.658   0.778   1.559
  839SOL    HW2 3417   3.551   0.897   1.591
  840SOL     OW 3418   0.684   1.945   6.227
  840SOL    HW1 3419   0.606   2.006   6.223
  840SOL    HW2 3420   0.729   1.941   6.138
  841SOL     OW 3421   0.282   3.340   0.699
  841SOL    HW1 3422   0.236   3.326   0.787
  841SOL    HW2 3423   0.247   3.423   0.656
  842SOL     OW 3424   3.440   5.353   3.367
  842SOL    HW1 3425   3.399   5.262   3.371
  842SOL    HW2 3426   3.368   5.421   3.355
  843SOL     OW 3427   6.529   4.144   2.303
  843SOL    HW1 3428   6.608   4.123   2.245
  843SOL    HW2 3429   6.557   4.141   2.399
  844SOL     OW 3430   5.299   5.720   0.356
  844SOL    HW1 3431   5.289   5.630   0.398
  844SOL    HW2 3432   5.265   5.718   0.263
  845SOL     OW 3433   1.776   5.254   4.594
  845SOL    HW1 3434   1.697   5.201   4.627
  845SOL    HW2 3435   1.851   5.192   4.573
  846SOL     OW 3436   5.237   2.924   0.037
  846SOL    HW1 3437   5.177   2.846   0.018
  846SOL    HW2 3438   5.258   2.928   0.135
  847SOL     OW 3439   5.328   3.822   1.938
  847SOL    HW1 3440   5.396   3.888   1.908
  847SOL    HW2 3441   5.370   3.758   2.002
  848SOL     OW 3442   6.483   0.021   5.527
  848SOL    HW1 3443   6.504   0.055   5.619
  848SOL    HW2 3444   6.567   7.015   5.484
  849SOL     OW 3445   1.076   5.628   4.233
  849SOL    HW1 3446   1.148   5.695   4.252
  849SOL    HW2 3447   1.080   5.602   4.137
  850SOL     OW 3448   3.435   0.698   3.360
  850SOL    HW1 3449   3.337   0.677   3.359
  850SOL    HW2 3450   3.482   0.633   3.419
  851SOL     OW 3451   0.553   0.631   5.281
  851SOL    HW1 3452   0.492   0.577   5.224
  851SOL    HW2 3453   0.548   0.727   5.253
  852SOL     OW 3454   2.855   4.377   5.767
  852SOL    HW1 3455   2.757   4.356   5.765
  852SOL    HW2 3456   2.874   4.453   5.705
  853SOL     OW 3457   1.456   3.625   1.252
  853SOL    HW1 3458   1.469   3.526   1.263
  853SOL    HW2 3459   1.384   3.641   1.185
  854SOL     OW 3460   6.615   5.049   1.957
  854SOL    HW1 3461   6.675   5.017   2.030
  854SOL    HW2 3462   6.545   5.109   1.994
  855SOL     OW 3463   5.220   0.438   1.427
  855SOL    HW1 3464   5.147   0.423   1.493
  855SOL    HW2 3465   5.263   0.350   1.404
  856SOL     OW 3466   1.165   1.281   4.950
  856SOL    HW1 3467   1.202   1.226   5.025
  856SOL    HW2 3468   1.233   1.287   4.877
  857SOL     OW 3469   6.268   3.990   1.391
  857SOL    HW1 3470   6.190   3.964   1.449
  857SOL    HW2 3471   6.295   4.084   1.411
  858SOL     OW 3472   3.404   3.688   1.101
  858SOL    HW1 3473   3.498   3.720   1.113
  858SOL    HW2 3474   3.341   3.765   1.110
  859SOL     OW 3475   7.005   4.908   0.634
  859SOL    HW1 3476   0.029   4.823   0.617
  859SOL    HW2 3477   0.019   4.955   0.713
  860SOL     OW 3478   2.030   4.943   0.846
  860SOL    HW1 3479   2.122   4.923   0.880
  860SOL    HW2 3480   2.018   5.043   0.841
  861SOL     OW 3481   3.517   4.753   6.166
  861SOL    HW1 3482   3.608   4.795   6.170
  861SOL    HW2 3483   3.526   4.658   6.135
  862SOL     OW 3484   4.708   4.167   3.732
  862SOL    HW1 3485   4.792   4.193   3.778
  862SOL    HW2 3486   4.630   4.179   3.794
  863SOL     OW 3487   5.910   1.565   0.747
  863SOL    HW1 3488   5.823   1.580   0.701
  863SOL    HW2 3489   5.968   1.504   0.692
  864SOL     OW 3490   6.902   4.497   2.293
  864SOL    HW1 3491   6.882   4.443   2.211
  864SOL    HW2 3492   6.966   4.448   2.351
  865SOL     OW 3493   1.743   0.858   3.630
  865SOL    HW1 3494   1.746   0.779   3.569
  865SOL    HW2 3495   1.753   0.828   3.725
  866SOL     OW 3496   3.699   0.978   0.952
  866SOL    HW1 3497   3.636   1.055   0.941
  866SOL    HW2 3498   3.648   0.892   0.942
  867SOL     OW 3499   1.910   1.630   6.210
  867SOL    HW1 3500   1.868   1.643   6.120
  867SOL    HW2 3501   1.902   1.715   6.263
  868SOL     OW 3502   6.207   2.838   3.399
  868SOL    HW1 3503   6.163   2.838   3.489
  868SOL    HW2 3504   6.222   2.932   3.370
  869SOL     OW 3505   6.839   4.090   1.647
  869SOL    HW1 3506   6.847   4.132   1.556
  869SOL    HW2 3507   6.823   3.992   1.637
  870SOL     OW 3508   6.569   2.588   0.392
  870SOL    HW1 3509   6.512   2.512   0.361
  870SOL    HW2 3510   6.560   2.598   0.491
  871SOL     OW 3511   5.953   4.295   0.624
  871SOL    HW1 3512   5.941   4.196   0.619
  871SOL    HW2 3513   5.970   4.331   0.532
  872SOL     OW 3514   5.970   2.138   2.044
  872SOL    HW1 3515   6.048   2.197   2.023
  872SOL    HW2 3516   5.890   2.169   1.992
  873SOL     OW 3517   3.942   0.077   4.817
  873SOL    HW1 3518   3.968   7.008   4.802
  873SOL    HW2 3519   4.004   0.118   4.884
  874SOL     OW 3520   0.259   3.701   6.181
  874SOL    HW1 3521   0.309   3.651   6.110
  874SOL    HW2 3522   0.262   3.799   6.160
  875SOL     OW 3523   5.793   5.193   6.483
  875SOL    HW1 3524   5.871   5.159   6.536
  875SOL    HW2 3525   5.772   5.287   6.511
  876SOL     OW 3526   1.052   1.800   0.802
  876SOL    HW1 3527   1.071   1.888   0.759
  876SOL    HW2 3528   0.956   1.797   0.830
  877SOL     OW 3529   5.797   6.096   0.324
  877SOL    HW1 3530   5.768   6.024   0.387
  877SOL    HW2 3531   5.847   6.056   0.247
  878SOL     OW 3532   3.640   2.381   0.214
  878SOL    HW1 3533   3.612   2.357   0.307
  878SOL    HW2 3534   3.629   2.301   0.155
  879SOL     OW 3535   4.197   2.083   2.662
  879SOL    HW1 3536   4.292   2.053   2.665
  879SOL    HW2 3537   4.144   2.019   2.607
  880SOL     OW 3538   4.335   5.706   1.790
  880SOL    HW1 3539   4.350   5.719   1.888
  880SOL    HW2 3540   4.389   5.772   1.738
  881SOL     OW 3541   4.716   5.202   4.247
  881SOL    HW1 3542   4.807   5.217   4.208
  881SOL    HW2 3543   4.671   5.290   4.263
  882SOL     OW 3544   1.174   2.405   4.479
  882SOL    HW1 3545   1.117   2.401   4.397
  882SOL    HW2 3546   1.119   2.434   4.557
  883SOL     OW 3547   3.951   4.063   7.026
  883SOL    HW1 3548   4.020   4.094   6.960
  883SOL    HW2 3549   3.860   4.080   6.989
  884SOL     OW 3550   4.178   3.862   1.706
  884SOL    HW1 3551   4.116   3.933   1.673
  884SOL    HW2 3552   4.149   3.833   1.797
  885SOL     OW 3553   4.365   6.338   6.198
  885SOL    HW1 3554   4.440   6.278   6.225
  885SOL    HW2 3555   4.384   6.431   6.228
  886SOL     OW 3556   3.773   1.716   6.988
  886SOL    HW1 3557   3.860   1.761   6.966
  886SOL    HW2 3558   3.709   1.783   7.026
  887SOL     OW 3559   5.577   6.827   5.944
  887SOL    HW1 3560   5.565   6.781   5.856
  887SOL    HW2 3561   5.550   6.923   5.936
  888SOL     OW 3562   6.593   6.273   3.151
  888SOL    HW1 3563   6.680   6.317   3.170
  888SOL    HW2 3564   6.523   6.343   3.136
  889SOL     OW 3565   0.905   0.140   4.199
  889SOL    HW1 3566   0.918   0.046   4.228
  889SOL    HW2 3567   0.982   0.196   4.232
  890SOL     OW 3568   1.833   4.412   2.279
  890SOL    HW1 3569   1.928   4.439   2.261
  890SOL    HW2 3570   1.826   4.312   2.275
  891SOL     OW 3571   5.737   3.616   6.096
  891SOL    HW1 3572   5.732   3.580   6.189
  891SOL    HW2 3573   5.706   3.546   6.032
  892SOL     OW 3574   2.136   5.245   1.298
  892SOL    HW1 3575   2.162   5.170   1.237
  892SOL    HW2 3576   2.074   5.210   1.368
  893SOL     OW 3577   1.911   6.683   1.527
  893SOL    HW1 3578   1.924   6.779   1.503
  893SOL    HW2 3579   1.876   6.634   1.447
  894SOL     OW 3580   1.204   5.237   4.147
  894SOL    HW1 3581   1.239   5.323   4.107
  894SOL    HW2 3582   1.261   5.211   4.224
  895SOL     OW 3583   2.395   0.992   4.691
  895SOL    HW1 3584   2.365   1.068   4.748
  895SOL    HW2 3585   2.317   0.932   4.672
  896SOL     OW 3586   5.329   6.845   3.680
  896SOL    HW1 3587   5.257   6.850   3.749
  896SOL    HW2 3588   5.373   6.934   3.670
  897SOL     OW 3589   4.874   2.026   6.416
  897SOL    HW1 3590   4.875   2.125   6.425
  897SOL    HW2 3591   4.780   1.994   6.407
  898SOL     OW 3592   5.625   5.869   3.913
  898SOL    HW1 3593   5.554   5.936   3.937
  898SOL    HW2 3594   5.582   5.780   3.897
  899SOL     OW 3595   0.840   4.343   0.012
  899SOL    HW1 3596   0.810   4.438   0.024
  899SOL    HW2 3597   0.773   4.293   6.984
  900SOL     OW 3598   0.780   5.947   3.382
  900SOL    HW1 3599   0.724   5.927   3.462
  900SOL    HW2 3600   0.781   6.045   3.365
  901SOL     OW 3601   5.668   1.499   3.250
  901SOL    HW1 3602   5.602   1.520   3.178
  901SOL    HW2 3603   5.717   1.582   3.276
  902SOL     OW 3604   1.189   6.008   6.847
  902SOL    HW1 3605   1.139   5.923   6.831
  902SOL    HW2 3606   1.279   6.003   6.804
  903SOL     OW 3607   0.515   5.022   6.506
  903SOL    HW1 3608   0.430   4.970   6.499
  903SOL    HW2 3609   0.561   5.000   6.592
  904SOL     OW 3610   1.551   1.030   3.776
  904SOL    HW1 3611   1.626   0.974   3.743
  904SOL    HW2 3612   1.466   1.002   3.732
  905SOL     OW 3613   6.411   1.907   5.334
  905SOL    HW1 3614   6.451   1.817   5.314
  905SOL    HW2 3615   6.471   1.979   5.301
  906SOL     OW 3616   6.571   4.041   5.575
  906SOL    HW1 3617   6.479   4.008   5.597
  906SOL    HW2 3618   6.638   3.988   5.626
  907SOL     OW 3619   0.225   3.305   1.750
  907SOL    HW1 3620   0.230   3.361   1.832
  907SOL    HW2 3621   0.129   3.285   1.728
  908SOL     OW 3622   2.467   0.819   3.420
  908SOL    HW1 3623   2.415   0.770   3.349
  908SOL    HW2 3624   2.552   0.770   3.438
  909SOL     OW 3625   4.240   0.024   0.987
  909SOL    HW1 3626   4.217   0.026   1.084
  909SOL    HW2 3627   4.330   0.066   0.972
  910SOL     OW 3628   1.906   1.742   1.632
  910SOL    HW1 3629   1.806   1.730   1.636
  910SOL    HW2 3630   1.930   1.831   1.671
  911SOL     OW 3631   0.318   3.796   0.725
  911SOL    HW1 3632   0.294   3.810   0.821
  911SOL    HW2 3633   0.416   3.776   0.718
  912SOL     OW 3634   0.935   0.616   6.258
  912SOL    HW1 3635   0.885   0.563   6.327
  912SOL    HW2 3636   1.033   0.598   6.267
  913SOL     OW 3637   1.863   1.118   1.864
  913SOL    HW1 3638   1.828   1.094   1.955
  913SOL    HW2 3639   1.870   1.217   1.856
  914SOL     OW 3640   2.973   5.769   2.325
  914SOL    HW1 3641   3.060   5.779   2.373
  914SOL    HW2 3642   2.949   5.672   2.318
  915SOL     OW 3643   1.428   2.654   0.303
  915SOL    HW1 3644   1.452   2.687   0.394
  915SOL    HW2 3645   1.451   2.724   0.235
  916SOL     OW 3646   1.582   3.058   2.137
  916SOL    HW1 3647   1.598   2.988   2.206
  916SOL    HW2 3648   1.492   3.045   2.096
  917SOL     OW 3649   3.430   1.798   6.602
  917SOL    HW1 3650   3.437   1.723   6.537
  917SOL    HW2 3651   3.517   1.807   6.652
  918SOL     OW 3652   0.583   1.281   5.063
  918SOL    HW1 3653   0.670   1.262   5.017
  918SOL    HW2 3654   0.511   1.225   5.025
  919SOL     OW 3655   1.658   6.743   0.995
  919SOL    HW1 3656   1.674   6.647   1.020
  919SOL    HW2 3657   1.575   6.776   1.040
  920SOL     OW 3658   1.531   1.069   3.462
  920SOL    HW1 3659   1.503   1.154   3.507
  920SOL    HW2 3660   1.535   0.995   3.530
  921SOL     OW 3661   3.974   4.355   0.394
  921SOL    HW1 3662   3.884   4.384   0.360
  921SOL    HW2 3663   4.013   4.287   0.331
  922SOL     OW 3664   1.965   5.113   6.197
  922SOL    HW1 3665   2.047   5.168   6.209
  922SOL    HW2 3666   1.957   5.047   6.272
  923SOL     OW 3667   3.763   1.420   6.710
  923SOL    HW1 3668   3.689   1.486   6.728
  923SOL    HW2 3669   3.803   1.438   6.620
  924SOL     OW 3670   6.759   4.646   2.513
  924SOL    HW1 3671   6.832   4.608   2.457
  924SOL    HW2 3672   6.679   4.665   2.456
  925SOL     OW 3673   6.853   1.961   3.388
  925SOL    HW1 3674   6.898   1.876   3.358
  925SOL    HW2 3675   6.873   2.034   3.323
  926SOL     OW 3676   5.192   6.452   0.456
  926SOL    HW1 3677   5.177   6.383   0.385
  926SOL    HW2 3678   5.291   6.466   0.468
  927SOL     OW 3679   4.740   5.699   4.574
  927SOL    HW1 3680   4.687   5.662   4.497
  927SOL    HW2 3681   4.741   5.799   4.569
  928SOL     OW 3682   0.480   1.335   1.312
  928SOL    HW1 3683   0.384   1.323   1.339
  928SOL    HW2 3684   0.485   1.351   1.213
  929SOL     OW 3685   6.840   2.819   2.401
  929SOL    HW1 3686   6.914   2.841   2.464
  929SOL    HW2 3687   6.833   2.720   2.390
  930SOL     OW 3688   5.563   5.384   2.423
  930SOL    HW1 3689   5.609   5.451   2.364
  930SOL    HW2 3690   5.564   5.417   2.518
  931SOL     OW 3691   1.917   2.841   2.009
  931SOL    HW1 3692   2.013   2.865   2.023
  931SOL    HW2 3693   1.859   2.913   2.048
  932SOL     OW 3694   4.381   6.461   1.365
  932SOL    HW1 3695   4.350   6.388   1.304
  932SOL    HW2 3696   4.421   6.421   1.447
  933SOL     OW 3697   1.309   6.501   4.213
  933SOL    HW1 3698   1.250   6.448   4.151
  933SOL    HW2 3699   1.309   6.458   4.303
  934SOL     OW 3700   3.506   0.623   5.609
  934SOL    HW1 3701   3.552   0.711   5.622
  934SOL    HW2 3702   3.432   0.634   5.543
  935SOL     OW 3703   1.465   3.840   5.755
  935SOL    HW1 3704   1.535   3.850   5.826
  935SOL    HW2 3705   1.410   3.759   5.773
  936SOL     OW 3706   0.402   1.993   1.537
  936SOL    HW1 3707   0.473   1.930   1.507
  936SOL    HW2 3708   0.402   1.998   1.637
  937SOL     OW 3709   5.191   2.114   3.338
  937SOL    HW1 3710   5.148   2.141   3.425
  937SOL    HW2 3711   5.250   2.188   3.306
  938SOL     OW 3712   6.942   0.927   6.964
  938SOL    HW1 3713   6.912   1.022   6.960
  938SOL    HW2 3714   6.947   0.890   6.872
  939SOL     OW 3715   6.534   0.690   5.487
  939SOL    HW1 3716   6.576   0.698   5.396
  939SOL    HW2 3717   6.538   0.595   5.517
  940SOL     OW 3718   0.001   0.489   4.222
  940SOL    HW1 3719   0.024   0.585   4.205
  940SOL    HW2 3720   6.934   0.481   4.255
  941SOL     OW 3721   5.734   2.356   5.382
  941SOL    HW1 3722   5.748   2.438   5.327
  941SOL    HW2 3723   5.664   2.374   5.452
  942SOL     OW 3724   4.395   0.502   5.184
  942SOL    HW1 3725   4.307   0.477   5.143
  942SOL    HW2 3726   4.455   0.542   5.115
  943SOL     OW 3727   5.525   1.930   0.242
  943SOL    HW1 3728   5.590   1.996   0.204
  943SOL    HW2 3729   5.564   1.838   0.237
  944SOL     OW 3730   5.172   4.332   4.916
  944SOL    HW1 3731   5.072   4.329   4.912
  944SOL    HW2 3732   5.200   4.360   5.008
  945SOL     OW 3733   5.448   3.412   6.101
  945SOL    HW1 3734   5.496   3.474   6.039
  945SOL    HW2 3735   5.429   3.460   6.187
  946SOL     OW 3736   5.710   3.475   6.384
  946SOL    HW1 3737   5.771   3.553   6.401
  946SOL    HW2 3738   5.618   3.497   6.419
  947SOL     OW 3739   0.978   3.082   5.380
  947SOL    HW1 3740   1.048   3.049   5.317
  947SOL    HW2 3741   0.888   3.048   5.351
  948SOL     OW 3742   3.881   1.634   0.591
  948SOL    HW1 3743   3.928   1.613   0.506
  948SOL    HW2 3744   3.849   1.728   0.589
  949SOL     OW 3745   5.562   5.997   6.775
  949SOL    HW1 3746   5.499   6.065   6.738
  949SOL    HW2 3747   5.573   6.012   6.873
  950SOL     OW 3748   3.940   5.417   0.621
  950SOL    HW1 3749   4.014   5.360   0.583
  950SOL    HW2 3750   3.971   5.512   0.628
  951SOL     OW 3751   0.579   2.868   4.103
  951SOL    HW1 3752   0.667   2.891   4.145
  951SOL    HW2 3753   0.523   2.950   4.097
  952SOL     OW 3754   5.304   1.706   1.469
  952SOL    HW1 3755   5.375   1.658   1.520
  952SOL    HW2 3756   5.246   1.638   1.422
  953SOL     OW 3757   3.655   6.632   5.856
  953SOL    HW1 3758   3.692   6.715   5.899
  953SOL    HW2 3759   3.580   6.657   5.795
  954SOL     OW 3760   6.780   0.135   1.552
  954SOL    HW1 3761   6.733   0.047   1.548
  954SOL    HW2 3762   6.822   0.155   1.464
  955SOL     OW 3763   0.344   6.610   1.936
  955SOL    HW1 3764   0.344   6.577   2.030
  955SOL    HW2 3765   0.336   6.532   1.874
  956SOL     OW 3766   1.220   2.874   0.623
  956SOL    HW1 3767   1.135   2.906   0.581
  956SOL    HW2 3768   1.198   2.817   0.703
  957SOL     OW 3769   1.907   6.650   4.927
  957SOL    HW1 3770   1.837   6.692   4.986
  957SOL    HW2 3771   1.995   6.650   4.974
  958SOL     OW 3772   5.021   2.560   0.390
  958SOL    HW1 3773   5.115   2.527   0.401
  958SOL    HW2 3774   5.001   2.572   0.293
  959SOL     OW 3775   1.597   3.407   1.714
  959SOL    HW1 3776   1.524   3.384   1.651
  959SOL    HW2 3777   1.643   3.324   1.744
  960SOL     OW 3778   1.966   5.400   5.347
  960SOL    HW1 3779   1.959   5.314   5.396
  960SOL    HW2 3780   2.011   5.468   5.405
  961SOL     OW 3781   3.612   0.183   0.335
  961SOL    HW1 3782   3.676   0.204   0.408
  961SOL    HW2 3783   3.630   0.091   0.300
  962SOL     OW 3784   1.207   6.663   3.684
  962SOL    HW1 3785   1.121   6.705   3.712
  962SOL    HW2 3786   1.189   6.576   3.639
  963SOL     OW 3787   6.118   0.007   2.085
  963SOL    HW1 3788   6.054   0.041   2.017
  963SOL    HW2 3789   6.152   0.084   2.141
  964SOL     OW 3790   5.295   3.392   1.338
  964SOL    HW1 3791   5.328   3.351   1.253
  964SOL    HW2 3792   5.345   3.354   1.416
  965SOL     OW 3793   1.359   1.854   0.041
  965SOL    HW1 3794   1.399   1.861   6.976
  965SOL    HW2 3795   1.394   1.772   0.087
  966SOL     OW 3796   6.640   2.988   2.085
  966SOL    HW1 3797   6.731   2.954   2.110
  966SOL    HW2 3798   6.570   2.930   2.127
  967SOL     OW 3799   1.075   6.045   2.412
  967SOL    HW1 3800   1.120   6.047   2.323
  967SOL    HW2 3801   1.036   6.135   2.431
  968SOL     OW 3802   6.875   4.556   1.121
  968SOL    HW1 3803   6.777   4.562   1.104
  968SOL    HW2 3804   6.891   4.520   1.214
  969SOL     OW 3805   3.921   6.579   6.693
  969SOL    HW1 3806   3.835   6.584   6.643
  969SOL    HW2 3807   3.966   6.493   6.673
  970SOL     OW 3808   4.523   2.663   5.658
  970SOL    HW1 3809   4.531   2.571   5.697
  970SOL    HW2 3810   4.489   2.657   5.564
  971SOL     OW 3811   6.970   2.642   0.537
  971SOL    HW1 3812   6.927   2.680   0.619
  971SOL    HW2 3813   6.899   2.620   0.469
  972SOL     OW 3814   6.034   6.513   0.433
  972SOL    HW1 3815   5.974   6.585   0.469
  972SOL    HW2 3816   5.989   6.425   0.441
  973SOL     OW 3817   5.432   3.449   5.605
  973SOL    HW1 3818   5.507   3.465   5.541
  973SOL    HW2 3819   5.448   3.502   5.688
  974SOL     OW 3820   2.838   0.916   4.859
  974SOL    HW1 3821   2.864   0.901   4.954
  974SOL    HW2 3822   2.745   0.881   4.844
  975SOL     OW 3823   3.166   6.835   5.554
  975SOL    HW1 3824   3.233   6.809   5.486
  975SOL    HW2 3825   3.164   6.767   5.627
  976SOL     OW 3826   0.063   5.493   3.295
  976SOL    HW1 3827   0.043   5.579   3.248
  976SOL    HW2 3828   0.018   5.418   3.248
  977SOL     OW 3829   1.057   2.781   1.491
  977SOL    HW1 3830   1.154   2.803   1.485
  977SOL    HW2 3831   1.024   2.799   1.584
  978SOL     OW 3832   5.611   3.513   4.762
  978SOL    HW1 3833   5.608   3.425   4.809
  978SOL    HW2 3834   5.706   3.546   4.758
  979SOL     OW 3835   6.057   1.585   3.421
  979SOL    HW1 3836   6.001   1.555   3.498
  979SOL    HW2 3837   6.154   1.579   3.444
  980SOL     OW 3838   6.672   0.283   4.783
  980SOL    HW1 3839   6.573   0.297   4.779
  980SOL    HW2 3840   6.716   0.368   4.813
  981SOL     OW 3841   6.892   3.175   5.729
  981SOL    HW1 3842   6.929   3.138   5.814
  981SOL    HW2 3843   6.945   3.140   5.652
  982SOL     OW 3844   1.372   3.376   1.567
  982SOL    HW1 3845   1.297   3.434   1.600
  982SOL    HW2 3846   1.389   3.395   1.471
  983SOL     OW 3847   5.630   1.908   2.679
  983SOL    HW1 3848   5.640   1.821   2.728
  983SOL    HW2 3849   5.719   1.954   2.675
  984SOL     OW 3850   4.927   2.353   5.405
  984SOL    HW1 3851   4.915   2.259   5.435
  984SOL    HW2 3852   5.015   2.363   5.359
  985SOL     OW 3853   2.527   5.043   0.586
  985SOL    HW1 3854   2.549   5.075   0.494
  985SOL    HW2 3855   2.604   5.060   0.647
  986SOL     OW 3856   4.338   4.556   0.100
  986SOL    HW1 3857   4.333   4.494   0.021
  986SOL    HW2 3858   4.377   4.507   0.178
  987SOL     OW 3859   3.409   6.639   2.422
  987SOL    HW1 3860   3.472   6.622   2.346
  987SOL    HW2 3861   3.440   6.590   2.503
  988SOL     OW 3862   3.402   3.201   1.379
  988SOL    HW1 3863   3.483   3.233   1.429
  988SOL    HW2 3864   3.332   3.272   1.383
  989SOL     OW 3865   0.513   0.396   4.778
  989SOL    HW1 3866   0.553   0.311   4.744
  989SOL    HW2 3867   0.420   0.405   4.742
  990SOL     OW 3868   4.979   6.239   2.540
  990SOL    HW1 3869   4.883   6.266   2.541
  990SOL    HW2 3870   4.995   6.171   2.612
  991SOL     OW 3871   6.220   1.494   5.054
  991SOL    HW1 3872   6.320   1.503   5.055
  991SOL    HW2 3873   6.188   1.488   4.960
  992SOL     OW 3874   6.837   3.052   1.523
  992SOL    HW1 3875   6.741   3.051   1.498
  992SOL    HW2 3876   6.894   3.044   1.440
  993SOL     OW 3877   3.749   5.863   4.188
  993SOL    HW1 3878   3.813   5.799   4.145
  993SOL    HW2 3879   3.769   5.869   4.286
  994SOL     OW 3880   3.094   3.443   2.062
  994SOL    HW1 3881   3.140   3.499   1.994
  994SOL    HW2 3882   2.995   3.446   2.046
  995SOL     OW 3883   0.511   1.149   4.641
  995SOL    HW1 3884   0.513   1.206   4.559
  995SOL    HW2 3885   0.425   1.162   4.690
  996SOL     OW 3886   0.861   3.526   0.834
  996SOL    HW1 3887   0.798   3.600   0.810
  996SOL    HW2 3888   0.813   3.461   0.894
  997SOL     OW 3889   0.390   1.044   0.869
  997SOL    HW1 3890   0.468   1.028   0.808
  997SOL    HW2 3891   0.316   1.088   0.817
  998SOL     OW 3892   4.750   0.043   3.716
  998SOL    HW1 3893   4.661   0.083   3.741
  998SOL    HW2 3894   4.821   0.113   3.725
  999SOL     OW 3895   6.661   5.682   1.788
  999SOL    HW1 3896   6.755   5.656   1.808
  999SOL    HW2 3897   6.631   5.638   1.704
 1000SOL     OW 3898   4.495   2.212   4.395
 1000SOL    HW1 3899   4.520   2.302   4.360
 1000SOL    HW2 3900   4.440   2.222   4.478
 1001SOL     OW 3901   4.055   1.126   5.750
 1001SOL    HW1 3902   4.021   1.214   5.783
 1001SOL    HW2 3903   4.123   1.091   5.814
 1002SOL     OW 3904   0.424   1.188   0.144
 1002SOL    HW1 3905   0.351   1.256   0.137
 1002SOL    HW2 3906   0.419   1.144   0.234
 1003SOL     OW 3907   4.756   4.561   3.562
 1003SOL    HW1 3908   4.695   4.498   3.514
 1003SOL    HW2 3909   4.788   4.632   3.499
 1004SOL     OW 3910   5.937   5.650   0.474
 1004SOL    HW1 3911   5.959   5.720   0.542
 1004SOL    HW2 3912   6.013   5.642   0.409
 1005SOL     OW 3913   6.938   5.481   3.541
 1005SOL    HW1 3914   6.966   5.516   3.630
 1005SOL    HW2 3915   7.008   5.418   3.506
 1006SOL     OW 3916   2.333   4.168   0.459
 1006SOL    HW1 3917   2.288   4.087   0.421
 1006SOL    HW2 3918   2.376   4.220   0.386
 1007SOL     OW 3919   1.295   0.787   3.294
 1007SOL    HW1 3920   1.361   0.856   3.263
 1007SOL    HW2 3921   1.340   0.724   3.358
 1008SOL     OW 3922   2.691   2.119   4.400
 1008SOL    HW1 3923   2.641   2.046   4.354
 1008SOL    HW2 3924   2.772   2.081   4.445
 1009SOL     OW 3925   2.746   5.737   5.197
 1009SOL    HW1 3926   2.816   5.723   5.267
 1009SOL    HW2 3927   2.750   5.832   5.165
 1010SOL     OW 3928   4.519   0.544   6.378
 1010SOL    HW1 3929   4.597   0.489   6.408
 1010SOL    HW2 3930   4.551   0.615   6.316
 1011SOL     OW 3931   3.405   5.509   3.832
 1011SOL    HW1 3932   3.425   5.581   3.765
 1011SOL    HW2 3933   3.324   5.458   3.803
 1012SOL     OW 3934   3.733   5.471   0.262
 1012SOL    HW1 3935   3.818   5.451   0.215
 1012SOL    HW2 3936   3.718   5.403   0.334
 1013SOL     OW 3937   0.401   0.895   0.257
 1013SOL    HW1 3938   0.424   0.808   0.301
 1013SOL    HW2 3939   0.315   0.885   0.206
 1014SOL     OW 3940   5.060   0.447   6.561
 1014SOL    HW1 3941   4.986   0.450   6.493
 1014SOL    HW2 3942   5.146   0.425   6.515
 1015SOL     OW 3943   3.310   0.011   4.554
 1015SOL    HW1 3944   3.375   0.073   4.597
 1015SOL    HW2 3945   3.218   0.050   4.559
 1016SOL     OW 3946   4.478   2.467   2.316
 1016SOL    HW1 3947   4.567   2.480   2.273
 1016SOL    HW2 3948   4.446   2.554   2.353
 1017SOL     OW 3949   4.843   1.312   6.478
 1017SOL    HW1 3950   4.808   1.219   6.489
 1017SOL    HW2 3951   4.941   1.309   6.458
 1018SOL     OW 3952   1.319   2.834   1.767
 1018SOL    HW1 3953   1.302   2.739   1.741
 1018SOL    HW2 3954   1.405   2.865   1.727
 1019SOL     OW 3955   5.590   1.266   0.646
 1019SOL    HW1 3956   5.671   1.315   0.678
 1019SOL    HW2 3957   5.511   1.326   0.652
 1020SOL     OW 3958   3.151   1.899   1.353
 1020SOL    HW1 3959   3.135   1.800   1.352
 1020SOL    HW2 3960   3.225   1.920   1.417
 1021SOL     OW 3961   6.223   0.790   0.980
 1021SOL    HW1 3962   6.170   0.874   0.969
 1021SOL    HW2 3963   6.320   0.809   0.963
 1022SOL     OW 3964   3.384   2.293   6.910
 1022SOL    HW1 3965   3.410   2.375   6.960
 1022SOL    HW2 3966   3.285   2.289   6.903
 1023SOL     OW 3967   5.939   0.773   4.607
 1023SOL    HW1 3968   5.941   0.863   4.650
 1023SOL    HW2 3969   6.031   0.750   4.572
 1024SOL     OW 3970   6.600   1.346   4.420
 1024SOL    HW1 3971   6.539   1.425   4.428
 1024SOL    HW2 3972   6.591   1.306   4.329
 1025SOL     OW 3973   3.361   4.206   1.410
 1025SOL    HW1 3974   3.297   4.225   1.335
 1025SOL    HW2 3975   3.316   4.224   1.497
 1026SOL     OW 3976   0.871   3.044   6.469
 1026SOL    HW1 3977   0.957   2.999   6.443
 1026SOL    HW2 3978   0.866   3.051   6.568
 1027SOL     OW 3979   2.415   4.787   1.848
 1027SOL    HW1 3980   2.391   4.706   1.794
 1027SOL    HW2 3981   2.511   4.781   1.875
 1028SOL     OW 3982   0.811   6.045   0.687
 1028SOL    HW1 3983   0.746   6.120   0.698
 1028SOL    HW2 3984   0.816   6.018   0.591
 1029SOL     OW 3985   3.422   1.052   5.220
 1029SOL    HW1 3986   3.503   1.000   5.244
 1029SOL    HW2 3987   3.442   1.150   5.226
 1030SOL     OW 3988   3.763   4.487   5.306
 1030SOL    HW1 3989   3.767   4.501   5.405
 1030SOL    HW2 3990   3.668   4.472   5.279
 1031SOL     OW 3991   1.860   5.289   0.741
 1031SOL    HW1 3992   1.904   5.273   0.829
 1031SOL    HW2 3993   1.913   5.244   0.669
 1032SOL     OW 3994   1.515   1.566   4.962
 1032SOL    HW1 3995   1.443   1.611   4.910
 1032SOL    HW2 3996   1.498   1.468   4.966
 1033SOL     OW 3997   2.751   6.255   3.298
 1033SOL    HW1 3998   2.721   6.348   3.320
 1033SOL    HW2 3999   2.837   6.260   3.248
 1034SOL     OW 4000   1.032   6.765   1.807
 1034SOL    HW1 4001   1.050   6.861   1.785
 1034SOL    HW2 4002   1.118   6.714   1.809
 1035SOL     OW 4003   2.998   0.480   4.100
 1035SOL    HW1 4004   2.947   0.422   4.164
 1035SOL    HW2 4005   2.953   0.479   4.011
 1036SOL     OW 4006   4.433   6.901   6.318
 1036SOL    HW1 4007   4.356   6.933   6.264
 1036SOL    HW2 4008   4.443   6.959   6.399
 1037SOL     OW 4009   2.725   2.048   6.320
 1037SOL    HW1 4010   2.682   1.973   6.270
 1037SOL    HW2 4011   2.780   2.010   6.395
 1038SOL     OW 4012   2.617   1.514   5.308
 1038SOL    HW1 4013   2.549   1.483   5.375
 1038SOL    HW2 4014   2.689   1.445   5.299
 1039SOL     OW 4015   4.178   2.169   3.490
 1039SOL    HW1 4016   4.125   2.085   3.501
 1039SOL    HW2 4017   4.193   2.188   3.393
 1040SOL     OW 4018   5.786   3.479   4.352
 1040SOL    HW1 4019   5.749   3.534   4.278
 1040SOL    HW2 4020   5.814   3.539   4.427
 1041SOL     OW 4021   1.408   6.881   4.253
 1041SOL    HW1 4022   1.332   6.845   4.199
 1041SOL    HW2 4023   1.495   6.856   4.210
 1042SOL     OW 4024   4.769   3.790   1.075
 1042SOL    HW1 4025   4.741   3.784   1.170
 1042SOL    HW2 4026   4.843   3.857   1.067
 1043SOL     OW 4027   3.586   6.998   6.645
 1043SOL    HW1 4028   3.522   6.933   6.603
 1043SOL    HW2 4029   3.563   7.012   6.741
 1044SOL     OW 4030   3.892   3.993   2.163
 1044SOL    HW1 4031   3.961   3.934   2.204
 1044SOL    HW2 4032   3.849   4.048   2.235
 1045SOL     OW 4033   3.877   1.195   3.093
 1045SOL    HW1 4034   3.939   1.117   3.106
 1045SOL    HW2 4035   3.879   1.252   3.175
 1046SOL     OW 4036   3.722   1.358   2.141
 1046SOL    HW1 4037   3.698   1.453   2.122
 1046SOL    HW2 4038   3.812   1.355   2.186
 1047SOL     OW 4039   0.776   5.356   2.029
 1047SOL    HW1 4040   0.796   5.435   1.972
 1047SOL    HW2 4041   0.682   5.362   2.063
 1048SOL     OW 4042   6.530   4.784   5.359
 1048SOL    HW1 4043   6.463   4.743   5.297
 1048SOL    HW2 4044   6.593   4.714   5.392
 1049SOL     OW 4045   0.481   3.495   4.671
 1049SOL    HW1 4046   0.482   3.424   4.601
 1049SOL    HW2 4047   0.564   3.488   4.727
 1050SOL     OW 4048   2.737   0.587   0.501
 1050SOL    HW1 4049   2.829   0.617   0.474
 1050SOL    HW2 4050   2.669   0.631   0.441
 1051SOL     OW 4051   4.851   4.430   2.621
 1051SOL    HW1 4052   4.759   4.397   2.643
 1051SOL    HW2 4053   4.879   4.396   2.532
 1052SOL     OW 4054   4.003   0.565   4.399
 1052SOL    HW1 4055   4.083   0.613   4.363
 1052SOL    HW2 4056   3.963   0.619   4.473
 1053SOL     OW 4057   3.723   5.162   3.324
 1053SOL    HW1 4058   3.741   5.259   3.342
 1053SOL    HW2 4059   3.799   5.107   3.358
 1054SOL     OW 4060   4.084   6.122   4.367
 1054SOL    HW1 4061   4.034   6.141   4.451
 1054SOL    HW2 4062   4.030   6.152   4.288
 1055SOL     OW 4063   4.071   5.579   3.845
 1055SOL    HW1 4064   4.112   5.545   3.930
 1055SOL    HW2 4065   4.028   5.503   3.796
 1056SOL     OW 4066   2.080   5.730   5.983
 1056SOL    HW1 4067   2.116   5.807   5.930
 1056SOL    HW2 4068   1.981   5.742   5.996
 1057SOL     OW 4069   3.805   4.051   1.095
 1057SOL    HW1 4070   3.886   4.092   1.137
 1057SOL    HW2 4071   3.809   3.952   1.104
 1058SOL     OW 4072   2.958   6.661   2.052
 1058SOL    HW1 4073   2.897   6.619   2.119
 1058SOL    HW2 4074   2.988   6.751   2.086
 1059SOL     OW 4075   3.599   0.594   0.438
 1059SOL    HW1 4076   3.643   0.544   0.363
 1059SOL    HW2 4077   3.635   0.687   0.440
 1060SOL     OW 4078   2.315   1.507   4.438
 1060SOL    HW1 4079   2.247   1.579   4.452
 1060SOL    HW2 4080   2.347   1.509   4.343
 1061SOL     OW 4081   3.179   5.845   1.156
 1061SOL    HW1 4082   3.157   5.848   1.254
 1061SOL    HW2 4083   3.102   5.806   1.106
 1062SOL     OW 4084   4.966   4.885   5.157
 1062SOL    HW1 4085   4.989   4.982   5.158
 1062SOL    HW2 4086   4.912   4.865   5.075
 1063SOL     OW 4087   2.645   3.076   5.999
 1063SOL    HW1 4088   2.585   3.156   5.990
 1063SOL    HW2 4089   2.603   2.997   5.954
 1064SOL     OW 4090   0.405   3.569   1.838
 1064SOL    HW1 4091   0.362   3.595   1.751
 1064SOL    HW2 4092   0.345   3.508   1.888
 1065SOL     OW 4093   4.243   5.042   5.485
 1065SOL    HW1 4094   4.326   5.078   5.444
 1065SOL    HW2 4095   4.193   5.117   5.530
 1066SOL     OW 4096   4.250   6.892   3.383
 1066SOL    HW1 4097   4.286   6.822   3.445
 1066SOL    HW2 4098   4.153   6.907   3.403
 1067SOL     OW 4099   2.659   3.455   0.799
 1067SOL    HW1 4100   2.665   3.449   0.700
 1067SOL    HW2 4101   2.653   3.364   0.838
 1068SOL     OW 4102   0.456   4.276   0.826
 1068SOL    HW1 4103   0.412   4.190   0.801
 1068SOL    HW2 4104   0.534   4.292   0.766
 1069SOL     OW 4105   3.624   3.711   1.947
 1069SOL    HW1 4106   3.659   3.651   1.875
 1069SOL    HW2 4107   3.664   3.685   2.035
 1070SOL     OW 4108   2.651   6.777   0.989
 1070SOL    HW1 4109   2.571   6.717   0.989
 1070SOL    HW2 4110   2.732   6.725   0.961
 1071SOL     OW 4111   4.683   5.963   3.669
 1071SOL    HW1 4112   4.641   5.946   3.758
 1071SOL    HW2 4113   4.615   5.949   3.597
 1072SOL     OW 4114   3.407   5.380   2.720
 1072SOL    HW1 4115   3.407   5.391   2.621
 1072SOL    HW2 4116   3.475   5.441   2.761
 1073SOL     OW 4117   2.672   5.453   2.875
 1073SOL    HW1 4118   2.746   5.417   2.818
 1073SOL    HW2 4119   2.703   5.459   2.970
 1074SOL     OW 4120   1.424   5.518   2.588
 1074SOL    HW1 4121   1.406   5.455   2.663
 1074SOL    HW2 4122   1.445   5.465   2.505
 1075SOL     OW 4123   1.063   4.086   2.773
 1075SOL    HW1 4124   1.156   4.062   2.745
 1075SOL    HW2 4125   1.030   4.021   2.841
 1076SOL     OW 4126   6.921   4.361   2.991
 1076SOL    HW1 4127   6.913   4.417   2.908
 1076SOL    HW2 4128   7.015   4.331   3.002
 1077SOL     OW 4129   5.274   1.041   1.487
 1077SOL    HW1 4130   5.363   1.083   1.501
 1077SOL    HW2 4131   5.285   0.944   1.466
 1078SOL     OW 4132   0.445   3.153   1.768
 1078SOL    HW1 4133   0.375   3.224   1.755
 1078SOL    HW2 4134   0.525   3.193   1.812
 1079SOL     OW 4135   2.500   5.673   2.849
 1079SOL    HW1 4136   2.568   5.602   2.862
 1079SOL    HW2 4137   2.457   5.694   2.937
 1080SOL     OW 4138   1.922   5.979   4.101
 1080SOL    HW1 4139   1.832   5.960   4.062
 1080SOL    HW2 4140   1.928   6.076   4.124
 1081SOL     OW 4141   1.693   1.356   0.290
 1081SOL    HW1 4142   1.608   1.312   0.320
 1081SOL    HW2 4143   1.722   1.316   0.203
 1082SOL     OW 4144   2.079   6.758   0.669
 1082SOL    HW1 4145   2.094   6.683   0.733
 1082SOL    HW2 4146   2.019   6.826   0.712
 1083SOL     OW 4147   3.475   2.357   1.715
 1083SOL    HW1 4148   3.414   2.296   1.765
 1083SOL    HW2 4149   3.560   2.368   1.766
 1084SOL     OW 4150   6.408   3.220   0.897
 1084SOL    HW1 4151   6.386   3.259   0.986
 1084SOL    HW2 4152   6.468   3.282   0.847
 1085SOL     OW 4153   1.243   4.898   3.409
 1085SOL    HW1 4154   1.226   4.944   3.496
 1085SOL    HW2 4155   1.180   4.821   3.399
 1086SOL     OW 4156   3.989   4.895   2.177
 1086SOL    HW1 4157   3.924   4.872   2.249
 1086SOL    HW2 4158   3.955   4.859   2.090
 1087SOL     OW 4159   3.971   3.693   4.526
 1087SOL    HW1 4160   3.959   3.604   4.481
 1087SOL    HW2 4161   4.015   3.756   4.462
 1088SOL     OW 4162   6.007   4.356   2.741
 1088SOL    HW1 4163   6.043   4.411   2.665
 1088SOL    HW2 4164   5.909   4.343   2.729
 1089SOL     OW 4165   6.565   6.816   3.526
 1089SOL    HW1 4166   6.523   6.907   3.533
 1089SOL    HW2 4167   6.626   6.801   3.604
 1090SOL     OW 4168   1.587   1.947   6.330
 1090SOL    HW1 4169   1.543   1.876   6.275
 1090SOL    HW2 4170   1.558   2.037   6.299
 1091SOL     OW 4171   1.201   2.955   5.560
 1091SOL    HW1 4172   1.104   2.934   5.545
 1091SOL    HW2 4173   1.219   2.957   5.659
 1092SOL     OW 4174   2.083   4.682   1.153
 1092SOL    HW1 4175   2.030   4.614   1.203
 1092SOL    HW2 4176   2.140   4.734   1.217
 1093SOL     OW 4177   0.032   2.303   1.821
 1093SOL    HW1 4178   0.074   2.231   1.766
 1093SOL    HW2 4179   7.007   2.262   1.897
 1094SOL     OW 4180   0.809   6.916   2.071
 1094SOL    HW1 4181   0.786   6.978   1.996
 1094SOL    HW2 4182   0.864   6.964   2.139
 1095SOL     OW 4183   6.574   3.559   5.592
 1095SOL    HW1 4184   6.549   3.463   5.582
 1095SOL    HW2 4185   6.643   3.569   5.663
 1096SOL     OW 4186   3.819   3.566   1.774
 1096SOL    HW1 4187   3.853   3.660   1.767
 1096SOL    HW2 4188   3.841   3.516   1.691
 1097SOL     OW 4189   2.195   4.095   5.496
 1097SOL    HW1 4190   2.290   4.113   5.471
 1097SOL    HW2 4191   2.162   4.167   5.557
 1098SOL     OW 4192   4.076   0.963   3.027
 1098SOL    HW1 4193   4.134   0.885   3.002
 1098SOL    HW2 4194   3.989   0.930   3.063
 1099SOL     OW 4195   3.449   0.833   2.698
 1099SOL    HW1 4196   3.470   0.762   2.631
 1099SOL    HW2 4197   3.507   0.822   2.779
 1100SOL     OW 4198   6.812   0.668   6.928
 1100SOL    HW1 4199   6.860   0.747   6.964
 1100SOL    HW2 4200   6.838   0.653   6.833
 1101SOL     OW 4201   5.735   3.275   1.173
 1101SOL    HW1 4202   5.692   3.190   1.203
 1101SOL    HW2 4203   5.803   3.255   1.102
 1102SOL     OW 4204   0.046   4.511   3.667
 1102SOL    HW1 4205   0.097   4.460   3.737
 1102SOL    HW2 4206   6.976   4.486   3.671
 1103SOL     OW 4207   0.210   3.129   0.540
 1103SOL    HW1 4208   0.254   3.192   0.604
 1103SOL    HW2 4209   0.263   3.124   0.455
 1104SOL     OW 4210   2.537   5.034   6.089
 1104SOL    HW1 4211   2.637   5.039   6.079
 1104SOL    HW2 4212   2.494   5.048   6.000
 1105SOL     OW 4213   4.115   5.387   0.950
 1105SOL    HW1 4214   4.128   5.486   0.946
 1105SOL    HW2 4215   4.020   5.365   0.926
 1106SOL     OW 4216   1.263   1.183   6.390
 1106SOL    HW1 4217   1.165   1.201   6.397
 1106SOL    HW2 4218   1.281   1.085   6.399
 1107SOL     OW 4219   6.972   7.001   0.926
 1107SOL    HW1 4220   6.885   0.023   0.940
 1107SOL    HW2 4221   6.968   6.912   0.970
 1108SOL     OW 4222   0.863   1.009   6.932
 1108SOL    HW1 4223   0.904   0.935   6.985
 1108SOL    HW2 4224   0.771   0.982   6.904
 1109SOL     OW 4225   5.231   0.823   4.099
 1109SOL    HW1 4226   5.182   0.771   4.029
 1109SOL    HW2 4227   5.310   0.770   4.130
 1110SOL     OW 4228   3.252   2.883   2.096
 1110SOL    HW1 4229   3.281   2.793   2.131
 1110SOL    HW2 4230   3.196   2.870   2.015
 1111SOL     OW 4231   4.505   0.073   6.646
 1111SOL    HW1 4232   4.563   0.136   6.595
 1111SOL    HW2 4233   4.512   0.093   6.744
 1112SOL     OW 4234   0.923   1.367   2.435
 1112SOL    HW1 4235   0.847   1.307   2.459
 1112SOL    HW2 4236   0.921   1.386   2.336
 1113SOL     OW 4237   5.859   4.163   1.703
 1113SOL    HW1 4238   5.945   4.193   1.743
 1113SOL    HW2 4239   5.818   4.238   1.651
 1114SOL     OW 4240   5.714   1.079   5.522
 1114SOL    HW1 4241   5.722   1.178   5.526
 1114SOL    HW2 4242   5.802   1.039   5.494
 1115SOL     OW 4243   3.045   4.405   0.681
 1115SOL    HW1 4244   3.142   4.393   0.698
 1115SOL    HW2 4245   3.006   4.321   0.644
 1116SOL     OW 4246   3.769   6.595   6.190
 1116SOL    HW1 4247   3.838   6.612   6.120
 1116SOL    HW2 4248   3.784   6.504   6.230
 1117SOL     OW 4249   2.435   2.638   1.040
 1117SOL    HW1 4250   2.353   2.593   1.006
 1117SOL    HW2 4251   2.489   2.672   0.963
 1118SOL     OW 4252   1.782   3.012   2.595
 1118SOL    HW1 4253   1.760   3.079   2.524
 1118SOL    HW2 4254   1.833   2.936   2.554
 1119SOL     OW 4255   3.026   3.830   2.592
 1119SOL    HW1 4256   3.060   3.912   2.639
 1119SOL    HW2 4257   3.098   3.760   2.591
 1120SOL     OW 4258   4.936   1.380   4.094
 1120SOL    HW1 4259   5.007   1.373   4.024
 1120SOL    HW2 4260   4.892   1.470   4.087
 1121SOL     OW 4261   5.254   3.373   2.737
 1121SOL    HW1 4262   5.320   3.307   2.773
 1121SOL    HW2 4263   5.221   3.343   2.648
 1122SOL     OW 4264   4.446   4.763   6.989
 1122SOL    HW1 4265   4.397   4.698   0.021
 1122SOL    HW2 4266   4.396   4.850   6.989
 1123SOL     OW 4267   3.997   1.120   2.144
 1123SOL    HW1 4268   4.011   1.131   2.045
 1123SOL    HW2 4269   4.054   1.045   2.177
 1124SOL     OW 4270   1.056   4.905   4.390
 1124SOL    HW1 4271   1.109   4.947   4.464
 1124SOL    HW2 4272   1.040   4.809   4.412
 1125SOL     OW 4273   3.073   3.328   4.988
 1125SOL    HW1 4274   3.106   3.420   4.964
 1125SOL    HW2 4275   3.006   3.335   5.062
 1126SOL     OW 4276   6.473   0.226   2.367
 1126SOL    HW1 4277   6.568   0.257   2.355
 1126SOL    HW2 4278   6.438   0.257   2.455
 1127SOL     OW 4279   1.958   5.453   6.199
 1127SOL    HW1 4280   1.901   5.405   6.265
 1127SOL    HW2 4281   1.909   5.461   6.112
 1128SOL     OW 4282   2.205   1.688   4.052
 1128SOL    HW1 4283   2.227   1.758   4.120
 1128SOL    HW2 4284   2.222   1.725   3.960
 1129SOL     OW 4285   4.730   0.107   6.182
 1129SOL    HW1 4286   4.740   0.040   6.109
 1129SOL    HW2 4287   4.645   0.158   6.169
 1130SOL     OW 4288   0.265   5.464   6.383
 1130SOL    HW1 4289   0.289   5.561   6.375
 1130SOL    HW2 4290   0.251   5.441   6.479
 1131SOL     OW 4291   0.736   4.832   5.372
 1131SOL    HW1 4292   0.728   4.822   5.273
 1131SOL    HW2 4293   0.828   4.805   5.401
 1132SOL     OW 4294   5.343   0.237   5.229
 1132SOL    HW1 4295   5.393   0.151   5.238
 1132SOL    HW2 4296   5.278   0.246   5.305
 1133SOL     OW 4297   6.993   2.470   6.976
 1133SOL    HW1 4298   6.990   2.511   0.041
 1133SOL    HW2 4299   0.059   2.478   6.939
 1134SOL     OW 4300   6.384   2.431   5.917
 1134SOL    HW1 4301   6.290   2.452   5.945
 1134SOL    HW2 4302   6.421   2.509   5.866
 1135SOL     OW 4303   6.292   1.604   4.112
 1135SOL    HW1 4304   6.226   1.571   4.179
 1135SOL    HW2 4305   6.294   1.541   4.034
 1136SOL     OW 4306   3.569   5.193   3.895
 1136SOL    HW1 4307   3.632   5.212   3.971
 1136SOL    HW2 4308   3.476   5.217   3.922
 1137SOL     OW 4309   1.246   0.981   5.984
 1137SOL    HW1 4310   1.283   1.007   5.894
 1137SOL    HW2 4311   1.319   0.987   6.052
 1138SOL     OW 4312   0.323   4.537   5.862
 1138SOL    HW1 4313   0.365   4.485   5.788
 1138SOL    HW2 4314   0.330   4.485   5.947
 1139SOL     OW 4315   0.892   6.567   1.410
 1139SOL    HW1 4316   0.953   6.536   1.484
 1139SOL    HW2 4317   0.890   6.498   1.338
 1140SOL     OW 4318   3.569   1.784   3.587
 1140SOL    HW1 4319   3.519   1.710   3.632
 1140SOL    HW2 4320   3.667   1.773   3.603
 1141SOL     OW 4321   0.025   6.095   5.471
 1141SOL    HW1 4322   0.007   6.012   5.524
 1141SOL    HW2 4323   7.012   6.174   5.518
 1142SOL     OW 4324   6.247   0.885   4.232
 1142SOL    HW1 4325   6.232   0.786   4.229
 1142SOL    HW2 4326   6.272   0.912   4.325
 1143SOL     OW 4327   4.519   1.576   2.178
 1143SOL    HW1 4328   4.605   1.563   2.229
 1143SOL    HW2 4329   4.527   1.533   2.089
 1144SOL     OW 4330   1.357   0.026   5.503
 1144SOL    HW1 4331   1.344   6.981   5.434
 1144SOL    HW2 4332   1.442   0.010   5.552
 1145SOL     OW 4333   1.781   4.937   4.749
 1145SOL    HW1 4334   1.830   4.949   4.836
 1145SOL    HW2 4335   1.736   4.848   4.749
 1146SOL     OW 4336   6.548   1.776   1.081
 1146SOL    HW1 4337   6.490   1.707   1.037
 1146SOL    HW2 4338   6.514   1.793   1.173
 1147SOL     OW 4339   6.688   3.384   2.345
 1147SOL    HW1 4340   6.651   3.437   2.421
 1147SOL    HW2 4341   6.775   3.424   2.316
 1148SOL     OW 4342   4.977   1.289   6.745
 1148SOL    HW1 4343   4.990   1.349   6.824
 1148SOL    HW2 4344   4.893   1.315   6.698
 1149SOL     OW 4345   6.260   2.671   3.682
 1149SOL    HW1 4346   6.252   2.608   3.604
 1149SOL    HW2 4347   6.309   2.625   3.756
 1150SOL     OW 4348   1.119   5.259   5.678
 1150SOL    HW1 4349   1.065   5.175   5.668
 1150SOL    HW2 4350   1.163   5.281   5.591
 1151SOL     OW 4351   3.642   5.171   6.734
 1151SOL    HW1 4352   3.650   5.152   6.636
 1151SOL    HW2 4353   3.704   5.111   6.785
 1152SOL     OW 4354   0.537   1.326   4.413
 1152SOL    HW1 4355   0.584   1.374   4.339
 1152SOL    HW2 4356   0.438   1.339   4.403
 1153SOL     OW 4357   2.450   4.618   3.012
 1153SOL    HW1 4358   2.419   4.530   2.977
 1153SOL    HW2 4359   2.431   4.689   2.945
 1154SOL     OW 4360   1.904   4.188   2.035
 1154SOL    HW1 4361   1.966   4.130   1.982
 1154SOL    HW2 4362   1.821   4.136   2.058
 1155SOL     OW 4363   3.870   6.732   2.610
 1155SOL    HW1 4364   3.781   6.777   2.618
 1155SOL    HW2 4365   3.922   6.775   2.535
 1156SOL     OW 4366   1.316   1.699   3.586
 1156SOL    HW1 4367   1.300   1.797   3.575
 1156SOL    HW2 4368   1.355   1.682   3.677
 1157SOL     OW 4369   0.957   3.511   4.617
 1157SOL    HW1 4370   1.001   3.601   4.622
 1157SOL    HW2 4371   0.977   3.469   4.529
 1158SOL     OW 4372   4.304   5.868   6.452
 1158SOL    HW1 4373   4.250   5.951   6.437
 1158SOL    HW2 4374   4.325   5.860   6.550
 1159SOL     OW 4375   5.605   4.668   2.663
 1159SOL    HW1 4376   5.602   4.649   2.565
 1159SOL    HW2 4377   5.555   4.596   2.712
 1160SOL     OW 4378   2.696   2.593   0.804
 1160SOL    HW1 4379   2.745   2.607   0.718
 1160SOL    HW2 4380   2.721   2.666   0.868
 1161SOL     OW 4381   4.191   1.024   4.408
 1161SOL    HW1 4382   4.230   1.082   4.480
 1161SOL    HW2 4383   4.112   0.974   4.445
 1162SOL     OW 4384   4.094   4.792   1.463
 1162SOL    HW1 4385   4.110   4.694   1.475
 1162SOL    HW2 4386   4.180   4.842   1.476
 1163SOL     OW 4387   5.337   1.172   2.288
 1163SOL    HW1 4388   5.278   1.104   2.245
 1163SOL    HW2 4389   5.431   1.139   2.290
 1164SOL     OW 4390   6.144   3.624   4.190
 1164SOL    HW1 4391   6.079   3.697   4.212
 1164SOL    HW2 4392   6.202   3.652   4.114
 1165SOL     OW 4393   1.665   4.697   2.231
 1165SOL    HW1 4394   1.566   4.691   2.247
 1165SOL    HW2 4395   1.709   4.614   2.263
 1166SOL     OW 4396   3.409   2.415   6.658
 1166SOL    HW1 4397   3.412   2.389   6.755
 1166SOL    HW2 4398   3.347   2.354   6.609
 1167SOL     OW 4399   4.194   1.942   5.054
 1167SOL    HW1 4400   4.161   1.920   4.962
 1167SOL    HW2 4401   4.155   2.030   5.083
 1168SOL     OW 4402   6.187   6.814   3.178
 1168SOL    HW1 4403   6.274   6.830   3.226
 1168SOL    HW2 4404   6.194   6.730   3.125
 1169SOL     OW 4405   0.826   3.921   1.138
 1169SOL    HW1 4406   0.774   3.940   1.222
 1169SOL    HW2 4407   0.866   4.006   1.104
 1170SOL     OW 4408   3.314   0.496   1.352
 1170SOL    HW1 4409   3.266   0.571   1.397
 1170SOL    HW2 4410   3.310   0.509   1.253
 1171SOL     OW 4411   3.135   0.385   0.280
 1171SOL    HW1 4412   3.154   0.432   0.366
 1171SOL    HW2 4413   3.042   0.407   0.249
 1172SOL     OW 4414   2.961   3.662   4.476
 1172SOL    HW1 4415   3.007   3.665   4.564
 1172SOL    HW2 4416   2.985   3.743   4.422
 1173SOL     OW 4417   4.867   0.712   6.385
 1173SOL    HW1 4418   4.944   0.770   6.355
 1173SOL    HW2 4419   4.843   0.736   6.479
 1174SOL     OW 4420   3.087   5.996   6.775
 1174SOL    HW1 4421   3.145   5.997   6.857
 1174SOL    HW2 4422   3.010   5.934   6.790
 1175SOL     OW 4423   0.284   4.995   4.554
 1175SOL    HW1 4424   0.348   4.948   4.615
 1175SOL    HW2 4425   0.320   5.085   4.532
 1176SOL     OW 4426   6.291   3.307   1.135
 1176SOL    HW1 4427   6.282   3.318   1.234
 1176SOL    HW2 4428   6.211   3.347   1.090
 1177SOL     OW 4429   5.683   3.293   6.933
 1177SOL    HW1 4430   5.660   3.285   0.004
 1177SOL    HW2 4431   5.772   3.336   6.923
 1178SOL     OW 4432   5.148   3.983   2.125
 1178SOL    HW1 4433   5.234   3.941   2.095
 1178SOL    HW2 4434   5.144   3.984   2.225
 1179SOL     OW 4435   2.503   5.677   5.798
 1179SOL    HW1 4436   2.488   5.595   5.742
 1179SOL    HW2 4437   2.522   5.648   5.893
 1180SOL     OW 4438   1.760   1.487   3.845
 1180SOL    HW1 4439   1.852   1.448   3.848
 1180SOL    HW2 4440   1.753   1.560   3.913
 1181SOL     OW 4441   2.071   4.328   2.841
 1181SOL    HW1 4442   2.078   4.397   2.913
 1181SOL    HW2 4443   2.036   4.243   2.879
 1182SOL     OW 4444   1.407   3.886   3.383
 1182SOL    HW1 4445   1.507   3.889   3.386
 1182SOL    HW2 4446   1.370   3.896   3.475
 1183SOL     OW 4447   4.615   5.739   0.587
 1183SOL    HW1 4448   4.669   5.822   0.601
 1183SOL    HW2 4449   4.567   5.745   0.499
 1184SOL     OW 4450   3.570   3.332   5.790
 1184SOL    HW1 4451   3.561   3.297   5.883
 1184SOL    HW2 4452   3.528   3.268   5.726
 1185SOL     OW 4453   2.639   1.743   6.763
 1185SOL    HW1 4454   2.571   1.774   6.696
 1185SOL    HW2 4455   2.617   1.779   6.853
 1186SOL     OW 4456   3.017   0.836   5.127
 1186SOL    HW1 4457   3.070   0.913   5.163
 1186SOL    HW2 4458   2.922   0.845   5.157
 1187SOL     OW 4459   0.676   1.602   5.220
 1187SOL    HW1 4460   0.700   1.597   5.123
 1187SOL    HW2 4461   0.759   1.593   5.275
 1188SOL     OW 4462   1.525   0.504   4.919
 1188SOL    HW1 4463   1.577   0.566   4.977
 1188SOL    HW2 4464   1.429   0.502   4.949
 1189SOL     OW 4465   0.402   0.890   1.109
 1189SOL    HW1 4466   0.495   0.863   1.134
 1189SOL    HW2 4467   0.403   0.930   1.017
 1190SOL     OW 4468   3.948   4.794   2.647
 1190SOL    HW1 4469   4.033   4.767   2.601
 1190SOL    HW2 4470   3.965   4.809   2.744
 1191SOL     OW 4471   2.963   4.846   0.611
 1191SOL    HW1 4472   2.912   4.777   0.663
 1191SOL    HW2 4473   2.973   4.815   0.517
 1192SOL     OW 4474   4.558   4.718   2.574
 1192SOL    HW1 4475   4.522   4.648   2.513
 1192SOL    HW2 4476   4.556   4.685   2.668
 1193SOL     OW 4477   4.189   6.886   3.744
 1193SOL    HW1 4478   4.128   6.818   3.784
 1193SOL    HW2 4479   4.135   6.953   3.692
 1194SOL     OW 4480   6.420   0.846   1.370
 1194SOL    HW1 4481   6.359   0.909   1.321
 1194SOL    HW2 4482   6.482   0.802   1.305
 1195SOL     OW 4483   3.379   6.352   6.843
 1195SOL    HW1 4484   3.405   6.447   6.831
 1195SOL    HW2 4485   3.351   6.336   6.937
 1196SOL     OW 4486   1.239   5.404   3.249
 1196SOL    HW1 4487   1.221   5.381   3.153
 1196SOL    HW2 4488   1.335   5.430   3.260
 1197SOL     OW 4489   3.131   5.180   6.626
 1197SOL    HW1 4490   3.169   5.090   6.605
 1197SOL    HW2 4491   3.206   5.244   6.641
 1198SOL     OW 4492   3.899   1.512   2.495
 1198SOL    HW1 4493   3.889   1.444   2.423
 1198SOL    HW2 4494   3.968   1.580   2.467
 1199SOL     OW 4495   2.937   3.747   3.953
 1199SOL    HW1 4496   2.938   3.704   3.862
 1199SOL    HW2 4497   2.916   3.677   4.022
 1200SOL     OW 4498   4.015   3.402   1.210
 1200SOL    HW1 4499   4.085   3.425   1.142
 1200SOL    HW2 4500   4.053   3.338   1.277
 1201SOL     OW 4501   1.060   0.979   4.677
 1201SOL    HW1 4502   1.092   0.986   4.771
 1201SOL    HW2 4503   0.990   0.907   4.671
 1202SOL     OW 4504   6.169   0.099   4.792
 1202SOL    HW1 4505   6.102   0.147   4.735
 1202SOL    HW2 4506   6.157   0.000   4.781
 1203SOL     OW 4507   6.031   6.357   1.923
 1203SOL    HW1 4508   5.940   6.325   1.897
 1203SOL    HW2 4509   6.069   6.412   1.849
 1204SOL     OW 4510   1.409   6.606   6.935
 1204SOL    HW1 4511   1.483   6.561   6.985
 1204SOL    HW2 4512   1.443   6.690   6.891
 1205SOL     OW 4513   0.851   3.136   5.097
 1205SOL    HW1 4514   0.852   3.235   5.112
 1205SOL    HW2 4515   0.780   3.115   5.029
 1206SOL     OW 4516   0.202   2.178   4.607
 1206SOL    HW1 4517   0.195   2.193   4.508
 1206SOL    HW2 4518   0.266   2.104   4.625
 1207SOL     OW 4519   5.766   6.489   6.771
 1207SOL    HW1 4520   5.863   6.514   6.765
 1207SOL    HW2 4521   5.759   6.391   6.791
 1208SOL     OW 4522   3.491   3.883   3.181
 1208SOL    HW1 4523   3.528   3.963   3.134
 1208SOL    HW2 4524   3.564   3.836   3.229
 1209SOL     OW 4525   6.906   4.141   4.760
 1209SOL    HW1 4526   6.892   4.223   4.703
 1209SOL    HW2 4527   6.904   4.060   4.702
 1210SOL     OW 4528   2.747   6.836   2.797
 1210SOL    HW1 4529   2.800   6.862   2.716
 1210SOL    HW2 4530   2.779   6.888   2.876
 1211SOL     OW 4531   1.246   3.375   3.332
 1211SOL    HW1 4532   1.340   3.348   3.310
 1211SOL    HW2 4533   1.186   3.350   3.256
 1212SOL     OW 4534   1.214   3.853   3.614
 1212SOL    HW1 4535   1.176   3.775   3.563
 1212SOL    HW2 4536   1.180   3.938   3.574
 1213SOL     OW 4537   5.773   3.254   5.043
 1213SOL    HW1 4538   5.715   3.216   4.971
 1213SOL    HW2 4539   5.719   3.314   5.101
 1214SOL     OW 4540   1.517   2.371   2.359
 1214SOL    HW1 4541   1.433   2.367   2.412
 1214SOL    HW2 4542   1.498   2.407   2.267
 1215SOL     OW 4543   0.026   5.558   2.289
 1215SOL    HW1 4544   0.071   5.470   2.303
 1215SOL    HW2 4545   0.085   5.631   2.324
 1216SOL     OW 4546   2.889   0.448   1.451
 1216SOL    HW1 4547   2.809   0.486   1.496
 1216SOL    HW2 4548   2.880   0.348   1.446
 1217SOL     OW 4549   2.065   1.915   2.291
 1217SOL    HW1 4550   1.972   1.888   2.317
 1217SOL    HW2 4551   2.068   1.933   2.192
 1218SOL     OW 4552   0.037   3.529   3.247
 1218SOL    HW1 4553   0.066   3.439   3.279
 1218SOL    HW2 4554   0.098   3.599   3.285
 1219SOL     OW 4555   2.473   6.030   4.062
 1219SOL    HW1 4556   2.417   6.111   4.048
 1219SOL    HW2 4557   2.541   6.024   3.990
 1220SOL     OW 4558   5.992   4.269   3.008
 1220SOL    HW1 4559   5.920   4.199   3.014
 1220SOL    HW2 4560   5.992   4.309   2.916
 1221SOL     OW 4561   4.985   3.926   6.327
 1221SOL    HW1 4562   4.987   3.926   6.227
 1221SOL    HW2 4563   5.076   3.946   6.362
 1222SOL     OW 4564   6.276   5.135   1.676
 1222SOL    HW1 4565   6.267   5.234   1.691
 1222SOL    HW2 4566   6.370   5.115   1.649
 1223SOL     OW 4567   6.653   4.921   5.142
 1223SOL    HW1 4568   6.653   4.869   5.227
 1223SOL    HW2 4569   6.672   4.860   5.065
 1224SOL     OW 4570   4.825   4.552   1.239
 1224SOL    HW1 4571   4.769   4.576   1.318
 1224SOL    HW2 4572   4.857   4.635   1.194
 1225SOL     OW 4573   3.569   1.895   0.033
 1225SOL    HW1 4574   3.548   1.952   6.980
 1225SOL    HW2 4575   3.489   1.842   0.058
 1226SOL     OW 4576   5.166   5.598   0.835
 1226SOL    HW1 4577   5.240   5.532   0.819
 1226SOL    HW2 4578   5.078   5.557   0.810
 1227SOL     OW 4579   4.932   4.719   6.822
 1227SOL    HW1 4580   4.909   4.622   6.817
 1227SOL    HW2 4581   4.849   4.774   6.819
 1228SOL     OW 4582   3.755   4.083   4.493
 1228SOL    HW1 4583   3.759   3.992   4.534
 1228SOL    HW2 4584   3.661   4.116   4.492
 1229SOL     OW 4585   2.612   5.987   3.160
 1229SOL    HW1 4586   2.588   6.077   3.197
 1229SOL    HW2 4587   2.697   5.995   3.107
 1230SOL     OW 4588   5.644   5.390   1.189
 1230SOL    HW1 4589   5.655   5.295   1.158
 1230SOL    HW2 4590   5.547   5.407   1.209
 1231SOL     OW 4591   2.325   1.570   6.737
 1231SOL    HW1 4592   2.407   1.578   6.680
 1231SOL    HW2 4593   2.275   1.656   6.736
 1232SOL     OW 4594   3.089   1.514   5.305
 1232SOL    HW1 4595   3.121   1.571   5.381
 1232SOL    HW2 4596   3.149   1.528   5.226
 1233SOL     OW 4597   6.828   5.258   4.697
 1233SOL    HW1 4598   6.842   5.159   4.686
 1233SOL    HW2 4599   6.908   5.297   4.743
 1234SOL     OW 4600   6.224   4.647   6.892
 1234SOL    HW1 4601   6.142   4.600   6.926
 1234SOL    HW2 4602   6.288   4.662   6.967
 1235SOL     OW 4603   6.141   4.885   0.934
 1235SOL    HW1 4604   6.202   4.810   0.962
 1235SOL    HW2 4605   6.103   4.865   0.844
 1236SOL     OW 4606   1.724   1.372   2.201
 1236SOL    HW1 4607   1.654   1.429   2.244
 1236SOL    HW2 4608   1.682   1.313   2.132
 1237SOL     OW 4609   1.019   0.340   4.341
 1237SOL    HW1 4610   1.027   0.400   4.261
 1237SOL    HW2 4611   1.037   0.394   4.424
 1238SOL     OW 4612   0.767   0.510   4.930
 1238SOL    HW1 4613   0.794   0.513   5.026
 1238SOL    HW2 4614   0.693   0.574   4.914
 1239SOL     OW 4615   4.967   5.135   4.107
 1239SOL    HW1 4616   4.910   5.137   4.025
 1239SOL    HW2 4617   5.063   5.126   4.080
 1240SOL     OW 4618   0.658   3.417   1.266
 1240SOL    HW1 4619   0.617   3.449   1.181
 1240SOL    HW2 4620   0.756   3.438   1.266
 1241SOL     OW 4621   3.954   5.006   6.265
 1241SOL    HW1 4622   3.979   5.092   6.310
 1241SOL    HW2 4623   4.025   4.937   6.281
 1242SOL     OW 4624   2.524   5.460   0.644
 1242SOL    HW1 4625   2.587   5.450   0.567
 1242SOL    HW2 4626   2.450   5.394   0.635
 1243SOL     OW 4627   1.125   3.564   3.720
 1243SOL    HW1 4628   1.108   3.552   3.622
 1243SOL    HW2 4629   1.223   3.558   3.738
 1244SOL     OW 4630   6.351   6.898   5.242
 1244SOL    HW1 4631   6.303   6.968   5.189
 1244SOL    HW2 4632   6.444   6.930   5.263
 1245SOL     OW 4633   4.761   6.566   1.239
 1245SOL    HW1 4634   4.792   6.567   1.145
 1245SOL    HW2 4635   4.792   6.482   1.285
 1246SOL     OW 4636   5.710   1.805   0.884
 1246SOL    HW1 4637   5.801   1.846   0.886
 1246SOL    HW2 4638   5.717   1.710   0.854
 1247SOL     OW 4639   6.123   6.774   2.534
 1247SOL    HW1 4640   6.045   6.755   2.594
 1247SOL    HW2 4641   6.175   6.690   2.520
 1248SOL     OW 4642   0.634   6.593   4.599
 1248SOL    HW1 4643   0.726   6.560   4.623
 1248SOL    HW2 4644   0.597   6.646   4.676
 1249SOL     OW 4645   5.647   5.865   6.432
 1249SOL    HW1 4646   5.712   5.937   6.408
 1249SOL    HW2 4647   5.658   5.840   6.528
 1250SOL     OW 4648   0.966   4.596   4.694
 1250SOL    HW1 4649   0.873   4.595   4.729
 1250SOL    HW2 4650   1.008   4.685   4.710
 1251SOL     OW 4651   2.953   0.128   2.745
 1251SOL    HW1 4652   2.997   0.206   2.701
 1251SOL    HW2 4653   2.928   0.060   2.676
 1252SOL     OW 4654   2.253   5.180   6.762
 1252SOL    HW1 4655   2.242   5.087   6.795
 1252SOL    HW2 4656   2.327   5.225   6.813
 1253SOL     OW 4657   2.843   6.411   6.855
 1253SOL    HW1 4658   2.889   6.479   6.912
 1253SOL    HW2 4659   2.912   6.354   6.809
 1254SOL     OW 4660   6.519   1.589   3.279
 1254SOL    HW1 4661   6.573   1.509   3.306
 1254SOL    HW2 4662   6.494   1.581   3.182
 1255SOL     OW 4663   5.944   1.889   5.931
 1255SOL    HW1 4664   5.948   1.958   5.859
 1255SOL    HW2 4665   5.986   1.925   6.014
 1256SOL     OW 4666   0.421   5.581   4.353
 1256SOL    HW1 4667   0.480   5.546   4.426
 1256SOL    HW2 4668   0.423   5.681   4.354
 1257SOL     OW 4669   6.866   6.036   3.251
 1257SOL    HW1 4670   6.889   5.969   3.322
 1257SOL    HW2 4671   6.774   6.018   3.217
 1258SOL     OW 4672   4.545   5.872   6.310
 1258SOL    HW1 4673   4.460   5.865   6.361
 1258SOL    HW2 4674   4.597   5.952   6.341
 1259SOL     OW 4675   5.446   0.013   5.524
 1259SOL    HW1 4676   5.452   6.956   5.580
 1259SOL    HW2 4677   5.423   7.015   5.430
 1260SOL     OW 4678   3.220   0.934   0.968
 1260SOL    HW1 4679   3.303   0.904   1.016
 1260SOL    HW2 4680   3.140   0.906   1.020
 1261SOL     OW 4681   0.099   4.432   5.157
 1261SOL    HW1 4682   7.026   4.426   5.167
 1261SOL    HW2 4683   0.126   4.528   5.147
 1262SOL     OW 4684   4.559   5.837   1.748
 1262SOL    HW1 4685   4.564   5.886   1.835
 1262SOL    HW2 4686   4.632   5.769   1.743
 1263SOL     OW 4687   6.625   1.697   0.730
 1263SOL    HW1 4688   6.609   1.791   0.763
 1263SOL    HW2 4689   6.585   1.632   0.794
 1264SOL     OW 4690   6.281   2.571   4.614
 1264SOL    HW1 4691   6.250   2.527   4.698
 1264SOL    HW2 4692   6.379   2.553   4.601
 1265SOL     OW 4693   6.493   5.872   4.849
 1265SOL    HW1 4694   6.408   5.898   4.895
 1265SOL    HW2 4695   6.472   5.812   4.772
 1266SOL     OW 4696   2.638   0.647   3.942
 1266SOL    HW1 4697   2.714   0.584   3.954
 1266SOL    HW2 4698   2.593   0.662   4.030
 1267SOL     OW 4699   0.083   4.596   3.102
 1267SOL    HW1 4700   0.060   4.606   3.005
 1267SOL    HW2 4701   0.069   4.683   3.149
 1268SOL     OW 4702   5.983   4.511   6.896
 1268SOL    HW1 4703   5.913   4.580   6.914
 1268SOL    HW2 4704   5.996   4.503   6.797
 1269SOL     OW 4705   6.674   4.834   6.145
 1269SOL    HW1 4706   6.619   4.897   6.089
 1269SOL    HW2 4707   6.766   4.828   6.108
 1270SOL     OW 4708   1.672   2.009   4.742
 1270SOL    HW1 4709   1.650   1.974   4.833
 1270SOL    HW2 4710   1.719   1.937   4.690
 1271SOL     OW 4711   5.109   2.804   3.302
 1271SOL    HW1 4712   5.156   2.721   3.273
 1271SOL    HW2 4713   5.036   2.780   3.366
 1272SOL     OW 4714   6.222   0.087   1.641
 1272SOL    HW1 4715   6.219   0.066   1.543
 1272SOL    HW2 4716   6.269   0.013   1.689
 1273SOL     OW 4717   2.717   6.348   6.056
 1273SOL    HW1 4718   2.762   6.285   5.994
 1273SOL    HW2 4719   2.690   6.299   6.139
 1274SOL     OW 4720   5.473   2.085   2.011
 1274SOL    HW1 4721   5.557   2.083   2.065
 1274SOL    HW2 4722   5.413   2.157   2.045
 1275SOL     OW 4723   3.968   1.639   3.951
 1275SOL    HW1 4724   3.883   1.614   3.905
 1275SOL    HW2 4725   4.036   1.567   3.936
 1276SOL     OW 4726   6.115   0.253   3.030
 1276SOL    HW1 4727   6.039   0.241   2.966
 1276SOL    HW2 4728   6.136   0.351   3.038
 1277SOL     OW 4729   0.491   1.944   5.058
 1277SOL    HW1 4730   0.490   1.850   5.024
 1277SOL    HW2 4731   0.441   1.948   5.145
 1278SOL     OW 4732   2.537   1.619   5.893
 1278SOL    HW1 4733   2.463   1.554   5.876
 1278SOL    HW2 4734   2.567   1.610   5.988
 1279SOL     OW 4735   2.350   5.262   0.589
 1279SOL    HW1 4736   2.295   5.242   0.508
 1279SOL    HW2 4737   2.412   5.185   0.607
 1280SOL     OW 4738   1.948   6.003   2.680
 1280SOL    HW1 4739   1.959   6.002   2.779
 1280SOL    HW2 4740   1.912   6.091   2.651
 1281SOL     OW 4741   0.739   6.722   4.068
 1281SOL    HW1 4742   0.699   6.663   4.139
 1281SOL    HW2 4743   0.688   6.808   4.064
 1282SOL     OW 4744   1.190   0.250   2.461
 1282SOL    HW1 4745   1.111   0.311   2.450
 1282SOL    HW2 4746   1.165   0.173   2.519
 1283SOL     OW 4747   4.930   4.684   4.715
 1283SOL    HW1 4748   4.873   4.608   4.685
 1283SOL    HW2 4749   4.900   4.714   4.806
 1284SOL     OW 4750   2.731   1.831   2.649
 1284SOL    HW1 4751   2.817   1.866   2.686
 1284SOL    HW2 4752   2.674   1.907   2.620
 1285SOL     OW 4753   5.591   2.283   6.429
 1285SOL    HW1 4754   5.634   2.194   6.444
 1285SOL    HW2 4755   5.578   2.329   6.517
 1286SOL     OW 4756   5.964   6.005   1.698
 1286SOL    HW1 4757   5.867   5.999   1.723
 1286SOL    HW2 4758   6.015   5.933   1.745
 1287SOL     OW 4759   6.041   4.850   6.228
 1287SOL    HW1 4760   6.124   4.797   6.209
 1287SOL    HW2 4761   5.979   4.796   6.284
 1288SOL     OW 4762   6.703   2.668   3.435
 1288SOL    HW1 4763   6.694   2.607   3.514
 1288SOL    HW2 4764   6.614   2.703   3.408
 1289SOL     OW 4765   6.803   5.289   2.237
 1289SOL    HW1 4766   6.732   5.311   2.304
 1289SOL    HW2 4767   6.799   5.355   2.162
 1290SOL     OW 4768   0.033   6.682   1.268
 1290SOL    HW1 4769   0.065   6.729   1.186
 1290SOL    HW2 4770   0.110   6.638   1.314
 1291SOL     OW 4771   1.414   6.809   0.652
 1291SOL    HW1 4772   1.477   6.779   0.580
 1291SOL    HW2 4773   1.421   6.908   0.664
 1292SOL     OW 4774   0.827   6.147   6.287
 1292SOL    HW1 4775   0.894   6.090   6.333
 1292SOL    HW2 4776   0.735   6.121   6.316
 1293SOL     OW 4777   6.458   2.637   5.751
 1293SOL    HW1 4778   6.431   2.715   5.807
 1293SOL    HW2 4779   6.520   2.667   5.678
 1294SOL     OW 4780   0.376   1.922   2.951
 1294SOL    HW1 4781   0.418   1.991   3.010
 1294SOL    HW2 4782   0.284   1.952   2.924
 1295SOL     OW 4783   4.745   3.276   1.687
 1295SOL    HW1 4784   4.786   3.287   1.777
 1295SOL    HW2 4785   4.682   3.351   1.669
 1296SOL     OW 4786   3.451   2.495   0.047
 1296SOL    HW1 4787   3.478   2.472   0.140
 1296SOL    HW2 4788   3.515   2.563   0.010
 1297SOL     OW 4789   6.272   1.267   6.924
 1297SOL    HW1 4790   6.193   1.237   6.978
 1297SOL    HW2 4791   6.283   1.366   6.935
 1298SOL     OW 4792   6.391   3.147   3.567
 1298SOL    HW1 4793   6.424   3.106   3.482
 1298SOL    HW2 4794   6.416   3.243   3.570
 1299SOL     OW 4795   1.158   3.433   4.375
 1299SOL    HW1 4796   1.214   3.375   4.316
 1299SOL    HW2 4797   1.217   3.480   4.441
 1300SOL     OW 4798   3.255   3.459   1.504
 1300SOL    HW1 4799   3.329   3.438   1.567
 1300SOL    HW2 4800   3.290   3.516   1.430
 1301SOL     OW 4801   0.434   0.457   2.771
 1301SOL    HW1 4802   0.346   0.479   2.813
 1301SOL    HW2 4803   0.506   0.511   2.813
 1302SOL     OW 4804   2.935   5.848   5.605
 1302SOL    HW1 4805   2.915   5.809   5.515
 1302SOL    HW2 4806   3.004   5.791   5.651
 1303SOL     OW 4807   3.677   0.075   1.152
 1303SOL    HW1 4808   3.768   0.118   1.147
 1303SOL    HW2 4809   3.669   0.023   1.237
 1304SOL     OW 4810   3.581   0.563   6.177
 1304SOL    HW1 4811   3.499   0.507   6.188
 1304SOL    HW2 4812   3.562   0.641   6.119
 1305SOL     OW 4813   6.122   6.429   4.225
 1305SOL    HW1 4814   6.166   6.356   4.173
 1305SOL    HW2 4815   6.090   6.393   4.313
 1306SOL     OW 4816   1.274   5.033   4.577
 1306SOL    HW1 4817   1.272   4.965   4.650
 1306SOL    HW2 4818   1.338   5.003   4.505
 1307SOL     OW 4819   1.808   1.901   4.504
 1307SOL    HW1 4820   1.799   1.887   4.405
 1307SOL    HW2 4821   1.804   1.812   4.551
 1308SOL     OW 4822   4.727   6.204   2.943
 1308SOL    HW1 4823   4.713   6.245   3.033
 1308SOL    HW2 4824   4.647   6.223   2.886
 1309SOL     OW 4825   6.067   3.041   4.804
 1309SOL    HW1 4826   6.126   3.104   4.855
 1309SOL    HW2 4827   6.095   3.041   4.708
 1310SOL     OW 4828   5.279   3.884   5.213
 1310SOL    HW1 4829   5.218   3.878   5.134
 1310SOL    HW2 4830   5.337   3.802   5.216
 1311SOL     OW 4831   5.598   5.346   5.382
 1311SOL    HW1 4832   5.623   5.317   5.290
 1311SOL    HW2 4833   5.548   5.272   5.428
 1312SOL     OW 4834   6.083   0.208   2.458
 1312SOL    HW1 4835   6.114   0.135   2.519
 1312SOL    HW2 4836   6.119   0.194   2.366
 1313SOL     OW 4837   3.342   4.869   5.105
 1313SOL    HW1 4838   3.260   4.893   5.052
 1313SOL    HW2 4839   3.323   4.789   5.161
 1314SOL     OW 4840   5.550   1.523   5.325
 1314SOL    HW1 4841   5.650   1.529   5.329
 1314SOL    HW2 4842   5.510   1.609   5.356
 1315SOL     OW 4843   2.208   0.680   3.295
 1315SOL    HW1 4844   2.164   0.648   3.211
 1315SOL    HW2 4845   2.157   0.647   3.374
 1316SOL     OW 4846   3.015   6.486   2.647
 1316SOL    HW1 4847   2.951   6.409   2.636
 1316SOL    HW2 4848   3.004   6.524   2.739
 1317SOL     OW 4849   0.066   4.529   4.107
 1317SOL    HW1 4850   7.006   4.575   4.126
 1317SOL    HW2 4851   0.061   4.434   4.138
 1318SOL     OW 4852   0.597   6.023   1.283
 1318SOL    HW1 4853   0.515   5.988   1.330
 1318SOL    HW2 4854   0.671   6.035   1.349
 1319SOL     OW 4855   6.060   0.616   0.200
 1319SOL    HW1 4856   6.117   0.601   0.119
 1319SOL    HW2 4857   5.964   0.608   0.175
 1320SOL     OW 4858   5.606   5.858   5.454
 1320SOL    HW1 4859   5.677   5.914   5.411
 1320SOL    HW2 4860   5.601   5.769   5.408
 1321SOL     OW 4861   3.048   1.715   6.920
 1321SOL    HW1 4862   3.032   1.632   6.867
 1321SOL    HW2 4863   2.980   1.784   6.896
 1322SOL     OW 4864   5.522   1.386   5.801
 1322SOL    HW1 4865   5.423   1.395   5.790
 1322SOL    HW2 4866   5.544   1.295   5.834
 1323SOL     OW 4867   6.090   0.728   3.845
 1323SOL    HW1 4868   6.019   0.659   3.829
 1323SOL    HW2 4869   6.050   0.805   3.894
 1324SOL     OW 4870   1.158   3.663   0.194
 1324SOL    HW1 4871   1.251   3.627   0.195
 1324SOL    HW2 4872   1.110   3.633   0.277
 1325SOL     OW 4873   3.170   5.488   3.375
 1325SOL    HW1 4874   3.119   5.464   3.458
 1325SOL    HW2 4875   3.156   5.417   3.306
 1326SOL     OW 4876   5.017   4.080   4.737
 1326SOL    HW1 4877   4.964   4.147   4.790
 1326SOL    HW2 4878   5.106   4.119   4.713
 1327SOL     OW 4879   2.971   6.029   3.339
 1327SOL    HW1 4880   2.888   6.016   3.394
 1327SOL    HW2 4881   3.050   6.036   3.399
 1328SOL     OW 4882   1.921   1.856   0.118
 1328SOL    HW1 4883   1.977   1.829   0.197
 1328SOL    HW2 4884   1.872   1.777   0.083
 1329SOL     OW 4885   1.005   0.614   1.700
 1329SOL    HW1 4886   0.993   0.531   1.646
 1329SOL    HW2 4887   1.056   0.682   1.647
 1330SOL     OW 4888   5.193   6.489   0.888
 1330SOL    HW1 4889   5.261   6.417   0.880
 1330SOL    HW2 4890   5.224   6.558   0.953
 1331SOL     OW 4891   0.099   1.421   2.775
 1331SOL    HW1 4892   0.007   1.417   2.736
 1331SOL    HW2 4893   0.130   1.516   2.777
 1332SOL     OW 4894   3.786   1.606   1.004
 1332SOL    HW1 4895   3.861   1.640   0.948
 1332SOL    HW2 4896   3.802   1.510   1.027
 1333SOL     OW 4897   3.701   3.133   4.476
 1333SOL    HW1 4898   3.737   3.181   4.396
 1333SOL    HW2 4899   3.649   3.053   4.446
 1334SOL     OW 4900   0.520   4.464   3.623
 1334SOL    HW1 4901   0.437   4.516   3.606
 1334SOL    HW2 4902   0.595   4.503   3.569
 1335SOL     OW 4903   2.487   5.537   1.970
 1335SOL    HW1 4904   2.448   5.519   1.880
 1335SOL    HW2 4905   2.575   5.583   1.959
 1336SOL     OW 4906   0.029   0.520   4.719
 1336SOL    HW1 4907   6.993   0.539   4.643
 1336SOL    HW2 4908   0.005   0.578   4.797
 1337SOL     OW 4909   2.788   0.659   6.923
 1337SOL    HW1 4910   2.775   0.568   6.883
 1337SOL    HW2 4911   2.751   0.661   7.016
 1338SOL     OW 4912   3.822   5.625   1.025
 1338SOL    HW1 4913   3.886   5.613   1.101
 1338SOL    HW2 4914   3.817   5.722   1.001
 1339SOL     OW 4915   6.986   4.755   5.660
 1339SOL    HW1 4916   6.985   4.768   5.759
 1339SOL    HW2 4917   0.053   4.767   5.626
 1340SOL     OW 4918   1.976   1.081   6.149
 1340SOL    HW1 4919   1.945   1.119   6.236
 1340SOL    HW2 4920   2.076   1.075   6.149
 1341SOL     OW 4921   5.953   2.052   3.852
 1341SOL    HW1 4922   5.974   2.092   3.941
 1341SOL    HW2 4923   6.033   2.060   3.793
 1342SOL     OW 4924   0.509   6.050   1.729
 1342SOL    HW1 4925   0.449   6.081   1.802
 1342SOL    HW2 4926   0.454   6.017   1.652
 1343SOL     OW 4927   3.308   4.940   3.065
 1343SOL    HW1 4928   3.219   4.901   3.041
 1343SOL    HW2 4929   3.371   4.930   2.988
 1344SOL     OW 4930   5.591   1.285   2.973
 1344SOL    HW1 4931   5.521   1.347   3.009
 1344SOL    HW2 4932   5.606   1.304   2.876
 1345SOL     OW 4933   1.102   6.827   3.446
 1345SOL    HW1 4934   1.044   6.852   3.524
 1345SOL    HW2 4935   1.175   6.766   3.476
 1346SOL     OW 4936   0.242   0.897   4.204
 1346SOL    HW1 4937   0.279   0.963   4.269
 1346SOL    HW2 4938   0.317   0.851   4.157
 1347SOL     OW 4939   5.134   0.673   3.847
 1347SOL    HW1 4940   5.204   0.617   3.802
 1347SOL    HW2 4941   5.068   0.705   3.780
 1348SOL     OW 4942   4.534   6.035   4.617
 1348SOL    HW1 4943   4.629   6.059   4.637
 1348SOL    HW2 4944   4.504   6.085   4.535
 1349SOL     OW 4945   4.900   2.365   0.051
 1349SOL    HW1 4946   4.912   2.288   0.113
 1349SOL    HW2 4947   4.952   2.444   0.084
 1350SOL     OW 4948   3.479   0.327   5.122
 1350SOL    HW1 4949   3.451   0.423   5.114
 1350SOL    HW2 4950   3.567   0.323   5.169
 1351SOL     OW 4951   0.972   1.713   4.562
 1351SOL    HW1 4952   1.051   1.766   4.530
 1351SOL    HW2 4953   0.888   1.762   4.542
 1352SOL     OW 4954   0.709   6.584   3.809
 1352SOL    HW1 4955   0.615   6.560   3.835
 1352SOL    HW2 4956   0.752   6.637   3.882
 1353SOL     OW 4957   1.982   2.512   4.726
 1353SOL    HW1 4958   1.933   2.599   4.733
 1353SOL    HW2 4959   2.052   2.519   4.655
 1354SOL     OW 4960   0.501   6.636   0.296
 1354SOL    HW1 4961   0.579   6.660   0.239
 1354SOL    HW2 4962   0.426   6.700   0.281
 1355SOL     OW 4963   3.963   3.411   7.021
 1355SOL    HW1 4964   4.001   3.355   6.948
 1355SOL    HW2 4965   3.900   3.356   0.050
 1356SOL     OW 4966   3.262   3.112   1.738
 1356SOL    HW1 4967   3.223   3.133   1.828
 1356SOL    HW2 4968   3.188   3.095   1.672
 1357SOL     OW 4969   2.936   2.957   6.042
 1357SOL    HW1 4970   2.909   2.881   6.099
 1357SOL    HW2 4971   2.861   3.024   6.037
 1358SOL     OW 4972   2.129   3.502   5.959
 1358SOL    HW1 4973   2.160   3.596   5.941
 1358SOL    HW2 4974   2.154   3.444   5.881
 1359SOL     OW 4975   0.148   0.911   0.104
 1359SOL    HW1 4976   0.092   0.926   0.185
 1359SOL    HW2 4977   0.090   0.906   0.023
 1360SOL     OW 4978   3.335   2.942   4.080
 1360SOL    HW1 4979   3.242   2.946   4.043
 1360SOL    HW2 4980   3.378   3.031   4.071
 1361SOL     OW 4981   1.008   6.171   1.314
 1361SOL    HW1 4982   0.918   6.211   1.298
 1361SOL    HW2 4983   1.077   6.223   1.264
 1362SOL     OW 4984   2.733   2.325   6.003
 1362SOL    HW1 4985   2.763   2.321   5.908
 1362SOL    HW2 4986   2.807   2.294   6.063
 1363SOL     OW 4987   6.808   6.726   1.349
 1363SOL    HW1 4988   6.900   6.703   1.316
 1363SOL    HW2 4989   6.740   6.675   1.297
 1364SOL     OW 4990   1.025   4.158   0.777
 1364SOL    HW1 4991   1.040   4.239   0.720
 1364SOL    HW2 4992   1.083   4.084   0.743
 1365SOL     OW 4993   0.539   3.847   5.401
 1365SOL    HW1 4994   0.489   3.775   5.354
 1365SOL    HW2 4995   0.573   3.913   5.335
 1366SOL     OW 4996   4.383   0.564   0.891
 1366SOL    HW1 4997   4.407   0.641   0.832
 1366SOL    HW2 4998   4.302   0.588   0.945
 1367SOL     OW 4999   1.448   6.851   4.523
 1367SOL    HW1 5000   1.446   6.873   4.425
 1367SOL    HW2 5001   1.412   6.759   4.538
 1368SOL     OW 5002   0.964   6.991   4.781
 1368SOL    HW1 5003   0.865   6.976   4.787
 1368SOL    HW2 5004   0.999   6.945   4.699
 1369SOL     OW 5005   2.893   5.914   3.875
 1369SOL    HW1 5006   2.973   5.902   3.817
 1369SOL    HW2 5007   2.911   5.878   3.967
 1370SOL     OW 5008   6.799   2.522   3.088
 1370SOL    HW1 5009   6.861   2.550   3.161
 1370SOL    HW2 5010   6.781   2.600   3.028
 1371SOL     OW 5011   6.121   2.298   5.478
 1371SOL    HW1 5012   6.074   2.355   5.547
 1371SOL    HW2 5013   6.112   2.202   5.503
 1372SOL     OW 5014   5.817   2.895   0.972
 1372SOL    HW1 5015   5.755   2.873   0.897
 1372SOL    HW2 5016   5.887   2.824   0.979
 1373SOL     OW 5017   5.656   2.827   1.544
 1373SOL    HW1 5018   5.657   2.927   1.543
 1373SOL    HW2 5019   5.686   2.793   1.455
 1374SOL     OW 5020   4.327   3.613   1.716
 1374SOL    HW1 5021   4.290   3.544   1.778
 1374SOL    HW2 5022   4.304   3.704   1.750
 1375SOL     OW 5023   5.581   4.857   4.331
 1375SOL    HW1 5024   5.535   4.829   4.247
 1375SOL    HW2 5025   5.513   4.875   4.402
 1376SOL     OW 5026   3.045   4.709   6.004
 1376SOL    HW1 5027   2.948   4.685   5.993
 1376SOL    HW2 5028   3.093   4.633   6.047
 1377SOL     OW 5029   2.481   1.644   3.005
 1377SOL    HW1 5030   2.528   1.722   3.045
 1377SOL    HW2 5031   2.533   1.610   2.927
 1378SOL     OW 5032   5.142   2.658   4.106
 1378SOL    HW1 5033   5.177   2.752   4.110
 1378SOL    HW2 5034   5.162   2.612   4.192
 1379SOL     OW 5035   4.551   5.325   0.574
 1379SOL    HW1 5036   4.510   5.409   0.608
 1379SOL    HW2 5037   4.486   5.250   0.581
 1380SOL     OW 5038   0.309   6.037   2.682
 1380SOL    HW1 5039   0.407   6.024   2.666
 1380SOL    HW2 5040   0.287   6.134   2.676
 1381SOL     OW 5041   6.265   2.148   6.429
 1381SOL    HW1 5042   6.237   2.065   6.477
 1381SOL    HW2 5043   6.260   2.226   6.492
 1382SOL     OW 5044   4.636   2.474   0.055
 1382SOL    HW1 5045   4.717   2.421   0.081
 1382SOL    HW2 5046   4.647   2.569   0.084
 1383SOL     OW 5047   6.774   0.447   0.903
 1383SOL    HW1 5048   6.801   0.385   0.977
 1383SOL    HW2 5049   6.847   0.450   0.835
 1384SOL     OW 5050   6.038   1.871   1.888
 1384SOL    HW1 5051   6.036   1.945   1.955
 1384SOL    HW2 5052   6.005   1.906   1.800
 1385SOL     OW 5053   0.625   5.781   1.144
 1385SOL    HW1 5054   0.634   5.868   1.192
 1385SOL    HW2 5055   0.624   5.706   1.210
 1386SOL     OW 5056   2.323   5.777   4.036
 1386SOL    HW1 5057   2.302   5.745   3.943
 1386SOL    HW2 5058   2.369   5.865   4.030
 1387SOL     OW 5059   2.758   6.104   1.238
 1387SOL    HW1 5060   2.812   6.038   1.291
 1387SOL    HW2 5061   2.737   6.184   1.294
 1388SOL     OW 5062   6.889   0.804   2.047
 1388SOL    HW1 5063   6.950   0.741   1.999
 1388SOL    HW2 5064   6.923   0.819   2.139
 1389SOL     OW 5065   6.163   1.016   2.453
 1389SOL    HW1 5066   6.224   1.093   2.436
 1389SOL    HW2 5067   6.068   1.047   2.442
 1390SOL     OW 5068   1.725   1.711   5.068
 1390SOL    HW1 5069   1.649   1.660   5.028
 1390SOL    HW2 5070   1.690   1.773   5.138
 1391SOL     OW 5071   0.136   3.295   3.339
 1391SOL    HW1 5072   0.139   3.249   3.427
 1391SOL    HW2 5073   0.107   3.230   3.269
 1392SOL     OW 5074   5.093   4.467   4.513
 1392SOL    HW1 5075   4.998   4.452   4.485
 1392SOL    HW2 5076   5.115   4.565   4.507
 1393SOL     OW 5077   3.128   6.089   5.960
 1393SOL    HW1 5078   3.137   6.143   5.877
 1393SOL    HW2 5079   3.219   6.077   6.001
 1394SOL     OW 5080   1.380   5.925   6.176
 1394SOL    HW1 5081   1.368   6.023   6.158
 1394SOL    HW2 5082   1.294   5.878   6.156
 1395SOL     OW 5083   3.382   4.529   5.958
 1395SOL    HW1 5084   3.296   4.527   5.907
 1395SOL    HW2 5085   3.439   4.452   5.930
 1396SOL     OW 5086   6.200   6.221   3.977
 1396SOL    HW1 5087   6.298   6.224   3.956
 1396SOL    HW2 5088   6.162   6.134   3.946
 1397SOL     OW 5089   4.670   6.073   5.585
 1397SOL    HW1 5090   4.713   6.027   5.662
 1397SOL    HW2 5091   4.571   6.076   5.598
 1398SOL     OW 5092   1.917   1.190   4.503
 1398SOL    HW1 5093   1.930   1.223   4.409
 1398SOL    HW2 5094   1.831   1.140   4.510
 1399SOL     OW 5095   3.139   5.815   1.439
 1399SOL    HW1 5096   3.216   5.878   1.451
 1399SOL    HW2 5097   3.144   5.742   1.507
 1400SOL     OW 5098   2.305   6.766   2.354
 1400SOL    HW1 5099   2.235   6.836   2.370
 1400SOL    HW2 5100   2.289   6.688   2.415
 1401SOL     OW 5101   6.727   0.990   4.843
 1401SOL    HW1 5102   6.733   1.080   4.800
 1401SOL    HW2 5103   6.802   0.932   4.812
 1402SOL     OW 5104   6.808   2.948   0.264
 1402SOL    HW1 5105   6.817   3.001   0.348
 1402SOL    HW2 5106   6.731   2.984   0.210
 1403SOL     OW 5107   3.331   0.481   2.586
 1403SOL    HW1 5108   3.377   0.549   2.529
 1403SOL    HW2 5109   3.345   0.505   2.683
 1404SOL     OW 5110   5.218   1.756   0.390
 1404SOL    HW1 5111   5.138   1.810   0.364
 1404SOL    HW2 5112   5.290   1.817   0.424
 1405SOL     OW 5113   2.969   3.185   1.116
 1405SOL    HW1 5114   3.019   3.272   1.119
 1405SOL    HW2 5115   2.889   3.191   1.176
 1406SOL     OW 5116   1.506   4.101   1.269
 1406SOL    HW1 5117   1.489   4.199   1.272
 1406SOL    HW2 5118   1.587   4.080   1.324
 1407SOL     OW 5119   6.105   2.673   2.924
 1407SOL    HW1 5120   6.059   2.713   3.004
 1407SOL    HW2 5121   6.191   2.721   2.908
 1408SOL     OW 5122   6.421   0.117   6.380
 1408SOL    HW1 5123   6.418   0.081   6.473
 1408SOL    HW2 5124   6.373   0.205   6.376
 1409SOL     OW 5125   0.500   1.783   4.597
 1409SOL    HW1 5126   0.423   1.731   4.635
 1409SOL    HW2 5127   0.474   1.822   4.509
 1410SOL     OW 5128   0.295   2.794   6.923
 1410SOL    HW1 5129   0.227   2.752   6.863
 1410SOL    HW2 5130   0.345   2.722   6.972
 1411SOL     OW 5131   1.910   6.928   1.391
 1411SOL    HW1 5132   1.892   6.940   1.293
 1411SOL    HW2 5133   1.838   6.971   1.444
 1412SOL     OW 5134   1.209   3.346   0.339
 1412SOL    HW1 5135   1.273   3.313   0.408
 1412SOL    HW2 5136   1.259   3.395   0.267
 1413SOL     OW 5137   2.768   6.979   4.189
 1413SOL    HW1 5138   2.773   6.936   4.279
 1413SOL    HW2 5139   2.856   7.020   4.167
 1414SOL     OW 5140   2.772   0.981   1.647
 1414SOL    HW1 5141   2.785   1.031   1.561
 1414SOL    HW2 5142   2.719   1.037   1.711
 1415SOL     OW 5143   4.203   6.115   6.195
 1415SOL    HW1 5144   4.172   6.072   6.111
 1415SOL    HW2 5145   4.283   6.172   6.175
 1416SOL     OW 5146   4.575   5.807   2.788
 1416SOL    HW1 5147   4.540   5.749   2.715
 1416SOL    HW2 5148   4.504   5.821   2.857
 1417SOL     OW 5149   3.224   2.247   6.006
 1417SOL    HW1 5150   3.148   2.312   6.002
 1417SOL    HW2 5151   3.296   2.284   6.065
 1418SOL     OW 5152   3.131   4.004   2.749
 1418SOL    HW1 5153   3.207   4.014   2.685
 1418SOL    HW2 5154   3.112   4.092   2.792
 1419SOL     OW 5155   4.850   6.278   5.170
 1419SOL    HW1 5156   4.774   6.255   5.230
 1419SOL    HW2 5157   4.820   6.344   5.101
 1420SOL     OW 5158   0.503   5.622   2.255
 1420SOL    HW1 5159   0.539   5.585   2.341
 1420SOL    HW2 5160   0.410   5.654   2.270
 1421SOL     OW 5161   3.719   1.113   2.666
 1421SOL    HW1 5162   3.712   1.017   2.691
 1421SOL    HW2 5163   3.725   1.169   2.749
 1422SOL     OW 5164   2.627   6.227   6.888
 1422SOL    HW1 5165   2.540   6.276   6.883
 1422SOL    HW2 5166   2.702   6.293   6.889
 1423SOL     OW 5167   4.768   0.656   2.730
 1423SOL    HW1 5168   4.696   0.697   2.786
 1423SOL    HW2 5169   4.808   0.579   2.779
 1424SOL     OW 5170   6.432   4.997   3.049
 1424SOL    HW1 5171   6.395   4.950   3.129
 1424SOL    HW2 5172   6.443   4.931   2.974
 1425SOL     OW 5173   1.988   0.187   4.708
 1425SOL    HW1 5174   1.910   0.249   4.711
 1425SOL    HW2 5175   2.016   0.164   4.801
 1426SOL     OW 5176   1.007   1.994   5.732
 1426SOL    HW1 5177   1.102   2.018   5.756
 1426SOL    HW2 5178   1.000   1.895   5.719
 1427SOL     OW 5179   6.160   0.566   4.804
 1427SOL    HW1 5180   6.230   0.500   4.833
 1427SOL    HW2 5181   6.142   0.555   4.706
 1428SOL     OW 5182   5.440   1.248   0.302
 1428SOL    HW1 5183   5.379   1.234   0.380
 1428SOL    HW2 5184   5.448   1.163   0.250
 1429SOL     OW 5185   5.867   0.403   0.614
 1429SOL    HW1 5186   5.772   0.378   0.634
 1429SOL    HW2 5187   5.889   0.379   0.519
 1430SOL     OW 5188   2.081   4.832   4.114
 1430SOL    HW1 5189   2.062   4.735   4.102
 1430SOL    HW2 5190   2.005   4.886   4.077
 1431SOL     OW 5191   1.443   0.702   1.051
 1431SOL    HW1 5192   1.355   0.658   1.030
 1431SOL    HW2 5193   1.517   0.650   1.008
 1432SOL     OW 5194   2.145   0.932   2.147
 1432SOL    HW1 5195   2.054   0.908   2.112
 1432SOL    HW2 5196   2.209   0.941   2.071
 1433SOL     OW 5197   4.917   0.871   4.034
 1433SOL    HW1 5198   5.015   0.875   4.016
 1433SOL    HW2 5199   4.881   0.964   4.041
 1434SOL     OW 5200   1.519   0.804   5.284
 1434SOL    HW1 5201   1.557   0.895   5.267
 1434SOL    HW2 5202   1.420   0.811   5.290
 1435SOL     OW 5203   0.023   1.596   3.453
 1435SOL    HW1 5204   6.972   1.621   3.395
 1435SOL    HW2 5205   0.108   1.602   3.400
 1436SOL     OW 5206   4.408   3.781   0.596
 1436SOL    HW1 5207   4.447   3.851   0.656
 1436SOL    HW2 5208   4.311   3.771   0.616
 1437SOL     OW 5209   3.965   1.365   2.281
 1437SOL    HW1 5210   3.992   1.271   2.302
 1437SOL    HW2 5211   4.016   1.398   2.202
 1438SOL     OW 5212   2.024   0.518   1.152
 1438SOL    HW1 5213   1.940   0.487   1.197
 1438SOL    HW2 5214   2.097   0.452   1.169
 1439SOL     OW 5215   0.558   5.696   2.662
 1439SOL    HW1 5216   0.565   5.793   2.683
 1439SOL    HW2 5217   0.640   5.666   2.613
 1440SOL     OW 5218   2.515   3.362   1.744
 1440SOL    HW1 5219   2.437   3.410   1.785
 1440SOL    HW2 5220   2.501   3.264   1.753
 1441SOL     OW 5221   5.357   6.265   0.842
 1441SOL    HW1 5222   5.335   6.221   0.929
 1441SOL    HW2 5223   5.322   6.209   0.767
 1442SOL     OW 5224   5.176   5.827   0.680
 1442SOL    HW1 5225   5.109   5.817   0.606
 1442SOL    HW2 5226   5.170   5.747   0.740
 1443SOL     OW 5227   0.250   3.040   2.998
 1443SOL    HW1 5228   0.310   3.120   3.003
 1443SOL    HW2 5229   0.177   3.048   3.066
 1444SOL     OW 5230   6.377   4.974   0.121
 1444SOL    HW1 5231   6.348   4.879   0.129
 1444SOL    HW2 5232   6.476   4.979   0.117
 1445SOL     OW 5233   1.084   3.498   1.583
 1445SOL    HW1 5234   0.990   3.502   1.549
 1445SOL    HW2 5235   1.118   3.590   1.600
 1446SOL     OW 5236   6.325   6.646   1.004
 1446SOL    HW1 5237   6.408   6.679   0.959
 1446SOL    HW2 5238   6.263   6.607   0.936
 1447SOL     OW 5239   5.978   5.243   4.462
 1447SOL    HW1 5240   5.905   5.189   4.420
 1447SOL    HW2 5241   5.983   5.222   4.559
 1448SOL     OW 5242   1.229   3.248   5.849
 1448SOL    HW1 5243   1.259   3.331   5.801
 1448SOL    HW2 5244   1.145   3.267   5.899
 1449SOL     OW 5245   2.162   3.336   3.409
 1449SOL    HW1 5246   2.140   3.248   3.450
 1449SOL    HW2 5247   2.244   3.373   3.454
 1450SOL     OW 5248   2.451   2.633   3.876
 1450SOL    HW1 5249   2.446   2.573   3.956
 1450SOL    HW2 5250   2.517   2.597   3.811
 1451SOL     OW 5251   2.854   1.074   2.765
 1451SOL    HW1 5252   2.905   1.037   2.687
 1451SOL    HW2 5253   2.918   1.121   2.826
 1452SOL     OW 5254   5.200   2.886   6.630
 1452SOL    HW1 5255   5.277   2.921   6.684
 1452SOL    HW2 5256   5.154   2.961   6.584
 1453SOL     OW 5257   6.576   4.679   5.690
 1453SOL    HW1 5258   6.570   4.776   5.711
 1453SOL    HW2 5259   6.642   4.665   5.616
 1454SOL     OW 5260   3.280   2.160   3.587
 1454SOL    HW1 5261   3.194   2.125   3.624
 1454SOL    HW2 5262   3.263   2.244   3.536
 1455SOL     OW 5263   0.526   5.727   1.741
 1455SOL    HW1 5264   0.432   5.696   1.756
 1455SOL    HW2 5265   0.526   5.826   1.729
 1456SOL     OW 5266   6.388   4.741   4.072
 1456SOL    HW1 5267   6.302   4.727   4.022
 1456SOL    HW2 5268   6.394   4.836   4.101
 1457SOL     OW 5269   1.023   5.594   6.181
 1457SOL    HW1 5270   1.049   5.543   6.263
 1457SOL    HW2 5271   0.925   5.584   6.165
 1458SOL     OW 5272   5.031   5.144   5.181
 1458SOL    HW1 5273   5.046   5.157   5.279
 1458SOL    HW2 5274   5.093   5.203   5.130
 1459SOL     OW 5275   5.858   6.384   5.609
 1459SOL    HW1 5276   5.829   6.387   5.705
 1459SOL    HW2 5277   5.956   6.366   5.604
 1460SOL     OW 5278   1.118   6.464   4.768
 1460SOL    HW1 5279   1.162   6.384   4.808
 1460SOL    HW2 5280   1.114   6.537   4.835
 1461SOL     OW 5281   6.654   3.116   3.752
 1461SOL    HW1 5282   6.611   3.206   3.764
 1461SOL    HW2 5283   6.692   3.087   3.840
 1462SOL     OW 5284   0.207   0.881   1.857
 1462SOL    HW1 5285   0.261   0.959   1.825
 1462SOL    HW2 5286   0.114   0.887   1.821
 1463SOL     OW 5287   2.412   5.528   6.942
 1463SOL    HW1 5288   2.501   5.528   6.897
 1463SOL    HW2 5289   2.413   5.594   7.018
 1464SOL     OW 5290   1.352   4.075   4.035
 1464SOL    HW1 5291   1.305   4.097   4.121
 1464SOL    HW2 5292   1.428   4.013   4.054
 1465SOL     OW 5293   0.892   3.114   3.762
 1465SOL    HW1 5294   0.969   3.050   3.754
 1465SOL    HW2 5295   0.876   3.134   3.859
 1466SOL     OW 5296   5.370   2.544   2.551
 1466SOL    HW1 5297   5.410   2.455   2.573
 1466SOL    HW2 5298   5.412   2.614   2.609
 1467SOL     OW 5299   0.932   0.972   4.080
 1467SOL    HW1 5300   0.899   0.931   4.165
 1467SOL    HW2 5301   0.910   1.070   4.080
 1468SOL     OW 5302   2.850   5.067   2.584
 1468SOL    HW1 5303   2.810   5.027   2.502
 1468SOL    HW2 5304   2.937   5.020   2.605
 1469SOL     OW 5305   6.007   3.853   2.923
 1469SOL    HW1 5306   6.064   3.775   2.895
 1469SOL    HW2 5307   5.964   3.893   2.842
 1470SOL     OW 5308   6.049   1.514   1.634
 1470SOL    HW1 5309   6.110   1.444   1.599
 1470SOL    HW2 5310   5.954   1.491   1.613
 1471SOL     OW 5311   4.507   6.880   1.122
 1471SOL    HW1 5312   4.474   6.786   1.125
 1471SOL    HW2 5313   4.494   6.917   1.030
 1472SOL     OW 5314   2.159   0.146   6.161
 1472SOL    HW1 5315   2.070   0.102   6.172
 1472SOL    HW2 5316   2.149   0.229   6.107
 1473SOL     OW 5317   1.704   5.949   3.896
 1473SOL    HW1 5318   1.733   5.853   3.895
 1473SOL    HW2 5319   1.669   5.974   3.806
 1474SOL     OW 5320   2.524   5.105   1.015
 1474SOL    HW1 5321   2.482   5.015   1.028
 1474SOL    HW2 5322   2.621   5.093   0.996
 1475SOL     OW 5323   5.516   0.226   6.128
 1475SOL    HW1 5324   5.493   0.190   6.219
 1475SOL    HW2 5325   5.614   0.215   6.112
 1476SOL     OW 5326   4.929   0.741   0.540
 1476SOL    HW1 5327   5.020   0.756   0.502
 1476SOL    HW2 5328   4.936   0.714   0.636
 1477SOL     OW 5329   3.554   4.680   1.447
 1477SOL    HW1 5330   3.549   4.736   1.365
 1477SOL    HW2 5331   3.476   4.700   1.506
 1478SOL     OW 5332   4.721   5.382   6.963
 1478SOL    HW1 5333   4.716   5.482   6.953
 1478SOL    HW2 5334   4.679   5.355   0.023
 1479SOL     OW 5335   3.950   3.440   1.543
 1479SOL    HW1 5336   4.010   3.510   1.504
 1479SOL    HW2 5337   3.992   3.350   1.530
 1480SOL     OW 5338   3.011   0.507   4.469
 1480SOL    HW1 5339   2.946   0.523   4.543
 1480SOL    HW2 5340   3.065   0.590   4.453
 1481SOL     OW 5341   5.460   2.717   6.227
 1481SOL    HW1 5342   5.394   2.752   6.160
 1481SOL    HW2 5343   5.432   2.626   6.256
 1482SOL     OW 5344   5.450   1.128   1.184
 1482SOL    HW1 5345   5.458   1.052   1.248
 1482SOL    HW2 5346   5.399   1.098   1.103
 1483SOL     OW 5347   5.792   0.866   0.050
 1483SOL    HW1 5348   5.719   0.934   0.053
 1483SOL    HW2 5349   5.798   0.827   6.984
 1484SOL     OW 5350   3.387   5.859   4.978
 1484SOL    HW1 5351   3.336   5.805   5.045
 1484SOL    HW2 5352   3.366   5.825   4.886
 1485SOL     OW 5353   5.457   2.657   3.349
 1485SOL    HW1 5354   5.387   2.707   3.299
 1485SOL    HW2 5355   5.545   2.705   3.343
 1486SOL     OW 5356   4.697   6.496   3.421
 1486SOL    HW1 5357   4.661   6.455   3.505
 1486SOL    HW2 5358   4.775   6.442   3.389
 1487SOL     OW 5359   6.209   0.713   0.415
 1487SOL    HW1 5360   6.245   0.624   0.444
 1487SOL    HW2 5361   6.140   0.699   0.344
 1488SOL     OW 5362   6.637   1.921   2.888
 1488SOL    HW1 5363   6.637   2.019   2.907
 1488SOL    HW2 5364   6.723   1.895   2.845
 1489SOL     OW 5365   3.346   4.250   0.482
 1489SOL    HW1 5366   3.270   4.188   0.504
 1489SOL    HW2 5367   3.391   4.220   0.399
 1490SOL     OW 5368   6.517   2.558   2.293
 1490SOL    HW1 5369   6.530   2.650   2.330
 1490SOL    HW2 5370   6.504   2.564   2.194
 1491SOL     OW 5371   6.015   2.689   4.051
 1491SOL    HW1 5372   5.938   2.681   4.114
 1491SOL    HW2 5373   6.082   2.752   4.088
 1492SOL     OW 5374   6.328   1.545   3.459
 1492SOL    HW1 5375   6.384   1.576   3.383
 1492SOL    HW2 5376   6.379   1.479   3.514
 1493SOL     OW 5377   5.110   1.884   6.131
 1493SOL    HW1 5378   5.076   1.796   6.098
 1493SOL    HW2 5379   5.137   1.875   6.227
 1494SOL     OW 5380   6.288   4.841   5.969
 1494SOL    HW1 5381   6.276   4.761   5.910
 1494SOL    HW2 5382   6.302   4.811   6.063
 1495SOL     OW 5383   7.010   3.999   4.276
 1495SOL    HW1 5384   6.986   3.917   4.327
 1495SOL    HW2 5385   0.025   3.973   4.189
 1496SOL     OW 5386   6.465   6.297   6.377
 1496SOL    HW1 5387   6.494   6.323   6.469
 1496SOL    HW2 5388   6.410   6.213   6.382
 1497SOL     OW 5389   6.254   2.506   2.634
 1497SOL    HW1 5390   6.349   2.535   2.625
 1497SOL    HW2 5391   6.247   2.434   2.704
 1498SOL     OW 5392   3.189   3.776   0.798
 1498SOL    HW1 5393   3.253   3.705   0.829
 1498SOL    HW2 5394   3.129   3.738   0.727
 1499SOL     OW 5395   0.226   4.548   4.744
 1499SOL    HW1 5396   0.200   4.457   4.778
 1499SOL    HW2 5397   0.275   4.537   4.657
 1500SOL     OW 5398   0.730   5.981   1.916
 1500SOL    HW1 5399   0.678   6.026   1.843
 1500SOL    HW2 5400   0.667   5.946   1.985
 1501SOL     OW 5401   5.695   1.596   0.576
 1501SOL    HW1 5402   5.595   1.595   0.589
 1501SOL    HW2 5403   5.717   1.571   0.482
 1502SOL     OW 5404   6.384   0.333   6.064
 1502SOL    HW1 5405   6.469   0.348   6.114
 1502SOL    HW2 5406   6.398   0.354   5.968
 1503SOL     OW 5407   0.419   4.693   1.395
 1503SOL    HW1 5408   0.323   4.693   1.423
 1503SOL    HW2 5409   0.430   4.750   1.314
 1504SOL     OW 5410   2.157   0.036   2.378
 1504SOL    HW1 5411   2.231   0.073   2.434
 1504SOL    HW2 5412   2.178   0.049   2.282
 1505SOL     OW 5413   6.296   5.197   4.744
 1505SOL    HW1 5414   6.389   5.189   4.778
 1505SOL    HW2 5415   6.255   5.282   4.778
 1506SOL     OW 5416   0.579   1.543   1.065
 1506SOL    HW1 5417   0.660   1.561   1.009
 1506SOL    HW2 5418   0.535   1.459   1.032
 1507SOL     OW 5419   1.639   2.818   3.910
 1507SOL    HW1 5420   1.687   2.879   3.973
 1507SOL    HW2 5421   1.646   2.724   3.941
 1508SOL     OW 5422   1.635   0.788   1.207
 1508SOL    HW1 5423   1.544   0.771   1.168
 1508SOL    HW2 5424   1.703   0.789   1.134
 1509SOL     OW 5425   5.187   1.097   4.525
 1509SOL    HW1 5426   5.136   1.029   4.577
 1509SOL    HW2 5427   5.141   1.115   4.439
 1510SOL     OW 5428   3.661   6.382   4.279
 1510SOL    HW1 5429   3.614   6.432   4.207
 1510SOL    HW2 5430   3.594   6.330   4.333
 1511SOL     OW 5431   2.951   3.671   4.974
 1511SOL    HW1 5432   2.940   3.652   5.071
 1511SOL    HW2 5433   2.861   3.681   4.931
 1512SOL     OW 5434   5.646   6.605   1.089
 1512SOL    HW1 5435   5.605   6.637   1.175
 1512SOL    HW2 5436   5.597   6.645   1.012
 1513SOL     OW 5437   2.637   0.279   5.975
 1513SOL    HW1 5438   2.707   0.277   6.046
 1513SOL    HW2 5439   2.597   0.188   5.963
 1514SOL     OW 5440   3.016   2.666   6.382
 1514SOL    HW1 5441   2.993   2.570   6.369
 1514SOL    HW2 5442   2.984   2.719   6.304
 1515SOL     OW 5443   4.694   0.817   2.290
 1515SOL    HW1 5444   4.711   0.719   2.297
 1515SOL    HW2 5445   4.630   0.834   2.215
 1516SOL     OW 5446   5.976   0.262   5.171
 1516SOL    HW1 5447   5.980   0.216   5.259
 1516SOL    HW2 5448   5.947   0.357   5.184
 1517SOL     OW 5449   3.655   6.247   3.924
 1517SOL    HW1 5450   3.576   6.215   3.871
 1517SOL    HW2 5451   3.623   6.308   3.997
 1518SOL     OW 5452   0.891   2.792   6.805
 1518SOL    HW1 5453   0.799   2.768   6.776
 1518SOL    HW2 5454   0.901   2.774   6.903
 1519SOL     OW 5455   6.627   5.368   6.765
 1519SOL    HW1 5456   6.689   5.406   6.696
 1519SOL    HW2 5457   6.535   5.401   6.749
 1520SOL     OW 5458   0.440   6.206   2.950
 1520SOL    HW1 5459   0.431   6.107   2.955
 1520SOL    HW2 5460   0.459   6.233   2.856
 1521SOL     OW 5461   2.205   5.226   6.109
 1521SOL    HW1 5462   2.212   5.155   6.040
 1521SOL    HW2 5463   2.190   5.314   6.064
 1522SOL     OW 5464   5.778   6.380   4.224
 1522SOL    HW1 5465   5.833   6.299   4.201
 1522SOL    HW2 5466   5.809   6.458   4.170
 1523SOL     OW 5467   3.638   6.483   0.707
 1523SOL    HW1 5468   3.552   6.434   0.714
 1523SOL    HW2 5469   3.698   6.456   0.783
 1524SOL     OW 5470   2.619   1.623   2.785
 1524SOL    HW1 5471   2.668   1.689   2.728
 1524SOL    HW2 5472   2.625   1.532   2.743
 1525SOL     OW 5473   5.350   3.906   0.059
 1525SOL    HW1 5474   5.336   3.865   6.995
 1525SOL    HW2 5475   5.393   3.996   0.049
 1526SOL     OW 5476   1.100   1.502   0.453
 1526SOL    HW1 5477   1.015   1.540   0.415
 1526SOL    HW2 5478   1.144   1.444   0.384
 1527SOL     OW 5479   4.615   2.034   3.768
 1527SOL    HW1 5480   4.660   1.970   3.830
 1527SOL    HW2 5481   4.673   2.115   3.756
 1528SOL     OW 5482   3.755   4.088   2.367
 1528SOL    HW1 5483   3.655   4.091   2.361
 1528SOL    HW2 5484   3.788   4.177   2.399
 1529SOL     OW 5485   4.147   1.580   5.923
 1529SOL    HW1 5486   4.131   1.529   6.008
 1529SOL    HW2 5487   4.084   1.546   5.852
 1530SOL     OW 5488   3.096   6.668   1.223
 1530SOL    HW1 5489   3.046   6.607   1.160
 1530SOL    HW2 5490   3.085   6.762   1.193
 1531SOL     OW 5491   4.520   6.633   4.333
 1531SOL    HW1 5492   4.429   6.594   4.317
 1531SOL    HW2 5493   4.510   6.721   4.378
 1532SOL     OW 5494   3.506   5.538   6.774
 1532SOL    HW1 5495   3.508   5.454   6.828
 1532SOL    HW2 5496   3.494   5.515   6.677
 1533SOL     OW 5497   5.806   5.553   1.323
 1533SOL    HW1 5498   5.742   5.491   1.278
 1533SOL    HW2 5499   5.864   5.502   1.386
 1534SOL     OW 5500   3.550   4.735   6.539
 1534SOL    HW1 5501   3.543   4.640   6.569
 1534SOL    HW2 5502   3.468   4.761   6.488
 1535SOL     OW 5503   5.546   5.141   4.062
 1535SOL    HW1 5504   5.511   5.109   4.150
 1535SOL    HW2 5505   5.636   5.183   4.075
 1536SOL     OW 5506   4.986   3.443   6.765
 1536SOL    HW1 5507   5.072   3.393   6.772
 1536SOL    HW2 5508   4.933   3.409   6.688
 1537SOL     OW 5509   2.788   5.161   2.948
 1537SOL    HW1 5510   2.703   5.111   2.936
 1537SOL    HW2 5511   2.801   5.223   2.871
 1538SOL     OW 5512   2.731   1.190   0.233
 1538SOL    HW1 5513   2.786   1.126   0.178
 1538SOL    HW2 5514   2.729   1.279   0.188
 1539SOL     OW 5515   6.050   3.212   0.615
 1539SOL    HW1 5516   6.045   3.122   0.571
 1539SOL    HW2 5517   6.125   3.265   0.574
 1540SOL     OW 5518   3.490   7.017   4.039
 1540SOL    HW1 5519   3.451   7.011   4.131
 1540SOL    HW2 5520   3.472   0.081   4.002
 1541SOL     OW 5521   3.817   3.335   5.617
 1541SOL    HW1 5522   3.879   3.277   5.670
 1541SOL    HW2 5523   3.725   3.328   5.654
 1542SOL     OW 5524   0.442   6.541   2.187
 1542SOL    HW1 5525   0.471   6.613   2.249
 1542SOL    HW2 5526   0.518   6.514   2.128
 1543SOL     OW 5527   3.143   4.542   0.281
 1543SOL    HW1 5528   3.236   4.506   0.289
 1543SOL    HW2 5529   3.146   4.641   0.265
 1544SOL     OW 5530   3.801   3.323   3.785
 1544SOL    HW1 5531   3.737   3.254   3.751
 1544SOL    HW2 5532   3.760   3.414   3.773
 1545SOL     OW 5533   5.695   5.990   1.795
 1545SOL    HW1 5534   5.651   5.933   1.726
 1545SOL    HW2 5535   5.625   6.025   1.858
 1546SOL     OW 5536   5.502   6.538   5.801
 1546SOL    HW1 5537   5.447   6.455   5.789
 1546SOL    HW2 5538   5.443   6.612   5.834
 1547SOL     OW 5539   2.001   3.276   6.477
 1547SOL    HW1 5540   2.058   3.259   6.396
 1547SOL    HW2 5541   2.026   3.364   6.517
 1548SOL     OW 5542   6.344   1.944   0.188
 1548SOL    HW1 5543   6.279   1.905   0.253
 1548SOL    HW2 5544   6.436   1.915   0.211
 1549SOL     OW 5545   4.824   0.864   4.830
 1549SOL    HW1 5546   4.753   0.862   4.759
 1549SOL    HW2 5547   4.816   0.783   4.887
 1550SOL     OW 5548   3.719   2.966   4.092
 1550SOL    HW1 5549   3.788   3.000   4.028
 1550SOL    HW2 5550   3.630   3.003   4.067
 1551SOL     OW 5551   6.057   4.986   5.920
 1551SOL    HW1 5552   6.147   4.944   5.930
 1551SOL    HW2 5553   6.013   4.993   6.010
 1552SOL     OW 5554   1.948   4.459   1.351
 1552SOL    HW1 5555   1.934   4.391   1.423
 1552SOL    HW2 5556   1.945   4.551   1.390
 1553SOL     OW 5557   1.760   1.775   6.011
 1553SOL    HW1 5558   1.794   1.861   5.972
 1553SOL    HW2 5559   1.763   1.703   5.941
 1554SOL     OW 5560   3.107   1.550   3.942
 1554SOL    HW1 5561   3.010   1.537   3.921
 1554SOL    HW2 5562   3.160   1.473   3.906
 1555SOL     OW 5563   6.504   4.236   5.974
 1555SOL    HW1 5564   6.535   4.145   5.947
 1555SOL    HW2 5565   6.570   4.304   5.941
 1556SOL     OW 5566   2.176   0.965   5.905
 1556SOL    HW1 5567   2.124   0.924   5.831
 1556SOL    HW2 5568   2.267   0.924   5.909
 1557SOL     OW 5569   0.183   2.741   6.301
 1557SOL    HW1 5570   0.256   2.699   6.246
 1557SOL    HW2 5571   0.221   2.817   6.354
 1558SOL     OW 5572   0.406   6.850   4.878
 1558SOL    HW1 5573   0.346   6.791   4.823
 1558SOL    HW2 5574   0.483   6.796   4.912
 1559SOL     OW 5575   1.430   1.787   6.561
 1559SOL    HW1 5576   1.461   1.833   6.478
 1559SOL    HW2 5577   1.345   1.737   6.542
 1560SOL     OW 5578   0.056   0.314   6.717
 1560SOL    HW1 5579   0.142   0.327   6.667
 1560SOL    HW2 5580   0.076   0.288   6.812
 1561SOL     OW 5581   5.647   6.075   2.530
 1561SOL    HW1 5582   5.613   6.167   2.548
 1561SOL    HW2 5583   5.598   6.035   2.453
 1562SOL     OW 5584   6.206   0.777   3.564
 1562SOL    HW1 5585   6.179   0.729   3.480
 1562SOL    HW2 5586   6.151   0.744   3.640
 1563SOL     OW 5587   3.806   6.858   4.984
 1563SOL    HW1 5588   3.895   6.868   4.940
 1563SOL    HW2 5589   3.754   6.786   4.937
 1564SOL     OW 5590   1.002   2.251   2.441
 1564SOL    HW1 5591   0.970   2.280   2.351
 1564SOL    HW2 5592   0.929   2.200   2.487
 1565SOL     OW 5593   5.633   4.594   1.590
 1565SOL    HW1 5594   5.728   4.573   1.614
 1565SOL    HW2 5595   5.600   4.669   1.648
 1566SOL     OW 5596   5.935   4.490   3.195
 1566SOL    HW1 5597   5.943   4.424   3.121
 1566SOL    HW2 5598   5.839   4.515   3.208
 1567SOL     OW 5599   6.411   6.018   5.302
 1567SOL    HW1 5600   6.313   6.038   5.296
 1567SOL    HW2 5601   6.462   6.104   5.301
 1568SOL     OW 5602   0.668   6.972   0.010
 1568SOL    HW1 5603   0.702   0.039   0.019
 1568SOL    HW2 5604   0.690   6.937   6.945
 1569SOL     OW 5605   3.529   6.572   4.606
 1569SOL    HW1 5606   3.520   6.500   4.537
 1569SOL    HW2 5607   3.452   6.635   4.598
 1570SOL     OW 5608   3.244   2.165   1.818
 1570SOL    HW1 5609   3.149   2.148   1.843
 1570SOL    HW2 5610   3.302   2.094   1.856
 1571SOL     OW 5611   6.531   4.169   0.572
 1571SOL    HW1 5612   6.583   4.110   0.634
 1571SOL    HW2 5613   6.439   4.183   0.609
 1572SOL     OW 5614   1.304   5.783   2.445
 1572SOL    HW1 5615   1.336   5.767   2.539
 1572SOL    HW2 5616   1.344   5.868   2.411
 1573SOL     OW 5617   3.784   0.282   0.840
 1573SOL    HW1 5618   3.874   0.268   0.880
 1573SOL    HW2 5619   3.786   0.360   0.777
 1574SOL     OW 5620   6.144   3.176   2.494
 1574SOL    HW1 5621   6.180   3.253   2.546
 1574SOL    HW2 5622   6.090   3.209   2.417
 1575SOL     OW 5623   3.141   2.184   0.402
 1575SOL    HW1 5624   3.172   2.199   0.496
 1575SOL    HW2 5625   3.061   2.240   0.383
 1576SOL     OW 5626   6.593   5.724   3.730
 1576SOL    HW1 5627   6.499   5.728   3.696
 1576SOL    HW2 5628   6.600   5.655   3.802
 1577SOL     OW 5629   1.451   0.777   0.113
 1577SOL    HW1 5630   1.506   0.700   0.080
 1577SOL    HW2 5631   1.489   0.810   0.199
 1578SOL     OW 5632   5.510   5.736   4.345
 1578SOL    HW1 5633   5.440   5.798   4.308
 1578SOL    HW2 5634   5.544   5.677   4.271
 1579SOL     OW 5635   0.682   0.055   3.334
 1579SOL    HW1 5636   0.703   7.018   3.260
 1579SOL    HW2 5637   0.722   0.021   3.420
 1580SOL     OW 5638   3.455   3.860   5.828
 1580SOL    HW1 5639   3.358   3.879   5.844
 1580SOL    HW2 5640   3.466   3.766   5.795
 1581SOL     OW 5641   6.639   4.252   4.020
 1581SOL    HW1 5642   6.620   4.166   4.067
 1581SOL    HW2 5643   6.553   4.294   3.991
 1582SOL     OW 5644   6.077   5.519   4.426
 1582SOL    HW1 5645   6.073   5.422   4.453
 1582SOL    HW2 5646   5.984   5.556   4.423
 1583SOL     OW 5647   2.148   2.403   2.579
 1583SOL    HW1 5648   2.113   2.451   2.660
 1583SOL    HW2 5649   2.134   2.305   2.590
 1584SOL     OW 5650   2.066   0.523   6.241
 1584SOL    HW1 5651   2.011   0.450   6.200
 1584SOL    HW2 5652   2.021   0.611   6.226
 1585SOL     OW 5653   6.216   1.399   5.507
 1585SOL    HW1 5654   6.315   1.390   5.505
 1585SOL    HW2 5655   6.191   1.480   5.561
 1586SOL     OW 5656   3.797   4.057   3.194
 1586SOL    HW1 5657   3.763   3.985   3.254
 1586SOL    HW2 5658   3.726   4.082   3.128
 1587SOL     OW 5659   2.303   6.542   6.453
 1587SOL    HW1 5660   2.268   6.612   6.390
 1587SOL    HW2 5661   2.388   6.574   6.495
 1588SOL     OW 5662   5.869   3.935   1.147
 1588SOL    HW1 5663   5.868   3.835   1.153
 1588SOL    HW2 5664   5.880   3.974   1.239
 1589SOL     OW 5665   5.097   3.901   3.701
 1589SOL    HW1 5666   5.065   3.950   3.782
 1589SOL    HW2 5667   5.161   3.959   3.651
 1590SOL     OW 5668   2.142   0.780   5.668
 1590SOL    HW1 5669   2.196   0.699   5.693
 1590SOL    HW2 5670   2.044   0.757   5.671
 1591SOL     OW 5671   0.371   3.959   1.584
 1591SOL    HW1 5672   0.395   4.056   1.590
 1591SOL    HW2 5673   0.446   3.903   1.618
 1592SOL     OW 5674   2.878   3.554   3.402
 1592SOL    HW1 5675   2.821   3.559   3.319
 1592SOL    HW2 5676   2.905   3.459   3.417
 1593SOL     OW 5677   1.284   5.080   5.041
 1593SOL    HW1 5678   1.274   5.141   4.962
 1593SOL    HW2 5679   1.245   5.123   5.122
 1594SOL     OW 5680   0.558   5.272   3.010
 1594SOL    HW1 5681   0.464   5.293   3.037
 1594SOL    HW2 5682   0.620   5.335   3.057
 1595SOL     OW 5683   6.996   5.243   5.711
 1595SOL    HW1 5684   6.963   5.150   5.696
 1595SOL    HW2 5685   0.032   5.244   5.789
 1596SOL     OW 5686   3.007   4.846   6.658
 1596SOL    HW1 5687   2.960   4.850   6.570
 1596SOL    HW2 5688   2.940   4.830   6.730
 1597SOL     OW 5689   2.551   6.908   0.763
 1597SOL    HW1 5690   2.587   6.857   0.841
 1597SOL    HW2 5691   2.626   6.934   0.702
 1598SOL     OW 5692   6.918   5.594   1.796
 1598SOL    HW1 5693   6.960   5.604   1.706
 1598SOL    HW2 5694   6.977   5.537   1.854
 1599SOL     OW 5695   3.424   4.735   0.025
 1599SOL    HW1 5696   3.508   4.736   6.996
 1599SOL    HW2 5697   3.357   4.797   7.010
 1600SOL     OW 5698   3.311   1.328   5.371
 1600SOL    HW1 5699   3.235   1.388   5.345
 1600SOL    HW2 5700   3.388   1.343   5.308
 1601SOL     OW 5701   1.200   4.462   4.783
 1601SOL    HW1 5702   1.242   4.434   4.697
 1601SOL    HW2 5703   1.109   4.500   4.765
 1602SOL     OW 5704   0.373   4.714   2.668
 1602SOL    HW1 5705   0.282   4.720   2.628
 1602SOL    HW2 5706   0.370   4.658   2.750
 1603SOL     OW 5707   5.898   6.550   1.221
 1603SOL    HW1 5708   5.824   6.562   1.155
 1603SOL    HW2 5709   5.895   6.458   1.259
 1604SOL     OW 5710   0.328   5.624   5.156
 1604SOL    HW1 5711   0.412   5.582   5.189
 1604SOL    HW2 5712   0.311   5.709   5.207
 1605SOL     OW 5713   4.865   6.581   2.765
 1605SOL    HW1 5714   4.924   6.633   2.704
 1605SOL    HW2 5715   4.776   6.626   2.772
 1606SOL     OW 5716   4.961   6.888   5.624
 1606SOL    HW1 5717   4.902   6.807   5.619
 1606SOL    HW2 5718   5.018   6.892   5.542
 1607SOL     OW 5719   4.819   2.510   0.759
 1607SOL    HW1 5720   4.868   2.487   0.675
 1607SOL    HW2 5721   4.750   2.441   0.778
 1608SOL     OW 5722   2.090   0.069   0.479
 1608SOL    HW1 5723   2.073   7.025   0.410
 1608SOL    HW2 5724   2.142   0.029   0.555
 1609SOL     OW 5725   5.397   1.333   5.484
 1609SOL    HW1 5726   5.470   1.396   5.457
 1609SOL    HW2 5727   5.313   1.354   5.434
 1610SOL     OW 5728   5.480   6.340   4.083
 1610SOL    HW1 5729   5.492   6.437   4.065
 1610SOL    HW2 5730   5.526   6.316   4.169
 1611SOL     OW 5731   3.748   3.484   1.245
 1611SOL    HW1 5732   3.695   3.402   1.228
 1611SOL    HW2 5733   3.845   3.466   1.225
 1612SOL     OW 5734   3.277   1.613   4.571
 1612SOL    HW1 5735   3.312   1.561   4.493
 1612SOL    HW2 5736   3.240   1.549   4.639
 1613SOL     OW 5737   1.742   6.499   1.046
 1613SOL    HW1 5738   1.835   6.485   1.080
 1613SOL    HW2 5739   1.676   6.463   1.113
 1614SOL     OW 5740   0.448   2.850   6.721
 1614SOL    HW1 5741   0.385   2.837   6.798
 1614SOL    HW2 5742   0.483   2.944   6.722
 1615SOL     OW 5743   6.173   5.060   6.332
 1615SOL    HW1 5744   6.115   4.980   6.319
 1615SOL    HW2 5745   6.268   5.030   6.344
 1616SOL     OW 5746   2.188   1.924   5.802
 1616SOL    HW1 5747   2.197   2.022   5.788
 1616SOL    HW2 5748   2.190   1.878   5.713
 1617SOL     OW 5749   4.786   0.871   4.409
 1617SOL    HW1 5750   4.801   0.828   4.320
 1617SOL    HW2 5751   4.832   0.960   4.411
 1618SOL     OW 5752   5.760   2.508   1.070
 1618SOL    HW1 5753   5.846   2.549   1.040
 1618SOL    HW2 5754   5.691   2.518   0.998
 1619SOL     OW 5755   1.997   3.049   4.429
 1619SOL    HW1 5756   2.063   3.086   4.364
 1619SOL    HW2 5757   1.979   3.116   4.501
 1620SOL     OW 5758   3.814   5.563   1.732
 1620SOL    HW1 5759   3.905   5.604   1.730
 1620SOL    HW2 5760   3.796   5.526   1.823
 1621SOL     OW 5761   2.242   1.357   1.427
 1621SOL    HW1 5762   2.330   1.398   1.449
 1621SOL    HW2 5763   2.169   1.415   1.463
 1622SOL     OW 5764   2.342   2.341   4.816
 1622SOL    HW1 5765   2.303   2.409   4.754
 1622SOL    HW2 5766   2.414   2.384   4.872
 1623SOL     OW 5767   2.522   2.215   5.080
 1623SOL    HW1 5768   2.585   2.234   5.004
 1623SOL    HW2 5769   2.469   2.133   5.059
 1624SOL     OW 5770   2.389   0.503   0.529
 1624SOL    HW1 5771   2.438   0.527   0.613
 1624SOL    HW2 5772   2.291   0.510   0.545
 1625SOL     OW 5773   6.809   5.561   2.157
 1625SOL    HW1 5774   6.820   5.649   2.110
 1625SOL    HW2 5775   6.894   5.539   2.206
 1626SOL     OW 5776   1.900   3.394   6.063
 1626SOL    HW1 5777   1.978   3.452   6.041
 1626SOL    HW2 5778   1.932   3.306   6.096
 1627SOL     OW 5779   5.205   3.170   3.800
 1627SOL    HW1 5780   5.168   3.098   3.741
 1627SOL    HW2 5781   5.130   3.227   3.835
 1628SOL     OW 5782   2.897   3.088   0.555
 1628SOL    HW1 5783   2.875   3.184   0.572
 1628SOL    HW2 5784   2.832   3.050   0.489
 1629SOL     OW 5785   4.363   1.941   3.254
 1629SOL    HW1 5786   4.263   1.936   3.256
 1629SOL    HW2 5787   4.392   2.002   3.181
 1630SOL     OW 5788   0.448   4.721   4.654
 1630SOL    HW1 5789   0.385   4.697   4.580
 1630SOL    HW2 5790   0.397   4.734   4.739
 1631SOL     OW 5791   0.403   6.705   5.691
 1631SOL    HW1 5792   0.431   6.801   5.695
 1631SOL    HW2 5793   0.409   6.664   5.782
 1632SOL     OW 5794   5.756   0.163   1.567
 1632SOL    HW1 5795   5.696   0.243   1.572
 1632SOL    HW2 5796   5.851   0.194   1.558
 1633SOL     OW 5797   5.697   2.757   3.384
 1633SOL    HW1 5798   5.679   2.774   3.481
 1633SOL    HW2 5799   5.709   2.844   3.336
 1634SOL     OW 5800   3.531   0.930   7.017
 1634SOL    HW1 5801   3.485   1.018   7.007
 1634SOL    HW2 5802   3.577   0.906   6.931
 1635SOL     OW 5803   1.016   5.050   4.122
 1635SOL    HW1 5804   1.092   5.115   4.115
 1635SOL    HW2 5805   1.015   5.010   4.213
 1636SOL     OW 5806   2.875   6.447   1.341
 1636SOL    HW1 5807   2.933   6.370   1.366
 1636SOL    HW2 5808   2.899   6.478   1.249
 1637SOL     OW 5809   6.971   3.252   2.946
 1637SOL    HW1 5810   6.992   3.224   2.852
 1637SOL    HW2 5811   7.009   3.342   2.963
 1638SOL     OW 5812   1.682   3.181   5.155
 1638SOL    HW1 5813   1.665   3.279   5.152
 1638SOL    HW2 5814   1.597   3.133   5.179
 1639SOL     OW 5815   4.797   4.683   2.758
 1639SOL    HW1 5816   4.815   4.603   2.702
 1639SOL    HW2 5817   4.871   4.694   2.825
 1640SOL     OW 5818   6.019   0.051   1.203
 1640SOL    HW1 5819   6.061   0.142   1.209
 1640SOL    HW2 5820   6.041   0.010   1.115
 1641SOL     OW 5821   6.956   3.040   5.497
 1641SOL    HW1 5822   7.021   2.969   5.524
 1641SOL    HW2 5823   6.865   3.000   5.488
 1642SOL     OW 5824   6.847   2.136   1.678
 1642SOL    HW1 5825   6.851   2.038   1.656
 1642SOL    HW2 5826   6.938   2.176   1.668
 1643SOL     OW 5827   3.832   0.529   6.063
 1643SOL    HW1 5828   3.878   0.606   6.020
 1643SOL    HW2 5829   3.741   0.557   6.094
 1644SOL     OW 5830   3.046   0.533   1.069
 1644SOL    HW1 5831   3.018   0.441   1.095
 1644SOL    HW2 5832   3.039   0.543   0.969
 1645SOL     OW 5833   1.994   6.351   5.899
 1645SOL    HW1 5834   1.929   6.275   5.894
 1645SOL    HW2 5835   2.018   6.380   5.806
 1646SOL     OW 5836   1.279   3.478   0.650
 1646SOL    HW1 5837   1.239   3.473   0.742
 1646SOL    HW2 5838   1.207   3.469   0.582
 1647SOL     OW 5839   6.078   2.859   3.645
 1647SOL    HW1 5840   6.074   2.937   3.707
 1647SOL    HW2 5841   6.123   2.782   3.691
 1648SOL     OW 5842   4.323   0.249   2.739
 1648SOL    HW1 5843   4.338   0.172   2.677
 1648SOL    HW2 5844   4.233   0.241   2.781
 1649SOL     OW 5845   3.186   6.903   2.649
 1649SOL    HW1 5846   3.188   6.809   2.614
 1649SOL    HW2 5847   3.217   6.965   2.577
 1650SOL     OW 5848   3.412   6.831   3.826
 1650SOL    HW1 5849   3.412   6.872   3.917
 1650SOL    HW2 5850   3.407   6.731   3.834
 1651SOL     OW 5851   1.334   6.381   1.360
 1651SOL    HW1 5852   1.257   6.368   1.298
 1651SOL    HW2 5853   1.330   6.473   1.400
 1652SOL     OW 5854   2.820   2.921   1.403
 1652SOL    HW1 5855   2.761   2.865   1.346
 1652SOL    HW2 5856   2.777   3.010   1.419
 1653SOL     OW 5857   1.173   4.972   0.513
 1653SOL    HW1 5858   1.251   5.028   0.541
 1653SOL    HW2 5859   1.191   4.933   0.422
 1654SOL     OW 5860   0.606   2.458   3.354
 1654SOL    HW1 5861   0.513   2.489   3.373
 1654SOL    HW2 5862   0.632   2.484   3.261
 1655SOL     OW 5863   5.073   4.771   5.501
 1655SOL    HW1 5864   5.154   4.740   5.552
 1655SOL    HW2 5865   5.081   4.741   5.405
 1656SOL     OW 5866   0.591   4.141   3.160
 1656SOL    HW1 5867   0.510   4.122   3.216
 1656SOL    HW2 5868   0.624   4.233   3.181
 1657SOL     OW 5869   0.718   6.879   5.615
 1657SOL    HW1 5870   0.723   6.975   5.587
 1657SOL    HW2 5871   0.787   6.861   5.685
 1658SOL     OW 5872   6.055   6.106   2.482
 1658SOL    HW1 5873   6.001   6.034   2.525
 1658SOL    HW2 5874   6.111   6.066   2.409
 1659SOL     OW 5875   4.743   2.334   6.114
 1659SOL    HW1 5876   4.706   2.246   6.145
 1659SOL    HW2 5877   4.667   2.397   6.096
 1660SOL     OW 5878   2.039   6.010   2.952
 1660SOL    HW1 5879   2.138   6.006   2.965
 1660SOL    HW2 5880   1.995   6.042   3.036
 1661SOL     OW 5881   2.910   6.942   2.581
 1661SOL    HW1 5882   3.010   6.941   2.584
 1661SOL    HW2 5883   2.878   6.929   2.487
 1662SOL     OW 5884   0.343   0.574   3.151
 1662SOL    HW1 5885   0.353   0.480   3.120
 1662SOL    HW2 5886   0.431   0.621   3.146
 1663SOL     OW 5887   2.521   0.040   3.397
 1663SOL    HW1 5888   2.500   6.979   3.441
 1663SOL    HW2 5889   2.443   0.102   3.406
 1664SOL     OW 5890   2.451   5.418   4.471
 1664SOL    HW1 5891   2.367   5.377   4.508
 1664SOL    HW2 5892   2.435   5.515   4.451
 1665SOL     OW 5893   1.097   0.671   4.994
 1665SOL    HW1 5894   1.057   0.614   4.922
 1665SOL    HW2 5895   1.040   0.753   5.006
 1666SOL     OW 5896   5.494   3.414   6.790
 1666SOL    HW1 5897   5.502   3.400   6.691
 1666SOL    HW2 5898   5.575   3.377   6.836
 1667SOL     OW 5899   6.596   0.912   6.015
 1667SOL    HW1 5900   6.657   0.900   5.936
 1667SOL    HW2 5901   6.519   0.969   5.989
 1668SOL     OW 5902   2.776   0.590   4.942
 1668SOL    HW1 5903   2.757   0.561   5.035
 1668SOL    HW2 5904   2.703   0.650   4.910
 1669SOL     OW 5905   5.757   6.579   6.186
 1669SOL    HW1 5906   5.755   6.506   6.255
 1669SOL    HW2 5907   5.664   6.608   6.165
 1670SOL     OW 5908   5.922   3.829   6.034
 1670SOL    HW1 5909   5.883   3.914   5.999
 1670SOL    HW2 5910   5.850   3.776   6.078
 1671SOL     OW 5911   6.075   4.854   0.344
 1671SOL    HW1 5912   6.103   4.922   0.412
 1671SOL    HW2 5913   5.975   4.849   0.342
 1672SOL     OW 5914   2.107   5.362   1.943
 1672SOL    HW1 5915   2.198   5.397   1.923
 1672SOL    HW2 5916   2.089   5.280   1.888
 1673SOL     OW 5917   6.999   2.010   3.634
 1673SOL    HW1 5918   6.929   1.988   3.566
 1673SOL    HW2 5919   0.061   2.020   3.588
 1674SOL     OW 5920   1.736   5.353   6.344
 1674SOL    HW1 5921   1.707   5.263   6.309
 1674SOL    HW2 5922   1.662   5.418   6.332
 1675SOL     OW 5923   4.715   2.559   0.387
 1675SOL    HW1 5924   4.674   2.613   0.313
 1675SOL    HW2 5925   4.782   2.616   0.436
 1676SOL     OW 5926   2.299   1.248   4.079
 1676SOL    HW1 5927   2.273   1.153   4.093
 1676SOL    HW2 5928   2.394   1.253   4.048
 1677SOL     OW 5929   6.566   0.439   5.549
 1677SOL    HW1 5930   6.655   0.427   5.594
 1677SOL    HW2 5931   6.564   0.388   5.464
 1678SOL     OW 5932   4.711   0.055   1.076
 1678SOL    HW1 5933   4.657   0.005   1.144
 1678SOL    HW2 5934   4.777   0.114   1.122
 1679SOL     OW 5935   5.862   4.026   0.161
 1679SOL    HW1 5936   5.763   4.039   0.159
 1679SOL    HW2 5937   5.882   3.928   0.166
 1680SOL     OW 5938   1.324   2.324   5.058
 1680SOL    HW1 5939   1.371   2.410   5.078
 1680SOL    HW2 5940   1.237   2.321   5.107
 1681SOL     OW 5941   5.249   5.490   1.224
 1681SOL    HW1 5942   5.305   5.572   1.239
 1681SOL    HW2 5943   5.156   5.507   1.257
 1682SOL     OW 5944   6.522   3.740   5.410
 1682SOL    HW1 5945   6.568   3.674   5.469
 1682SOL    HW2 5946   6.575   3.825   5.407
 1683SOL     OW 5947   5.831   6.215   6.781
 1683SOL    HW1 5948   5.820   6.118   6.763
 1683SOL    HW2 5949   5.920   6.246   6.746
 1684SOL     OW 5950   0.488   5.649   4.734
 1684SOL    HW1 5951   0.560   5.601   4.782
 1684SOL    HW2 5952   0.519   5.671   4.641
 1685SOL     OW 5953   1.364   1.922   0.539
 1685SOL    HW1 5954   1.385   2.009   0.495
 1685SOL    HW2 5955   1.282   1.882   0.500
 1686SOL     OW 5956   1.941   5.822   6.821
 1686SOL    HW1 5957   1.904   5.798   6.732
 1686SOL    HW2 5958   1.942   5.922   6.831
 1687SOL     OW 5959   2.068   6.787   2.002
 1687SOL    HW1 5960   2.012   6.853   2.052
 1687SOL    HW2 5961   2.165   6.804   2.022
 1688SOL     OW 5962   0.280   2.115   3.833
 1688SOL    HW1 5963   0.280   2.018   3.809
 1688SOL    HW2 5964   0.195   2.157   3.802
 1689SOL     OW 5965   3.392   1.382   2.395
 1689SOL    HW1 5966   3.308   1.397   2.342
 1689SOL    HW2 5967   3.458   1.454   2.373
 1690SOL     OW 5968   0.590   2.075   0.914
 1690SOL    HW1 5969   0.681   2.102   0.881
 1690SOL    HW2 5970   0.521   2.131   0.868
 1691SOL     OW 5971   4.565   4.350   2.678
 1691SOL    HW1 5972   4.533   4.351   2.773
 1691SOL    HW2 5973   4.621   4.268   2.664
 1692SOL     OW 5974   1.524   0.373   3.535
 1692SOL    HW1 5975   1.461   0.451   3.527
 1692SOL    HW2 5976   1.537   0.332   3.445
 1693SOL     OW 5977   2.338   2.257   3.868
 1693SOL    HW1 5978   2.267   2.191   3.891
 1693SOL    HW2 5979   2.329   2.283   3.771
 1694SOL     OW 5980   4.581   6.410   5.841
 1694SOL    HW1 5981   4.572   6.455   5.930
 1694SOL    HW2 5982   4.566   6.477   5.768
 1695SOL     OW 5983   2.729   1.277   6.053
 1695SOL    HW1 5984   2.641   1.231   6.071
 1695SOL    HW2 5985   2.776   1.230   5.979
 1696SOL     OW 5986   3.048   5.463   1.446
 1696SOL    HW1 5987   3.125   5.414   1.488
 1696SOL    HW2 5988   3.082   5.522   1.374
 1697SOL     OW 5989   1.403   1.256   2.142
 1697SOL    HW1 5990   1.437   1.162   2.139
 1697SOL    HW2 5991   1.329   1.262   2.209
 1698SOL     OW 5992   5.390   1.781   0.638
 1698SOL    HW1 5993   5.441   1.846   0.694
 1698SOL    HW2 5994   5.357   1.706   0.694
 1699SOL     OW 5995   2.460   3.908   0.870
 1699SOL    HW1 5996   2.504   3.819   0.883
 1699SOL    HW2 5997   2.397   3.904   0.793
 1700SOL     OW 5998   6.751   2.641   4.656
 1700SOL    HW1 5999   6.786   2.590   4.735
 1700SOL    HW2 6000   6.815   2.715   4.634
 1701SOL     OW 6001   6.014   3.368   4.947
 1701SOL    HW1 6002   6.009   3.400   4.852
 1701SOL    HW2 6003   5.924   3.333   4.975
 1702SOL     OW 6004   4.910   2.913   1.850
 1702SOL    HW1 6005   4.887   2.959   1.764
 1702SOL    HW2 6006   4.832   2.918   1.912
 1703SOL     OW 6007   1.641   3.997   0.078
 1703SOL    HW1 6008   1.579   4.069   0.109
 1703SOL    HW2 6009   1.590   3.932   0.020
 1704SOL     OW 6010   0.436   1.079   1.720
 1704SOL    HW1 6011   0.515   1.054   1.776
 1704SOL    HW2 6012   0.463   1.080   1.624
 1705SOL     OW 6013   3.879   3.491   2.447
 1705SOL    HW1 6014   3.844   3.436   2.522
 1705SOL    HW2 6015   3.882   3.437   2.363
 1706SOL     OW 6016   2.593   0.244   6.875
 1706SOL    HW1 6017   2.511   0.289   6.910
 1706SOL    HW2 6018   2.656   0.224   6.950
 1707SOL     OW 6019   6.161   1.293   3.315
 1707SOL    HW1 6020   6.199   1.360   3.379
 1707SOL    HW2 6021   6.084   1.334   3.266
 1708SOL     OW 6022   0.370   4.880   2.267
 1708SOL    HW1 6023   0.417   4.814   2.209
 1708SOL    HW2 6024   0.437   4.931   2.321
 1709SOL     OW 6025   3.435   6.064   4.213
 1709SOL    HW1 6026   3.459   5.979   4.166
 1709SOL    HW2 6027   3.494   6.075   4.293
 1710SOL     OW 6028   0.281   5.910   3.959
 1710SOL    HW1 6029   0.260   5.962   4.042
 1710SOL    HW2 6030   0.339   5.965   3.900
 1711SOL     OW 6031   2.152   4.313   5.646
 1711SOL    HW1 6032   2.130   4.306   5.744
 1711SOL    HW2 6033   2.197   4.401   5.629
 1712SOL     OW 6034   1.549   4.765   0.822
 1712SOL    HW1 6035   1.506   4.705   0.890
 1712SOL    HW2 6036   1.559   4.857   0.861
 1713SOL     OW 6037   1.874   3.253   0.315
 1713SOL    HW1 6038   1.911   3.210   0.233
 1713SOL    HW2 6039   1.774   3.262   0.305
 1714SOL     OW 6040   3.653   1.895   1.197
 1714SOL    HW1 6041   3.639   1.920   1.101
 1714SOL    HW2 6042   3.742   1.851   1.207
 1715SOL     OW 6043   0.270   3.222   3.911
 1715SOL    HW1 6044   0.193   3.159   3.917
 1715SOL    HW2 6045   0.309   3.220   3.819
 1716SOL     OW 6046   0.132   6.880   0.085
 1716SOL    HW1 6047   0.141   6.914   7.018
 1716SOL    HW2 6048   0.073   6.941   0.138
 1717SOL     OW 6049   3.329   0.183   7.008
 1717SOL    HW1 6050   3.273   0.125   0.040
 1717SOL    HW2 6051   3.277   0.264   6.981
 1718SOL     OW 6052   1.327   4.851   5.471
 1718SOL    HW1 6053   1.273   4.879   5.550
 1718SOL    HW2 6054   1.270   4.801   5.407
 1719SOL     OW 6055   2.397   3.411   1.475
 1719SOL    HW1 6056   2.384   3.337   1.409
 1719SOL    HW2 6057   2.421   3.372   1.564
 1720SOL     OW 6058   6.300   1.313   2.191
 1720SOL    HW1 6059   6.320   1.364   2.108
 1720SOL    HW2 6060   6.208   1.336   2.224
 1721SOL     OW 6061   1.998   5.947   3.362
 1721SOL    HW1 6062   1.940   5.931   3.282
 1721SOL    HW2 6063   1.940   5.955   3.443
 1722SOL     OW 6064   5.535   6.684   1.792
 1722SOL    HW1 6065   5.522   6.650   1.885
 1722SOL    HW2 6066   5.612   6.636   1.749
 1723SOL     OW 6067   5.871   1.116   2.431
 1723SOL    HW1 6068   5.798   1.163   2.381
 1723SOL    HW2 6069   5.839   1.093   2.523
 1724SOL     OW 6070   4.995   0.487   0.316
 1724SOL    HW1 6071   5.018   0.570   0.367
 1724SOL    HW2 6072   5.053   0.412   0.346
 1725SOL     OW 6073   4.186   5.133   2.025
 1725SOL    HW1 6074   4.283   5.144   2.046
 1725SOL    HW2 6075   4.173   5.047   1.976
 1726SOL     OW 6076   0.256   4.778   4.885
 1726SOL    HW1 6077   0.232   4.710   4.816
 1726SOL    HW2 6078   0.205   4.862   4.869
 1727SOL     OW 6079   3.594   2.950   5.422
 1727SOL    HW1 6080   3.529   2.888   5.379
 1727SOL    HW2 6081   3.686   2.931   5.389
 1728SOL     OW 6082   4.469   4.522   3.503
 1728SOL    HW1 6083   4.474   4.569   3.415
 1728SOL    HW2 6084   4.415   4.439   3.493
 1729SOL     OW 6085   2.091   3.345   2.728
 1729SOL    HW1 6086   2.100   3.380   2.821
 1729SOL    HW2 6087   2.146   3.262   2.717
 1730SOL     OW 6088   5.619   2.497   4.306
 1730SOL    HW1 6089   5.715   2.485   4.330
 1730SOL    HW2 6090   5.573   2.409   4.307
 1731SOL     OW 6091   0.961   5.702   0.444
 1731SOL    HW1 6092   0.952   5.751   0.358
 1731SOL    HW2 6093   0.947   5.604   0.429
 1732SOL     OW 6094   0.281   4.700   6.779
 1732SOL    HW1 6095   0.272   4.615   6.728
 1732SOL    HW2 6096   0.277   4.680   6.877
 1733SOL     OW 6097   1.468   4.049   0.749
 1733SOL    HW1 6098   1.457   4.013   0.842
 1733SOL    HW2 6099   1.499   4.144   0.754
 1734SOL     OW 6100   4.740   2.707   1.520
 1734SOL    HW1 6101   4.745   2.786   1.582
 1734SOL    HW2 6102   4.646   2.697   1.487
 1735SOL     OW 6103   5.735   6.044   1.278
 1735SOL    HW1 6104   5.658   6.099   1.245
 1735SOL    HW2 6105   5.703   5.953   1.302
 1736SOL     OW 6106   3.058   3.706   0.560
 1736SOL    HW1 6107   3.106   3.733   0.477
 1736SOL    HW2 6108   2.982   3.769   0.576
 1737SOL     OW 6109   1.261   5.948   3.872
 1737SOL    HW1 6110   1.300   6.032   3.834
 1737SOL    HW2 6111   1.170   5.932   3.832
 1738SOL     OW 6112   0.906   1.741   1.337
 1738SOL    HW1 6113   0.876   1.834   1.359
 1738SOL    HW2 6114   1.005   1.735   1.346
 1739SOL     OW 6115   4.271   2.130   5.747
 1739SOL    HW1 6116   4.255   2.195   5.822
 1739SOL    HW2 6117   4.290   2.180   5.663
 1740SOL     OW 6118   0.694   1.020   5.632
 1740SOL    HW1 6119   0.651   0.943   5.585
 1740SOL    HW2 6120   0.712   0.995   5.728
 1741SOL     OW 6121   2.245   0.752   2.333
 1741SOL    HW1 6122   2.204   0.741   2.423
 1741SOL    HW2 6123   2.201   0.827   2.284
 1742SOL     OW 6124   6.165   6.178   4.375
 1742SOL    HW1 6125   6.119   6.210   4.458
 1742SOL    HW2 6126   6.126   6.089   4.348
 1743SOL     OW 6127   4.488   1.163   0.317
 1743SOL    HW1 6128   4.509   1.245   0.370
 1743SOL    HW2 6129   4.565   1.141   0.257
 1744SOL     OW 6130   3.075   0.179   1.689
 1744SOL    HW1 6131   3.124   0.102   1.729
 1744SOL    HW2 6132   3.061   0.249   1.759
 1745SOL     OW 6133   6.440   3.151   5.048
 1745SOL    HW1 6134   6.361   3.164   4.988
 1745SOL    HW2 6135   6.462   3.053   5.053
 1746SOL     OW 6136   2.776   0.736   5.872
 1746SOL    HW1 6137   2.806   0.641   5.874
 1746SOL    HW2 6138   2.791   0.777   5.963
 1747SOL     OW 6139   4.817   0.452   6.415
 1747SOL    HW1 6140   4.838   0.549   6.429
 1747SOL    HW2 6141   4.873   0.417   6.339
 1748SOL     OW 6142   5.920   1.922   1.599
 1748SOL    HW1 6143   5.825   1.915   1.571
 1748SOL    HW2 6144   5.979   1.917   1.518
 1749SOL     OW 6145   4.696   6.889   6.077
 1749SOL    HW1 6146   4.783   6.851   6.046
 1749SOL    HW2 6147   4.621   6.834   6.042
 1750SOL     OW 6148   4.815   0.567   3.821
 1750SOL    HW1 6149   4.826   0.533   3.728
 1750SOL    HW2 6150   4.800   0.666   3.820
 1751SOL     OW 6151   2.069   5.802   3.818
 1751SOL    HW1 6152   1.995   5.812   3.885
 1751SOL    HW2 6153   2.128   5.882   3.821
 1752SOL     OW 6154   6.533   2.342   0.022
 1752SOL    HW1 6155   6.512   2.245   0.008
 1752SOL    HW2 6156   6.510   2.368   0.115
 1753SOL     OW 6157   2.762   0.199   2.343
 1753SOL    HW1 6158   2.760   0.099   2.345
 1753SOL    HW2 6159   2.712   0.232   2.263
 1754SOL     OW 6160   3.672   2.509   1.372
 1754SOL    HW1 6161   3.572   2.505   1.360
 1754SOL    HW2 6162   3.717   2.479   1.288
 1755SOL     OW 6163   5.253   3.509   0.420
 1755SOL    HW1 6164   5.177   3.458   0.379
 1755SOL    HW2 6165   5.257   3.600   0.379
 1756SOL     OW 6166   5.825   5.633   4.452
 1756SOL    HW1 6167   5.809   5.594   4.543
 1756SOL    HW2 6168   5.772   5.582   4.385
 1757SOL     OW 6169   3.294   0.583   4.885
 1757SOL    HW1 6170   3.238   0.662   4.858
 1757SOL    HW2 6171   3.241   0.524   4.945
 1758SOL     OW 6172   2.429   1.412   3.563
 1758SOL    HW1 6173   2.357   1.388   3.498
 1758SOL    HW2 6174   2.505   1.348   3.554
 1759SOL     OW 6175   0.753   5.533   6.211
 1759SOL    HW1 6176   0.802   5.447   6.200
 1759SOL    HW2 6177   0.693   5.528   6.291
 1760SOL     OW 6178   5.330   0.808   2.257
 1760SOL    HW1 6179   5.231   0.816   2.255
 1760SOL    HW2 6180   5.357   0.743   2.328
 1761SOL     OW 6181   5.703   2.962   1.223
 1761SOL    HW1 6182   5.743   2.941   1.134
 1761SOL    HW2 6183   5.774   2.997   1.284
 1762SOL     OW 6184   5.898   2.539   0.665
 1762SOL    HW1 6185   5.831   2.499   0.604
 1762SOL    HW2 6186   5.927   2.628   0.630
 1763SOL     OW 6187   2.147   3.781   3.687
 1763SOL    HW1 6188   2.195   3.829   3.760
 1763SOL    HW2 6189   2.048   3.795   3.697
 1764SOL     OW 6190   6.223   2.823   4.625
 1764SOL    HW1 6191   6.221   2.723   4.623
 1764SOL    HW2 6192   6.170   2.858   4.547
 1765SOL     OW 6193   2.209   2.781   6.265
 1765SOL    HW1 6194   2.190   2.868   6.220
 1765SOL    HW2 6195   2.308   2.769   6.273
 1766SOL     OW 6196   5.712   2.988   5.429
 1766SOL    HW1 6197   5.752   3.054   5.493
 1766SOL    HW2 6198   5.671   2.913   5.481
 1767SOL     OW 6199   6.276   3.759   1.722
 1767SOL    HW1 6200   6.270   3.859   1.725
 1767SOL    HW2 6201   6.362   3.730   1.765
 1768SOL     OW 6202   5.927   6.591   4.086
 1768SOL    HW1 6203   6.003   6.537   4.122
 1768SOL    HW2 6204   5.888   6.546   4.006
 1769SOL     OW 6205   5.866   0.987   3.836
 1769SOL    HW1 6206   5.958   1.003   3.803
 1769SOL    HW2 6207   5.802   1.048   3.789
 1770SOL     OW 6208   3.315   5.294   4.741
 1770SOL    HW1 6209   3.404   5.290   4.695
 1770SOL    HW2 6210   3.324   5.344   4.827
 1771SOL     OW 6211   4.713   6.423   6.670
 1771SOL    HW1 6212   4.804   6.390   6.648
 1771SOL    HW2 6213   4.719   6.507   6.724
 1772SOL     OW 6214   3.221   6.306   2.680
 1772SOL    HW1 6215   3.141   6.361   2.655
 1772SOL    HW2 6216   3.304   6.353   2.650
 1773SOL     OW 6217   0.928   5.545   6.996
 1773SOL    HW1 6218   0.969   5.617   6.940
 1773SOL    HW2 6219   0.862   5.586   0.033
 1774SOL     OW 6220   3.644   4.976   2.076
 1774SOL    HW1 6221   3.643   4.891   2.023
 1774SOL    HW2 6222   3.550   5.009   2.087
 1775SOL     OW 6223   0.973   4.620   1.492
 1775SOL    HW1 6224   1.037   4.673   1.546
 1775SOL    HW2 6225   1.019   4.540   1.454
 1776SOL     OW 6226   3.292   5.759   4.741
 1776SOL    HW1 6227   3.284   5.677   4.685
 1776SOL    HW2 6228   3.318   5.837   4.684
 1777SOL     OW 6229   3.468   5.388   6.991
 1777SOL    HW1 6230   3.414   5.435   0.034
 1777SOL    HW2 6231   3.428   5.299   6.970
 1778SOL     OW 6232   6.418   3.804   5.704
 1778SOL    HW1 6233   6.352   3.846   5.643
 1778SOL    HW2 6234   6.447   3.716   5.666
 1779SOL     OW 6235   3.251   0.204   5.322
 1779SOL    HW1 6236   3.301   0.239   5.243
 1779SOL    HW2 6237   3.313   0.195   5.400
 1780SOL     OW 6238   3.139   3.189   6.670
 1780SOL    HW1 6239   3.126   3.111   6.731
 1780SOL    HW2 6240   3.178   3.158   6.583
 1781SOL     OW 6241   4.043   5.278   3.405
 1781SOL    HW1 6242   3.970   5.214   3.429
 1781SOL    HW2 6243   4.093   5.242   3.326
 1782SOL     OW 6244   3.439   1.962   4.333
 1782SOL    HW1 6245   3.515   2.018   4.300
 1782SOL    HW2 6246   3.359   1.977   4.274
 1783SOL     OW 6247   1.830   5.713   0.020
 1783SOL    HW1 6248   1.810   5.624   7.008
 1783SOL    HW2 6249   1.897   5.760   6.989
 1784SOL     OW 6250   3.780   6.513   5.337
 1784SOL    HW1 6251   3.750   6.579   5.405
 1784SOL    HW2 6252   3.801   6.426   5.382
 1785SOL     OW 6253   6.582   4.512   1.844
 1785SOL    HW1 6254   6.591   4.608   1.869
 1785SOL    HW2 6255   6.549   4.460   1.922
 1786SOL     OW 6256   3.738   2.443   1.129
 1786SOL    HW1 6257   3.655   2.481   1.088
 1786SOL    HW2 6258   3.799   2.411   1.056
 1787SOL     OW 6259   3.884   0.698   5.870
 1787SOL    HW1 6260   3.935   0.764   5.815
 1787SOL    HW2 6261   3.825   0.643   5.811
 1788SOL     OW 6262   2.040   4.347   5.912
 1788SOL    HW1 6263   2.038   4.437   5.954
 1788SOL    HW2 6264   1.958   4.296   5.939
 1789SOL     OW 6265   5.714   1.086   0.314
 1789SOL    HW1 6266   5.625   1.068   0.356
 1789SOL    HW2 6267   5.771   1.004   0.320
 1790SOL     OW 6268   3.531   7.020   2.979
 1790SOL    HW1 6269   3.622   6.995   2.945
 1790SOL    HW2 6270   3.520   6.985   3.072
 1791SOL     OW 6271   0.189   6.550   2.633
 1791SOL    HW1 6272   0.155   6.631   2.680
 1791SOL    HW2 6273   0.264   6.575   2.572
 1792SOL     OW 6274   1.229   3.955   5.379
 1792SOL    HW1 6275   1.187   3.976   5.291
 1792SOL    HW2 6276   1.161   3.970   5.452
 1793SOL     OW 6277   0.437   0.775   4.000
 1793SOL    HW1 6278   0.522   0.810   3.961
 1793SOL    HW2 6279   0.398   0.707   3.938
 1794SOL     OW 6280   4.630   6.241   6.385
 1794SOL    HW1 6281   4.712   6.219   6.331
 1794SOL    HW2 6282   4.631   6.338   6.410
 1795SOL     OW 6283   0.279   3.007   0.279
 1795SOL    HW1 6284   0.353   3.064   0.314
 1795SOL    HW2 6285   0.259   3.033   0.185
 1796SOL     OW 6286   3.364   0.326   6.730
 1796SOL    HW1 6287   3.345   0.250   6.792
 1796SOL    HW2 6288   3.463   0.342   6.727
 1797SOL     OW 6289   0.397   0.565   0.694
 1797SOL    HW1 6290   0.391   0.565   0.794
 1797SOL    HW2 6291   0.462   0.494   0.665
 1798SOL     OW 6292   6.094   2.640   3.205
 1798SOL    HW1 6293   6.111   2.672   3.299
 1798SOL    HW2 6294   6.163   2.572   3.180
 1799SOL     OW 6295   1.776   1.752   6.790
 1799SOL    HW1 6296   1.720   1.691   6.732
 1799SOL    HW2 6297   1.839   1.803   6.732
 1800SOL     OW 6298   4.305   5.190   2.339
 1800SOL    HW1 6299   4.312   5.241   2.254
 1800SOL    HW2 6300   4.297   5.092   2.318
 1801SOL     OW 6301   5.742   6.896   0.960
 1801SOL    HW1 6302   5.666   6.835   0.937
 1801SOL    HW2 6303   5.766   6.951   0.880
 1802SOL     OW 6304   5.392   5.280   3.869
 1802SOL    HW1 6305   5.452   5.227   3.929
 1802SOL    HW2 6306   5.351   5.355   3.920
 1803SOL     OW 6307   5.958   5.552   1.038
 1803SOL    HW1 6308   6.012   5.622   0.990
 1803SOL    HW2 6309   5.925   5.589   1.125
 1804SOL     OW 6310   3.375   3.209   5.947
 1804SOL    HW1 6311   3.329   3.298   5.943
 1804SOL    HW2 6312   3.307   3.137   5.960
 1805SOL     OW 6313   4.958   2.859   6.988
 1805SOL    HW1 6314   4.887   2.844   6.919
 1805SOL    HW2 6315   4.979   2.957   6.993
 1806SOL     OW 6316   0.789   0.147   0.956
 1806SOL    HW1 6317   0.837   0.064   0.930
 1806SOL    HW2 6318   0.770   0.202   0.874
 1807SOL     OW 6319   5.417   1.773   5.417
 1807SOL    HW1 6320   5.334   1.737   5.458
 1807SOL    HW2 6321   5.480   1.801   5.490
 1808SOL     OW 6322   2.071   4.552   4.123
 1808SOL    HW1 6323   2.097   4.513   4.211
 1808SOL    HW2 6324   2.006   4.491   4.077
 1809SOL     OW 6325   3.225   0.075   6.322
 1809SOL    HW1 6326   3.231   0.171   6.348
 1809SOL    HW2 6327   3.306   0.051   6.268
 1810SOL     OW 6328   3.257   6.047   2.700
 1810SOL    HW1 6329   3.258   6.145   2.724
 1810SOL    HW2 6330   3.322   5.998   2.758
 1811SOL     OW 6331   6.162   5.353   2.619
 1811SOL    HW1 6332   6.063   5.357   2.604
 1811SOL    HW2 6333   6.209   5.394   2.541
 1812SOL     OW 6334   4.120   5.201   6.424
 1812SOL    HW1 6335   4.103   5.262   6.346
 1812SOL    HW2 6336   4.216   5.175   6.425
 1813SOL     OW 6337   6.142   4.796   5.616
 1813SOL    HW1 6338   6.143   4.732   5.539
 1813SOL    HW2 6339   6.088   4.757   5.691
 1814SOL     OW 6340   4.861   6.622   2.200
 1814SOL    HW1 6341   4.818   6.533   2.209
 1814SOL    HW2 6342   4.960   6.612   2.209
 1815SOL     OW 6343   0.070   0.924   2.624
 1815SOL    HW1 6344   0.078   0.971   2.537
 1815SOL    HW2 6345   7.013   0.954   2.671
 1816SOL     OW 6346   0.537   4.055   0.137
 1816SOL    HW1 6347   0.577   4.109   0.063
 1816SOL    HW2 6348   0.576   3.963   0.136
 1817SOL     OW 6349   1.664   5.270   1.842
 1817SOL    HW1 6350   1.762   5.285   1.829
 1817SOL    HW2 6351   1.614   5.353   1.818
 1818SOL     OW 6352   2.425   1.134   3.061
 1818SOL    HW1 6353   2.430   1.172   2.969
 1818SOL    HW2 6354   2.506   1.079   3.080
 1819SOL     OW 6355   1.477   4.238   1.967
 1819SOL    HW1 6356   1.454   4.281   2.054
 1819SOL    HW2 6357   1.468   4.138   1.976
 1820SOL     OW 6358   5.472   0.230   2.708
 1820SOL    HW1 6359   5.417   0.226   2.625
 1820SOL    HW2 6360   5.545   0.298   2.697
 1821SOL     OW 6361   2.263   1.638   3.226
 1821SOL    HW1 6362   2.170   1.664   3.199
 1821SOL    HW2 6363   2.329   1.681   3.164
 1822SOL     OW 6364   3.437   3.643   1.390
 1822SOL    HW1 6365   3.528   3.602   1.395
 1822SOL    HW2 6366   3.410   3.653   1.294
 1823SOL     OW 6367   3.919   0.152   2.500
 1823SOL    HW1 6368   3.964   0.240   2.489
 1823SOL    HW2 6369   3.829   0.154   2.457
 1824SOL     OW 6370   5.233   2.578   1.736
 1824SOL    HW1 6371   5.245   2.677   1.741
 1824SOL    HW2 6372   5.174   2.548   1.811
 1825SOL     OW 6373   1.300   1.003   1.249
 1825SOL    HW1 6374   1.303   1.103   1.242
 1825SOL    HW2 6375   1.235   0.967   1.182
 1826SOL     OW 6376   3.196   6.251   6.271
 1826SOL    HW1 6377   3.206   6.260   6.172
 1826SOL    HW2 6378   3.274   6.202   6.309
 1827SOL     OW 6379   6.318   6.848   1.803
 1827SOL    HW1 6380   6.379   6.775   1.772
 1827SOL    HW2 6381   6.225   6.829   1.770
 1828SOL     OW 6382   1.670   2.080   0.394
 1828SOL    HW1 6383   1.582   2.122   0.372
 1828SOL    HW2 6384   1.662   1.981   0.387
 1829SOL     OW 6385   6.359   5.664   1.204
 1829SOL    HW1 6386   6.394   5.706   1.287
 1829SOL    HW2 6387   6.368   5.564   1.210
 1830SOL     OW 6388   5.199   6.203   3.641
 1830SOL    HW1 6389   5.223   6.172   3.733
 1830SOL    HW2 6390   5.276   6.253   3.601
 1831SOL     OW 6391   5.035   0.801   3.400
 1831SOL    HW1 6392   5.057   0.725   3.340
 1831SOL    HW2 6393   5.075   0.886   3.362
 1832SOL     OW 6394   5.528   2.576   0.603
 1832SOL    HW1 6395   5.570   2.551   0.691
 1832SOL    HW2 6396   5.482   2.496   0.565
 1833SOL     OW 6397   5.896   2.110   5.780
 1833SOL    HW1 6398   5.818   2.132   5.840
 1833SOL    HW2 6399   5.864   2.095   5.687
 1834SOL     OW 6400   2.861   3.627   0.897
 1834SOL    HW1 6401   2.848   3.688   0.820
 1834SOL    HW2 6402   2.844   3.533   0.869
 1835SOL     OW 6403   1.423   4.546   0.041
 1835SOL    HW1 6404   1.381   4.520   6.981
 1835SOL    HW2 6405   1.359   4.530   0.116
 1836SOL     OW 6406   0.482   6.074   0.622
 1836SOL    HW1 6407   0.422   5.995   0.633
 1836SOL    HW2 6408   0.509   6.108   0.712
 1837SOL     OW 6409   1.123   2.840   4.861
 1837SOL    HW1 6410   1.126   2.900   4.940
 1837SOL    HW2 6411   1.098   2.747   4.890
 1838SOL     OW 6412   0.149   2.865   3.871
 1838SOL    HW1 6413   0.143   2.844   3.773
 1838SOL    HW2 6414   0.226   2.816   3.911
 1839SOL     OW 6415   6.893   2.155   6.018
 1839SOL    HW1 6416   6.900   2.226   6.088
 1839SOL    HW2 6417   6.961   2.170   5.947
 1840SOL     OW 6418   1.388   5.094   0.593
 1840SOL    HW1 6419   1.389   5.092   0.693
 1840SOL    HW2 6420   1.464   5.151   0.560
 1841SOL     OW 6421   1.663   2.908   3.297
 1841SOL    HW1 6422   1.642   2.813   3.321
 1841SOL    HW2 6423   1.607   2.936   3.219
 1842SOL     OW 6424   1.010   4.536   6.700
 1842SOL    HW1 6425   1.078   4.533   6.773
 1842SOL    HW2 6426   1.042   4.483   6.621
 1843SOL     OW 6427   3.472   2.020   4.692
 1843SOL    HW1 6428   3.417   2.067   4.624
 1843SOL    HW2 6429   3.413   1.978   4.760
 1844SOL     OW 6430   5.114   3.619   3.666
 1844SOL    HW1 6431   5.193   3.564   3.691
 1844SOL    HW2 6432   5.141   3.716   3.661
 1845SOL     OW 6433   4.121   0.271   0.057
 1845SOL    HW1 6434   4.108   0.258   6.986
 1845SOL    HW2 6435   4.037   0.249   0.106
 1846SOL     OW 6436   3.267   1.231   5.634
 1846SOL    HW1 6437   3.296   1.270   5.547
 1846SOL    HW2 6438   3.175   1.264   5.657
 1847SOL     OW 6439   1.610   6.909   0.214
 1847SOL    HW1 6440   1.621   6.984   0.279
 1847SOL    HW2 6441   1.521   6.916   0.170
 1848SOL     OW 6442   3.305   6.861   2.288
 1848SOL    HW1 6443   3.208   6.837   2.292
 1848SOL    HW2 6444   3.359   6.794   2.339
 1849SOL     OW 6445   2.775   1.069   6.272
 1849SOL    HW1 6446   2.689   1.105   6.237
 1849SOL    HW2 6447   2.851   1.123   6.235
 1850SOL     OW 6448   5.647   1.654   1.767
 1850SOL    HW1 6449   5.722   1.643   1.832
 1850SOL    HW2 6450   5.605   1.744   1.779
 1851SOL     OW 6451   6.594   3.727   3.302
 1851SOL    HW1 6452   6.522   3.658   3.313
 1851SOL    HW2 6453   6.677   3.683   3.266
 1852SOL     OW 6454   5.366   3.331   0.154
 1852SOL    HW1 6455   5.342   3.336   0.058
 1852SOL    HW2 6456   5.465   3.315   0.164
 1853SOL     OW 6457   1.852   4.646   0.436
 1853SOL    HW1 6458   1.899   4.593   0.365
 1853SOL    HW2 6459   1.826   4.735   0.399
 1854SOL     OW 6460   3.014   5.488   4.021
 1854SOL    HW1 6461   2.914   5.486   4.021
 1854SOL    HW2 6462   3.047   5.541   4.099
 1855SOL     OW 6463   5.420   4.393   1.888
 1855SOL    HW1 6464   5.452   4.358   1.800
 1855SOL    HW2 6465   5.395   4.489   1.879
 1856SOL     OW 6466   4.667   2.585   5.902
 1856SOL    HW1 6467   4.715   2.530   5.834
 1856SOL    HW2 6468   4.584   2.624   5.861
 1857SOL     OW 6469   4.676   1.517   3.501
 1857SOL    HW1 6470   4.729   1.522   3.416
 1857SOL    HW2 6471   4.616   1.437   3.498
 1858SOL     OW 6472   4.964   4.209   3.272
 1858SOL    HW1 6473   4.911   4.174   3.349
 1858SOL    HW2 6474   4.919   4.184   3.186
 1859SOL     OW 6475   5.640   1.309   3.431
 1859SOL    HW1 6476   5.662   1.224   3.384
 1859SOL    HW2 6477   5.634   1.383   3.364
 1860SOL     OW 6478   4.614   1.699   5.163
 1860SOL    HW1 6479   4.572   1.659   5.245
 1860SOL    HW2 6480   4.543   1.732   5.101
 1861SOL     OW 6481   5.640   6.475   2.308
 1861SOL    HW1 6482   5.731   6.441   2.285
 1861SOL    HW2 6483   5.572   6.405   2.286
 1862SOL     OW 6484   1.694   1.799   0.353
 1862SOL    HW1 6485   1.603   1.756   0.358
 1862SOL    HW2 6486   1.764   1.729   0.355
 1863SOL     OW 6487   2.582   3.081   1.672
 1863SOL    HW1 6488   2.666   3.068   1.725
 1863SOL    HW2 6489   2.605   3.112   1.580
 1864SOL     OW 6490   0.990   6.693   3.989
 1864SOL    HW1 6491   1.023   6.615   4.042
 1864SOL    HW2 6492   0.892   6.703   4.002
 1865SOL     OW 6493   4.940   1.950   6.703
 1865SOL    HW1 6494   4.935   2.003   6.788
 1865SOL    HW2 6495   4.987   2.003   6.633
 1866SOL     OW 6496   5.243   5.265   2.604
 1866SOL    HW1 6497   5.234   5.362   2.629
 1866SOL    HW2 6498   5.325   5.228   2.649
 1867SOL     OW 6499   0.714   4.590   6.453
 1867SOL    HW1 6500   0.639   4.653   6.475
 1867SOL    HW2 6501   0.677   4.500   6.431
 1868SOL     OW 6502   5.938   4.298   5.194
 1868SOL    HW1 6503   5.956   4.362   5.269
 1868SOL    HW2 6504   5.840   4.286   5.183
 1869SOL     OW 6505   6.399   1.622   4.690
 1869SOL    HW1 6506   6.373   1.551   4.756
 1869SOL    HW2 6507   6.393   1.585   4.597
 1870SOL     OW 6508   2.141   4.474   4.361
 1870SOL    HW1 6509   2.219   4.433   4.314
 1870SOL    HW2 6510   2.174   4.537   4.432
 1871SOL     OW 6511   1.449   0.037   0.711
 1871SOL    HW1 6512   1.536   0.069   0.747
 1871SOL    HW2 6513   1.377   0.052   0.779
 1872SOL     OW 6514   2.517   4.999   0.188
 1872SOL    HW1 6515   2.551   4.911   0.220
 1872SOL    HW2 6516   2.579   5.072   0.217
 1873SOL     OW 6517   4.557   1.451   0.469
 1873SOL    HW1 6518   4.638   1.397   0.491
 1873SOL    HW2 6519   4.528   1.503   0.549
 1874SOL     OW 6520   0.805   3.045   2.784
 1874SOL    HW1 6521   0.835   2.951   2.801
 1874SOL    HW2 6522   0.746   3.047   2.703
 1875SOL     OW 6523   0.980   6.769   0.433
 1875SOL    HW1 6524   1.047   6.840   0.453
 1875SOL    HW2 6525   1.015   6.680   0.462
 1876SOL     OW 6526   2.056   6.931   4.776
 1876SOL    HW1 6527   1.983   6.962   4.836
 1876SOL    HW2 6528   2.017   6.882   4.698
 1877SOL     OW 6529   0.268   6.732   3.618
 1877SOL    HW1 6530   0.342   6.738   3.551
 1877SOL    HW2 6531   0.292   6.787   3.699
 1878SOL     OW 6532   5.677   2.460   5.894
 1878SOL    HW1 6533   5.649   2.364   5.889
 1878SOL    HW2 6534   5.606   2.518   5.855
 1879SOL     OW 6535   1.580   4.716   5.629
 1879SOL    HW1 6536   1.522   4.717   5.549
 1879SOL    HW2 6537   1.673   4.688   5.603
 1880SOL     OW 6538   6.267   0.454   5.436
 1880SOL    HW1 6539   6.366   0.437   5.431
 1880SOL    HW2 6540   6.225   0.387   5.497
 1881SOL     OW 6541   6.911   2.162   6.713
 1881SOL    HW1 6542   6.883   2.241   6.768
 1881SOL    HW2 6543   7.004   2.176   6.679
 1882SOL     OW 6544   1.095   6.235   6.527
 1882SOL    HW1 6545   1.034   6.156   6.524
 1882SOL    HW2 6546   1.137   6.241   6.618
 1883SOL     OW 6547   6.983   2.102   4.114
 1883SOL    HW1 6548   6.885   2.085   4.128
 1883SOL    HW2 6549   6.997   2.142   4.023
 1884SOL     OW 6550   6.942   2.779   1.093
 1884SOL    HW1 6551   7.011   2.812   1.029
 1884SOL    HW2 6552   6.851   2.809   1.062
 1885SOL     OW 6553   1.903   1.274   4.771
 1885SOL    HW1 6554   1.972   1.341   4.798
 1885SOL    HW2 6555   1.929   1.233   4.684
 1886SOL     OW 6556   1.204   6.915   3.204
 1886SOL    HW1 6557   1.251   6.836   3.165
 1886SOL    HW2 6558   1.167   6.891   3.294
 1887SOL     OW 6559   2.291   6.650   5.730
 1887SOL    HW1 6560   2.363   6.584   5.706
 1887SOL    HW2 6561   2.201   6.609   5.713
 1888SOL     OW 6562   2.763   0.903   2.969
 1888SOL    HW1 6563   2.790   0.961   2.892
 1888SOL    HW2 6564   2.833   0.907   3.040
 1889SOL     OW 6565   0.068   3.503   2.984
 1889SOL    HW1 6566   0.052   3.532   3.079
 1889SOL    HW2 6567   0.075   3.583   2.925
 1890SOL     OW 6568   0.888   5.739   4.482
 1890SOL    HW1 6569   0.980   5.759   4.514
 1890SOL    HW2 6570   0.882   5.642   4.456
 1891SOL     OW 6571   3.561   3.122   3.437
 1891SOL    HW1 6572   3.609   3.206   3.412
 1891SOL    HW2 6573   3.564   3.058   3.360
 1892SOL     OW 6574   1.006   0.915   2.502
 1892SOL    HW1 6575   0.960   0.926   2.590
 1892SOL    HW2 6576   0.964   0.975   2.434
 1893SOL     OW 6577   3.578   3.273   4.696
 1893SOL    HW1 6578   3.480   3.251   4.699
 1893SOL    HW2 6579   3.622   3.218   4.625
 1894SOL     OW 6580   3.087   3.041   4.061
 1894SOL    HW1 6581   2.996   3.030   4.099
 1894SOL    HW2 6582   3.130   3.122   4.101
 1895SOL     OW 6583   1.662   6.126   0.173
 1895SOL    HW1 6584   1.758   6.143   0.197
 1895SOL    HW2 6585   1.603   6.172   0.239
 1896SOL     OW 6586   5.449   2.870   1.125
 1896SOL    HW1 6587   5.379   2.927   1.082
 1896SOL    HW2 6588   5.535   2.920   1.130
 1897SOL     OW 6589   1.552   4.119   4.706
 1897SOL    HW1 6590   1.531   4.137   4.610
 1897SOL    HW2 6591   1.468   4.125   4.761
 1898SOL     OW 6592   1.826   6.489   3.367
 1898SOL    HW1 6593   1.924   6.470   3.359
 1898SOL    HW2 6594   1.808   6.582   3.334
 1899SOL     OW 6595   0.162   0.828   2.309
 1899SOL    HW1 6596   0.069   0.823   2.345
 1899SOL    HW2 6597   0.227   0.827   2.385
 1900SOL     OW 6598   2.322   6.528   0.149
 1900SOL    HW1 6599   2.404   6.573   0.183
 1900SOL    HW2 6600   2.304   6.558   0.055
 1901SOL     OW 6601   2.859   3.700   1.786
 1901SOL    HW1 6602   2.918   3.636   1.736
 1901SOL    HW2 6603   2.845   3.666   1.879
 1902SOL     OW 6604   1.026   6.948   4.305
 1902SOL    HW1 6605   1.119   6.983   4.321
 1902SOL    HW2 6606   1.031   6.869   4.244
 1903SOL     OW 6607   1.001   2.609   3.885
 1903SOL    HW1 6608   1.089   2.604   3.838
 1903SOL    HW2 6609   0.968   2.704   3.882
 1904SOL     OW 6610   6.087   5.773   1.537
 1904SOL    HW1 6611   5.994   5.748   1.512
 1904SOL    HW2 6612   6.104   5.869   1.513
 1905SOL     OW 6613   0.775   1.814   4.157
 1905SOL    HW1 6614   0.857   1.757   4.164
 1905SOL    HW2 6615   0.698   1.758   4.127
 1906SOL     OW 6616   1.466   0.046   4.910
 1906SOL    HW1 6617   1.474   0.145   4.921
 1906SOL    HW2 6618   1.369   0.021   4.902
 1907SOL     OW 6619   5.392   2.800   0.491
 1907SOL    HW1 6620   5.293   2.791   0.491
 1907SOL    HW2 6621   5.434   2.720   0.533
 1908SOL     OW 6622   3.115   1.193   0.950
 1908SOL    HW1 6623   3.152   1.101   0.958
 1908SOL    HW2 6624   3.188   1.260   0.965
 1909SOL     OW 6625   6.390   4.675   4.543
 1909SOL    HW1 6626   6.321   4.743   4.565
 1909SOL    HW2 6627   6.388   4.655   4.445
 1910SOL     OW 6628   0.696   5.778   5.786
 1910SOL    HW1 6629   0.733   5.719   5.715
 1910SOL    HW2 6630   0.602   5.752   5.806
 1911SOL     OW 6631   6.583   5.047   3.982
 1911SOL    HW1 6632   6.484   5.057   3.989
 1911SOL    HW2 6633   6.624   5.060   4.072
 1912SOL     OW 6634   3.389   5.046   2.023
 1912SOL    HW1 6635   3.362   5.069   2.116
 1912SOL    HW2 6636   3.310   5.011   1.973
 1913SOL     OW 6637   3.981   4.251   6.561
 1913SOL    HW1 6638   4.017   4.222   6.649
 1913SOL    HW2 6639   3.991   4.351   6.552
 1914SOL     OW 6640   2.889   4.552   6.570
 1914SOL    HW1 6641   2.913   4.585   6.479
 1914SOL    HW2 6642   2.790   4.557   6.582
 1915SOL     OW 6643   3.773   2.691   5.888
 1915SOL    HW1 6644   3.719   2.652   5.962
 1915SOL    HW2 6645   3.824   2.618   5.842
 1916SOL     OW 6646   3.971   0.975   2.591
 1916SOL    HW1 6647   4.046   1.003   2.652
 1916SOL    HW2 6648   3.899   1.044   2.593
 1917SOL     OW 6649   1.978   4.279   1.566
 1917SOL    HW1 6650   2.049   4.217   1.535
 1917SOL    HW2 6651   1.894   4.228   1.584
 1918SOL     OW 6652   5.700   2.503   3.761
 1918SOL    HW1 6653   5.673   2.530   3.853
 1918SOL    HW2 6654   5.619   2.494   3.703
 1919SOL     OW 6655   6.757   2.620   6.799
 1919SOL    HW1 6656   6.808   2.578   6.874
 1919SOL    HW2 6657   6.659   2.616   6.819
 1920SOL     OW 6658   4.601   3.055   1.126
 1920SOL    HW1 6659   4.610   2.967   1.080
 1920SOL    HW2 6660   4.678   3.069   1.189
 1921SOL     OW 6661   2.393   2.620   0.096
 1921SOL    HW1 6662   2.338   2.586   0.173
 1921SOL    HW2 6663   2.411   2.717   0.109
 1922SOL     OW 6664   3.278   2.915   2.584
 1922SOL    HW1 6665   3.330   2.919   2.669
 1922SOL    HW2 6666   3.256   2.819   2.563
 1923SOL     OW 6667   3.762   1.363   4.185
 1923SOL    HW1 6668   3.841   1.323   4.231
 1923SOL    HW2 6669   3.698   1.292   4.158
 1924SOL     OW 6670   4.441   1.294   7.015
 1924SOL    HW1 6671   4.459   1.330   6.924
 1924SOL    HW2 6672   4.440   1.194   7.011
 1925SOL     OW 6673   1.419   3.358   1.287
 1925SOL    HW1 6674   1.487   3.346   1.215
 1925SOL    HW2 6675   1.328   3.361   1.247
 1926SOL     OW 6676   4.027   0.198   1.950
 1926SOL    HW1 6677   4.109   0.252   1.970
 1926SOL    HW2 6678   3.957   0.217   2.019
 1927SOL     OW 6679   1.956   5.210   1.003
 1927SOL    HW1 6680   1.900   5.205   1.085
 1927SOL    HW2 6681   2.045   5.251   1.025
 1928SOL     OW 6682   5.296   4.496   2.985
 1928SOL    HW1 6683   5.235   4.432   3.031
 1928SOL    HW2 6684   5.386   4.494   3.028
 1929SOL     OW 6685   3.164   6.822   2.978
 1929SOL    HW1 6686   3.236   6.813   2.909
 1929SOL    HW2 6687   3.093   6.883   2.944
 1930SOL     OW 6688   3.826   3.283   0.223
 1930SOL    HW1 6689   3.792   3.198   0.264
 1930SOL    HW2 6690   3.887   3.329   0.289
 1931SOL     OW 6691   6.758   2.138   4.403
 1931SOL    HW1 6692   6.727   2.112   4.312
 1931SOL    HW2 6693   6.785   2.234   4.402
 1932SOL     OW 6694   4.784   1.948   2.225
 1932SOL    HW1 6695   4.822   1.966   2.135
 1932SOL    HW2 6696   4.738   2.030   2.259
 1933SOL     OW 6697   1.095   0.563   1.283
 1933SOL    HW1 6698   1.093   0.551   1.184
 1933SOL    HW2 6699   1.189   0.555   1.316
 1934SOL     OW 6700   6.884   0.725   6.467
 1934SOL    HW1 6701   6.910   0.818   6.443
 1934SOL    HW2 6702   6.784   0.719   6.471
 1935SOL     OW 6703   6.241   4.898   3.520
 1935SOL    HW1 6704   6.156   4.846   3.518
 1935SOL    HW2 6705   6.318   4.834   3.524
 1936SOL     OW 6706   4.650   2.885   6.165
 1936SOL    HW1 6707   4.554   2.868   6.140
 1936SOL    HW2 6708   4.703   2.802   6.148
 1937SOL     OW 6709   6.038   5.159   6.861
 1937SOL    HW1 6710   6.120   5.108   6.888
 1937SOL    HW2 6711   5.991   5.193   6.942
 1938SOL     OW 6712   6.552   3.024   6.857
 1938SOL    HW1 6713   6.452   3.029   6.853
 1938SOL    HW2 6714   6.587   2.982   6.773
 1939SOL     OW 6715   0.980   0.577   4.759
 1939SOL    HW1 6716   0.898   0.529   4.789
 1939SOL    HW2 6717   0.955   0.667   4.722
 1940SOL     OW 6718   0.108   5.195   0.709
 1940SOL    HW1 6719   0.121   5.121   0.775
 1940SOL    HW2 6720   0.149   5.279   0.745
 1941SOL     OW 6721   5.632   1.762   4.944
 1941SOL    HW1 6722   5.554   1.737   5.002
 1941SOL    HW2 6723   5.600   1.777   4.851
 1942SOL     OW 6724   6.647   4.360   1.623
 1942SOL    HW1 6725   6.611   4.407   1.704
 1942SOL    HW2 6726   6.639   4.261   1.636
 1943SOL     OW 6727   0.988   2.797   3.373
 1943SOL    HW1 6728   0.963   2.881   3.421
 1943SOL    HW2 6729   0.984   2.719   3.436
 1944SOL     OW 6730   0.461   3.506   3.621
 1944SOL    HW1 6731   0.559   3.525   3.625
 1944SOL    HW2 6732   0.434   3.491   3.526
 1945SOL     OW 6733   5.069   1.311   1.859
 1945SOL    HW1 6734   5.168   1.301   1.872
 1945SOL    HW2 6735   5.036   1.390   1.911
 1946SOL     OW 6736   6.478   6.377   0.780
 1946SOL    HW1 6737   6.516   6.421   0.699
 1946SOL    HW2 6738   6.518   6.286   0.791
 1947SOL     OW 6739   6.191   5.330   3.151
 1947SOL    HW1 6740   6.186   5.425   3.182
 1947SOL    HW2 6741   6.155   5.322   3.059
 1948SOL     OW 6742   5.430   3.286   3.720
 1948SOL    HW1 6743   5.357   3.223   3.745
 1948SOL    HW2 6744   5.429   3.300   3.621
 1949SOL     OW 6745   3.258   4.333   6.472
 1949SOL    HW1 6746   3.325   4.347   6.545
 1949SOL    HW2 6747   3.202   4.253   6.492
 1950SOL     OW 6748   3.680   3.908   3.381
 1950SOL    HW1 6749   3.692   3.975   3.455
 1950SOL    HW2 6750   3.658   3.819   3.420
 1951SOL     OW 6751   6.090   5.286   6.171
 1951SOL    HW1 6752   6.116   5.217   6.238
 1951SOL    HW2 6753   5.991   5.286   6.160
 1952SOL     OW 6754   6.006   5.723   0.065
 1952SOL    HW1 6755   6.004   5.639   0.010
 1952SOL    HW2 6756   6.007   5.803   0.005
 1953SOL     OW 6757   1.232   1.177   6.709
 1953SOL    HW1 6758   1.295   1.115   6.662
 1953SOL    HW2 6759   1.153   1.195   6.650
 1954SOL     OW 6760   4.706   6.879   1.776
 1954SOL    HW1 6761   4.672   6.946   1.841
 1954SOL    HW2 6762   4.790   6.913   1.734
 1955SOL     OW 6763   0.255   2.552   4.033
 1955SOL    HW1 6764   0.313   2.633   4.029
 1955SOL    HW2 6765   0.243   2.525   4.129
 1956SOL     OW 6766   5.582   0.616   1.758
 1956SOL    HW1 6767   5.623   0.694   1.711
 1956SOL    HW2 6768   5.529   0.649   1.836
 1957SOL     OW 6769   6.584   2.509   4.236
 1957SOL    HW1 6770   6.519   2.434   4.229
 1957SOL    HW2 6771   6.619   2.532   4.145
 1958SOL     OW 6772   3.833   1.376   0.599
 1958SOL    HW1 6773   3.863   1.337   0.686
 1958SOL    HW2 6774   3.855   1.473   0.596
 1959SOL     OW 6775   1.119   2.356   5.250
 1959SOL    HW1 6776   1.134   2.421   5.324
 1959SOL    HW2 6777   1.024   2.364   5.217
 1960SOL     OW 6778   5.828   4.071   3.893
 1960SOL    HW1 6779   5.815   4.057   3.795
 1960SOL    HW2 6780   5.884   3.996   3.930
 1961SOL     OW 6781   0.817   3.733   3.824
 1961SOL    HW1 6782   0.721   3.715   3.848
 1961SOL    HW2 6783   0.844   3.672   3.749
 1962SOL     OW 6784   0.615   0.679   2.465
 1962SOL    HW1 6785   0.584   0.771   2.440
 1962SOL    HW2 6786   0.664   0.683   2.553
 1963SOL     OW 6787   0.449   2.608   0.041
 1963SOL    HW1 6788   0.498   2.534   7.022
 1963SOL    HW2 6789   0.510   2.652   0.108
 1964SOL     OW 6790   5.628   3.736   0.542
 1964SOL    HW1 6791   5.707   3.779   0.585
 1964SOL    HW2 6792   5.607   3.783   0.456
 1965SOL     OW 6793   6.097   4.138   3.554
 1965SOL    HW1 6794   6.020   4.074   3.550
 1965SOL    HW2 6795   6.138   4.134   3.646
 1966SOL     OW 6796   1.207   4.455   6.862
 1966SOL    HW1 6797   1.190   4.402   6.946
 1966SOL    HW2 6798   1.266   4.403   6.801
 1967SOL     OW 6799   6.241   3.226   4.874
 1967SOL    HW1 6800   6.306   3.266   4.809
 1967SOL    HW2 6801   6.184   3.299   4.913
 1968SOL     OW 6802   2.989   1.365   5.658
 1968SOL    HW1 6803   2.984   1.433   5.731
 1968SOL    HW2 6804   2.902   1.364   5.608
 1969SOL     OW 6805   1.955   5.847   0.919
 1969SOL    HW1 6806   1.981   5.931   0.871
 1969SOL    HW2 6807   1.873   5.865   0.974
 1970SOL     OW 6808   5.564   5.311   4.434
 1970SOL    HW1 6809   5.600   5.266   4.515
 1970SOL    HW2 6810   5.640   5.340   4.376
 1971SOL     OW 6811   1.630   4.703   4.729
 1971SOL    HW1 6812   1.621   4.726   4.632
 1971SOL    HW2 6813   1.575   4.622   4.749
 1972SOL     OW 6814   6.226   2.353   2.859
 1972SOL    HW1 6815   6.242   2.255   2.859
 1972SOL    HW2 6816   6.129   2.371   2.878
 1973SOL     OW 6817   3.302   2.358   0.894
 1973SOL    HW1 6818   3.205   2.345   0.911
 1973SOL    HW2 6819   3.348   2.269   0.894
 1974SOL     OW 6820   2.318   6.696   4.775
 1974SOL    HW1 6821   2.319   6.731   4.681
 1974SOL    HW2 6822   2.238   6.733   4.823
 1975SOL     OW 6823   1.940   2.966   3.297
 1975SOL    HW1 6824   1.968   3.028   3.223
 1975SOL    HW2 6825   1.841   2.951   3.292
 1976SOL     OW 6826   1.067   0.834   5.442
 1976SOL    HW1 6827   0.968   0.819   5.451
 1976SOL    HW2 6828   1.086   0.933   5.446
 1977SOL     OW 6829   1.887   4.124   6.490
 1977SOL    HW1 6830   1.830   4.132   6.573
 1977SOL    HW2 6831   1.870   4.203   6.431
 1978SOL     OW 6832   2.942   0.314   2.517
 1978SOL    HW1 6833   2.909   0.400   2.557
 1978SOL    HW2 6834   2.865   0.265   2.476
 1979SOL     OW 6835   6.033   4.503   6.274
 1979SOL    HW1 6836   5.955   4.540   6.326
 1979SOL    HW2 6837   6.051   4.410   6.304
 1980SOL     OW 6838   3.605   0.730   0.868
 1980SOL    HW1 6839   3.662   0.719   0.786
 1980SOL    HW2 6840   3.511   0.706   0.847
 1981SOL     OW 6841   3.696   1.818   2.525
 1981SOL    HW1 6842   3.673   1.913   2.505
 1981SOL    HW2 6843   3.791   1.812   2.555
 1982SOL     OW 6844   1.245   2.827   6.097
 1982SOL    HW1 6845   1.145   2.831   6.102
 1982SOL    HW2 6846   1.282   2.826   6.190
 1983SOL     OW 6847   0.281   0.985   2.135
 1983SOL    HW1 6848   0.239   0.936   2.211
 1983SOL    HW2 6849   0.269   0.933   2.051
 1984SOL     OW 6850   4.436   3.194   5.818
 1984SOL    HW1 6851   4.354   3.198   5.875
 1984SOL    HW2 6852   4.460   3.098   5.801
 1985SOL     OW 6853   6.531   3.828   3.882
 1985SOL    HW1 6854   6.545   3.894   3.808
 1985SOL    HW2 6855   6.603   3.759   3.879
 1986SOL     OW 6856   3.038   3.659   2.279
 1986SOL    HW1 6857   3.014   3.565   2.255
 1986SOL    HW2 6858   3.136   3.665   2.297
 1987SOL     OW 6859   2.318   0.976   1.756
 1987SOL    HW1 6860   2.271   1.039   1.818
 1987SOL    HW2 6861   2.351   1.026   1.676
 1988SOL     OW 6862   0.620   1.477   2.170
 1988SOL    HW1 6863   0.553   1.418   2.216
 1988SOL    HW2 6864   0.597   1.573   2.187
 1989SOL     OW 6865   3.085   5.350   5.035
 1989SOL    HW1 6866   2.988   5.376   5.037
 1989SOL    HW2 6867   3.140   5.432   5.022
 1990SOL     OW 6868   4.128   0.814   6.894
 1990SOL    HW1 6869   4.136   0.783   6.799
 1990SOL    HW2 6870   4.049   0.875   6.903
 1991SOL     OW 6871   2.713   5.255   1.337
 1991SOL    HW1 6872   2.718   5.317   1.415
 1991SOL    HW2 6873   2.617   5.248   1.307
 1992SOL     OW 6874   1.279   6.567   2.753
 1992SOL    HW1 6875   1.273   6.639   2.685
 1992SOL    HW2 6876   1.286   6.478   2.707
 1993SOL     OW 6877   2.308   1.899   2.883
 1993SOL    HW1 6878   2.251   1.948   2.950
 1993SOL    HW2 6879   2.289   1.934   2.791
 1994SOL     OW 6880   3.766   2.648   0.592
 1994SOL    HW1 6881   3.737   2.734   0.632
 1994SOL    HW2 6882   3.863   2.653   0.566
 1995SOL     OW 6883   5.595   1.726   4.129
 1995SOL    HW1 6884   5.617   1.820   4.106
 1995SOL    HW2 6885   5.645   1.699   4.211
 1996SOL     OW 6886   4.315   0.946   0.861
 1996SOL    HW1 6887   4.375   0.985   0.931
 1996SOL    HW2 6888   4.335   0.987   0.773
 1997SOL     OW 6889   3.356   1.319   4.113
 1997SOL    HW1 6890   3.329   1.361   4.027
 1997SOL    HW2 6891   3.440   1.267   4.100
 1998SOL     OW 6892   2.311   3.973   1.676
 1998SOL    HW1 6893   2.267   4.021   1.601
 1998SOL    HW2 6894   2.410   3.978   1.666
 1999SOL     OW 6895   1.110   0.374   7.003
 1999SOL    HW1 6896   1.018   0.413   7.011
 1999SOL    HW2 6897   1.126   0.312   0.053
 2000SOL     OW 6898   4.323   4.225   5.689
 2000SOL    HW1 6899   4.277   4.218   5.778
 2000SOL    HW2 6900   4.256   4.231   5.616
 2001SOL     OW 6901   1.606   2.415   1.463
 2001SOL    HW1 6902   1.556   2.421   1.376
 2001SOL    HW2 6903   1.549   2.450   1.537
 2002SOL     OW 6904   6.772   5.634   1.048
 2002SOL    HW1 6905   6.747   5.708   0.985
 2002SOL    HW2 6906   6.734   5.548   1.015
 2003SOL     OW 6907   5.634   5.043   2.025
 2003SOL    HW1 6908   5.662   4.999   2.110
 2003SOL    HW2 6909   5.683   5.002   1.948
 2004SOL     OW 6910   3.473   6.567   3.147
 2004SOL    HW1 6911   3.553   6.588   3.091
 2004SOL    HW2 6912   3.393   6.556   3.088
 2005SOL     OW 6913   1.435   6.072   0.524
 2005SOL    HW1 6914   1.499   6.140   0.487
 2005SOL    HW2 6915   1.420   6.090   0.621
 2006SOL     OW 6916   5.761   6.680   2.420
 2006SOL    HW1 6917   5.718   6.595   2.390
 2006SOL    HW2 6918   5.797   6.729   2.341
 2007SOL     OW 6919   5.270   5.005   6.249
 2007SOL    HW1 6920   5.233   4.939   6.315
 2007SOL    HW2 6921   5.370   5.000   6.249
 2008SOL     OW 6922   2.100   3.485   2.986
 2008SOL    HW1 6923   2.105   3.575   2.944
 2008SOL    HW2 6924   2.027   3.484   3.054
 2009SOL     OW 6925   6.230   0.029   2.626
 2009SOL    HW1 6926   6.322   7.023   2.650
 2009SOL    HW2 6927   6.172   6.977   2.605
 2010SOL     OW 6928   6.729   1.987   2.105
 2010SOL    HW1 6929   6.686   1.914   2.159
 2010SOL    HW2 6930   6.658   2.041   2.061
 2011SOL     OW 6931   0.751   0.227   4.792
 2011SOL    HW1 6932   0.798   0.213   4.705
 2011SOL    HW2 6933   0.804   0.290   4.849
 2012SOL     OW 6934   0.360   2.975   1.322
 2012SOL    HW1 6935   0.430   3.040   1.292
 2012SOL    HW2 6936   0.349   2.982   1.421
 2013SOL     OW 6937   0.037   2.668   2.152
 2013SOL    HW1 6938   0.127   2.657   2.110
 2013SOL    HW2 6939   7.005   2.590   2.128
 2014SOL     OW 6940   3.957   1.158   4.285
 2014SOL    HW1 6941   4.045   1.118   4.312
 2014SOL    HW2 6942   3.885   1.121   4.343
 2015SOL     OW 6943   4.149   6.743   1.886
 2015SOL    HW1 6944   4.191   6.825   1.924
 2015SOL    HW2 6945   4.186   6.662   1.931
 2016SOL     OW 6946   2.179   0.994   4.273
 2016SOL    HW1 6947   2.271   0.962   4.249
 2016SOL    HW2 6948   2.143   0.936   4.346
 2017SOL     OW 6949   3.733   6.362   3.692
 2017SOL    HW1 6950   3.803   6.429   3.716
 2017SOL    HW2 6951   3.702   6.315   3.774
 2018SOL     OW 6952   1.069   0.529   4.152
 2018SOL    HW1 6953   1.069   0.461   4.079
 2018SOL    HW2 6954   1.142   0.596   4.135
 2019SOL     OW 6955   5.436   5.509   6.490
 2019SOL    HW1 6956   5.379   5.538   6.567
 2019SOL    HW2 6957   5.384   5.518   6.405
 2020SOL     OW 6958   2.011   6.866   0.269
 2020SOL    HW1 6959   2.032   6.873   0.172
 2020SOL    HW2 6960   2.039   6.777   0.304
 2021SOL     OW 6961   0.240   5.930   4.389
 2021SOL    HW1 6962   0.191   5.918   4.476
 2021SOL    HW2 6963   0.290   6.016   4.391
 2022SOL     OW 6964   1.851   3.339   4.239
 2022SOL    HW1 6965   1.950   3.323   4.244
 2022SOL    HW2 6966   1.811   3.330   4.330
 2023SOL     OW 6967   6.569   6.340   6.643
 2023SOL    HW1 6968   6.611   6.390   6.719
 2023SOL    HW2 6969   6.566   6.243   6.665
 2024SOL     OW 6970   0.307   5.474   3.847
 2024SOL    HW1 6971   0.302   5.528   3.931
 2024SOL    HW2 6972   0.300   5.376   3.870
 2025SOL     OW 6973   1.767   6.005   4.649
 2025SOL    HW1 6974   1.818   5.925   4.618
 2025SOL    HW2 6975   1.688   6.019   4.589
 2026SOL     OW 6976   6.793   0.555   5.982
 2026SOL    HW1 6977   6.820   0.643   6.020
 2026SOL    HW2 6978   6.750   0.500   6.054
 2027SOL     OW 6979   0.067   6.087   2.220
 2027SOL    HW1 6980   0.125   6.168   2.224
 2027SOL    HW2 6981   0.016   6.077   2.305
 2028SOL     OW 6982   3.139   5.131   4.585
 2028SOL    HW1 6983   3.202   5.183   4.643
 2028SOL    HW2 6984   3.137   5.036   4.616
 2029SOL     OW 6985   6.184   2.667   6.548
 2029SOL    HW1 6986   6.238   2.715   6.478
 2029SOL    HW2 6987   6.087   2.692   6.537
 2030SOL     OW 6988   2.549   6.790   2.497
 2030SOL    HW1 6989   2.577   6.694   2.494
 2030SOL    HW2 6990   2.473   6.804   2.434
 2031SOL     OW 6991   0.875   5.870   4.807
 2031SOL    HW1 6992   0.970   5.878   4.839
 2031SOL    HW2 6993   0.839   5.961   4.789
 2032SOL     OW 6994   2.460   2.856   5.994
 2032SOL    HW1 6995   2.373   2.902   6.010
 2032SOL    HW2 6996   2.448   2.783   5.927
 2033SOL     OW 6997   2.246   1.417   0.690
 2033SOL    HW1 6998   2.263   1.434   0.788
 2033SOL    HW2 6999   2.333   1.401   0.644
 2034SOL     OW 7000   0.583   4.393   5.516
 2034SOL    HW1 7001   0.595   4.294   5.513
 2034SOL    HW2 7002   0.671   4.438   5.496
 2035SOL     OW 7003   5.303   6.057   3.197
 2035SOL    HW1 7004   5.206   6.060   3.174
 2035SOL    HW2 7005   5.356   6.107   3.128
 2036SOL     OW 7006   0.281   4.894   6.535
 2036SOL    HW1 7007   0.208   4.837   6.498
 2036SOL    HW2 7008   0.294   4.872   6.632
 2037SOL     OW 7009   0.998   2.345   0.126
 2037SOL    HW1 7010   1.055   2.289   0.065
 2037SOL    HW2 7011   0.915   2.295   0.150
 2038SOL     OW 7012   0.711   0.969   5.927
 2038SOL    HW1 7013   0.767   1.051   5.941
 2038SOL    HW2 7014   0.632   0.971   5.989
 2039SOL     OW 7015   4.994   6.021   3.108
 2039SOL    HW1 7016   4.959   5.928   3.117
 2039SOL    HW2 7017   4.962   6.061   3.022
 2040SOL     OW 7018   2.533   2.109   0.102
 2040SOL    HW1 7019   2.436   2.117   0.127
 2040SOL    HW2 7020   2.582   2.057   0.172
 2041SOL     OW 7021   2.402   6.661   6.725
 2041SOL    HW1 7022   2.486   6.652   6.778
 2041SOL    HW2 7023   2.347   6.578   6.735
 2042SOL     OW 7024   5.923   0.835   6.045
 2042SOL    HW1 7025   5.848   0.792   5.995
 2042SOL    HW2 7026   6.007   0.784   6.028
 2043SOL     OW 7027   0.699   4.056   0.753
 2043SOL    HW1 7028   0.668   4.100   0.837
 2043SOL    HW2 7029   0.727   4.126   0.687
 2044SOL     OW 7030   4.288   0.771   1.573
 2044SOL    HW1 7031   4.383   0.776   1.605
 2044SOL    HW2 7032   4.232   0.727   1.643
 2045SOL     OW 7033   2.262   5.946   4.311
 2045SOL    HW1 7034   2.216   6.021   4.359
 2045SOL    HW2 7035   2.323   5.982   4.241
 2046SOL     OW 7036   0.540   3.523   5.636
 2046SOL    HW1 7037   0.475   3.597   5.620
 2046SOL    HW2 7038   0.587   3.501   5.550
 2047SOL     OW 7039   6.855   0.218   0.688
 2047SOL    HW1 7040   6.848   0.306   0.641
 2047SOL    HW2 7041   6.949   0.205   0.720
 2048SOL     OW 7042   2.214   1.464   3.896
 2048SOL    HW1 7043   2.196   1.553   3.939
 2048SOL    HW2 7044   2.281   1.414   3.951
 2049SOL     OW 7045   4.683   2.827   4.919
 2049SOL    HW1 7046   4.614   2.754   4.923
 2049SOL    HW2 7047   4.642   2.913   4.950
 2050SOL     OW 7048   0.461   0.916   3.540
 2050SOL    HW1 7049   0.542   0.896   3.485
 2050SOL    HW2 7050   0.486   0.978   3.615
 2051SOL     OW 7051   3.032   5.936   0.564
 2051SOL    HW1 7052   3.090   5.959   0.642
 2051SOL    HW2 7053   2.962   5.871   0.593
 2052SOL     OW 7054   0.910   3.874   0.624
 2052SOL    HW1 7055   0.857   3.929   0.689
 2052SOL    HW2 7056   1.005   3.870   0.653
 2053SOL     OW 7057   6.310   4.950   2.598
 2053SOL    HW1 7058   6.225   4.956   2.651
 2053SOL    HW2 7059   6.293   4.977   2.503
 2054SOL     OW 7060   3.168   4.076   3.247
 2054SOL    HW1 7061   3.122   4.133   3.316
 2054SOL    HW2 7062   3.104   4.007   3.213
 2055SOL     OW 7063   4.082   2.740   5.649
 2055SOL    HW1 7064   3.984   2.732   5.629
 2055SOL    HW2 7065   4.121   2.649   5.661
 2056SOL     OW 7066   3.179   5.136   1.427
 2056SOL    HW1 7067   3.243   5.203   1.388
 2056SOL    HW2 7068   3.228   5.050   1.443
 2057SOL     OW 7069   5.960   3.221   4.346
 2057SOL    HW1 7070   5.863   3.242   4.335
 2057SOL    HW2 7071   6.010   3.305   4.365
 2058SOL     OW 7072   6.222   6.655   3.838
 2058SOL    HW1 7073   6.274   6.607   3.766
 2058SOL    HW2 7074   6.285   6.710   3.893
 2059SOL     OW 7075   1.909   1.810   5.319
 2059SOL    HW1 7076   1.868   1.779   5.405
 2059SOL    HW2 7077   1.866   1.896   5.291
 2060SOL     OW 7078   1.721   2.771   6.539
 2060SOL    HW1 7079   1.707   2.675   6.563
 2060SOL    HW2 7080   1.673   2.829   6.605
 2061SOL     OW 7081   2.043   2.725   2.925
 2061SOL    HW1 7082   2.053   2.727   3.025
 2061SOL    HW2 7083   1.990   2.805   2.896
 2062SOL     OW 7084   6.227   5.166   4.279
 2062SOL    HW1 7085   6.284   5.221   4.341
 2062SOL    HW2 7086   6.135   5.157   4.317
 2063SOL     OW 7087   0.971   2.448   4.294
 2063SOL    HW1 7088   0.917   2.526   4.325
 2063SOL    HW2 7089   0.926   2.404   4.216
 2064SOL     OW 7090   0.607   3.277   4.100
 2064SOL    HW1 7091   0.555   3.192   4.109
 2064SOL    HW2 7092   0.545   3.355   4.113
 2065SOL     OW 7093   4.058   3.662   5.935
 2065SOL    HW1 7094   4.006   3.601   5.874
 2065SOL    HW2 7095   4.078   3.747   5.886
 2066SOL     OW 7096   1.127   3.000   5.076
 2066SOL    HW1 7097   1.207   3.058   5.062
 2066SOL    HW2 7098   1.044   3.056   5.077
 2067SOL     OW 7099   6.679   4.833   1.671
 2067SOL    HW1 7100   6.752   4.899   1.687
 2067SOL    HW2 7101   6.647   4.796   1.758
 2068SOL     OW 7102   4.473   0.424   4.310
 2068SOL    HW1 7103   4.505   0.436   4.404
 2068SOL    HW2 7104   4.429   0.334   4.301
 2069SOL     OW 7105   6.985   1.074   3.922
 2069SOL    HW1 7106   0.027   1.001   3.929
 2069SOL    HW2 7107   7.004   1.129   3.840
 2070SOL     OW 7108   1.521   4.918   1.263
 2070SOL    HW1 7109   1.447   4.868   1.308
 2070SOL    HW2 7110   1.526   5.011   1.299
 2071SOL     OW 7111   0.305   2.419   5.241
 2071SOL    HW1 7112   0.336   2.418   5.146
 2071SOL    HW2 7113   0.294   2.326   5.275
 2072SOL     OW 7114   5.608   4.313   5.244
 2072SOL    HW1 7115   5.600   4.343   5.339
 2072SOL    HW2 7116   5.580   4.217   5.236
 2073SOL     OW 7117   3.239   5.463   6.522
 2073SOL    HW1 7118   3.200   5.526   6.589
 2073SOL    HW2 7119   3.299   5.397   6.569
 2074SOL     OW 7120   2.290   4.702   5.832
 2074SOL    HW1 7121   2.225   4.680   5.905
 2074SOL    HW2 7122   2.368   4.751   5.871
 2075SOL     OW 7123   5.886   2.453   1.713
 2075SOL    HW1 7124   5.803   2.404   1.737
 2075SOL    HW2 7125   5.950   2.450   1.789
 2076SOL     OW 7126   6.717   6.359   4.589
 2076SOL    HW1 7127   6.633   6.354   4.642
 2076SOL    HW2 7128   6.696   6.353   4.492
 2077SOL     OW 7129   6.294   4.724   0.308
 2077SOL    HW1 7130   6.269   4.642   0.255
 2077SOL    HW2 7131   6.212   4.779   0.324
 2078SOL     OW 7132   0.618   3.331   5.843
 2078SOL    HW1 7133   0.608   3.404   5.776
 2078SOL    HW2 7134   0.700   3.277   5.822
 2079SOL     OW 7135   5.637   1.021   3.115
 2079SOL    HW1 7136   5.613   1.087   3.045
 2079SOL    HW2 7137   5.562   1.014   3.181
 2080SOL     OW 7138   2.687   3.436   6.610
 2080SOL    HW1 7139   2.659   3.486   6.692
 2080SOL    HW2 7140   2.652   3.482   6.528
 2081SOL     OW 7141   6.537   6.208   1.988
 2081SOL    HW1 7142   6.610   6.254   2.038
 2081SOL    HW2 7143   6.497   6.136   2.044
 2082SOL     OW 7144   6.914   5.206   4.262
 2082SOL    HW1 7145   7.002   5.222   4.217
 2082SOL    HW2 7146   6.887   5.288   4.312
 2083SOL     OW 7147   0.188   6.292   4.061
 2083SOL    HW1 7148   0.159   6.202   4.096
 2083SOL    HW2 7149   0.119   6.360   4.085
 2084SOL     OW 7150   6.775   1.818   1.362
 2084SOL    HW1 7151   6.678   1.842   1.353
 2084SOL    HW2 7152   6.814   1.864   1.441
 2085SOL     OW 7153   6.584   6.130   0.754
 2085SOL    HW1 7154   6.663   6.122   0.695
 2085SOL    HW2 7155   6.520   6.056   0.734
 2086SOL     OW 7156   4.780   0.557   6.842
 2086SOL    HW1 7157   4.810   0.493   6.772
 2086SOL    HW2 7158   4.815   0.528   6.931
 2087SOL     OW 7159   3.840   1.456   7.020
 2087SOL    HW1 7160   3.806   1.548   0.013
 2087SOL    HW2 7161   3.812   1.429   6.929
 2088SOL     OW 7162   0.487   4.753   5.868
 2088SOL    HW1 7163   0.559   4.717   5.809
 2088SOL    HW2 7164   0.424   4.680   5.893
 2089SOL     OW 7165   2.656   4.104   6.276
 2089SOL    HW1 7166   2.688   4.179   6.333
 2089SOL    HW2 7167   2.722   4.028   6.279
 2090SOL     OW 7168   5.384   2.940   6.844
 2090SOL    HW1 7169   5.408   2.845   6.820
 2090SOL    HW2 7170   5.337   2.941   6.932
 2091SOL     OW 7171   5.473   6.459   0.511
 2091SOL    HW1 7172   5.476   6.365   0.475
 2091SOL    HW2 7173   5.532   6.465   0.592
 2092SOL     OW 7174   3.399   3.508   1.880
 2092SOL    HW1 7175   3.314   3.558   1.863
 2092SOL    HW2 7176   3.471   3.572   1.907
 2093SOL     OW 7177   4.254   0.845   1.308
 2093SOL    HW1 7178   4.343   0.884   1.285
 2093SOL    HW2 7179   4.254   0.815   1.403
 2094SOL     OW 7180   5.337   2.136   0.239
 2094SOL    HW1 7181   5.277   2.147   0.318
 2094SOL    HW2 7182   5.410   2.071   0.262
 2095SOL     OW 7183   5.388   5.087   4.278
 2095SOL    HW1 7184   5.400   5.176   4.324
 2095SOL    HW2 7185   5.354   5.020   4.344
 2096SOL     OW 7186   4.065   6.995   2.383
 2096SOL    HW1 7187   4.024   0.046   2.431
 2096SOL    HW2 7188   4.001   6.960   2.315
 2097SOL     OW 7189   0.922   5.533   5.868
 2097SOL    HW1 7190   0.842   5.526   5.809
 2097SOL    HW2 7191   0.933   5.449   5.920
 2098SOL     OW 7192   2.897   6.831   3.828
 2098SOL    HW1 7193   2.909   6.788   3.739
 2098SOL    HW2 7194   2.905   6.931   3.819
 2099SOL     OW 7195   4.074   1.828   7.007
 2099SOL    HW1 7196   4.131   1.790   0.054
 2099SOL    HW2 7197   4.100   1.923   6.990
 2100SOL     OW 7198   4.491   0.367   0.320
 2100SOL    HW1 7199   4.399   0.407   0.323
 2100SOL    HW2 7200   4.559   0.441   0.318
 2101SOL     OW 7201   1.494   0.313   2.512
 2101SOL    HW1 7202   1.529   0.234   2.463
 2101SOL    HW2 7203   1.395   0.320   2.499
 2102SOL     OW 7204   3.906   2.354   1.455
 2102SOL    HW1 7205   3.919   2.330   1.552
 2102SOL    HW2 7206   3.822   2.407   1.445
 2103SOL     OW 7207   1.444   6.427   0.726
 2103SOL    HW1 7208   1.481   6.342   0.762
 2103SOL    HW2 7209   1.517   6.479   0.682
 2104SOL     OW 7210   1.889   3.822   3.043
 2104SOL    HW1 7211   1.912   3.816   2.946
 2104SOL    HW2 7212   1.910   3.735   3.088
 2105SOL     OW 7213   5.677   0.369   5.012
 2105SOL    HW1 7214   5.736   0.324   4.944
 2105SOL    HW2 7215   5.709   0.346   5.104
 2106SOL     OW 7216   3.853   2.717   1.466
 2106SOL    HW1 7217   3.927   2.693   1.403
 2106SOL    HW2 7218   3.772   2.661   1.446
 2107SOL     OW 7219   5.144   4.810   4.615
 2107SOL    HW1 7220   5.073   4.745   4.644
 2107SOL    HW2 7221   5.105   4.901   4.610
 2108SOL     OW 7222   5.144   6.645   5.235
 2108SOL    HW1 7223   5.215   6.664   5.167
 2108SOL    HW2 7224   5.186   6.619   5.322
 2109SOL     OW 7225   2.706   5.871   2.067
 2109SOL    HW1 7226   2.768   5.923   2.126
 2109SOL    HW2 7227   2.618   5.858   2.114
 2110SOL     OW 7228   3.631   5.939   0.042
 2110SOL    HW1 7229   3.683   6.021   0.019
 2110SOL    HW2 7230   3.657   5.865   7.007
 2111SOL     OW 7231   1.572   2.326   6.053
 2111SOL    HW1 7232   1.579   2.293   5.959
 2111SOL    HW2 7233   1.591   2.424   6.055
 2112SOL     OW 7234   0.984   7.026   6.991
 2112SOL    HW1 7235   1.059   6.997   6.932
 2112SOL    HW2 7236   0.941   6.946   0.007
 2113SOL     OW 7237   6.611   1.703   5.290
 2113SOL    HW1 7238   6.674   1.768   5.247
 2113SOL    HW2 7239   6.643   1.682   5.383
 2114SOL     OW 7240   2.192   0.967   5.459
 2114SOL    HW1 7241   2.202   0.923   5.548
 2114SOL    HW2 7242   2.162   0.900   5.391
 2115SOL     OW 7243   6.584   6.006   3.206
 2115SOL    HW1 7244   6.538   6.000   3.295
 2115SOL    HW2 7245   6.574   6.098   3.169
 2116SOL     OW 7246   1.765   1.652   0.014
 2116SOL    HW1 7247   1.775   1.555   7.016
 2116SOL    HW2 7248   1.758   1.707   6.957
 2117SOL     OW 7249   6.549   2.429   2.957
 2117SOL    HW1 7250   6.623   2.479   3.001
 2117SOL    HW2 7251   6.462   2.475   2.977
 2118SOL     OW 7252   6.955   2.490   2.804
 2118SOL    HW1 7253   6.876   2.493   2.865
 2118SOL    HW2 7254   7.018   2.419   2.835
 2119SOL     OW 7255   0.210   2.515   0.521
 2119SOL    HW1 7256   0.272   2.546   0.449
 2119SOL    HW2 7257   0.121   2.559   0.509
 2120SOL     OW 7258   5.550   2.142   0.570
 2120SOL    HW1 7259   5.510   2.103   0.652
 2120SOL    HW2 7260   5.529   2.084   0.491
 2121SOL     OW 7261   2.137   6.675   1.288
 2121SOL    HW1 7262   2.121   6.582   1.255
 2121SOL    HW2 7263   2.108   6.741   1.218
 2122SOL     OW 7264   6.346   0.920   4.785
 2122SOL    HW1 7265   6.334   0.984   4.861
 2122SOL    HW2 7266   6.407   0.961   4.717
 2123SOL     OW 7267   1.398   5.332   2.775
 2123SOL    HW1 7268   1.412   5.246   2.727
 2123SOL    HW2 7269   1.485   5.362   2.816
 2124SOL     OW 7270   4.487   3.233   6.313
 2124SOL    HW1 7271   4.580   3.205   6.292
 2124SOL    HW2 7272   4.479   3.252   6.411
 2125SOL     OW 7273   1.365   5.458   4.049
 2125SOL    HW1 7274   1.418   5.468   4.134
 2125SOL    HW2 7275   1.398   5.524   3.982
 2126SOL     OW 7276   2.643   3.483   0.533
 2126SOL    HW1 7277   2.730   3.435   0.541
 2126SOL    HW2 7278   2.646   3.545   0.454
 2127SOL     OW 7279   1.325   3.256   3.803
 2127SOL    HW1 7280   1.403   3.315   3.825
 2127SOL    HW2 7281   1.349   3.161   3.820
 2128SOL     OW 7282   5.397   3.171   2.328
 2128SOL    HW1 7283   5.445   3.178   2.241
 2128SOL    HW2 7284   5.370   3.076   2.344
 2129SOL     OW 7285   5.034   4.705   4.296
 2129SOL    HW1 7286   4.987   4.621   4.268
 2129SOL    HW2 7287   5.066   4.754   4.216
 2130SOL     OW 7288   1.962   0.627   1.731
 2130SOL    HW1 7289   1.894   0.557   1.706
 2130SOL    HW2 7290   1.982   0.683   1.651
 2131SOL     OW 7291   5.725   0.793   6.316
 2131SOL    HW1 7292   5.651   0.860   6.306
 2131SOL    HW2 7293   5.812   0.841   6.322
 2132SOL     OW 7294   2.676   2.994   0.355
 2132SOL    HW1 7295   2.724   2.907   0.363
 2132SOL    HW2 7296   2.593   2.981   0.301
 2133SOL     OW 7297   3.504   2.117   1.249
 2133SOL    HW1 7298   3.563   2.042   1.220
 2133SOL    HW2 7299   3.441   2.085   1.320
 2134SOL     OW 7300   1.649   6.501   5.287
 2134SOL    HW1 7301   1.660   6.587   5.337
 2134SOL    HW2 7302   1.722   6.492   5.219
 2135SOL     OW 7303   1.132   6.215   3.972
 2135SOL    HW1 7304   1.053   6.162   3.941
 2135SOL    HW2 7305   1.209   6.199   3.911
 2136SOL     OW 7306   1.579   4.658   3.725
 2136SOL    HW1 7307   1.511   4.636   3.656
 2136SOL    HW2 7308   1.671   4.650   3.686
 2137SOL     OW 7309   0.642   0.745   4.180
 2137SOL    HW1 7310   0.712   0.676   4.160
 2137SOL    HW2 7311   0.555   0.718   4.140
 2138SOL     OW 7312   0.983   2.519   5.908
 2138SOL    HW1 7313   0.992   2.515   6.008
 2138SOL    HW2 7314   0.923   2.595   5.884
 2139SOL     OW 7315   3.156   6.917   4.146
 2139SOL    HW1 7316   3.235   6.858   4.166
 2139SOL    HW2 7317   3.106   6.935   4.231
 2140SOL     OW 7318   1.590   6.082   3.654
 2140SOL    HW1 7319   1.562   6.007   3.595
 2140SOL    HW2 7320   1.653   6.142   3.604
 2141SOL     OW 7321   6.407   1.735   6.606
 2141SOL    HW1 7322   6.408   1.672   6.683
 2141SOL    HW2 7323   6.499   1.747   6.570
 2142SOL     OW 7324   3.353   1.170   3.728
 2142SOL    HW1 7325   3.426   1.113   3.690
 2142SOL    HW2 7326   3.277   1.174   3.663
 2143SOL     OW 7327   3.894   6.472   0.106
 2143SOL    HW1 7328   3.975   6.421   0.135
 2143SOL    HW2 7329   3.862   6.437   0.018
 2144SOL     OW 7330   1.056   0.828   1.901
 2144SOL    HW1 7331   1.039   0.752   1.838
 2144SOL    HW2 7332   1.072   0.912   1.848
 2145SOL     OW 7333   2.985   5.534   2.571
 2145SOL    HW1 7334   2.896   5.533   2.525
 2145SOL    HW2 7335   2.996   5.619   2.621
 2146SOL     OW 7336   2.634   1.781   0.893
 2146SOL    HW1 7337   2.649   1.717   0.968
 2146SOL    HW2 7338   2.720   1.797   0.845
 2147SOL     OW 7339   0.292   1.174   4.810
 2147SOL    HW1 7340   0.302   1.107   4.883
 2147SOL    HW2 7341   0.198   1.174   4.777
 2148SOL     OW 7342   5.656   3.734   3.864
 2148SOL    HW1 7343   5.747   3.699   3.887
 2148SOL    HW2 7344   5.600   3.660   3.827
 2149SOL     OW 7345   3.051   0.430   3.164
 2149SOL    HW1 7346   3.044   0.335   3.196
 2149SOL    HW2 7347   3.077   0.431   3.068
 2150SOL     OW 7348   4.225   0.151   3.435
 2150SOL    HW1 7349   4.145   0.200   3.401
 2150SOL    HW2 7350   4.216   0.053   3.413
 2151SOL     OW 7351   3.828   4.492   5.582
 2151SOL    HW1 7352   3.759   4.424   5.610
 2151SOL    HW2 7353   3.899   4.498   5.652
 2152SOL     OW 7354   6.823   6.657   2.453
 2152SOL    HW1 7355   6.830   6.745   2.500
 2152SOL    HW2 7356   6.788   6.672   2.360
 2153SOL     OW 7357   4.704   1.792   3.255
 2153SOL    HW1 7358   4.625   1.793   3.316
 2153SOL    HW2 7359   4.773   1.857   3.287
 2154SOL     OW 7360   4.068   6.629   5.325
 2154SOL    HW1 7361   3.999   6.620   5.396
 2154SOL    HW2 7362   4.141   6.561   5.340
 2155SOL     OW 7363   6.472   4.005   6.943
 2155SOL    HW1 7364   6.398   4.044   6.999
 2155SOL    HW2 7365   6.513   3.928   6.992
 2156SOL     OW 7366   6.877   0.593   1.493
 2156SOL    HW1 7367   6.976   0.583   1.496
 2156SOL    HW2 7368   6.836   0.548   1.572
 2157SOL     OW 7369   6.342   0.959   3.980
 2157SOL    HW1 7370   6.298   0.922   4.062
 2157SOL    HW2 7371   6.437   0.927   3.976
 2158SOL     OW 7372   4.921   0.254   3.742
 2158SOL    HW1 7373   4.972   0.285   3.822
 2158SOL    HW2 7374   4.870   0.331   3.703
 2159SOL     OW 7375   2.339   0.499   5.283
 2159SOL    HW1 7376   2.363   0.555   5.363
 2159SOL    HW2 7377   2.248   0.525   5.250
 2160SOL     OW 7378   3.003   2.553   0.328
 2160SOL    HW1 7379   3.049   2.500   0.257
 2160SOL    HW2 7380   3.072   2.590   0.391
 2161SOL     OW 7381   5.143   2.317   3.815
 2161SOL    HW1 7382   5.092   2.239   3.853
 2161SOL    HW2 7383   5.098   2.402   3.841
 2162SOL     OW 7384   1.854   1.075   0.903
 2162SOL    HW1 7385   1.845   1.044   0.998
 2162SOL    HW2 7386   1.908   1.160   0.900
 2163SOL     OW 7387   2.041   1.728   1.175
 2163SOL    HW1 7388   2.013   1.685   1.261
 2163SOL    HW2 7389   2.067   1.657   1.109
 2164SOL     OW 7390   6.511   6.791   1.217
 2164SOL    HW1 7391   6.526   6.889   1.216
 2164SOL    HW2 7392   6.493   6.760   1.310
 2165SOL     OW 7393   2.887   0.154   2.069
 2165SOL    HW1 7394   2.941   0.230   2.033
 2165SOL    HW2 7395   2.792   0.162   2.037
 2166SOL     OW 7396   5.771   2.574   6.130
 2166SOL    HW1 7397   5.749   2.670   6.146
 2166SOL    HW2 7398   5.695   2.530   6.083
 2167SOL     OW 7399   3.036   1.113   1.336
 2167SOL    HW1 7400   2.948   1.148   1.367
 2167SOL    HW2 7401   3.093   1.189   1.304
 2168SOL     OW 7402   5.976   6.595   4.798
 2168SOL    HW1 7403   6.055   6.565   4.852
 2168SOL    HW2 7404   5.894   6.593   4.854
 2169SOL     OW 7405   5.909   1.660   5.754
 2169SOL    HW1 7406   5.880   1.718   5.830
 2169SOL    HW2 7407   5.831   1.607   5.721
 2170SOL     OW 7408   5.289   4.471   4.704
 2170SOL    HW1 7409   5.261   4.460   4.799
 2170SOL    HW2 7410   5.209   4.466   4.644
 2171SOL     OW 7411   7.011   3.387   0.308
 2171SOL    HW1 7412   0.001   3.485   0.315
 2171SOL    HW2 7413   7.020   3.359   0.212
 2172SOL     OW 7414   2.334   0.276   1.947
 2172SOL    HW1 7415   2.426   0.263   1.909
 2172SOL    HW2 7416   2.306   0.371   1.933
 2173SOL     OW 7417   4.633   2.306   4.744
 2173SOL    HW1 7418   4.660   2.215   4.777
 2173SOL    HW2 7419   4.632   2.370   4.820
 2174SOL     OW 7420   1.377   5.516   4.847
 2174SOL    HW1 7421   1.449   5.583   4.831
 2174SOL    HW2 7422   1.360   5.509   4.946
 2175SOL     OW 7423   1.879   6.084   5.927
 2175SOL    HW1 7424   1.882   6.046   6.019
 2175SOL    HW2 7425   1.790   6.066   5.886
 2176SOL     OW 7426   1.578   2.588   2.671
 2176SOL    HW1 7427   1.630   2.600   2.756
 2176SOL    HW2 7428   1.634   2.542   2.603
 2177SOL     OW 7429   0.470   2.346   1.639
 2177SOL    HW1 7430   0.557   2.381   1.604
 2177SOL    HW2 7431   0.476   2.246   1.647
 2178SOL     OW 7432   6.566   6.519   1.232
 2178SOL    HW1 7433   6.536   6.445   1.172
 2178SOL    HW2 7434   6.534   6.606   1.196
 2179SOL     OW 7435   1.533   3.890   4.165
 2179SOL    HW1 7436   1.512   3.815   4.103
 2179SOL    HW2 7437   1.631   3.913   4.158
 2180SOL     OW 7438   3.247   2.816   1.574
 2180SOL    HW1 7439   3.338   2.859   1.572
 2180SOL    HW2 7440   3.257   2.717   1.585
 2181SOL     OW 7441   3.332   6.484   1.529
 2181SOL    HW1 7442   3.414   6.539   1.547
 2181SOL    HW2 7443   3.292   6.511   1.441
 2182SOL     OW 7444   5.088   2.389   1.003
 2182SOL    HW1 7445   5.174   2.425   1.039
 2182SOL    HW2 7446   5.015   2.455   1.020
 2183SOL     OW 7447   2.999   2.397   0.597
 2183SOL    HW1 7448   3.077   2.370   0.652
 2183SOL    HW2 7449   2.924   2.332   0.611
 2184SOL     OW 7450   4.500   3.231   6.590
 2184SOL    HW1 7451   4.524   3.265   6.681
 2184SOL    HW2 7452   4.430   3.159   6.599
 2185SOL     OW 7453   6.905   6.861   2.018
 2185SOL    HW1 7454   6.963   6.794   2.064
 2185SOL    HW2 7455   6.962   6.925   1.966
 2186SOL     OW 7456   0.274   4.435   3.233
 2186SOL    HW1 7457   0.236   4.434   3.325
 2186SOL    HW2 7458   0.221   4.498   3.175
 2187SOL     OW 7459   6.438   1.333   0.268
 2187SOL    HW1 7460   6.441   1.238   0.299
 2187SOL    HW2 7461   6.459   1.336   0.170
 2188SOL     OW 7462   4.830   1.101   4.101
 2188SOL    HW1 7463   4.744   1.088   4.150
 2188SOL    HW2 7464   4.878   1.181   4.137
 2189SOL     OW 7465   3.055   7.004   6.923
 2189SOL    HW1 7466   3.110   6.941   6.868
 2189SOL    HW2 7467   2.967   6.960   6.944
 2190SOL     OW 7468   4.872   2.545   1.032
 2190SOL    HW1 7469   4.881   2.641   1.058
 2190SOL    HW2 7470   4.847   2.538   0.936
 2191SOL     OW 7471   2.444   1.677   0.169
 2191SOL    HW1 7472   2.382   1.609   0.129
 2191SOL    HW2 7473   2.391   1.749   0.214
 2192SOL     OW 7474   3.695   5.574   2.501
 2192SOL    HW1 7475   3.778   5.627   2.482
 2192SOL    HW2 7476   3.719   5.477   2.508
 2193SOL     OW 7477   6.796   5.913   4.752
 2193SOL    HW1 7478   6.755   5.981   4.691
 2193SOL    HW2 7479   6.877   5.874   4.708
 2194SOL     OW 7480   2.711   0.346   1.815
 2194SOL    HW1 7481   2.716   0.431   1.868
 2194SOL    HW2 7482   2.679   0.367   1.722
 2195SOL     OW 7483   0.811   4.549   2.251
 2195SOL    HW1 7484   0.795   4.553   2.152
 2195SOL    HW2 7485   0.908   4.565   2.270
 2196SOL     OW 7486   4.304   3.117   0.581
 2196SOL    HW1 7487   4.209   3.147   0.584
 2196SOL    HW2 7488   4.364   3.194   0.601
 2197SOL     OW 7489   4.302   4.238   6.505
 2197SOL    HW1 7490   4.222   4.249   6.563
 2197SOL    HW2 7491   4.273   4.222   6.410
 2198SOL     OW 7492   6.298   4.516   0.557
 2198SOL    HW1 7493   6.397   4.525   0.547
 2198SOL    HW2 7494   6.275   4.492   0.651
 2199SOL     OW 7495   4.436   1.003   3.071
 2199SOL    HW1 7496   4.426   1.090   3.023
 2199SOL    HW2 7497   4.352   0.983   3.122
 2200SOL     OW 7498   2.783   6.841   4.433
 2200SOL    HW1 7499   2.690   6.859   4.464
 2200SOL    HW2 7500   2.787   6.749   4.393
 2201SOL     OW 7501   4.785   4.081   4.376
 2201SOL    HW1 7502   4.756   4.083   4.471
 2201SOL    HW2 7503   4.732   4.149   4.324
 2202SOL     OW 7504   4.490   5.871   3.845
 2202SOL    HW1 7505   4.436   5.788   3.861
 2202SOL    HW2 7506   4.497   5.923   3.930
 2203SOL     OW 7507   3.039   1.964   2.693
 2203SOL    HW1 7508   3.014   2.020   2.614
 2203SOL    HW2 7509   3.064   2.024   2.769
 2204SOL     OW 7510   2.744   2.264   0.533
 2204SOL    HW1 7511   2.753   2.209   0.616
 2204SOL    HW2 7512   2.649   2.293   0.523
 2205SOL     OW 7513   2.815   1.267   1.746
 2205SOL    HW1 7514   2.875   1.209   1.801
 2205SOL    HW2 7515   2.778   1.340   1.803
 2206SOL     OW 7516   1.624   2.930   0.176
 2206SOL    HW1 7517   1.590   3.022   0.156
 2206SOL    HW2 7518   1.630   2.918   0.275
 2207SOL     OW 7519   0.106   4.731   5.107
 2207SOL    HW1 7520   0.029   4.774   5.060
 2207SOL    HW2 7521   0.192   4.756   5.061
 2208SOL     OW 7522   6.779   4.735   2.136
 2208SOL    HW1 7523   6.797   4.662   2.202
 2208SOL    HW2 7524   6.754   4.818   2.185
 2209SOL     OW 7525   0.827   0.088   1.857
 2209SOL    HW1 7526   0.871   0.062   1.771
 2209SOL    HW2 7527   0.730   0.064   1.853
 2210SOL     OW 7528   1.944   5.131   3.692
 2210SOL    HW1 7529   1.930   5.075   3.611
 2210SOL    HW2 7530   1.912   5.224   3.674
 2211SOL     OW 7531   7.026   1.932   5.066
 2211SOL    HW1 7532   0.045   1.843   5.063
 2211SOL    HW2 7533   0.023   1.985   4.985
 2212SOL     OW 7534   1.653   6.672   6.330
 2212SOL    HW1 7535   1.569   6.638   6.371
 2212SOL    HW2 7536   1.672   6.764   6.365
 2213SOL     OW 7537   3.738   1.043   3.327
 2213SOL    HW1 7538   3.835   1.018   3.328
 2213SOL    HW2 7539   3.691   0.990   3.256
 2214SOL     OW 7540   4.305   0.484   4.573
 2214SOL    HW1 7541   4.318   0.525   4.483
 2214SOL    HW2 7542   4.388   0.435   4.600
 2215SOL     OW 7543   5.877   2.151   5.323
 2215SOL    HW1 7544   5.946   2.164   5.251
 2215SOL    HW2 7545   5.821   2.234   5.331
 2216SOL     OW 7546   2.973   0.989   2.511
 2216SOL    HW1 7547   3.016   1.033   2.432
 2216SOL    HW2 7548   3.037   0.924   2.552
 2217SOL     OW 7549   4.691   1.140   2.017
 2217SOL    HW1 7550   4.626   1.065   2.001
 2217SOL    HW2 7551   4.784   1.108   1.999
 2218SOL     OW 7552   0.971   0.430   2.469
 2218SOL    HW1 7553   0.899   0.494   2.496
 2218SOL    HW2 7554   1.033   0.475   2.404
 2219SOL     OW 7555   1.345   2.239   2.780
 2219SOL    HW1 7556   1.270   2.200   2.833
 2219SOL    HW2 7557   1.324   2.334   2.757
 2220SOL     OW 7558   0.745   0.614   1.888
 2220SOL    HW1 7559   0.817   0.574   1.831
 2220SOL    HW2 7560   0.763   0.592   1.984
 2221SOL     OW 7561   0.508   0.628   6.365
 2221SOL    HW1 7562   0.566   0.548   6.381
 2221SOL    HW2 7563   0.471   0.624   6.272
 2222SOL     OW 7564   6.375   5.702   3.565
 2222SOL    HW1 7565   6.294   5.677   3.513
 2222SOL    HW2 7566   6.410   5.790   3.532
 2223SOL     OW 7567   6.723   6.456   1.906
 2223SOL    HW1 7568   6.658   6.419   1.840
 2223SOL    HW2 7569   6.753   6.547   1.877
 2224SOL     OW 7570   1.178   4.879   1.211
 2224SOL    HW1 7571   1.164   4.843   1.119
 2224SOL    HW2 7572   1.183   4.979   1.207
 2225SOL     OW 7573   0.570   3.669   0.750
 2225SOL    HW1 7574   0.607   3.663   0.658
 2225SOL    HW2 7575   0.640   3.703   0.812
 2226SOL     OW 7576   4.086   3.843   2.275
 2226SOL    HW1 7577   4.123   3.792   2.352
 2226SOL    HW2 7578   4.134   3.931   2.266
 2227SOL     OW 7579   1.002   2.780   4.215
 2227SOL    HW1 7580   1.055   2.708   4.171
 2227SOL    HW2 7581   0.946   2.741   4.288
 2228SOL     OW 7582   2.860   4.762   4.152
 2228SOL    HW1 7583   2.846   4.757   4.054
 2228SOL    HW2 7584   2.791   4.705   4.198
 2229SOL     OW 7585   5.899   6.549   3.165
 2229SOL    HW1 7586   5.834   6.623   3.181
 2229SOL    HW2 7587   5.930   6.551   3.070
 2230SOL     OW 7588   2.791   5.097   1.592
 2230SOL    HW1 7589   2.784   5.124   1.688
 2230SOL    HW2 7590   2.798   5.178   1.534
 2231SOL     OW 7591   2.495   6.005   1.316
 2231SOL    HW1 7592   2.465   5.923   1.267
 2231SOL    HW2 7593   2.591   6.023   1.295
 2232SOL     OW 7594   5.372   2.565   3.574
 2232SOL    HW1 7595   5.418   2.580   3.487
 2232SOL    HW2 7596   5.351   2.468   3.585
 2233SOL     OW 7597   3.104   1.505   6.091
 2233SOL    HW1 7598   3.049   1.539   6.167
 2233SOL    HW2 7599   3.064   1.421   6.055
 2234SOL     OW 7600   3.523   2.524   0.995
 2234SOL    HW1 7601   3.475   2.601   1.035
 2234SOL    HW2 7602   3.465   2.479   0.927
 2235SOL     OW 7603   1.809   2.135   1.671
 2235SOL    HW1 7604   1.751   2.143   1.591
 2235SOL    HW2 7605   1.773   2.064   1.732
 2236SOL     OW 7606   1.413   5.202   5.767
 2236SOL    HW1 7607   1.453   5.241   5.849
 2236SOL    HW2 7608   1.326   5.248   5.747
 2237SOL     OW 7609   6.341   3.272   4.479
 2237SOL    HW1 7610   6.404   3.318   4.542
 2237SOL    HW2 7611   6.394   3.224   4.409
 2238SOL     OW 7612   6.215   6.160   0.849
 2238SOL    HW1 7613   6.165   6.140   0.764
 2238SOL    HW2 7614   6.152   6.199   0.916
 2239SOL     OW 7615   6.016   5.889   2.015
 2239SOL    HW1 7616   5.953   5.933   2.079
 2239SOL    HW2 7617   5.973   5.810   1.973
 2240SOL     OW 7618   6.037   3.648   1.812
 2240SOL    HW1 7619   6.130   3.679   1.792
 2240SOL    HW2 7620   5.974   3.684   1.744
 2241SOL     OW 7621   1.188   0.616   3.112
 2241SOL    HW1 7622   1.279   0.581   3.092
 2241SOL    HW2 7623   1.195   0.697   3.171
 2242SOL     OW 7624   3.553   1.632   2.398
 2242SOL    HW1 7625   3.601   1.704   2.448
 2242SOL    HW2 7626   3.595   1.621   2.308
 2243SOL     OW 7627   2.692   0.110   5.246
 2243SOL    HW1 7628   2.597   0.139   5.234
 2243SOL    HW2 7629   2.736   0.167   5.316
 2244SOL     OW 7630   3.018   1.258   5.206
 2244SOL    HW1 7631   3.047   1.348   5.238
 2244SOL    HW2 7632   2.921   1.263   5.179
 2245SOL     OW 7633   0.354   2.128   2.109
 2245SOL    HW1 7634   0.396   2.067   2.177
 2245SOL    HW2 7635   0.261   2.149   2.136
 2246SOL     OW 7636   1.759   4.980   5.275
 2246SOL    HW1 7637   1.674   4.938   5.243
 2246SOL    HW2 7638   1.802   4.920   5.342
 2247SOL     OW 7639   1.628   1.367   4.694
 2247SOL    HW1 7640   1.725   1.349   4.709
 2247SOL    HW2 7641   1.605   1.349   4.599
 2248SOL     OW 7642   4.344   3.965   5.363
 2248SOL    HW1 7643   4.314   4.057   5.338
 2248SOL    HW2 7644   4.294   3.898   5.308
 2249SOL     OW 7645   3.852   5.457   5.211
 2249SOL    HW1 7646   3.792   5.491   5.139
 2249SOL    HW2 7647   3.919   5.395   5.170
 2250SOL     OW 7648   4.445   5.026   1.405
 2250SOL    HW1 7649   4.396   5.013   1.491
 2250SOL    HW2 7650   4.437   5.122   1.377
 2251SOL     OW 7651   0.280   0.303   6.539
 2251SOL    HW1 7652   0.305   0.223   6.484
 2251SOL    HW2 7653   0.363   0.348   6.570
 2252SOL     OW 7654   3.360   0.426   6.180
 2252SOL    HW1 7655   3.306   0.390   6.256
 2252SOL    HW2 7656   3.299   0.470   6.114
 2253SOL     OW 7657   1.111   3.631   6.533
 2253SOL    HW1 7658   1.160   3.575   6.600
 2253SOL    HW2 7659   1.071   3.571   6.463
 2254SOL     OW 7660   1.694   4.829   6.442
 2254SOL    HW1 7661   1.767   4.897   6.450
 2254SOL    HW2 7662   1.605   4.873   6.459
 2255SOL     OW 7663   6.402   3.693   6.810
 2255SOL    HW1 7664   6.459   3.611   6.814
 2255SOL    HW2 7665   6.306   3.667   6.797
 2256SOL     OW 7666   2.587   4.595   2.228
 2256SOL    HW1 7667   2.610   4.631   2.319
 2256SOL    HW2 7668   2.665   4.605   2.167
 2257SOL     OW 7669   1.682   3.611   4.833
 2257SOL    HW1 7670   1.731   3.551   4.770
 2257SOL    HW2 7671   1.596   3.568   4.859
 2258SOL     OW 7672   2.357   5.094   5.211
 2258SOL    HW1 7673   2.292   5.036   5.161
 2258SOL    HW2 7674   2.440   5.040   5.231
 2259SOL     OW 7675   6.495   3.142   6.525
 2259SOL    HW1 7676   6.509   3.047   6.496
 2259SOL    HW2 7677   6.401   3.153   6.557
 2260SOL     OW 7678   4.056   2.891   1.129
 2260SOL    HW1 7679   4.149   2.920   1.152
 2260SOL    HW2 7680   4.053   2.791   1.123
 2261SOL     OW 7681   2.950   6.494   4.936
 2261SOL    HW1 7682   2.876   6.517   4.872
 2261SOL    HW2 7683   3.025   6.558   4.924
 2262SOL     OW 7684   3.755   1.629   3.102
 2262SOL    HW1 7685   3.853   1.622   3.122
 2262SOL    HW2 7686   3.707   1.666   3.181
 2263SOL     OW 7687   0.627   4.341   5.774
 2263SOL    HW1 7688   0.696   4.406   5.806
 2263SOL    HW2 7689   0.592   4.371   5.685
 2264SOL     OW 7690   3.071   3.781   3.428
 2264SOL    HW1 7691   3.054   3.684   3.444
 2264SOL    HW2 7692   3.058   3.832   3.513
 2265SOL     OW 7693   0.442   6.788   3.417
 2265SOL    HW1 7694   0.531   6.747   3.396
 2265SOL    HW2 7695   0.397   6.815   3.332
 2266SOL     OW 7696   6.132   0.675   6.006
 2266SOL    HW1 7697   6.088   0.588   6.025
 2266SOL    HW2 7698   6.231   0.665   6.015
 2267SOL     OW 7699   5.236   1.921   5.030
 2267SOL    HW1 7700   5.260   1.923   5.127
 2267SOL    HW2 7701   5.291   1.988   4.980
 2268SOL     OW 7702   6.639   5.688   6.817
 2268SOL    HW1 7703   6.637   5.679   6.917
 2268SOL    HW2 7704   6.556   5.648   6.778
 2269SOL     OW 7705   0.184   0.026   3.102
 2269SOL    HW1 7706   0.108   0.040   3.165
 2269SOL    HW2 7707   0.234   6.970   3.128
 2270SOL     OW 7708   3.493   3.273   3.148
 2270SOL    HW1 7709   3.581   3.276   3.195
 2270SOL    HW2 7710   3.499   3.213   3.068
 2271SOL     OW 7711   1.184   5.033   3.197
 2271SOL    HW1 7712   1.250   5.034   3.122
 2271SOL    HW2 7713   1.216   4.971   3.269
 2272SOL     OW 7714   5.161   2.056   5.586
 2272SOL    HW1 7715   5.124   1.983   5.644
 2272SOL    HW2 7716   5.229   2.109   5.637
 2273SOL     OW 7717   0.433   1.018   2.799
 2273SOL    HW1 7718   0.530   1.042   2.806
 2273SOL    HW2 7719   0.382   1.097   2.762
 2274SOL     OW 7720   1.026   4.699   3.437
 2274SOL    HW1 7721   0.995   4.619   3.386
 2274SOL    HW2 7722   1.048   4.672   3.531
 2275SOL     OW 7723   4.583   6.384   3.632
 2275SOL    HW1 7724   4.587   6.439   3.715
 2275SOL    HW2 7725   4.490   6.352   3.617
 2276SOL     OW 7726   3.328   5.739   2.282
 2276SOL    HW1 7727   3.273   5.761   2.362
 2276SOL    HW2 7728   3.311   5.806   2.210
 2277SOL     OW 7729   3.227   3.464   1.037
 2277SOL    HW1 7730   3.289   3.539   1.058
 2277SOL    HW2 7731   3.277   3.393   0.987
 2278SOL     OW 7732   4.493   6.096   1.437
 2278SOL    HW1 7733   4.587   6.121   1.459
 2278SOL    HW2 7734   4.469   6.133   1.347
 2279SOL     OW 7735   5.818   4.056   5.928
 2279SOL    HW1 7736   5.762   4.080   5.849
 2279SOL    HW2 7737   5.888   4.126   5.942
 2280SOL     OW 7738   5.505   0.070   5.910
 2280SOL    HW1 7739   5.549   0.132   5.845
 2280SOL    HW2 7740   5.502   0.113   6.001
 2281SOL     OW 7741   2.171   1.823   7.019
 2281SOL    HW1 7742   2.106   1.857   0.061
 2281SOL    HW2 7743   2.207   1.735   0.023
 2282SOL     OW 7744   3.685   5.928   1.950
 2282SOL    HW1 7745   3.682   5.887   2.041
 2282SOL    HW2 7746   3.627   5.875   1.888
 2283SOL     OW 7747   0.518   3.828   1.786
 2283SOL    HW1 7748   0.496   3.735   1.813
 2283SOL    HW2 7749   0.495   3.891   1.860
 2284SOL     OW 7750   2.081   1.854   1.870
 2284SOL    HW1 7751   2.137   1.805   1.936
 2284SOL    HW2 7752   2.069   1.949   1.901
 2285SOL     OW 7753   1.676   3.621   6.805
 2285SOL    HW1 7754   1.713   3.677   6.731
 2285SOL    HW2 7755   1.659   3.529   6.771
 2286SOL     OW 7756   6.655   6.341   4.329
 2286SOL    HW1 7757   6.704   6.327   4.243
 2286SOL    HW2 7758   6.560   6.313   4.318
 2287SOL     OW 7759   2.169   2.010   0.590
 2287SOL    HW1 7760   2.229   1.936   0.621
 2287SOL    HW2 7761   2.156   2.075   0.664
 2288SOL     OW 7762   2.757   5.488   4.780
 2288SOL    HW1 7763   2.742   5.501   4.878
 2288SOL    HW2 7764   2.716   5.402   4.750
 2289SOL     OW 7765   3.894   0.971   6.914
 2289SOL    HW1 7766   3.852   1.014   6.834
 2289SOL    HW2 7767   3.859   1.014   6.997
 2290SOL     OW 7768   3.336   3.847   4.275
 2290SOL    HW1 7769   3.259   3.909   4.261
 2290SOL    HW2 7770   3.414   3.877   4.220
 2291SOL     OW 7771   2.163   2.562   0.214
 2291SOL    HW1 7772   2.089   2.562   0.282
 2291SOL    HW2 7773   2.137   2.501   0.139
 2292SOL     OW 7774   4.606   1.833   3.007
 2292SOL    HW1 7775   4.569   1.922   2.985
 2292SOL    HW2 7776   4.621   1.827   3.106
 2293SOL     OW 7777   0.609   0.979   6.780
 2293SOL    HW1 7778   0.574   0.959   6.688
 2293SOL    HW2 7779   0.545   0.944   6.848
 2294SOL     OW 7780   7.017   1.203   5.375
 2294SOL    HW1 7781   6.945   1.272   5.383
 2294SOL    HW2 7782   7.024   1.152   5.460
 2295SOL     OW 7783   5.318   5.942   0.959
 2295SOL    HW1 7784   5.281   5.906   0.874
 2295SOL    HW2 7785   5.371   5.870   1.005
 2296SOL     OW 7786   3.861   5.541   4.292
 2296SOL    HW1 7787   3.891   5.601   4.218
 2296SOL    HW2 7788   3.762   5.551   4.306
 2297SOL     OW 7789   5.932   3.871   5.672
 2297SOL    HW1 7790   5.871   3.895   5.747
 2297SOL    HW2 7791   5.914   3.932   5.594
 2298SOL     OW 7792   2.886   3.359   5.163
 2298SOL    HW1 7793   2.818   3.292   5.194
 2298SOL    HW2 7794   2.863   3.449   5.201
 2299SOL     OW 7795   6.060   3.450   4.686
 2299SOL    HW1 7796   6.136   3.513   4.679
 2299SOL    HW2 7797   6.062   3.386   4.609
 2300SOL     OW 7798   5.281   0.207   2.517
 2300SOL    HW1 7799   5.259   0.268   2.441
 2300SOL    HW2 7800   5.252   0.114   2.495
 2301SOL     OW 7801   4.134   3.414   5.119
 2301SOL    HW1 7802   4.160   3.332   5.170
 2301SOL    HW2 7803   4.036   3.411   5.098
 2302SOL     OW 7804   6.257   3.254   6.209
 2302SOL    HW1 7805   6.234   3.218   6.299
 2302SOL    HW2 7806   6.269   3.353   6.216
 2303SOL     OW 7807   2.845   1.994   6.581
 2303SOL    HW1 7808   2.934   2.017   6.621
 2303SOL    HW2 7809   2.831   1.895   6.588
 2304SOL     OW 7810   6.519   6.871   2.667
 2304SOL    HW1 7811   6.510   6.774   2.688
 2304SOL    HW2 7812   6.558   6.882   2.576
 2305SOL     OW 7813   2.635   6.937   5.439
 2305SOL    HW1 7814   2.648   7.018   5.383
 2305SOL    HW2 7815   2.723   6.892   5.455
 2306SOL     OW 7816   2.007   4.469   4.783
 2306SOL    HW1 7817   1.938   4.473   4.711
 2306SOL    HW2 7818   2.097   4.486   4.744
 2307SOL     OW 7819   6.773   3.860   5.002
 2307SOL    HW1 7820   6.851   3.923   5.004
 2307SOL    HW2 7821   6.778   3.799   5.081
 2308SOL     OW 7822   0.613   5.467   2.460
 2308SOL    HW1 7823   0.700   5.506   2.491
 2308SOL    HW2 7824   0.602   5.375   2.497
 2309SOL     OW 7825   2.265   0.309   4.587
 2309SOL    HW1 7826   2.324   0.377   4.630
 2309SOL    HW2 7827   2.169   0.333   4.602
 2310SOL     OW 7828   4.363   6.897   0.711
 2310SOL    HW1 7829   4.392   6.955   0.787
 2310SOL    HW2 7830   4.267   6.873   0.721
 2311SOL     OW 7831   2.081   5.725   0.561
 2311SOL    HW1 7832   2.161   5.769   0.521
 2311SOL    HW2 7833   2.109   5.666   0.637
 2312SOL     OW 7834   3.537   5.049   2.563
 2312SOL    HW1 7835   3.545   4.989   2.484
 2312SOL    HW2 7836   3.625   5.053   2.611
 2313SOL     OW 7837   5.164   4.398   1.529
 2313SOL    HW1 7838   5.104   4.360   1.599
 2313SOL    HW2 7839   5.114   4.403   1.442
 2314SOL     OW 7840   2.696   4.732   3.859
 2314SOL    HW1 7841   2.630   4.666   3.894
 2314SOL    HW2 7842   2.664   4.825   3.877
 2315SOL     OW 7843   4.895   1.858   0.007
 2315SOL    HW1 7844   4.801   1.860   0.041
 2315SOL    HW2 7845   4.919   1.947   6.996
 2316SOL     OW 7846   4.901   3.306   2.180
 2316SOL    HW1 7847   4.873   3.381   2.241
 2316SOL    HW2 7848   4.854   3.222   2.207
 2317SOL     OW 7849   1.042   6.151   3.142
 2317SOL    HW1 7850   1.022   6.217   3.215
 2317SOL    HW2 7851   1.086   6.070   3.181
 2318SOL     OW 7852   0.500   1.618   4.144
 2318SOL    HW1 7853   0.558   1.556   4.196
 2318SOL    HW2 7854   0.428   1.566   4.099
 2319SOL     OW 7855   1.219   4.653   1.679
 2319SOL    HW1 7856   1.251   4.687   1.768
 2319SOL    HW2 7857   1.173   4.566   1.692
 2320SOL     OW 7858   6.570   4.456   4.542
 2320SOL    HW1 7859   6.528   4.545   4.527
 2320SOL    HW2 7860   6.570   4.435   4.640
 2321SOL     OW 7861   3.987   5.495   4.519
 2321SOL    HW1 7862   3.972   5.588   4.553
 2321SOL    HW2 7863   3.940   5.484   4.432
 2322SOL     OW 7864   2.832   0.589   4.635
 2322SOL    HW1 7865   2.815   0.537   4.718
 2322SOL    HW2 7866   2.753   0.648   4.615
 2323SOL     OW 7867   4.878   3.702   2.068
 2323SOL    HW1 7868   4.803   3.661   2.120
 2323SOL    HW2 7869   4.949   3.633   2.051
 2324SOL     OW 7870   0.855   5.153   3.751
 2324SOL    HW1 7871   0.882   5.084   3.684
 2324SOL    HW2 7872   0.936   5.194   3.792
 2325SOL     OW 7873   0.184   2.289   0.257
 2325SOL    HW1 7874   0.116   2.361   0.268
 2325SOL    HW2 7875   0.276   2.328   0.263
 2326SOL     OW 7876   0.592   4.168   0.362
 2326SOL    HW1 7877   0.544   4.136   0.280
 2326SOL    HW2 7878   0.680   4.122   0.369
 2327SOL     OW 7879   5.301   1.169   3.788
 2327SOL    HW1 7880   5.366   1.095   3.806
 2327SOL    HW2 7881   5.350   1.254   3.770
 2328SOL     OW 7882   6.572   5.290   3.693
 2328SOL    HW1 7883   6.590   5.300   3.595
 2328SOL    HW2 7884   6.486   5.241   3.706
 2329SOL     OW 7885   1.076   5.888   3.274
 2329SOL    HW1 7886   1.132   5.822   3.325
 2329SOL    HW2 7887   0.991   5.903   3.324
 2330SOL     OW 7888   0.478   4.032   1.155
 2330SOL    HW1 7889   0.496   3.934   1.162
 2330SOL    HW2 7890   0.561   4.078   1.123
 2331SOL     OW 7891   1.341   4.561   5.724
 2331SOL    HW1 7892   1.427   4.602   5.757
 2331SOL    HW2 7893   1.362   4.494   5.653
 2332SOL     OW 7894   5.071   2.818   5.850
 2332SOL    HW1 7895   5.074   2.728   5.808
 2332SOL    HW2 7896   5.028   2.883   5.788
 2333SOL     OW 7897   2.897   5.041   3.782
 2333SOL    HW1 7898   2.861   5.131   3.810
 2333SOL    HW2 7899   2.992   5.051   3.753
 2334SOL     OW 7900   2.663   0.517   6.549
 2334SOL    HW1 7901   2.687   0.493   6.644
 2334SOL    HW2 7902   2.684   0.439   6.489
 2335SOL     OW 7903   4.523   4.498   4.470
 2335SOL    HW1 7904   4.530   4.583   4.417
 2335SOL    HW2 7905   4.452   4.508   4.539
 2336SOL     OW 7906   4.215   2.932   5.508
 2336SOL    HW1 7907   4.156   2.868   5.557
 2336SOL    HW2 7908   4.210   3.022   5.552
 2337SOL     OW 7909   6.236   0.304   4.506
 2337SOL    HW1 7910   6.169   0.233   4.487
 2337SOL    HW2 7911   6.323   0.263   4.533
 2338SOL     OW 7912   1.463   6.864   6.796
 2338SOL    HW1 7913   1.530   6.927   6.836
 2338SOL    HW2 7914   1.449   6.888   6.699
 2339SOL     OW 7915   4.237   4.930   0.167
 2339SOL    HW1 7916   4.223   5.026   0.190
 2339SOL    HW2 7917   4.226   4.874   0.249
 2340SOL     OW 7918   3.693   4.904   4.159
 2340SOL    HW1 7919   3.625   4.830   4.154
 2340SOL    HW2 7920   3.700   4.947   4.069
 2341SOL     OW 7921   5.567   5.052   6.472
 2341SOL    HW1 7922   5.654   5.101   6.473
 2341SOL    HW2 7923   5.494   5.111   6.506
 2342SOL     OW 7924   6.954   0.135   5.069
 2342SOL    HW1 7925   7.007   0.094   5.143
 2342SOL    HW2 7926   7.016   0.183   5.006
 2343SOL     OW 7927   1.005   0.326   0.459
 2343SOL    HW1 7928   1.052   0.338   0.546
 2343SOL    HW2 7929   0.924   0.268   0.472
 2344SOL     OW 7930   2.396   1.145   2.781
 2344SOL    HW1 7931   2.465   1.109   2.719
 2344SOL    HW2 7932   2.324   1.076   2.795
 2345SOL     OW 7933   0.862   1.995   2.175
 2345SOL    HW1 7934   0.956   1.978   2.202
 2345SOL    HW2 7935   0.855   1.997   2.075
 2346SOL     OW 7936   4.731   3.071   5.335
 2346SOL    HW1 7937   4.651   3.029   5.378
 2346SOL    HW2 7938   4.711   3.165   5.311
 2347SOL     OW 7939   1.791   3.609   0.964
 2347SOL    HW1 7940   1.858   3.600   0.890
 2347SOL    HW2 7941   1.835   3.590   1.051
 2348SOL     OW 7942   2.703   6.905   1.902
 2348SOL    HW1 7943   2.682   6.868   1.993
 2348SOL    HW2 7944   2.774   6.850   1.858
 2349SOL     OW 7945   4.708   4.081   6.698
 2349SOL    HW1 7946   4.746   4.078   6.606
 2349SOL    HW2 7947   4.694   3.987   6.731
 2350SOL     OW 7948   2.649   6.392   5.167
 2350SOL    HW1 7949   2.704   6.444   5.232
 2350SOL    HW2 7950   2.619   6.306   5.210
 2351SOL     OW 7951   1.889   5.179   3.247
 2351SOL    HW1 7952   1.855   5.254   3.303
 2351SOL    HW2 7953   1.854   5.189   3.153
 2352SOL     OW 7954   5.828   4.647   0.687
 2352SOL    HW1 7955   5.765   4.724   0.692
 2352SOL    HW2 7956   5.810   4.584   0.763
 2353SOL     OW 7957   2.281   3.612   6.208
 2353SOL    HW1 7958   2.193   3.572   6.186
 2353SOL    HW2 7959   2.339   3.613   6.127
 2354SOL     OW 7960   4.497   1.935   2.447
 2354SOL    HW1 7961   4.398   1.940   2.435
 2354SOL    HW2 7962   4.541   2.012   2.401
 2355SOL     OW 7963   0.028   1.480   2.089
 2355SOL    HW1 7964   6.989   1.552   2.068
 2355SOL    HW2 7965   0.055   1.433   2.004
 2356SOL     OW 7966   2.771   5.277   3.805
 2356SOL    HW1 7967   2.780   5.313   3.898
 2356SOL    HW2 7968   2.783   5.351   3.739
 2357SOL     OW 7969   0.607   4.589   0.596
 2357SOL    HW1 7970   0.646   4.672   0.556
 2357SOL    HW2 7971   0.530   4.614   0.655
 2358SOL     OW 7972   3.150   1.032   5.273
 2358SOL    HW1 7973   3.105   1.121   5.282
 2358SOL    HW2 7974   3.249   1.045   5.268
 2359SOL     OW 7975   1.933   2.009   5.585
 2359SOL    HW1 7976   1.989   1.951   5.525
 2359SOL    HW2 7977   1.873   1.952   5.640
 2360SOL     OW 7978   3.506   5.165   0.632
 2360SOL    HW1 7979   3.430   5.169   0.696
 2360SOL    HW2 7980   3.553   5.077   0.642
 2361SOL     OW 7981   3.702   5.971   1.211
 2361SOL    HW1 7982   3.628   6.037   1.224
 2361SOL    HW2 7983   3.703   5.941   1.115
 2362SOL     OW 7984   3.299   4.903   3.823
 2362SOL    HW1 7985   3.264   4.973   3.761
 2362SOL    HW2 7986   3.225   4.871   3.882
 2363SOL     OW 7987   1.837   3.904   1.124
 2363SOL    HW1 7988   1.743   3.909   1.157
 2363SOL    HW2 7989   1.837   3.895   1.024
 2364SOL     OW 7990   3.973   1.798   2.592
 2364SOL    HW1 7991   4.029   1.788   2.510
 2364SOL    HW2 7992   4.018   1.754   2.670
 2365SOL     OW 7993   5.081   4.366   2.788
 2365SOL    HW1 7994   5.094   4.367   2.888
 2365SOL    HW2 7995   4.991   4.403   2.767
 2366SOL     OW 7996   3.034   5.077   5.383
 2366SOL    HW1 7997   2.964   5.035   5.326
 2366SOL    HW2 7998   3.117   5.092   5.328
 2367SOL     OW 7999   5.683   5.000   5.730
 2367SOL    HW1 8000   5.599   4.953   5.760
 2367SOL    HW2 8001   5.661   5.094   5.705
 2368SOL     OW 8002   5.019   0.781   5.820
 2368SOL    HW1 8003   5.027   0.769   5.721
 2368SOL    HW2 8004   4.960   0.709   5.857
 2369SOL     OW 8005   3.991   2.098   4.020
 2369SOL    HW1 8006   3.902   2.077   4.061
 2369SOL    HW2 8007   4.033   2.013   3.988
 2370SOL     OW 8008   5.398   1.808   1.809
 2370SOL    HW1 8009   5.457   1.890   1.809
 2370SOL    HW2 8010   5.318   1.826   1.752
 2371SOL     OW 8011   1.451   6.390   1.839
 2371SOL    HW1 8012   1.467   6.292   1.848
 2371SOL    HW2 8013   1.529   6.441   1.875
 2372SOL     OW 8014   6.945   0.361   6.222
 2372SOL    HW1 8015   6.968   0.266   6.198
 2372SOL    HW2 8016   6.846   0.368   6.236
 2373SOL     OW 8017   5.764   4.681   6.080
 2373SOL    HW1 8018   5.743   4.705   6.175
 2373SOL    HW2 8019   5.855   4.641   6.076
 2374SOL     OW 8020   6.411   6.348   2.285
 2374SOL    HW1 8021   6.493   6.357   2.229
 2374SOL    HW2 8022   6.413   6.260   2.332
 2375SOL     OW 8023   1.811   0.393   4.430
 2375SOL    HW1 8024   1.754   0.443   4.495
 2375SOL    HW2 8025   1.880   0.454   4.391
 2376SOL     OW 8026   5.031   2.094   3.060
 2376SOL    HW1 8027   5.102   2.119   3.126
 2376SOL    HW2 8028   5.005   2.174   3.006
 2377SOL     OW 8029   4.360   3.768   5.883
 2377SOL    HW1 8030   4.390   3.808   5.796
 2377SOL    HW2 8031   4.384   3.671   5.885
 2378SOL     OW 8032   0.627   1.413   0.189
 2378SOL    HW1 8033   0.689   1.397   0.266
 2378SOL    HW2 8034   0.642   1.344   0.119
 2379SOL     OW 8035   0.509   5.266   2.654
 2379SOL    HW1 8036   0.580   5.222   2.709
 2379SOL    HW2 8037   0.519   5.365   2.660
 2380SOL     OW 8038   4.561   6.211   6.831
 2380SOL    HW1 8039   4.531   6.192   6.925
 2380SOL    HW2 8040   4.604   6.302   6.828
 2381SOL     OW 8041   2.137   3.381   3.989
 2381SOL    HW1 8042   2.191   3.433   3.923
 2381SOL    HW2 8043   2.134   3.285   3.961
 2382SOL     OW 8044   0.295   5.213   2.893
 2382SOL    HW1 8045   0.320   5.192   2.988
 2382SOL    HW2 8046   0.377   5.213   2.836
 2383SOL     OW 8047   4.847   4.008   5.739
 2383SOL    HW1 8048   4.910   4.086   5.738
 2383SOL    HW2 8049   4.757   4.038   5.706
 2384SOL     OW 8050   0.049   2.149   2.445
 2384SOL    HW1 8051   6.999   2.089   2.468
 2384SOL    HW2 8052   0.025   2.206   2.367
 2385SOL     OW 8053   0.085   1.325   0.348
 2385SOL    HW1 8054   0.129   1.237   0.364
 2385SOL    HW2 8055   0.069   1.337   0.250
 2386SOL     OW 8056   5.853   6.168   4.505
 2386SOL    HW1 8057   5.779   6.168   4.437
 2386SOL    HW2 8058   5.893   6.077   4.511
 2387SOL     OW 8059   0.924   1.256   4.094
 2387SOL    HW1 8060   1.007   1.306   4.066
 2387SOL    HW2 8061   0.847   1.287   4.039
 2388SOL     OW 8062   0.730   3.742   5.603
 2388SOL    HW1 8063   0.671   3.780   5.532
 2388SOL    HW2 8064   0.698   3.651   5.628
 2389SOL     OW 8065   4.299   5.383   2.982
 2389SOL    HW1 8066   4.381   5.418   2.937
 2389SOL    HW2 8067   4.270   5.299   2.936
 2390SOL     OW 8068   4.683   2.640   6.764
 2390SOL    HW1 8069   4.706   2.736   6.778
 2390SOL    HW2 8070   4.761   2.583   6.791
 2391SOL     OW 8071   3.477   4.162   6.720
 2391SOL    HW1 8072   3.463   4.255   6.756
 2391SOL    HW2 8073   3.570   4.153   6.686
 2392SOL     OW 8074   4.237   4.813   5.627
 2392SOL    HW1 8075   4.221   4.885   5.560
 2392SOL    HW2 8076   4.182   4.830   5.709
 2393SOL     OW 8077   4.133   4.487   0.827
 2393SOL    HW1 8078   4.122   4.577   0.869
 2393SOL    HW2 8079   4.048   4.435   0.837
 2394SOL     OW 8080   6.645   1.591   3.598
 2394SOL    HW1 8081   6.724   1.531   3.615
 2394SOL    HW2 8082   6.671   1.685   3.618
 2395SOL     OW 8083   1.335   2.890   3.612
 2395SOL    HW1 8084   1.354   2.977   3.566
 2395SOL    HW2 8085   1.421   2.844   3.632
 2396SOL     OW 8086   6.780   0.172   6.701
 2396SOL    HW1 8087   6.739   0.256   6.739
 2396SOL    HW2 8088   6.878   0.172   6.720
 2397SOL     OW 8089   1.979   4.208   5.310
 2397SOL    HW1 8090   1.972   4.208   5.210
 2397SOL    HW2 8091   2.070   4.238   5.337
 2398SOL     OW 8092   4.210   6.743   4.136
 2398SOL    HW1 8093   4.298   6.748   4.089
 2398SOL    HW2 8094   4.200   6.821   4.197
 2399SOL     OW 8095   3.415   1.868   2.752
 2399SOL    HW1 8096   3.338   1.856   2.814
 2399SOL    HW2 8097   3.431   1.784   2.701
 2400SOL     OW 8098   1.960   3.500   0.421
 2400SOL    HW1 8099   2.017   3.550   0.356
 2400SOL    HW2 8100   1.940   3.409   0.384
 2401SOL     OW 8101   1.931   6.318   6.582
 2401SOL    HW1 8102   1.898   6.372   6.505
 2401SOL    HW2 8103   1.953   6.226   6.551
 2402SOL     OW 8104   1.119   3.892   2.407
 2402SOL    HW1 8105   1.200   3.950   2.397
 2402SOL    HW2 8106   1.107   3.836   2.325
 2403SOL     OW 8107   3.112   3.529   5.392
 2403SOL    HW1 8108   3.051   3.560   5.319
 2403SOL    HW2 8109   3.200   3.576   5.384
 2404SOL     OW 8110   5.981   1.428   1.016
 2404SOL    HW1 8111   6.030   1.341   1.002
 2404SOL    HW2 8112   6.041   1.504   0.990
 2405SOL     OW 8113   1.759   3.035   1.012
 2405SOL    HW1 8114   1.723   3.103   0.948
 2405SOL    HW2 8115   1.706   3.039   1.097
 2406SOL     OW 8116   3.747   5.720   5.011
 2406SOL    HW1 8117   3.650   5.732   5.032
 2406SOL    HW2 8118   3.761   5.633   4.962
 2407SOL     OW 8119   2.891   1.518   3.298
 2407SOL    HW1 8120   2.852   1.573   3.224
 2407SOL    HW2 8121   2.821   1.457   3.334
 2408SOL     OW 8122   2.611   0.482   5.607
 2408SOL    HW1 8123   2.522   0.438   5.617
 2408SOL    HW2 8124   2.658   0.484   5.695
 2409SOL     OW 8125   0.716   2.930   0.386
 2409SOL    HW1 8126   0.676   3.010   0.432
 2409SOL    HW2 8127   0.773   2.960   0.310
 2410SOL     OW 8128   0.245   3.301   4.352
 2410SOL    HW1 8129   0.247   3.341   4.260
 2410SOL    HW2 8130   0.336   3.265   4.374
 2411SOL     OW 8131   2.759   1.907   0.284
 2411SOL    HW1 8132   2.674   1.930   0.333
 2411SOL    HW2 8133   2.749   1.819   0.239
 2412SOL     OW 8134   3.445   2.512   5.826
 2412SOL    HW1 8135   3.451   2.608   5.799
 2412SOL    HW2 8136   3.383   2.464   5.764
 2413SOL     OW 8137   0.350   3.245   0.066
 2413SOL    HW1 8138   0.278   3.196   0.016
 2413SOL    HW2 8139   0.418   3.180   0.099
 2414SOL     OW 8140   6.707   0.995   5.286
 2414SOL    HW1 8141   6.706   0.982   5.386
 2414SOL    HW2 8142   6.789   0.953   5.248
 2415SOL     OW 8143   3.067   4.859   6.221
 2415SOL    HW1 8144   3.069   4.807   6.136
 2415SOL    HW2 8145   3.150   4.914   6.228
 2416SOL     OW 8146   6.749   2.241   3.139
 2416SOL    HW1 8147   6.756   2.341   3.134
 2416SOL    HW2 8148   6.661   2.212   3.104
 2417SOL     OW 8149   3.280   2.351   1.178
 2417SOL    HW1 8150   3.302   2.372   1.083
 2417SOL    HW2 8151   3.241   2.259   1.184
 2418SOL     OW 8152   4.960   3.896   0.069
 2418SOL    HW1 8153   5.026   3.966   0.042
 2418SOL    HW2 8154   4.971   3.816   0.010
 2419SOL     OW 8155   2.873   0.882   3.542
 2419SOL    HW1 8156   2.914   0.965   3.502
 2419SOL    HW2 8157   2.847   0.901   3.636
 2420SOL     OW 8158   1.232   3.794   2.676
 2420SOL    HW1 8159   1.197   3.836   2.592
 2420SOL    HW2 8160   1.258   3.699   2.656
 2421SOL     OW 8161   3.146   6.758   3.235
 2421SOL    HW1 8162   3.167   6.779   3.140
 2421SOL    HW2 8163   3.230   6.733   3.284
 2422SOL     OW 8164   4.385   5.112   0.599
 2422SOL    HW1 8165   4.401   5.040   0.666
 2422SOL    HW2 8166   4.405   5.077   0.507
 2423SOL     OW 8167   2.415   5.203   3.578
 2423SOL    HW1 8168   2.341   5.138   3.595
 2423SOL    HW2 8169   2.503   5.161   3.604
 2424SOL     OW 8170   4.838   0.048   6.436
 2424SOL    HW1 8171   4.918   7.015   6.435
 2424SOL    HW2 8172   4.821   0.083   6.344
 2425SOL     OW 8173   4.242   5.596   5.231
 2425SOL    HW1 8174   4.209   5.571   5.140
 2425SOL    HW2 8175   4.322   5.540   5.254
 2426SOL     OW 8176   2.823   2.284   4.983
 2426SOL    HW1 8177   2.918   2.256   4.969
 2426SOL    HW2 8178   2.814   2.329   5.071
 2427SOL     OW 8179   4.251   1.314   0.741
 2427SOL    HW1 8180   4.310   1.395   0.738
 2427SOL    HW2 8181   4.202   1.305   0.654
 2428SOL     OW 8182   1.758   1.654   2.520
 2428SOL    HW1 8183   1.689   1.596   2.563
 2428SOL    HW2 8184   1.849   1.618   2.539
 2429SOL     OW 8185   6.475   5.774   0.971
 2429SOL    HW1 8186   6.457   5.722   1.054
 2429SOL    HW2 8187   6.536   5.850   0.992
 2430SOL     OW 8188   6.246   0.961   6.265
 2430SOL    HW1 8189   6.230   1.025   6.340
 2430SOL    HW2 8190   6.281   1.011   6.186
 2431SOL     OW 8191   0.949   3.343   2.114
 2431SOL    HW1 8192   0.987   3.253   2.134
 2431SOL    HW2 8193   0.907   3.380   2.197
 2432SOL     OW 8194   2.362   5.066   1.766
 2432SOL    HW1 8195   2.443   5.110   1.806
 2432SOL    HW2 8196   2.367   4.967   1.783
 2433SOL     OW 8197   0.387   4.102   5.242
 2433SOL    HW1 8198   0.471   4.156   5.230
 2433SOL    HW2 8199   0.328   4.113   5.162
 2434SOL     OW 8200   4.678   1.114   3.342
 2434SOL    HW1 8201   4.701   1.171   3.263
 2434SOL    HW2 8202   4.746   1.042   3.352
 2435SOL     OW 8203   5.812   6.749   6.585
 2435SOL    HW1 8204   5.866   6.793   6.657
 2435SOL    HW2 8205   5.857   6.663   6.558
 2436SOL     OW 8206   0.078   2.890   0.631
 2436SOL    HW1 8207   0.138   2.961   0.596
 2436SOL    HW2 8208   0.066   2.819   0.562
 2437SOL     OW 8209   7.000   3.641   1.254
 2437SOL    HW1 8210   6.936   3.686   1.316
 2437SOL    HW2 8211   6.954   3.623   1.167
 2438SOL     OW 8212   3.632   1.777   4.408
 2438SOL    HW1 8213   3.554   1.838   4.396
 2438SOL    HW2 8214   3.622   1.698   4.347
 2439SOL     OW 8215   1.193   5.447   1.371
 2439SOL    HW1 8216   1.249   5.465   1.290
 2439SOL    HW2 8217   1.252   5.446   1.452
 2440SOL     OW 8218   6.910   0.601   5.296
 2440SOL    HW1 8219   6.967   0.522   5.276
 2440SOL    HW2 8220   6.952   0.656   5.368
 2441SOL     OW 8221   5.775   0.349   1.006
 2441SOL    HW1 8222   5.732   0.434   0.974
 2441SOL    HW2 8223   5.863   0.337   0.960
 2442SOL     OW 8224   5.602   3.058   1.738
 2442SOL    HW1 8225   5.545   3.038   1.818
 2442SOL    HW2 8226   5.694   3.025   1.754
 2443SOL     OW 8227   0.674   3.407   1.658
 2443SOL    HW1 8228   0.685   3.421   1.756
 2443SOL    HW2 8229   0.582   3.373   1.639
 2444SOL     OW 8230   3.541   5.244   1.868
 2444SOL    HW1 8231   3.510   5.333   1.900
 2444SOL    HW2 8232   3.502   5.172   1.926
 2445SOL     OW 8233   0.402   1.757   1.109
 2445SOL    HW1 8234   0.454   1.675   1.088
 2445SOL    HW2 8235   0.311   1.751   1.069
 2446SOL     OW 8236   0.514   5.392   2.096
 2446SOL    HW1 8237   0.478   5.310   2.141
 2446SOL    HW2 8238   0.494   5.472   2.152
 2447SOL     OW 8239   1.846   7.014   0.689
 2447SOL    HW1 8240   1.776   0.051   0.657
 2447SOL    HW2 8241   1.801   6.933   0.728
 2448SOL     OW 8242   5.648   1.038   4.902
 2448SOL    HW1 8243   5.568   1.041   4.962
 2448SOL    HW2 8244   5.695   0.950   4.913
 2449SOL     OW 8245   1.739   4.466   1.171
 2449SOL    HW1 8246   1.816   4.443   1.230
 2449SOL    HW2 8247   1.762   4.444   1.076
 2450SOL     OW 8248   0.842   6.198   4.757
 2450SOL    HW1 8249   0.840   6.204   4.657
 2450SOL    HW2 8250   0.767   6.253   4.795
 2451SOL     OW 8251   1.818   6.730   5.668
 2451SOL    HW1 8252   1.811   6.830   5.675
 2451SOL    HW2 8253   1.746   6.689   5.724
 2452SOL     OW 8254   2.723   1.835   3.908
 2452SOL    HW1 8255   2.658   1.910   3.915
 2452SOL    HW2 8256   2.738   1.811   3.812
 2453SOL     OW 8257   1.417   1.700   5.825
 2453SOL    HW1 8258   1.384   1.758   5.900
 2453SOL    HW2 8259   1.481   1.632   5.862
 2454SOL     OW 8260   3.258   6.236   0.974
 2454SOL    HW1 8261   3.174   6.290   0.988
 2454SOL    HW2 8262   3.235   6.139   0.967
 2455SOL     OW 8263   4.047   2.402   0.919
 2455SOL    HW1 8264   4.073   2.352   1.002
 2455SOL    HW2 8265   4.038   2.337   0.843
 2456SOL     OW 8266   0.442   3.559   5.997
 2456SOL    HW1 8267   0.456   3.461   6.011
 2456SOL    HW2 8268   0.428   3.578   5.900
 2457SOL     OW 8269   4.058   2.172   5.356
 2457SOL    HW1 8270   4.041   2.144   5.261
 2457SOL    HW2 8271   3.982   2.229   5.388
 2458SOL     OW 8272   0.543   0.043   3.046
 2458SOL    HW1 8273   0.516   6.996   3.109
 2458SOL    HW2 8274   0.462   0.080   3.001
 2459SOL     OW 8275   1.718   6.776   0.738
 2459SOL    HW1 8276   1.693   6.775   0.835
 2459SOL    HW2 8277   1.658   6.714   0.687
 2460SOL     OW 8278   0.546   0.664   4.546
 2460SOL    HW1 8279   0.569   0.649   4.642
 2460SOL    HW2 8280   0.525   0.576   4.503
 2461SOL     OW 8281   4.521   1.287   3.521
 2461SOL    HW1 8282   4.526   1.259   3.616
 2461SOL    HW2 8283   4.575   1.225   3.464
 2462SOL     OW 8284   0.461   5.536   0.579
 2462SOL    HW1 8285   0.477   5.441   0.553
 2462SOL    HW2 8286   0.518   5.558   0.659
 2463SOL     OW 8287   6.268   0.133   0.030
 2463SOL    HW1 8288   6.326   0.061   0.069
 2463SOL    HW2 8289   6.319   0.219   0.026
 2464SOL     OW 8290   0.521   2.194   4.479
 2464SOL    HW1 8291   0.617   2.192   4.506
 2464SOL    HW2 8292   0.496   2.286   4.451
 2465SOL     OW 8293   6.963   6.874   6.226
 2465SOL    HW1 8294   7.016   6.826   6.297
 2465SOL    HW2 8295   6.882   6.820   6.203
 2466SOL     OW 8296   1.000   1.636   1.666
 2466SOL    HW1 8297   0.992   1.735   1.659
 2466SOL    HW2 8298   0.923   1.593   1.619
 2467SOL     OW 8299   5.780   2.759   5.179
 2467SOL    HW1 8300   5.817   2.679   5.132
 2467SOL    HW2 8301   5.736   2.730   5.264
 2468SOL     OW 8302   3.529   6.854   5.174
 2468SOL    HW1 8303   3.539   6.765   5.129
 2468SOL    HW2 8304   3.597   6.918   5.138
 2469SOL     OW 8305   3.645   1.809   5.690
 2469SOL    HW1 8306   3.592   1.893   5.703
 2469SOL    HW2 8307   3.740   1.833   5.670
 2470SOL     OW 8308   2.287   5.446   6.428
 2470SOL    HW1 8309   2.314   5.356   6.395
 2470SOL    HW2 8310   2.285   5.511   6.352
 2471SOL     OW 8311   2.825   5.204   1.842
 2471SOL    HW1 8312   2.885   5.282   1.830
 2471SOL    HW2 8313   2.736   5.235   1.875
 2472SOL     OW 8314   4.804   1.260   3.847
 2472SOL    HW1 8315   4.806   1.233   3.943
 2472SOL    HW2 8316   4.833   1.355   3.838
 2473SOL     OW 8317   0.451   4.118   3.827
 2473SOL    HW1 8318   0.508   4.090   3.905
 2473SOL    HW2 8319   0.509   4.160   3.757
 2474SOL     OW 8320   0.976   5.953   2.018
 2474SOL    HW1 8321   0.897   5.961   1.958
 2474SOL    HW2 8322   0.945   5.923   2.109
 2475SOL     OW 8323   4.646   1.028   0.159
 2475SOL    HW1 8324   4.727   0.993   0.206
 2475SOL    HW2 8325   4.648   1.001   0.063
 2476SOL     OW 8326   4.882   0.668   0.835
 2476SOL    HW1 8327   4.792   0.682   0.878
 2476SOL    HW2 8328   4.943   0.623   0.901
 2477SOL     OW 8329   3.574   0.182   3.572
 2477SOL    HW1 8330   3.519   0.239   3.511
 2477SOL    HW2 8331   3.651   0.143   3.520
 2478SOL     OW 8332   5.013   0.341   4.842
 2478SOL    HW1 8333   5.103   0.339   4.885
 2478SOL    HW2 8334   4.942   0.338   4.912
 2479SOL     OW 8335   5.896   3.172   0.990
 2479SOL    HW1 8336   5.913   3.074   1.001
 2479SOL    HW2 8337   5.834   3.187   0.913
 2480SOL     OW 8338   3.638   2.192   1.494
 2480SOL    HW1 8339   3.628   2.158   1.401
 2480SOL    HW2 8340   3.555   2.242   1.520
 2481SOL     OW 8341   3.150   6.964   1.801
 2481SOL    HW1 8342   3.144   6.922   1.710
 2481SOL    HW2 8343   3.182   6.896   1.867
 2482SOL     OW 8344   6.255   3.361   6.816
 2482SOL    HW1 8345   6.214   3.439   6.769
 2482SOL    HW2 8346   6.344   3.386   6.852
 2483SOL     OW 8347   1.278   2.783   0.981
 2483SOL    HW1 8348   1.215   2.737   0.919
 2483SOL    HW2 8349   1.363   2.731   0.988
 2484SOL     OW 8350   4.233   1.112   0.227
 2484SOL    HW1 8351   4.331   1.131   0.236
 2484SOL    HW2 8352   4.186   1.195   0.195
 2485SOL     OW 8353   0.348   2.006   6.619
 2485SOL    HW1 8354   0.267   2.055   6.587
 2485SOL    HW2 8355   0.428   2.034   6.565
 2486SOL     OW 8356   6.936   5.847   4.175
 2486SOL    HW1 8357   6.848   5.801   4.159
 2486SOL    HW2 8358   7.006   5.779   4.193
 2487SOL     OW 8359   5.107   6.265   6.660
 2487SOL    HW1 8360   5.098   6.361   6.633
 2487SOL    HW2 8361   5.051   6.248   6.741
 2488SOL     OW 8362   6.279   4.058   0.788
 2488SOL    HW1 8363   6.196   4.030   0.835
 2488SOL    HW2 8364   6.256   4.101   0.701
 2489SOL     OW 8365   6.486   5.461   4.420
 2489SOL    HW1 8366   6.547   5.522   4.370
 2489SOL    HW2 8367   6.424   5.514   4.478
 2490SOL     OW 8368   2.642   5.731   3.411
 2490SOL    HW1 8369   2.730   5.778   3.403
 2490SOL    HW2 8370   2.639   5.655   3.347
 2491SOL     OW 8371   3.873   4.487   1.699
 2491SOL    HW1 8372   3.837   4.408   1.649
 2491SOL    HW2 8373   3.972   4.491   1.685
 2492SOL     OW 8374   6.830   5.268   1.569
 2492SOL    HW1 8375   6.754   5.216   1.608
 2492SOL    HW2 8376   6.891   5.206   1.520
 2493SOL     OW 8377   5.522   6.726   0.880
 2493SOL    HW1 8378   5.512   6.644   0.824
 2493SOL    HW2 8379   5.477   6.803   0.836
 2494SOL     OW 8380   6.491   3.973   1.832
 2494SOL    HW1 8381   6.520   3.882   1.863
 2494SOL    HW2 8382   6.391   3.974   1.822
 2495SOL     OW 8383   0.465   4.496   2.832
 2495SOL    HW1 8384   0.542   4.438   2.804
 2495SOL    HW2 8385   0.489   4.546   2.915
 2496SOL     OW 8386   5.839   4.791   6.424
 2496SOL    HW1 8387   5.887   4.819   6.506
 2496SOL    HW2 8388   5.742   4.775   6.446
 2497SOL     OW 8389   0.431   6.779   2.323
 2497SOL    HW1 8390   0.495   6.855   2.334
 2497SOL    HW2 8391   0.362   6.804   2.254
 2498SOL     OW 8392   2.087   3.833   5.603
 2498SOL    HW1 8393   1.997   3.818   5.562
 2498SOL    HW2 8394   2.131   3.911   5.560
 2499SOL     OW 8395   6.514   3.695   1.848
 2499SOL    HW1 8396   6.527   3.646   1.934
 2499SOL    HW2 8397   6.580   3.663   1.781
 2500SOL     OW 8398   3.600   3.272   1.198
 2500SOL    HW1 8399   3.527   3.290   1.132
 2500SOL    HW2 8400   3.599   3.176   1.226
 2501SOL     OW 8401   5.717   5.448   6.501
 2501SOL    HW1 8402   5.626   5.478   6.471
 2501SOL    HW2 8403   5.787   5.499   6.452
 2502SOL     OW 8404   2.515   6.088   4.430
 2502SOL    HW1 8405   2.531   5.991   4.414
 2502SOL    HW2 8406   2.500   6.104   4.527
 2503SOL     OW 8407   2.912   6.847   5.473
 2503SOL    HW1 8408   3.001   6.848   5.519
 2503SOL    HW2 8409   2.926   6.836   5.375
 2504SOL     OW 8410   3.430   6.926   3.574
 2504SOL    HW1 8411   3.442   6.891   3.667
 2504SOL    HW2 8412   3.470   7.017   3.567
 2505SOL     OW 8413   0.142   4.767   3.976
 2505SOL    HW1 8414   0.113   4.681   4.018
 2505SOL    HW2 8415   0.207   4.749   3.902
 2506SOL     OW 8416   4.970   5.417   5.528
 2506SOL    HW1 8417   5.043   5.469   5.484
 2506SOL    HW2 8418   4.977   5.427   5.627
 2507SOL     OW 8419   6.569   3.080   1.443
 2507SOL    HW1 8420   6.551   3.162   1.389
 2507SOL    HW2 8421   6.491   3.017   1.434
 2508SOL     OW 8422   5.125   1.880   4.592
 2508SOL    HW1 8423   5.127   1.797   4.536
 2508SOL    HW2 8424   5.095   1.855   4.685
 2509SOL     OW 8425   0.018   4.164   5.717
 2509SOL    HW1 8426   7.007   4.200   5.632
 2509SOL    HW2 8427   7.018   4.223   5.793
 2510SOL     OW 8428   3.372   3.835   1.881
 2510SOL    HW1 8429   3.428   3.843   1.963
 2510SOL    HW2 8430   3.432   3.835   1.800
 2511SOL     OW 8431   2.028   0.757   4.433
 2511SOL    HW1 8432   2.049   0.696   4.357
 2511SOL    HW2 8433   1.933   0.743   4.462
 2512SOL     OW 8434   3.367   4.929   4.104
 2512SOL    HW1 8435   3.404   4.930   4.012
 2512SOL    HW2 8436   3.271   4.901   4.101
 2513SOL     OW 8437   2.448   5.350   5.996
 2513SOL    HW1 8438   2.527   5.361   6.057
 2513SOL    HW2 8439   2.369   5.396   6.035
 2514SOL     OW 8440   1.353   2.103   2.516
 2514SOL    HW1 8441   1.374   2.119   2.613
 2514SOL    HW2 8442   1.346   2.191   2.469
 2515SOL     OW 8443   1.302   1.277   1.212
 2515SOL    HW1 8444   1.275   1.369   1.242
 2515SOL    HW2 8445   1.395   1.281   1.174
 2516SOL     OW 8446   6.172   1.933   4.309
 2516SOL    HW1 8447   6.235   1.924   4.387
 2516SOL    HW2 8448   6.100   1.864   4.316
 2517SOL     OW 8449   1.356   1.482   4.080
 2517SOL    HW1 8450   1.393   1.467   4.172
 2517SOL    HW2 8451   1.386   1.408   4.020
 2518SOL     OW 8452   2.793   5.010   1.106
 2518SOL    HW1 8453   2.757   4.930   1.154
 2518SOL    HW2 8454   2.850   5.064   1.168
 2519SOL     OW 8455   1.087   1.175   1.049
 2519SOL    HW1 8456   1.156   1.218   1.107
 2519SOL    HW2 8457   0.998   1.178   1.095
 2520SOL     OW 8458   2.467   2.191   0.595
 2520SOL    HW1 8459   2.458   2.150   0.686
 2520SOL    HW2 8460   2.411   2.275   0.592
 2521SOL     OW 8461   4.828   1.406   5.443
 2521SOL    HW1 8462   4.886   1.338   5.487
 2521SOL    HW2 8463   4.742   1.415   5.494
 2522SOL     OW 8464   0.963   2.765   6.174
 2522SOL    HW1 8465   0.897   2.818   6.229
 2522SOL    HW2 8466   0.938   2.668   6.178
 2523SOL     OW 8467   1.766   5.009   6.707
 2523SOL    HW1 8468   1.686   5.046   6.659
 2523SOL    HW2 8469   1.845   5.011   6.646
 2524SOL     OW 8470   1.278   0.090   4.336
 2524SOL    HW1 8471   1.347   0.019   4.323
 2524SOL    HW2 8472   1.298   0.167   4.276
 2525SOL     OW 8473   6.527   2.785   5.275
 2525SOL    HW1 8474   6.616   2.742   5.290
 2525SOL    HW2 8475   6.506   2.787   5.178
 2526SOL     OW 8476   1.208   6.658   1.124
 2526SOL    HW1 8477   1.188   6.586   1.190
 2526SOL    HW2 8478   1.269   6.622   1.053
 2527SOL     OW 8479   4.885   4.833   6.034
 2527SOL    HW1 8480   4.824   4.774   5.981
 2527SOL    HW2 8481   4.881   4.806   6.130
 2528SOL     OW 8482   4.426   5.867   6.696
 2528SOL    HW1 8483   4.509   5.919   6.677
 2528SOL    HW2 8484   4.413   5.860   6.795
 2529SOL     OW 8485   0.603   6.899   6.772
 2529SOL    HW1 8486   0.677   6.961   6.746
 2529SOL    HW2 8487   0.519   6.926   6.724
 2530SOL     OW 8488   2.048   5.862   6.355
 2530SOL    HW1 8489   2.132   5.823   6.318
 2530SOL    HW2 8490   1.971   5.801   6.336
 2531SOL     OW 8491   6.634   5.363   5.750
 2531SOL    HW1 8492   6.627   5.350   5.652
 2531SOL    HW2 8493   6.712   5.423   5.771
 2532SOL     OW 8494   5.759   6.182   0.726
 2532SOL    HW1 8495   5.771   6.226   0.814
 2532SOL    HW2 8496   5.676   6.127   0.727
 2533SOL     OW 8497   5.033   1.119   3.757
 2533SOL    HW1 8498   5.113   1.144   3.812
 2533SOL    HW2 8499   4.952   1.165   3.794
 2534SOL     OW 8500   3.808   1.295   2.846
 2534SOL    HW1 8501   3.841   1.245   2.925
 2534SOL    HW2 8502   3.885   1.316   2.785
 2535SOL     OW 8503   4.003   2.933   6.342
 2535SOL    HW1 8504   3.903   2.943   6.346
 2535SOL    HW2 8505   4.046   3.011   6.388
 2536SOL     OW 8506   1.325   0.649   0.577
 2536SOL    HW1 8507   1.337   0.747   0.561
 2536SOL    HW2 8508   1.351   0.599   0.494
 2537SOL     OW 8509   3.949   6.995   6.576
 2537SOL    HW1 8510   4.029   6.936   6.563
 2537SOL    HW2 8511   3.978   0.064   6.576
 2538SOL     OW 8512   6.574   3.379   3.810
 2538SOL    HW1 8513   6.544   3.375   3.905
 2538SOL    HW2 8514   6.616   3.468   3.791
 2539SOL     OW 8515   5.410   2.428   5.257
 2539SOL    HW1 8516   5.438   2.490   5.184
 2539SOL    HW2 8517   5.400   2.480   5.342
 2540SOL     OW 8518   3.057   1.722   2.195
 2540SOL    HW1 8519   3.137   1.768   2.233
 2540SOL    HW2 8520   2.989   1.791   2.169
 2541SOL     OW 8521   3.475   6.276   4.495
 2541SOL    HW1 8522   3.481   6.254   4.593
 2541SOL    HW2 8523   3.380   6.291   4.470
 2542SOL     OW 8524   1.624   5.101   6.273
 2542SOL    HW1 8525   1.538   5.065   6.235
 2542SOL    HW2 8526   1.699   5.039   6.251
 2543SOL     OW 8527   1.536   1.291   3.932
 2543SOL    HW1 8528   1.615   1.351   3.945
 2543SOL    HW2 8529   1.561   1.217   3.870
 2544SOL     OW 8530   1.080   4.870   6.879
 2544SOL    HW1 8531   1.008   4.913   6.933
 2544SOL    HW2 8532   1.166   4.871   6.929
 2545SOL     OW 8533   3.057   5.753   2.695
 2545SOL    HW1 8534   3.086   5.735   2.788
 2545SOL    HW2 8535   2.970   5.802   2.696
 2546SOL     OW 8536   6.621   1.478   1.072
 2546SOL    HW1 8537   6.680   1.556   1.091
 2546SOL    HW2 8538   6.641   1.404   1.137
 2547SOL     OW 8539   0.658   3.502   4.891
 2547SOL    HW1 8540   0.627   3.450   4.971
 2547SOL    HW2 8541   0.694   3.591   4.921
 2548SOL     OW 8542   0.576   6.954   4.132
 2548SOL    HW1 8543   0.500   6.975   4.070
 2548SOL    HW2 8544   0.616   0.013   4.165
 2549SOL     OW 8545   6.544   2.527   1.147
 2549SOL    HW1 8546   6.487   2.464   1.200
 2549SOL    HW2 8547   6.503   2.618   1.148
 2550SOL     OW 8548   6.326   6.056   0.231
 2550SOL    HW1 8549   6.247   6.004   0.261
 2550SOL    HW2 8550   6.348   6.127   0.299
 2551SOL     OW 8551   1.259   4.227   6.516
 2551SOL    HW1 8552   1.274   4.324   6.494
 2551SOL    HW2 8553   1.345   4.177   6.503
 2552SOL     OW 8554   1.864   5.866   3.599
 2552SOL    HW1 8555   1.807   5.795   3.556
 2552SOL    HW2 8556   1.936   5.823   3.652
 2553SOL     OW 8557   3.798   3.595   6.791
 2553SOL    HW1 8558   3.810   3.662   6.864
 2553SOL    HW2 8559   3.888   3.567   6.756
 2554SOL     OW 8560   1.482   1.356   6.834
 2554SOL    HW1 8561   1.476   1.294   6.755
 2554SOL    HW2 8562   1.390   1.375   6.868
 2555SOL     OW 8563   6.202   0.919   0.157
 2555SOL    HW1 8564   6.220   0.823   0.175
 2555SOL    HW2 8565   6.137   0.928   0.081
 2556SOL     OW 8566   2.770   6.082   0.728
 2556SOL    HW1 8567   2.720   6.005   0.688
 2556SOL    HW2 8568   2.846   6.048   0.784
 2557SOL     OW 8569   2.349   3.954   0.053
 2557SOL    HW1 8570   2.337   3.959   0.152
 2557SOL    HW2 8571   2.334   4.044   0.012
 2558SOL     OW 8572   4.082   0.383   5.654
 2558SOL    HW1 8573   4.140   0.450   5.608
 2558SOL    HW2 8574   4.107   0.380   5.751
 2559SOL     OW 8575   6.954   4.921   5.013
 2559SOL    HW1 8576   6.890   4.961   5.079
 2559SOL    HW2 8577   7.015   4.992   4.978
 2560SOL     OW 8578   6.149   1.496   0.052
 2560SOL    HW1 8579   6.136   1.577   7.020
 2560SOL    HW2 8580   6.142   1.523   0.148
 2561SOL     OW 8581   3.543   5.311   4.548
 2561SOL    HW1 8582   3.591   5.252   4.483
 2561SOL    HW2 8583   3.528   5.401   4.506
 2562SOL     OW 8584   1.903   4.133   6.874
 2562SOL    HW1 8585   1.905   4.109   6.971
 2562SOL    HW2 8586   1.812   4.112   6.836
 2563SOL     OW 8587   2.164   1.309   0.113
 2563SOL    HW1 8588   2.244   1.250   0.126
 2563SOL    HW2 8589   2.112   1.314   0.198
 2564SOL     OW 8590   1.722   5.657   1.242
 2564SOL    HW1 8591   1.663   5.650   1.322
 2564SOL    HW2 8592   1.798   5.592   1.251
 2565SOL     OW 8593   1.843   0.510   1.362
 2565SOL    HW1 8594   1.920   0.474   1.414
 2565SOL    HW2 8595   1.815   0.598   1.400
 2566SOL     OW 8596   1.299   6.565   6.233
 2566SOL    HW1 8597   1.202   6.589   6.241
 2566SOL    HW2 8598   1.334   6.597   6.145
 2567SOL     OW 8599   1.210   6.058   0.348
 2567SOL    HW1 8600   1.221   6.076   0.250
 2567SOL    HW2 8601   1.296   6.075   0.395
 2568SOL     OW 8602   4.638   3.023   6.991
 2568SOL    HW1 8603   4.591   2.997   0.049
 2568SOL    HW2 8604   4.645   3.122   6.985
 2569SOL     OW 8605   2.482   0.586   2.920
 2569SOL    HW1 8606   2.432   0.637   2.850
 2569SOL    HW2 8607   2.426   0.509   2.951
 2570SOL     OW 8608   5.238   2.262   6.120
 2570SOL    HW1 8609   5.185   2.260   6.204
 2570SOL    HW2 8610   5.285   2.174   6.109
 2571SOL     OW 8611   1.101   4.129   4.614
 2571SOL    HW1 8612   1.169   4.060   4.639
 2571SOL    HW2 8613   1.013   4.106   4.655
 2572SOL     OW 8614   1.811   4.664   3.463
 2572SOL    HW1 8615   1.784   4.634   3.371
 2572SOL    HW2 8616   1.822   4.584   3.522
 2573SOL     OW 8617   1.079   0.277   0.889
 2573SOL    HW1 8618   1.081   0.330   0.803
 2573SOL    HW2 8619   0.994   0.297   0.938
 2574SOL     OW 8620   6.281   3.195   0.190
 2574SOL    HW1 8621   6.315   3.212   0.283
 2574SOL    HW2 8622   6.247   3.281   0.151
 2575SOL     OW 8623   0.553   5.468   6.431
 2575SOL    HW1 8624   0.465   5.434   6.397
 2575SOL    HW2 8625   0.537   5.531   6.507
 2576SOL     OW 8626   4.334   6.265   3.645
 2576SOL    HW1 8627   4.330   6.165   3.654
 2576SOL    HW2 8628   4.287   6.292   3.561
 2577SOL     OW 8629   2.349   4.321   2.368
 2577SOL    HW1 8630   2.286   4.345   2.294
 2577SOL    HW2 8631   2.436   4.367   2.354
 2578SOL     OW 8632   4.281   1.896   3.590
 2578SOL    HW1 8633   4.222   1.819   3.612
 2578SOL    HW2 8634   4.317   1.936   3.674
 2579SOL     OW 8635   0.985   6.825   3.685
 2579SOL    HW1 8636   0.893   6.785   3.687
 2579SOL    HW2 8637   0.988   6.905   3.745
 2580SOL     OW 8638   1.520   2.145   6.707
 2580SOL    HW1 8639   1.549   2.049   6.714
 2580SOL    HW2 8640   1.586   2.195   6.651
 2581SOL     OW 8641   3.441   0.665   5.108
 2581SOL    HW1 8642   3.503   0.744   5.112
 2581SOL    HW2 8643   3.394   0.665   5.020
 2582SOL     OW 8644   7.009   3.191   1.717
 2582SOL    HW1 8645   0.028   3.106   1.744
 2582SOL    HW2 8646   6.956   3.176   1.634
 2583SOL     OW 8647   6.039   0.143   0.744
 2583SOL    HW1 8648   6.027   0.232   0.787
 2583SOL    HW2 8649   6.067   0.155   0.649
 2584SOL     OW 8650   4.528   4.456   6.074
 2584SOL    HW1 8651   4.484   4.395   6.140
 2584SOL    HW2 8652   4.537   4.409   5.986
 2585SOL     OW 8653   3.325   4.770   6.364
 2585SOL    HW1 8654   3.376   4.766   6.278
 2585SOL    HW2 8655   3.250   4.704   6.362
 2586SOL     OW 8656   2.369   0.760   3.834
 2586SOL    HW1 8657   2.465   0.733   3.841
 2586SOL    HW2 8658   2.362   0.842   3.776
 2587SOL     OW 8659   6.856   1.331   3.993
 2587SOL    HW1 8660   6.790   1.280   4.048
 2587SOL    HW2 8661   6.936   1.273   3.975
 2588SOL     OW 8662   4.625   0.782   6.234
 2588SOL    HW1 8663   4.597   0.872   6.201
 2588SOL    HW2 8664   4.717   0.787   6.271
 2589SOL     OW 8665   1.903   6.430   0.105
 2589SOL    HW1 8666   1.875   6.339   0.133
 2589SOL    HW2 8667   1.852   6.457   0.023
 2590SOL     OW 8668   2.628   5.182   0.373
 2590SOL    HW1 8669   2.723   5.203   0.353
 2590SOL    HW2 8670   2.574   5.266   0.371
 2591SOL     OW 8671   6.217   5.700   3.805
 2591SOL    HW1 8672   6.264   5.643   3.738
 2591SOL    HW2 8673   6.218   5.795   3.774
 2592SOL     OW 8674   2.313   3.941   1.176
 2592SOL    HW1 8675   2.219   3.907   1.172
 2592SOL    HW2 8676   2.349   3.951   1.084
 2593SOL     OW 8677   3.477   4.005   0.612
 2593SOL    HW1 8678   3.380   4.026   0.599
 2593SOL    HW2 8679   3.486   3.926   0.673
 2594SOL     OW 8680   1.669   3.567   4.325
 2594SOL    HW1 8681   1.734   3.591   4.253
 2594SOL    HW2 8682   1.675   3.469   4.343
 2595SOL     OW 8683   2.026   1.592   2.565
 2595SOL    HW1 8684   2.098   1.618   2.629
 2595SOL    HW2 8685   2.067   1.565   2.478
 2596SOL     OW 8686   1.189   2.203   6.992
 2596SOL    HW1 8687   1.256   2.251   6.936
 2596SOL    HW2 8688   1.232   2.124   0.009
 2597SOL     OW 8689   6.892   6.127   6.490
 2597SOL    HW1 8690   6.846   6.054   6.539
 2597SOL    HW2 8691   6.835   6.158   6.414
 2598SOL     OW 8692   5.605   2.735   2.603
 2598SOL    HW1 8693   5.640   2.717   2.695
 2598SOL    HW2 8694   5.668   2.695   2.536
 2599SOL     OW 8695   2.856   5.870   1.677
 2599SOL    HW1 8696   2.764   5.842   1.705
 2599SOL    HW2 8697   2.916   5.789   1.673
 2600SOL     OW 8698   6.014   4.113   4.436
 2600SOL    HW1 8699   5.944   4.170   4.479
 2600SOL    HW2 8700   6.041   4.153   4.348
 2601SOL     OW 8701   6.875   1.824   3.885
 2601SOL    HW1 8702   6.962   1.855   3.925
 2601SOL    HW2 8703   6.841   1.746   3.937
 2602SOL     OW 8704   1.305   4.428   3.069
 2602SOL    HW1 8705   1.387   4.404   3.120
 2602SOL    HW2 8706   1.224   4.395   3.117
 2603SOL     OW 8707   2.963   6.507   2.927
 2603SOL    HW1 8708   2.910   6.571   2.983
 2603SOL    HW2 8709   2.961   6.416   2.969
 2604SOL     OW 8710   4.724   2.561   3.638
 2604SOL    HW1 8711   4.743   2.595   3.730
 2604SOL    HW2 8712   4.626   2.544   3.629
 2605SOL     OW 8713   1.928   3.822   1.794
 2605SOL    HW1 8714   1.986   3.886   1.845
 2605SOL    HW2 8715   1.931   3.732   1.837
 2606SOL     OW 8716   4.424   3.512   1.291
 2606SOL    HW1 8717   4.422   3.428   1.236
 2606SOL    HW2 8718   4.520   3.539   1.306
 2607SOL     OW 8719   2.615   2.461   1.526
 2607SOL    HW1 8720   2.662   2.469   1.614
 2607SOL    HW2 8721   2.674   2.413   1.461
 2608SOL     OW 8722   2.747   4.796   5.695
 2608SOL    HW1 8723   2.728   4.893   5.704
 2608SOL    HW2 8724   2.752   4.754   5.785
 2609SOL     OW 8725   0.035   2.428   1.051
 2609SOL    HW1 8726   0.066   2.340   1.085
 2609SOL    HW2 8727   0.066   2.501   1.113
 2610SOL     OW 8728   1.692   4.221   4.909
 2610SOL    HW1 8729   1.686   4.130   4.952
 2610SOL    HW2 8730   1.653   4.217   4.817
 2611SOL     OW 8731   4.856   0.258   6.755
 2611SOL    HW1 8732   4.862   0.163   6.724
 2611SOL    HW2 8733   4.763   0.292   6.740
 2612SOL     OW 8734   6.570   0.142   5.753
 2612SOL    HW1 8735   6.659   0.184   5.770
 2612SOL    HW2 8736   6.497   0.208   5.772
 2613SOL     OW 8737   0.975   6.785   6.819
 2613SOL    HW1 8738   0.881   6.754   6.808
 2613SOL    HW2 8739   1.027   6.767   6.735
 2614SOL     OW 8740   6.280   1.414   6.612
 2614SOL    HW1 8741   6.239   1.495   6.569
 2614SOL    HW2 8742   6.300   1.434   6.708
 2615SOL     OW 8743   0.526   3.025   0.061
 2615SOL    HW1 8744   0.528   2.927   0.042
 2615SOL    HW2 8745   0.613   3.053   0.102
 2616SOL     OW 8746   1.161   1.090   5.442
 2616SOL    HW1 8747   1.071   1.130   5.459
 2616SOL    HW2 8748   1.218   1.156   5.393
 2617SOL     OW 8749   4.865   0.119   1.372
 2617SOL    HW1 8750   4.781   0.067   1.387
 2617SOL    HW2 8751   4.942   0.070   1.411
 2618SOL     OW 8752   0.851   6.452   5.897
 2618SOL    HW1 8753   0.803   6.375   5.856
 2618SOL    HW2 8754   0.950   6.435   5.895
 2619SOL     OW 8755   5.409   1.165   2.719
 2619SOL    HW1 8756   5.350   1.204   2.789
 2619SOL    HW2 8757   5.459   1.087   2.757
 2620SOL     OW 8758   5.715   1.520   1.317
 2620SOL    HW1 8759   5.747   1.506   1.411
 2620SOL    HW2 8760   5.789   1.558   1.262
 2621SOL     OW 8761   1.768   5.989   1.560
 2621SOL    HW1 8762   1.816   5.916   1.609
 2621SOL    HW2 8763   1.736   6.058   1.625
 2622SOL     OW 8764   3.235   3.452   6.608
 2622SOL    HW1 8765   3.151   3.504   6.591
 2622SOL    HW2 8766   3.211   3.361   6.642
 2623SOL     OW 8767   0.278   6.139   3.198
 2623SOL    HW1 8768   0.346   6.144   3.125
 2623SOL    HW2 8769   0.198   6.088   3.165
 2624SOL     OW 8770   0.449   1.676   5.008
 2624SOL    HW1 8771   0.416   1.616   4.936
 2624SOL    HW2 8772   0.528   1.633   5.054
 2625SOL     OW 8773   2.275   4.939   6.450
 2625SOL    HW1 8774   2.252   5.036   6.458
 2625SOL    HW2 8775   2.357   4.929   6.394
 2626SOL     OW 8776   6.841   5.888   6.655
 2626SOL    HW1 8777   6.813   5.799   6.618
 2626SOL    HW2 8778   6.836   5.885   6.755
 2627SOL     OW 8779   1.912   0.042   6.227
 2627SOL    HW1 8780   1.860   0.015   6.308
 2627SOL    HW2 8781   1.914   0.142   6.220
 2628SOL     OW 8782   0.108   4.656   1.558
 2628SOL    HW1 8783   0.077   4.604   1.478
 2628SOL    HW2 8784   0.172   4.601   1.612
 2629SOL     OW 8785   3.366   4.099   2.625
 2629SOL    HW1 8786   3.346   4.196   2.639
 2629SOL    HW2 8787   3.464   4.083   2.629
 2630SOL     OW 8788   3.476   0.917   4.212
 2630SOL    HW1 8789   3.530   0.848   4.164
 2630SOL    HW2 8790   3.429   0.876   4.289
 2631SOL     OW 8791   5.337   0.364   6.963
 2631SOL    HW1 8792   5.252   0.345   6.914
 2631SOL    HW2 8793   5.415   0.335   6.908
 2632SOL     OW 8794   5.922   4.934   2.014
 2632SOL    HW1 8795   6.020   4.941   1.995
 2632SOL    HW2 8796   5.896   4.837   2.016
 2633SOL     OW 8797   0.103   3.016   6.222
 2633SOL    HW1 8798   0.133   3.013   6.317
 2633SOL    HW2 8799   0.167   3.072   6.169
 2634SOL     OW 8800   0.379   0.742   5.864
 2634SOL    HW1 8801   0.348   0.730   5.959
 2634SOL    HW2 8802   0.479   0.738   5.861
 2635SOL     OW 8803   4.564   5.586   3.452
 2635SOL    HW1 8804   4.474   5.549   3.474
 2635SOL    HW2 8805   4.568   5.683   3.478
 2636SOL     OW 8806   3.669   6.067   5.792
 2636SOL    HW1 8807   3.684   6.145   5.854
 2636SOL    HW2 8808   3.601   6.092   5.724
 2637SOL     OW 8809   0.922   0.938   3.255
 2637SOL    HW1 8810   0.971   0.919   3.340
 2637SOL    HW2 8811   0.882   1.030   3.259
 2638SOL     OW 8812   0.816   6.185   4.471
 2638SOL    HW1 8813   0.900   6.233   4.447
 2638SOL    HW2 8814   0.772   6.151   4.388
 2639SOL     OW 8815   4.214   4.820   4.953
 2639SOL    HW1 8816   4.215   4.720   4.962
 2639SOL    HW2 8817   4.259   4.847   4.868
 2640SOL     OW 8818   2.108   0.614   3.566
 2640SOL    HW1 8819   2.064   0.701   3.548
 2640SOL    HW2 8820   2.042   0.540   3.559
 2641SOL     OW 8821   6.121   2.219   6.751
 2641SOL    HW1 8822   6.044   2.275   6.722
 2641SOL    HW2 8823   6.207   2.265   6.729
 2642SOL     OW 8824   6.183   0.432   3.591
 2642SOL    HW1 8825   6.136   0.454   3.676
 2642SOL    HW2 8826   6.139   0.480   3.515
 2643SOL     OW 8827   2.256   4.584   3.915
 2643SOL    HW1 8828   2.216   4.575   4.006
 2643SOL    HW2 8829   2.237   4.675   3.879
 2644SOL     OW 8830   5.345   5.425   4.711
 2644SOL    HW1 8831   5.264   5.366   4.708
 2644SOL    HW2 8832   5.358   5.469   4.623
 2645SOL     OW 8833   4.797   6.067   3.312
 2645SOL    HW1 8834   4.816   5.985   3.366
 2645SOL    HW2 8835   4.854   6.067   3.230
 2646SOL     OW 8836   1.209   2.681   6.524
 2646SOL    HW1 8837   1.188   2.770   6.484
 2646SOL    HW2 8838   1.171   2.608   6.467
 2647SOL     OW 8839   4.840   0.303   2.696
 2647SOL    HW1 8840   4.752   0.317   2.650
 2647SOL    HW2 8841   4.876   0.213   2.670
 2648SOL     OW 8842   0.700   6.577   6.541
 2648SOL    HW1 8843   0.723   6.480   6.540
 2648SOL    HW2 8844   0.694   6.609   6.636
 2649SOL     OW 8845   5.235   1.400   3.258
 2649SOL    HW1 8846   5.193   1.328   3.314
 2649SOL    HW2 8847   5.285   1.463   3.318
 2650SOL     OW 8848   3.168   6.560   4.133
 2650SOL    HW1 8849   3.232   6.483   4.133
 2650SOL    HW2 8850   3.194   6.624   4.206
 2651SOL     OW 8851   4.497   2.478   4.207
 2651SOL    HW1 8852   4.530   2.542   4.276
 2651SOL    HW2 8853   4.416   2.430   4.242
 2652SOL     OW 8854   4.895   4.265   5.142
 2652SOL    HW1 8855   4.949   4.221   5.213
 2652SOL    HW2 8856   4.861   4.353   5.175
 2653SOL     OW 8857   2.080   6.101   6.783
 2653SOL    HW1 8858   2.174   6.068   6.793
 2653SOL    HW2 8859   2.067   6.138   6.691
 2654SOL     OW 8860   6.967   1.011   0.357
 2654SOL    HW1 8861   6.951   0.995   0.454
 2654SOL    HW2 8862   6.892   1.065   0.320
 2655SOL     OW 8863   5.585   6.501   2.976
 2655SOL    HW1 8864   5.591   6.521   2.878
 2655SOL    HW2 8865   5.632   6.572   3.028
 2656SOL     OW 8866   4.408   6.322   3.062
 2656SOL    HW1 8867   4.437   6.331   2.967
 2656SOL    HW2 8868   4.485   6.339   3.123
 2657SOL     OW 8869   0.684   3.362   7.011
 2657SOL    HW1 8870   0.739   3.439   0.018
 2657SOL    HW2 8871   0.594   3.394   6.983
 2658SOL     OW 8872   3.862   5.106   0.875
 2658SOL    HW1 8873   3.843   5.204   0.869
 2658SOL    HW2 8874   3.836   5.062   0.788
 2659SOL     OW 8875   6.815   2.352   5.203
 2659SOL    HW1 8876   6.890   2.348   5.137
 2659SOL    HW2 8877   6.730   2.378   5.157
 2660SOL     OW 8878   0.300   1.671   1.853
 2660SOL    HW1 8879   0.236   1.599   1.880
 2660SOL    HW2 8880   0.334   1.717   1.935
 2661SOL     OW 8881   1.559   1.083   0.995
 2661SOL    HW1 8882   1.631   1.014   1.002
 2661SOL    HW2 8883   1.558   1.139   1.078
 2662SOL     OW 8884   2.748   1.717   2.317
 2662SOL    HW1 8885   2.756   1.739   2.414
 2662SOL    HW2 8886   2.712   1.624   2.306
 2663SOL     OW 8887   3.865   6.931   0.144
 2663SOL    HW1 8888   3.776   6.887   0.132
 2663SOL    HW2 8889   3.938   6.863   0.143
 2664SOL     OW 8890   4.935   3.540   5.440
 2664SOL    HW1 8891   4.905   3.635   5.445
 2664SOL    HW2 8892   5.035   3.536   5.435
 2665SOL     OW 8893   1.848   3.095   4.125
 2665SOL    HW1 8894   1.869   3.011   4.175
 2665SOL    HW2 8895   1.886   3.173   4.175
 2666SOL     OW 8896   1.826   4.048   1.667
 2666SOL    HW1 8897   1.763   4.099   1.725
 2666SOL    HW2 8898   1.863   3.971   1.719
 2667SOL     OW 8899   6.829   2.679   5.253
 2667SOL    HW1 8900   6.872   2.592   5.230
 2667SOL    HW2 8901   6.862   2.711   5.342
 2668SOL     OW 8902   6.261   0.683   3.264
 2668SOL    HW1 8903   6.345   0.699   3.317
 2668SOL    HW2 8904   6.240   0.764   3.210
 2669SOL     OW 8905   2.404   0.408   0.252
 2669SOL    HW1 8906   2.390   0.432   0.348
 2669SOL    HW2 8907   2.385   0.311   0.238
 2670SOL     OW 8908   0.465   0.082   6.399
 2670SOL    HW1 8909   0.539   0.144   6.424
 2670SOL    HW2 8910   0.400   0.129   6.339
 2671SOL     OW 8911   5.226   4.384   6.423
 2671SOL    HW1 8912   5.263   4.433   6.344
 2671SOL    HW2 8913   5.189   4.449   6.489
 2672SOL     OW 8914   3.496   1.005   1.994
 2672SOL    HW1 8915   3.490   1.071   2.069
 2672SOL    HW2 8916   3.587   1.010   1.953
 2673SOL     OW 8917   3.851   0.719   2.702
 2673SOL    HW1 8918   3.849   0.664   2.619
 2673SOL    HW2 8919   3.887   0.810   2.680
 2674SOL     OW 8920   0.197   5.800   2.873
 2674SOL    HW1 8921   0.274   5.861   2.892
 2674SOL    HW2 8922   0.231   5.719   2.824
 2675SOL     OW 8923   4.593   1.094   4.243
 2675SOL    HW1 8924   4.555   1.187   4.244
 2675SOL    HW2 8925   4.603   1.062   4.337
 2676SOL     OW 8926   3.325   4.136   3.959
 2676SOL    HW1 8927   3.366   4.139   4.050
 2676SOL    HW2 8928   3.274   4.050   3.949
 2677SOL     OW 8929   1.990   5.994   1.239
 2677SOL    HW1 8930   2.019   5.915   1.293
 2677SOL    HW2 8931   1.893   6.013   1.256
 2678SOL     OW 8932   3.850   1.742   2.868
 2678SOL    HW1 8933   3.806   1.693   2.943
 2678SOL    HW2 8934   3.796   1.729   2.784
 2679SOL     OW 8935   2.127   3.006   2.316
 2679SOL    HW1 8936   2.159   2.932   2.375
 2679SOL    HW2 8937   2.132   3.093   2.365
 2680SOL     OW 8938   5.805   2.286   0.146
 2680SOL    HW1 8939   5.795   2.192   0.178
 2680SOL    HW2 8940   5.730   2.308   0.084
 2681SOL     OW 8941   2.098   2.582   3.436
 2681SOL    HW1 8942   2.070   2.658   3.494
 2681SOL    HW2 8943   2.187   2.549   3.466
 2682SOL     OW 8944   3.808   4.218   1.415
 2682SOL    HW1 8945   3.865   4.150   1.462
 2682SOL    HW2 8946   3.711   4.196   1.430
 2683SOL     OW 8947   2.117   4.014   1.890
 2683SOL    HW1 8948   2.165   4.016   1.802
 2683SOL    HW2 8949   2.184   4.014   1.964
 2684SOL     OW 8950   6.778   0.213   4.188
 2684SOL    HW1 8951   6.835   0.192   4.108
 2684SOL    HW2 8952   6.700   0.268   4.159
 2685SOL     OW 8953   0.791   5.902   5.170
 2685SOL    HW1 8954   0.747   5.812   5.179
 2685SOL    HW2 8955   0.720   5.972   5.161
 2686SOL     OW 8956   1.534   1.082   5.509
 2686SOL    HW1 8957   1.458   1.034   5.553
 2686SOL    HW2 8958   1.505   1.176   5.487
 2687SOL     OW 8959   4.182   2.174   1.680
 2687SOL    HW1 8960   4.157   2.111   1.753
 2687SOL    HW2 8961   4.099   2.215   1.642
 2688SOL     OW 8962   3.702   2.540   6.763
 2688SOL    HW1 8963   3.798   2.562   6.747
 2688SOL    HW2 8964   3.657   2.617   6.807
 2689SOL     OW 8965   0.801   3.907   3.409
 2689SOL    HW1 8966   0.750   3.901   3.494
 2689SOL    HW2 8967   0.841   3.817   3.388
 2690SOL     OW 8968   4.653   0.867   5.779
 2690SOL    HW1 8969   4.573   0.883   5.838
 2690SOL    HW2 8970   4.623   0.829   5.692
 2691SOL     OW 8971   0.228   3.950   5.412
 2691SOL    HW1 8972   0.287   3.992   5.344
 2691SOL    HW2 8973   0.135   3.986   5.404
 2692SOL     OW 8974   2.466   5.859   2.224
 2692SOL    HW1 8975   2.408   5.926   2.177
 2692SOL    HW2 8976   2.414   5.775   2.237
 2693SOL     OW 8977   1.207   6.405   3.598
 2693SOL    HW1 8978   1.132   6.389   3.534
 2693SOL    HW2 8979   1.294   6.402   3.549
 2694SOL     OW 8980   2.610   0.232   2.562
 2694SOL    HW1 8981   2.670   0.212   2.485
 2694SOL    HW2 8982   2.552   0.310   2.539
 2695SOL     OW 8983   0.265   5.186   3.618
 2695SOL    HW1 8984   0.309   5.135   3.692
 2695SOL    HW2 8985   0.168   5.197   3.638
 2696SOL     OW 8986   4.702   5.087   6.619
 2696SOL    HW1 8987   4.698   5.185   6.642
 2696SOL    HW2 8988   4.618   5.043   6.648
 2697SOL     OW 8989   4.280   1.864   0.147
 2697SOL    HW1 8990   4.267   1.949   0.198
 2697SOL    HW2 8991   4.331   1.799   0.203
 2698SOL     OW 8992   1.783   5.765   5.963
 2698SOL    HW1 8993   1.731   5.810   6.036
 2698SOL    HW2 8994   1.737   5.781   5.875
 2699SOL     OW 8995   2.713   6.378   2.283
 2699SOL    HW1 8996   2.684   6.282   2.282
 2699SOL    HW2 8997   2.645   6.432   2.334
 2700SOL     OW 8998   4.351   1.812   1.307
 2700SOL    HW1 8999   4.304   1.867   1.237
 2700SOL    HW2 9000   4.446   1.844   1.316
 2701SOL     OW 9001   4.890   3.337   4.382
 2701SOL    HW1 9002   4.971   3.291   4.344
 2701SOL    HW2 9003   4.866   3.415   4.325
 2702SOL     OW 9004   2.545   1.368   5.035
 2702SOL    HW1 9005   2.521   1.464   5.052
 2702SOL    HW2 9006   2.479   1.328   4.972
 2703SOL     OW 9007   2.559   6.508   2.491
 2703SOL    HW1 9008   2.581   6.496   2.587
 2703SOL    HW2 9009   2.461   6.491   2.476
 2704SOL     OW 9010   4.999   0.832   3.659
 2704SOL    HW1 9011   5.014   0.824   3.560
 2704SOL    HW2 9012   5.030   0.921   3.690
 2705SOL     OW 9013   0.362   0.263   5.548
 2705SOL    HW1 9014   0.303   0.182   5.551
 2705SOL    HW2 9015   0.432   0.256   5.619
 2706SOL     OW 9016   6.515   3.956   3.486
 2706SOL    HW1 9017   6.452   4.009   3.428
 2706SOL    HW2 9018   6.556   3.883   3.432
 2707SOL     OW 9019   4.282   0.881   3.660
 2707SOL    HW1 9020   4.260   0.914   3.751
 2707SOL    HW2 9021   4.283   0.781   3.660
 2708SOL     OW 9022   5.454   3.821   5.870
 2708SOL    HW1 9023   5.483   3.845   5.962
 2708SOL    HW2 9024   5.388   3.888   5.837
 2709SOL     OW 9025   4.643   1.156   5.608
 2709SOL    HW1 9026   4.680   1.079   5.660
 2709SOL    HW2 9027   4.620   1.125   5.516
 2710SOL     OW 9028   0.713   3.100   4.416
 2710SOL    HW1 9029   0.757   3.066   4.332
 2710SOL    HW2 9030   0.783   3.118   4.484
 2711SOL     OW 9031   4.398   1.000   1.986
 2711SOL    HW1 9032   4.317   0.998   1.928
 2711SOL    HW2 9033   4.429   1.095   1.996
 2712SOL     OW 9034   4.705   6.337   2.220
 2712SOL    HW1 9035   4.696   6.341   2.320
 2712SOL    HW2 9036   4.644   6.404   2.178
 2713SOL     OW 9037   3.757   5.086   5.057
 2713SOL    HW1 9038   3.738   5.026   5.135
 2713SOL    HW2 9039   3.847   5.065   5.019
 2714SOL     OW 9040   3.166   4.515   6.288
 2714SOL    HW1 9041   3.191   4.450   6.360
 2714SOL    HW2 9042   3.141   4.464   6.206
 2715SOL     OW 9043   4.073   0.085   6.158
 2715SOL    HW1 9044   4.057   0.136   6.243
 2715SOL    HW2 9045   4.009   0.117   6.088
 2716SOL     OW 9046   4.138   1.113   2.798
 2716SOL    HW1 9047   4.226   1.145   2.832
 2716SOL    HW2 9048   4.088   1.068   2.871
 2717SOL     OW 9049   1.149   1.964   1.731
 2717SOL    HW1 9050   1.144   2.063   1.725
 2717SOL    HW2 9051   1.191   1.927   1.648
 2718SOL     OW 9052   6.708   1.605   5.516
 2718SOL    HW1 9053   6.687   1.518   5.471
 2718SOL    HW2 9054   6.806   1.607   5.539
 2719SOL     OW 9055   1.544   5.265   3.585
 2719SOL    HW1 9056   1.560   5.173   3.622
 2719SOL    HW2 9057   1.465   5.264   3.524
 2720SOL     OW 9058   1.449   6.205   6.144
 2720SOL    HW1 9059   1.387   6.239   6.215
 2720SOL    HW2 9060   1.434   6.255   6.059
 2721SOL     OW 9061   2.877   6.723   1.791
 2721SOL    HW1 9062   2.907   6.667   1.714
 2721SOL    HW2 9063   2.935   6.702   1.871
 2722SOL     OW 9064   3.562   5.368   6.397
 2722SOL    HW1 9065   3.658   5.394   6.410
 2722SOL    HW2 9066   3.543   5.355   6.300
 2723SOL     OW 9067   3.606   6.004   6.546
 2723SOL    HW1 9068   3.672   5.946   6.594
 2723SOL    HW2 9069   3.549   6.052   6.612
 2724SOL     OW 9070   0.288   5.945   0.856
 2724SOL    HW1 9071   0.290   6.036   0.896
 2724SOL    HW2 9072   0.211   5.939   0.792
 2725SOL     OW 9073   5.840   4.480   4.036
 2725SOL    HW1 9074   5.765   4.414   4.037
 2725SOL    HW2 9075   5.919   4.440   3.989
 2726SOL     OW 9076   6.539   1.882   2.271
 2726SOL    HW1 9077   6.501   1.928   2.351
 2726SOL    HW2 9078   6.480   1.805   2.245
 2727SOL     OW 9079   1.746   5.643   3.715
 2727SOL    HW1 9080   1.653   5.680   3.710
 2727SOL    HW2 9081   1.769   5.626   3.811
 2728SOL     OW 9082   4.607   5.378   6.202
 2728SOL    HW1 9083   4.535   5.310   6.187
 2728SOL    HW2 9084   4.577   5.467   6.170
 2729SOL     OW 9085   5.812   0.504   6.508
 2729SOL    HW1 9086   5.766   0.447   6.575
 2729SOL    HW2 9087   5.761   0.589   6.494
 2730SOL     OW 9088   1.326   6.200   2.977
 2730SOL    HW1 9089   1.308   6.106   3.004
 2730SOL    HW2 9090   1.276   6.221   2.893
 2731SOL     OW 9091   3.227   4.094   4.501
 2731SOL    HW1 9092   3.266   4.002   4.512
 2731SOL    HW2 9093   3.212   4.135   4.591
 2732SOL     OW 9094   5.355   0.303   1.767
 2732SOL    HW1 9095   5.444   0.311   1.811
 2732SOL    HW2 9096   5.351   0.218   1.714
 2733SOL     OW 9097   0.831   6.001   0.036
 2733SOL    HW1 9098   0.902   5.931   0.027
 2733SOL    HW2 9099   0.742   5.957   0.050
 2734SOL     OW 9100   3.652   6.079   2.507
 2734SOL    HW1 9101   3.620   6.165   2.468
 2734SOL    HW2 9102   3.655   6.086   2.606
 2735SOL     OW 9103   0.759   1.539   1.544
 2735SOL    HW1 9104   0.694   1.547   1.469
 2735SOL    HW2 9105   0.718   1.487   1.619
 2736SOL     OW 9106   5.651   4.414   3.245
 2736SOL    HW1 9107   5.642   4.437   3.342
 2736SOL    HW2 9108   5.586   4.468   3.192
 2737SOL     OW 9109   3.100   0.632   5.275
 2737SOL    HW1 9110   3.179   0.667   5.325
 2737SOL    HW2 9111   3.055   0.707   5.226
 2738SOL     OW 9112   4.778   5.674   1.416
 2738SOL    HW1 9113   4.711   5.747   1.403
 2738SOL    HW2 9114   4.737   5.601   1.471
 2739SOL     OW 9115   6.972   5.100   1.438
 2739SOL    HW1 9116   7.005   5.035   1.507
 2739SOL    HW2 9117   6.997   5.067   1.347
 2740SOL     OW 9118   0.685   5.463   3.172
 2740SOL    HW1 9119   0.676   5.470   3.271
 2740SOL    HW2 9120   0.779   5.438   3.148
 2741SOL     OW 9121   0.717   0.112   5.494
 2741SOL    HW1 9122   0.686   0.205   5.516
 2741SOL    HW2 9123   0.777   0.114   5.414
 2742SOL     OW 9124   3.494   5.530   1.939
 2742SOL    HW1 9125   3.471   5.606   1.879
 2742SOL    HW2 9126   3.592   5.510   1.931
 2743SOL     OW 9127   5.475   1.512   2.140
 2743SOL    HW1 9128   5.475   1.611   2.131
 2743SOL    HW2 9129   5.491   1.486   2.235
 2744SOL     OW 9130   3.628   4.013   2.676
 2744SOL    HW1 9131   3.663   3.980   2.588
 2744SOL    HW2 9132   3.599   3.936   2.732
 2745SOL     OW 9133   0.626   5.994   0.408
 2745SOL    HW1 9134   0.633   5.897   0.432
 2745SOL    HW2 9135   0.571   6.042   0.476
 2746SOL     OW 9136   1.701   1.388   3.309
 2746SOL    HW1 9137   1.774   1.415   3.245
 2746SOL    HW2 9138   1.630   1.338   3.259
 2747SOL     OW 9139   3.863   4.713   0.765
 2747SOL    HW1 9140   3.920   4.709   0.847
 2747SOL    HW2 9141   3.900   4.651   0.696
 2748SOL     OW 9142   4.180   0.159   0.451
 2748SOL    HW1 9143   4.167   0.192   0.357
 2748SOL    HW2 9144   4.178   0.236   0.514
 2749SOL     OW 9145   3.208   1.560   0.749
 2749SOL    HW1 9146   3.151   1.532   0.672
 2749SOL    HW2 9147   3.300   1.579   0.717
 2750SOL     OW 9148   3.412   5.473   2.193
 2750SOL    HW1 9149   3.367   5.556   2.226
 2750SOL    HW2 9150   3.425   5.479   2.094
 2751SOL     OW 9151   5.980   5.217   1.035
 2751SOL    HW1 9152   6.022   5.154   0.971
 2751SOL    HW2 9153   5.962   5.305   0.990
 2752SOL     OW 9154   4.121   5.699   6.790
 2752SOL    HW1 9155   4.138   5.790   6.753
 2752SOL    HW2 9156   4.066   5.647   6.724
 2753SOL     OW 9157   5.494   5.735   5.133
 2753SOL    HW1 9158   5.522   5.830   5.118
 2753SOL    HW2 9159   5.559   5.690   5.194
 2754SOL     OW 9160   1.591   6.863   5.742
 2754SOL    HW1 9161   1.650   6.842   5.819
 2754SOL    HW2 9162   1.578   6.962   5.735
 2755SOL     OW 9163   3.881   0.792   2.084
 2755SOL    HW1 9164   3.896   0.799   2.183
 2755SOL    HW2 9165   3.865   0.883   2.047
 2756SOL     OW 9166   4.728   5.947   6.914
 2756SOL    HW1 9167   4.684   6.011   6.851
 2756SOL    HW2 9168   4.786   5.996   6.978
 2757SOL     OW 9169   0.227   4.734   1.011
 2757SOL    HW1 9170   0.201   4.642   1.041
 2757SOL    HW2 9171   0.297   4.770   1.072
 2758SOL     OW 9172   3.932   0.880   5.681
 2758SOL    HW1 9173   3.970   0.855   5.592
 2758SOL    HW2 9174   3.985   0.956   5.719
 2759SOL     OW 9175   4.935   5.558   4.717
 2759SOL    HW1 9176   5.016   5.571   4.661
 2759SOL    HW2 9177   4.856   5.602   4.673
 2760SOL     OW 9178   1.976   6.598   3.798
 2760SOL    HW1 9179   1.938   6.670   3.741
 2760SOL    HW2 9180   1.913   6.520   3.800
 2761SOL     OW 9181   2.177   5.109   3.825
 2761SOL    HW1 9182   2.084   5.118   3.788
 2761SOL    HW2 9183   2.197   5.189   3.882
 2762SOL     OW 9184   1.263   0.453   5.031
 2762SOL    HW1 9185   1.212   0.538   5.020
 2762SOL    HW2 9186   1.252   0.397   4.948
 2763SOL     OW 9187   5.415   1.768   2.525
 2763SOL    HW1 9188   5.426   1.824   2.607
 2763SOL    HW2 9189   5.367   1.684   2.548
 2764SOL     OW 9190   6.449   0.582   2.060
 2764SOL    HW1 9191   6.439   0.573   2.159
 2764SOL    HW2 9192   6.419   0.498   2.016
 2765SOL     OW 9193   5.761   2.258   2.372
 2765SOL    HW1 9194   5.740   2.294   2.463
 2765SOL    HW2 9195   5.749   2.330   2.304
 2766SOL     OW 9196   6.065   0.485   2.562
 2766SOL    HW1 9197   6.040   0.471   2.658
 2766SOL    HW2 9198   6.056   0.399   2.512
 2767SOL     OW 9199   6.237   4.571   5.870
 2767SOL    HW1 9200   6.279   4.568   5.779
 2767SOL    HW2 9201   6.222   4.478   5.902
 2768SOL     OW 9202   5.865   1.415   6.444
 2768SOL    HW1 9203   5.901   1.507   6.430
 2768SOL    HW2 9204   5.888   1.384   6.536
 2769SOL     OW 9205   1.189   4.471   1.168
 2769SOL    HW1 9206   1.131   4.444   1.245
 2769SOL    HW2 9207   1.143   4.448   1.082
 2770SOL     OW 9208   6.379   5.996   1.637
 2770SOL    HW1 9209   6.342   5.960   1.723
 2770SOL    HW2 9210   6.350   6.091   1.625
 2771SOL     OW 9211   5.049   1.171   1.276
 2771SOL    HW1 9212   4.970   1.114   1.301
 2771SOL    HW2 9213   5.070   1.233   1.352
 2772SOL     OW 9214   3.728   2.788   6.522
 2772SOL    HW1 9215   3.636   2.770   6.558
 2772SOL    HW2 9216   3.740   2.886   6.511
 2773SOL     OW 9217   3.518   4.571   0.617
 2773SOL    HW1 9218   3.571   4.505   0.670
 2773SOL    HW2 9219   3.426   4.535   0.601
 2774SOL     OW 9220   5.554   3.256   2.534
 2774SOL    HW1 9221   5.485   3.227   2.469
 2774SOL    HW2 9222   5.625   3.308   2.486
 2775SOL     OW 9223   6.693   6.966   2.454
 2775SOL    HW1 9224   6.673   6.934   2.362
 2775SOL    HW2 9225   6.792   6.964   2.470
 2776SOL     OW 9226   3.532   5.734   5.867
 2776SOL    HW1 9227   3.482   5.806   5.819
 2776SOL    HW2 9228   3.498   5.644   5.838
 2777SOL     OW 9229   2.677   1.215   3.574
 2777SOL    HW1 9230   2.667   1.121   3.541
 2777SOL    HW2 9231   2.702   1.275   3.497
 2778SOL     OW 9232   2.228   1.785   4.710
 2778SOL    HW1 9233   2.260   1.878   4.693
 2778SOL    HW2 9234   2.255   1.757   4.803
 2779SOL     OW 9235   5.787   1.078   0.750
 2779SOL    HW1 9236   5.715   1.144   0.728
 2779SOL    HW2 9237   5.848   1.069   0.672
 2780SOL     OW 9238   4.700   5.899   0.255
 2780SOL    HW1 9239   4.738   5.816   0.214
 2780SOL    HW2 9240   4.757   5.977   0.229
 2781SOL     OW 9241   4.960   4.578   0.343
 2781SOL    HW1 9242   4.924   4.487   0.361
 2781SOL    HW2 9243   5.019   4.606   0.419
 2782SOL     OW 9244   2.619   1.612   6.148
 2782SOL    HW1 9245   2.699   1.577   6.196
 2782SOL    HW2 9246   2.609   1.710   6.167
 2783SOL     OW 9247   0.321   4.577   6.367
 2783SOL    HW1 9248   0.384   4.499   6.367
 2783SOL    HW2 9249   0.373   4.662   6.376
 2784SOL     OW 9250   2.405   2.217   2.168
 2784SOL    HW1 9251   2.362   2.181   2.085
 2784SOL    HW2 9252   2.498   2.182   2.174
 2785SOL     OW 9253   6.250   1.051   1.304
 2785SOL    HW1 9254   6.164   1.012   1.272
 2785SOL    HW2 9255   6.237   1.146   1.331
 2786SOL     OW 9256   3.188   7.025   0.148
 2786SOL    HW1 9257   3.154   0.024   0.239
 2786SOL    HW2 9258   3.120   0.022   0.079
 2787SOL     OW 9259   2.126   2.856   5.441
 2787SOL    HW1 9260   2.223   2.831   5.437
 2787SOL    HW2 9261   2.093   2.843   5.535
 2788SOL     OW 9262   0.896   3.510   0.085
 2788SOL    HW1 9263   0.911   3.605   0.058
 2788SOL    HW2 9264   0.984   3.462   0.085
 2789SOL     OW 9265   6.936   2.345   4.431
 2789SOL    HW1 9266   7.019   2.320   4.382
 2789SOL    HW2 9267   6.916   2.442   4.417
 2790SOL     OW 9268   3.924   5.970   3.549
 2790SOL    HW1 9269   3.899   5.972   3.452
 2790SOL    HW2 9270   3.859   5.912   3.599
 2791SOL     OW 9271   2.198   2.795   2.465
 2791SOL    HW1 9272   2.222   2.715   2.411
 2791SOL    HW2 9273   2.220   2.779   2.561
 2792SOL     OW 9274   1.115   2.573   4.961
 2792SOL    HW1 9275   1.194   2.545   4.906
 2792SOL    HW2 9276   1.039   2.511   4.944
 2793SOL     OW 9277   5.529   0.712   3.970
 2793SOL    HW1 9278   5.626   0.703   3.993
 2793SOL    HW2 9279   5.517   0.792   3.910
 2794SOL     OW 9280   0.684   0.850   1.150
 2794SOL    HW1 9281   0.688   0.838   1.051
 2794SOL    HW2 9282   0.756   0.796   1.192
 2795SOL     OW 9283   1.690   4.255   1.796
 2795SOL    HW1 9284   1.690   4.341   1.744
 2795SOL    HW2 9285   1.609   4.253   1.855
 2796SOL     OW 9286   5.238   4.438   2.278
 2796SOL    HW1 9287   5.294   4.360   2.251
 2796SOL    HW2 9288   5.156   4.442   2.220
 2797SOL     OW 9289   4.458   4.566   4.780
 2797SOL    HW1 9290   4.436   4.658   4.749
 2797SOL    HW2 9291   4.401   4.543   4.859
 2798SOL     OW 9292   1.531   3.406   3.946
 2798SOL    HW1 9293   1.560   3.468   3.874
 2798SOL    HW2 9294   1.475   3.456   4.012
 2799SOL     OW 9295   6.314   5.551   5.697
 2799SOL    HW1 9296   6.240   5.565   5.762
 2799SOL    HW2 9297   6.294   5.470   5.641
 2800SOL     OW 9298   2.823   2.470   6.972
 2800SOL    HW1 9299   2.818   2.502   6.877
 2800SOL    HW2 9300   2.766   2.389   6.983
 2801SOL     OW 9301   4.479   5.558   2.642
 2801SOL    HW1 9302   4.379   5.554   2.638
 2801SOL    HW2 9303   4.511   5.521   2.730
 2802SOL     OW 9304   5.690   0.673   6.063
 2802SOL    HW1 9305   5.592   0.690   6.056
 2802SOL    HW2 9306   5.725   0.713   6.148
 2803SOL     OW 9307   2.143   5.940   5.820
 2803SOL    HW1 9308   2.240   5.965   5.819
 2803SOL    HW2 9309   2.088   6.018   5.849
 2804SOL     OW 9310   0.137   4.756   2.545
 2804SOL    HW1 9311   0.115   4.718   2.455
 2804SOL    HW2 9312   0.115   4.854   2.546
 2805SOL     OW 9313   5.112   3.872   6.070
 2805SOL    HW1 9314   5.026   3.843   6.028
 2805SOL    HW2 9315   5.175   3.901   5.998
 2806SOL     OW 9316   6.895   5.843   2.821
 2806SOL    HW1 9317   6.930   5.759   2.781
 2806SOL    HW2 9318   6.808   5.825   2.866
 2807SOL     OW 9319   3.976   4.888   4.089
 2807SOL    HW1 9320   3.897   4.865   4.145
 2807SOL    HW2 9321   3.963   4.853   3.996
 2808SOL     OW 9322   4.802   6.237   3.597
 2808SOL    HW1 9323   4.804   6.139   3.582
 2808SOL    HW2 9324   4.707   6.266   3.614
 2809SOL     OW 9325   5.347   3.295   1.090
 2809SOL    HW1 9326   5.374   3.356   1.015
 2809SOL    HW2 9327   5.339   3.202   1.055
 2810SOL     OW 9328   1.430   0.287   5.492
 2810SOL    HW1 9329   1.386   0.198   5.507
 2810SOL    HW2 9330   1.392   0.354   5.556
 2811SOL     OW 9331   0.194   1.079   4.413
 2811SOL    HW1 9332   0.231   1.170   4.394
 2811SOL    HW2 9333   0.268   1.018   4.441
 2812SOL     OW 9334   5.453   3.723   2.173
 2812SOL    HW1 9335   5.479   3.637   2.127
 2812SOL    HW2 9336   5.440   3.706   2.271
 2813SOL     OW 9337   5.920   1.697   6.433
 2813SOL    HW1 9338   5.929   1.791   6.399
 2813SOL    HW2 9339   5.899   1.700   6.531
 2814SOL     OW 9340   5.226   4.422   5.157
 2814SOL    HW1 9341   5.251   4.358   5.229
 2814SOL    HW2 9342   5.192   4.507   5.197
 2815SOL     OW 9343   0.087   1.585   5.330
 2815SOL    HW1 9344   0.154   1.524   5.373
 2815SOL    HW2 9345   0.128   1.628   5.250
 2816SOL     OW 9346   5.802   6.271   3.274
 2816SOL    HW1 9347   5.838   6.356   3.235
 2816SOL    HW2 9348   5.827   6.194   3.216
 2817SOL     OW 9349   1.158   2.031   0.976
 2817SOL    HW1 9350   1.241   1.979   0.997
 2817SOL    HW2 9351   1.141   2.029   0.878
 2818SOL     OW 9352   0.491   4.052   5.735
 2818SOL    HW1 9353   0.531   4.029   5.824
 2818SOL    HW2 9354   0.419   3.987   5.713
 2819SOL     OW 9355   5.923   2.799   0.594
 2819SOL    HW1 9356   5.907   2.863   0.520
 2819SOL    HW2 9357   6.021   2.795   0.615
 2820SOL     OW 9358   6.173   2.505   4.347
 2820SOL    HW1 9359   6.226   2.584   4.316
 2820SOL    HW2 9360   6.211   2.470   4.432
 2821SOL     OW 9361   1.424   3.006   3.913
 2821SOL    HW1 9362   1.475   3.065   3.975
 2821SOL    HW2 9363   1.479   2.925   3.891
 2822SOL     OW 9364   3.261   1.676   0.388
 2822SOL    HW1 9365   3.202   1.639   0.316
 2822SOL    HW2 9366   3.256   1.776   0.387
 2823SOL     OW 9367   1.913   6.760   3.252
 2823SOL    HW1 9368   2.011   6.739   3.245
 2823SOL    HW2 9369   1.891   6.838   3.194
 2824SOL     OW 9370   2.986   1.696   4.725
 2824SOL    HW1 9371   3.073   1.743   4.738
 2824SOL    HW2 9372   2.973   1.628   4.797
 2825SOL     OW 9373   6.420   6.349   1.044
 2825SOL    HW1 9374   6.408   6.251   1.060
 2825SOL    HW2 9375   6.436   6.365   0.947
 2826SOL     OW 9376   4.554   2.579   4.448
 2826SOL    HW1 9377   4.490   2.553   4.520
 2826SOL    HW2 9378   4.588   2.671   4.465
 2827SOL     OW 9379   5.506   0.928   6.279
 2827SOL    HW1 9380   5.531   1.024   6.290
 2827SOL    HW2 9381   5.463   0.915   6.190
 2828SOL     OW 9382   2.899   2.216   6.172
 2828SOL    HW1 9383   2.942   2.288   6.226
 2828SOL    HW2 9384   2.832   2.167   6.228
 2829SOL     OW 9385   1.428   6.877   6.520
 2829SOL    HW1 9386   1.521   6.891   6.485
 2829SOL    HW2 9387   1.406   6.780   6.514
 2830SOL     OW 9388   3.548   3.307   6.661
 2830SOL    HW1 9389   3.568   3.218   6.702
 2830SOL    HW2 9390   3.527   3.295   6.563
 2831SOL     OW 9391   5.978   5.643   3.932
 2831SOL    HW1 9392   6.055   5.667   3.872
 2831SOL    HW2 9393   6.013   5.600   4.015
 2832SOL     OW 9394   0.056   0.651   1.909
 2832SOL    HW1 9395   0.109   0.735   1.917
 2832SOL    HW2 9396   0.102   0.587   1.847
 2833SOL     OW 9397   5.965   2.913   2.228
 2833SOL    HW1 9398   5.866   2.924   2.230
 2833SOL    HW2 9399   6.002   2.934   2.319
 2834SOL     OW 9400   3.576   0.783   6.021
 2834SOL    HW1 9401   3.482   0.815   6.013
 2834SOL    HW2 9402   3.631   0.823   5.948
 2835SOL     OW 9403   0.621   6.712   3.201
 2835SOL    HW1 9404   0.708   6.742   3.240
 2835SOL    HW2 9405   0.622   6.726   3.102
 2836SOL     OW 9406   6.617   0.729   0.586
 2836SOL    HW1 9407   6.584   0.678   0.665
 2836SOL    HW2 9408   6.601   0.676   0.503
 2837SOL     OW 9409   6.263   3.043   3.795
 2837SOL    HW1 9410   6.164   3.062   3.799
 2837SOL    HW2 9411   6.303   3.094   3.718
 2838SOL     OW 9412   2.274   4.858   3.833
 2838SOL    HW1 9413   2.350   4.880   3.895
 2838SOL    HW2 9414   2.213   4.937   3.825
 2839SOL     OW 9415   4.950   2.002   1.646
 2839SOL    HW1 9416   4.870   2.001   1.706
 2839SOL    HW2 9417   4.986   2.095   1.641
 2840SOL     OW 9418   0.033   1.958   5.679
 2840SOL    HW1 9419   0.022   2.016   5.760
 2840SOL    HW2 9420   6.970   1.934   5.643
 2841SOL     OW 9421   0.598   6.474   1.505
 2841SOL    HW1 9422   0.603   6.574   1.513
 2841SOL    HW2 9423   0.685   6.434   1.537
 2842SOL     OW 9424   6.206   3.291   3.136
 2842SOL    HW1 9425   6.299   3.257   3.152
 2842SOL    HW2 9426   6.159   3.230   3.071
 2843SOL     OW 9427   3.941   1.931   4.728
 2843SOL    HW1 9428   3.913   1.913   4.634
 2843SOL    HW2 9429   3.943   2.030   4.744
 2844SOL     OW 9430   0.248   3.932   5.688
 2844SOL    HW1 9431   0.186   4.001   5.726
 2844SOL    HW2 9432   0.277   3.962   5.597
 2845SOL     OW 9433   6.539   4.242   5.222
 2845SOL    HW1 9434   6.447   4.211   5.244
 2845SOL    HW2 9435   6.540   4.342   5.211
 2846SOL     OW 9436   4.692   1.568   6.533
 2846SOL    HW1 9437   4.711   1.643   6.596
 2846SOL    HW2 9438   4.737   1.484   6.566
 2847SOL     OW 9439   4.633   4.402   4.016
 2847SOL    HW1 9440   4.658   4.496   4.038
 2847SOL    HW2 9441   4.587   4.399   3.927
 2848SOL     OW 9442   1.315   6.143   5.108
 2848SOL    HW1 9443   1.345   6.167   5.200
 2848SOL    HW2 9444   1.217   6.120   5.110
 2849SOL     OW 9445   2.647   2.706   1.399
 2849SOL    HW1 9446   2.643   2.661   1.310
 2849SOL    HW2 9447   2.627   2.640   1.472
 2850SOL     OW 9448   3.369   1.164   7.010
 2850SOL    HW1 9449   3.291   1.166   6.949
 2850SOL    HW2 9450   3.410   1.255   7.014
 2851SOL     OW 9451   2.331   4.513   6.568
 2851SOL    HW1 9452   2.246   4.471   6.536
 2851SOL    HW2 9453   2.309   4.588   6.631
 2852SOL     OW 9454   0.182   3.322   6.360
 2852SOL    HW1 9455   0.150   3.231   6.384
 2852SOL    HW2 9456   0.111   3.369   6.308
 2853SOL     OW 9457   3.674   3.561   1.523
 2853SOL    HW1 9458   3.727   3.532   1.443
 2853SOL    HW2 9459   3.704   3.652   1.552
 2854SOL     OW 9460   1.191   1.106   3.508
 2854SOL    HW1 9461   1.225   1.099   3.414
 2854SOL    HW2 9462   1.123   1.179   3.514
 2855SOL     OW 9463   3.344   0.737   5.393
 2855SOL    HW1 9464   3.342   0.832   5.424
 2855SOL    HW2 9465   3.378   0.734   5.299
 2856SOL     OW 9466   2.270   1.611   5.043
 2856SOL    HW1 9467   2.220   1.697   5.042
 2856SOL    HW2 9468   2.356   1.622   4.993
 2857SOL     OW 9469   2.984   3.884   3.180
 2857SOL    HW1 9470   2.909   3.825   3.150
 2857SOL    HW2 9471   3.032   3.841   3.256
 2858SOL     OW 9472   6.082   2.983   2.952
 2858SOL    HW1 9473   6.005   3.009   2.894
 2858SOL    HW2 9474   6.050   2.963   3.044
 2859SOL     OW 9475   6.241   6.509   0.760
 2859SOL    HW1 9476   6.227   6.535   0.664
 2859SOL    HW2 9477   6.302   6.430   0.764
 2860SOL     OW 9478   4.352   1.692   1.738
 2860SOL    HW1 9479   4.371   1.787   1.766
 2860SOL    HW2 9480   4.362   1.685   1.639
 2861SOL     OW 9481   3.448   5.484   5.823
 2861SOL    HW1 9482   3.534   5.435   5.826
 2861SOL    HW2 9483   3.381   5.432   5.769
 2862SOL     OW 9484   5.889   0.297   4.822
 2862SOL    HW1 9485   5.927   0.374   4.873
 2862SOL    HW2 9486   5.900   0.213   4.877
 2863SOL     OW 9487   6.192   1.702   0.672
 2863SOL    HW1 9488   6.093   1.705   0.667
 2863SOL    HW2 9489   6.225   1.614   0.636
 2864SOL     OW 9490   3.135   1.237   6.869
 2864SOL    HW1 9491   3.086   1.154   6.842
 2864SOL    HW2 9492   3.107   1.264   6.961
 2865SOL     OW 9493   4.380   5.104   4.825
 2865SOL    HW1 9494   4.290   5.119   4.784
 2865SOL    HW2 9495   4.442   5.068   4.755
 2866SOL     OW 9496   0.020   0.128   6.503
 2866SOL    HW1 9497   0.043   0.189   6.578
 2866SOL    HW2 9498   6.952   0.143   6.474
 2867SOL     OW 9499   6.690   4.463   3.292
 2867SOL    HW1 9500   6.689   4.558   3.259
 2867SOL    HW2 9501   6.630   4.454   3.371
 2868SOL     OW 9502   1.922   4.876   5.472
 2868SOL    HW1 9503   1.883   4.789   5.500
 2868SOL    HW2 9504   1.955   4.925   5.552
 2869SOL     OW 9505   6.197   1.471   2.484
 2869SOL    HW1 9506   6.195   1.444   2.388
 2869SOL    HW2 9507   6.119   1.530   2.503
 2870SOL     OW 9508   4.801   1.772   2.816
 2870SOL    HW1 9509   4.724   1.786   2.879
 2870SOL    HW2 9510   4.829   1.861   2.779
 2871SOL     OW 9511   1.892   2.015   5.944
 2871SOL    HW1 9512   1.899   2.052   6.037
 2871SOL    HW2 9513   1.969   2.047   5.889
 2872SOL     OW 9514   2.409   6.282   4.267
 2872SOL    HW1 9515   2.454   6.207   4.315
 2872SOL    HW2 9516   2.322   6.303   4.313
 2873SOL     OW 9517   0.134   5.595   2.005
 2873SOL    HW1 9518   0.117   5.497   2.010
 2873SOL    HW2 9519   0.092   5.641   2.083
 2874SOL     OW 9520   5.883   1.706   2.173
 2874SOL    HW1 9521   5.807   1.748   2.222
 2874SOL    HW2 9522   5.876   1.727   2.076
 2875SOL     OW 9523   3.151   4.839   0.189
 2875SOL    HW1 9524   3.246   4.831   0.219
 2875SOL    HW2 9525   3.127   4.936   0.180
 2876SOL     OW 9526   6.913   1.348   2.645
 2876SOL    HW1 9527   6.949   1.255   2.644
 2876SOL    HW2 9528   6.831   1.351   2.703
 2877SOL     OW 9529   2.465   3.280   5.990
 2877SOL    HW1 9530   2.449   3.241   6.081
 2877SOL    HW2 9531   2.431   3.374   5.988
 2878SOL     OW 9532   2.913   4.415   6.805
 2878SOL    HW1 9533   2.905   4.317   6.787
 2878SOL    HW2 9534   2.887   4.466   6.723
 2879SOL     OW 9535   4.981   5.012   6.587
 2879SOL    HW1 9536   4.996   4.958   6.670
 2879SOL    HW2 9537   4.886   5.043   6.585
 2880SOL     OW 9538   1.223   5.970   1.640
 2880SOL    HW1 9539   1.189   5.898   1.580
 2880SOL    HW2 9540   1.198   6.060   1.602
 2881SOL     OW 9541   6.950   0.033   0.016
 2881SOL    HW1 9542   6.948   6.983   6.979
 2881SOL    HW2 9543   6.864   0.036   0.067
 2882SOL     OW 9544   6.838   3.456   3.451
 2882SOL    HW1 9545   6.806   3.532   3.507
 2882SOL    HW2 9546   6.893   3.490   3.375
 2883SOL     OW 9547   4.692   6.729   2.408
 2883SOL    HW1 9548   4.747   6.701   2.330
 2883SOL    HW2 9549   4.702   6.827   2.423
 2884SOL     OW 9550   1.680   6.101   3.195
 2884SOL    HW1 9551   1.644   6.017   3.155
 2884SOL    HW2 9552   1.775   6.114   3.166
 2885SOL     OW 9553   0.292   2.023   3.550
 2885SOL    HW1 9554   0.385   2.047   3.578
 2885SOL    HW2 9555   0.295   1.964   3.470
 2886SOL     OW 9556   2.160   2.546   5.809
 2886SOL    HW1 9557   2.194   2.498   5.727
 2886SOL    HW2 9558   2.222   2.529   5.885
 2887SOL     OW 9559   1.823   1.092   4.965
 2887SOL    HW1 9560   1.867   1.149   4.896
 2887SOL    HW2 9561   1.801   1.147   5.045
 2888SOL     OW 9562   6.628   5.017   0.051
 2888SOL    HW1 9563   6.713   5.012   0.103
 2888SOL    HW2 9564   6.647   5.053   6.986
 2889SOL     OW 9565   0.536   0.122   1.887
 2889SOL    HW1 9566   0.472   0.046   1.892
 2889SOL    HW2 9567   0.555   0.157   1.978
 2890SOL     OW 9568   3.464   6.576   0.947
 2890SOL    HW1 9569   3.464   6.561   1.046
 2890SOL    HW2 9570   3.430   6.668   0.927
 2891SOL     OW 9571   2.702   4.970   4.264
 2891SOL    HW1 9572   2.613   4.956   4.220
 2891SOL    HW2 9573   2.755   4.885   4.260
 2892SOL     OW 9574   4.641   4.157   5.621
 2892SOL    HW1 9575   4.557   4.105   5.606
 2892SOL    HW2 9576   4.645   4.234   5.558
 2893SOL     OW 9577   3.088   0.719   6.209
 2893SOL    HW1 9578   3.173   0.763   6.240
 2893SOL    HW2 9579   3.110   0.630   6.169
 2894SOL     OW 9580   3.267   2.771   0.941
 2894SOL    HW1 9581   3.192   2.837   0.948
 2894SOL    HW2 9582   3.331   2.784   1.017
 2895SOL     OW 9583   2.899   3.331   6.739
 2895SOL    HW1 9584   2.826   3.360   6.677
 2895SOL    HW2 9585   2.959   3.267   6.692
 2896SOL     OW 9586   2.207   5.578   0.822
 2896SOL    HW1 9587   2.110   5.554   0.825
 2896SOL    HW2 9588   2.220   5.667   0.867
 2897SOL     OW 9589   1.742   6.580   3.632
 2897SOL    HW1 9590   1.663   6.624   3.675
 2897SOL    HW2 9591   1.746   6.605   3.536
 2898SOL     OW 9592   2.667   4.928   2.410
 2898SOL    HW1 9593   2.600   4.871   2.457
 2898SOL    HW2 9594   2.740   4.871   2.374
 2899SOL     OW 9595   6.263   0.387   0.187
 2899SOL    HW1 9596   6.217   0.475   0.197
 2899SOL    HW2 9597   6.194   0.316   0.167
 2900SOL     OW 9598   2.664   5.369   6.165
 2900SOL    HW1 9599   2.661   5.382   6.264
 2900SOL    HW2 9600   2.752   5.402   6.130
 2901SOL     OW 9601   3.241   0.717   1.495
 2901SOL    HW1 9602   3.300   0.689   1.571
 2901SOL    HW2 9603   3.171   0.780   1.528
 2902SOL     OW 9604   5.631   5.499   1.683
 2902SOL    HW1 9605   5.638   5.437   1.761
 2902SOL    HW2 9606   5.564   5.463   1.618
 2903SOL     OW 9607   2.646   2.121   2.108
 2903SOL    HW1 9608   2.729   2.102   2.161
 2903SOL    HW2 9609   2.670   2.174   2.026
 2904SOL     OW 9610   1.820   3.273   4.921
 2904SOL    HW1 9611   1.803   3.274   5.019
 2904SOL    HW2 9612   1.903   3.325   4.901
 2905SOL     OW 9613   1.184   2.441   1.398
 2905SOL    HW1 9614   1.109   2.455   1.332
 2905SOL    HW2 9615   1.263   2.495   1.369
 2906SOL     OW 9616   5.368   5.950   2.119
 2906SOL    HW1 9617   5.285   5.940   2.065
 2906SOL    HW2 9618   5.391   5.863   2.162
 2907SOL     OW 9619   6.585   0.818   3.984
 2907SOL    HW1 9620   6.665   0.851   4.034
 2907SOL    HW2 9621   6.615   0.764   3.905
 2908SOL     OW 9622   4.408   6.405   4.648
 2908SOL    HW1 9623   4.333   6.443   4.593
 2908SOL    HW2 9624   4.494   6.450   4.623
 2909SOL     OW 9625   1.835   5.840   5.073
 2909SOL    HW1 9626   1.767   5.770   5.052
 2909SOL    HW2 9627   1.924   5.813   5.035
 2910SOL     OW 9628   5.299   6.329   5.851
 2910SOL    HW1 9629   5.234   6.356   5.922
 2910SOL    HW2 9630   5.250   6.279   5.779
 2911SOL     OW 9631   1.676   4.081   3.436
 2911SOL    HW1 9632   1.683   4.127   3.347
 2911SOL    HW2 9633   1.725   4.135   3.505
 2912SOL     OW 9634   2.963   5.488   0.576
 2912SOL    HW1 9635   2.928   5.407   0.622
 2912SOL    HW2 9636   3.056   5.470   0.542
 2913SOL     OW 9637   0.842   2.770   2.799
 2913SOL    HW1 9638   0.892   2.714   2.865
 2913SOL    HW2 9639   0.746   2.774   2.826
 2914SOL     OW 9640   4.759   5.378   5.351
 2914SOL    HW1 9641   4.849   5.394   5.392
 2914SOL    HW2 9642   4.765   5.388   5.252
 2915SOL     OW 9643   4.514   1.347   4.196
 2915SOL    HW1 9644   4.488   1.409   4.270
 2915SOL    HW2 9645   4.441   1.344   4.128
 2916SOL     OW 9646   5.165   5.637   4.215
 2916SOL    HW1 9647   5.223   5.717   4.198
 2916SOL    HW2 9648   5.070   5.659   4.192
 2917SOL     OW 9649   4.648   1.312   2.846
 2917SOL    HW1 9650   4.691   1.379   2.786
 2917SOL    HW2 9651   4.674   1.220   2.818
 2918SOL     OW 9652   0.017   3.814   3.869
 2918SOL    HW1 9653   0.020   3.724   3.825
 2918SOL    HW2 9654   6.984   3.874   3.816
 2919SOL     OW 9655   6.835   6.191   0.031
 2919SOL    HW1 9656   6.820   6.096   0.059
 2919SOL    HW2 9657   6.911   6.230   0.083
 2920SOL     OW 9658   4.475   2.327   3.228
 2920SOL    HW1 9659   4.432   2.366   3.309
 2920SOL    HW2 9660   4.550   2.266   3.255
 2921SOL     OW 9661   0.477   0.380   1.813
 2921SOL    HW1 9662   0.500   0.284   1.831
 2921SOL    HW2 9663   0.561   0.435   1.816
 2922SOL     OW 9664   4.189   6.758   5.685
 2922SOL    HW1 9665   4.208   6.819   5.609
 2922SOL    HW2 9666   4.138   6.807   5.755
 2923SOL     OW 9667   6.661   4.185   0.970
 2923SOL    HW1 9668   6.702   4.128   0.898
 2923SOL    HW2 9669   6.657   4.280   0.939
 2924SOL     OW 9670   5.688   0.492   5.573
 2924SOL    HW1 9671   5.650   0.493   5.665
 2924SOL    HW2 9672   5.761   0.559   5.566
 2925SOL     OW 9673   5.539   3.774   1.146
 2925SOL    HW1 9674   5.555   3.762   1.244
 2925SOL    HW2 9675   5.441   3.782   1.129
 2926SOL     OW 9676   0.266   1.350   4.427
 2926SOL    HW1 9677   0.223   1.335   4.516
 2926SOL    HW2 9678   0.218   1.423   4.378
 2927SOL     OW 9679   0.350   2.479   2.761
 2927SOL    HW1 9680   0.305   2.390   2.760
 2927SOL    HW2 9681   0.334   2.524   2.848
 2928SOL     OW 9682   5.840   6.321   0.485
 2928SOL    HW1 9683   5.836   6.245   0.420
 2928SOL    HW2 9684   5.784   6.300   0.565
 2929SOL     OW 9685   1.031   6.847   6.103
 2929SOL    HW1 9686   1.099   6.920   6.097
 2929SOL    HW2 9687   1.037   6.804   6.193
 2930SOL     OW 9688   3.813   6.582   4.534
 2930SOL    HW1 9689   3.716   6.557   4.544
 2930SOL    HW2 9690   3.838   6.580   4.438
 2931SOL     OW 9691   3.980   5.768   6.530
 2931SOL    HW1 9692   4.007   5.837   6.463
 2931SOL    HW2 9693   3.890   5.792   6.567
 2932SOL     OW 9694   1.353   4.456   1.891
 2932SOL    HW1 9695   1.408   4.376   1.915
 2932SOL    HW2 9696   1.280   4.429   1.828
 2933SOL     OW 9697   4.924   1.531   3.801
 2933SOL    HW1 9698   4.946   1.562   3.709
 2933SOL    HW2 9699   5.009   1.516   3.852
 2934SOL     OW 9700   2.715   0.651   0.224
 2934SOL    HW1 9701   2.783   0.721   0.244
 2934SOL    HW2 9702   2.760   0.564   0.209
 2935SOL     OW 9703   6.530   1.889   1.364
 2935SOL    HW1 9704   6.565   1.970   1.411
 2935SOL    HW2 9705   6.471   1.837   1.426
 2936SOL     OW 9706   3.860   6.168   0.758
 2936SOL    HW1 9707   3.955   6.155   0.730
 2936SOL    HW2 9708   3.800   6.168   0.678
 2937SOL     OW 9709   2.781   4.147   0.651
 2937SOL    HW1 9710   2.706   4.102   0.603
 2937SOL    HW2 9711   2.748   4.187   0.737
 2938SOL     OW 9712   4.499   5.480   5.306
 2938SOL    HW1 9713   4.509   5.518   5.214
 2938SOL    HW2 9714   4.587   5.444   5.337
 2939SOL     OW 9715   0.278   6.318   5.553
 2939SOL    HW1 9716   0.303   6.228   5.589
 2939SOL    HW2 9717   0.179   6.330   5.557
 2940SOL     OW 9718   4.220   0.516   5.454
 2940SOL    HW1 9719   4.304   0.569   5.462
 2940SOL    HW2 9720   4.229   0.449   5.380
 2941SOL     OW 9721   2.420   1.786   5.550
 2941SOL    HW1 9722   2.459   1.835   5.473
 2941SOL    HW2 9723   2.461   1.820   5.635
 2942SOL     OW 9724   3.969   6.639   4.284
 2942SOL    HW1 9725   4.025   6.675   4.209
 2942SOL    HW2 9726   3.929   6.552   4.257
 2943SOL     OW 9727   5.824   4.053   3.013
 2943SOL    HW1 9728   5.905   3.995   3.015
 2943SOL    HW2 9729   5.754   4.010   2.955
 2944SOL     OW 9730   3.629   6.069   6.254
 2944SOL    HW1 9731   3.705   6.054   6.192
 2944SOL    HW2 9732   3.633   6.003   6.329
 2945SOL     OW 9733   3.283   2.977   3.291
 2945SOL    HW1 9734   3.307   3.064   3.332
 2945SOL    HW2 9735   3.248   2.915   3.361
 2946SOL     OW 9736   6.671   6.201   5.949
 2946SOL    HW1 9737   6.583   6.159   5.930
 2946SOL    HW2 9738   6.743   6.151   5.900
 2947SOL     OW 9739   0.155   5.132   0.293
 2947SOL    HW1 9740   0.229   5.172   0.347
 2947SOL    HW2 9741   0.180   5.039   0.266
 2948SOL     OW 9742   6.333   4.748   4.926
 2948SOL    HW1 9743   6.363   4.843   4.922
 2948SOL    HW2 9744   6.239   4.741   4.893
 2949SOL     OW 9745   1.227   6.243   0.702
 2949SOL    HW1 9746   1.291   6.308   0.660
 2949SOL    HW2 9747   1.156   6.219   0.635
 2950SOL     OW 9748   5.363   3.523   4.634
 2950SOL    HW1 9749   5.356   3.487   4.541
 2950SOL    HW2 9750   5.459   3.527   4.662
 2951SOL     OW 9751   6.332   1.191   1.715
 2951SOL    HW1 9752   6.347   1.115   1.652
 2951SOL    HW2 9753   6.411   1.202   1.774
 2952SOL     OW 9754   1.550   3.683   1.997
 2952SOL    HW1 9755   1.568   3.780   2.015
 2952SOL    HW2 9756   1.617   3.628   2.047
 2953SOL     OW 9757   5.535   0.535   3.110
 2953SOL    HW1 9758   5.564   0.624   3.145
 2953SOL    HW2 9759   5.564   0.526   3.015
 2954SOL     OW 9760   5.780   6.315   1.865
 2954SOL    HW1 9761   5.770   6.294   1.768
 2954SOL    HW2 9762   5.744   6.239   1.919
 2955SOL     OW 9763   6.331   3.231   0.461
 2955SOL    HW1 9764   6.367   3.296   0.528
 2955SOL    HW2 9765   6.391   3.151   0.457
 2956SOL     OW 9766   6.567   5.358   2.382
 2956SOL    HW1 9767   6.539   5.348   2.477
 2956SOL    HW2 9768   6.565   5.454   2.356
 2957SOL     OW 9769   0.923   3.484   1.261
 2957SOL    HW1 9770   0.965   3.574   1.245
 2957SOL    HW2 9771   0.972   3.414   1.209
 2958SOL     OW 9772   3.243   5.096   6.302
 2958SOL    HW1 9773   3.265   5.030   6.375
 2958SOL    HW2 9774   3.328   5.129   6.261
 2959SOL     OW 9775   4.240   5.604   7.010
 2959SOL    HW1 9776   4.167   5.557   0.033
 2959SOL    HW2 9777   4.201   5.656   6.934
 2960SOL     OW 9778   2.564   1.841   7.004
 2960SOL    HW1 9779   2.500   1.798   0.041
 2960SOL    HW2 9780   2.545   1.939   6.998
 2961SOL     OW 9781   5.547   2.787   4.314
 2961SOL    HW1 9782   5.608   2.833   4.378
 2961SOL    HW2 9783   5.562   2.688   4.319
 2962SOL     OW 9784   3.704   0.997   3.869
 2962SOL    HW1 9785   3.769   0.999   3.793
 2962SOL    HW2 9786   3.704   0.907   3.911
 2963SOL     OW 9787   2.021   2.810   4.998
 2963SOL    HW1 9788   2.104   2.766   4.962
 2963SOL    HW2 9789   2.047   2.879   5.066
 2964SOL     OW 9790   3.009   5.911   0.288
 2964SOL    HW1 9791   3.036   5.915   0.384
 2964SOL    HW2 9792   3.043   5.826   0.247
 2965SOL     OW 9793   0.584   2.591   5.760
 2965SOL    HW1 9794   0.644   2.600   5.839
 2965SOL    HW2 9795   0.629   2.536   5.690
 2966SOL     OW 9796   4.520   4.442   3.779
 2966SOL    HW1 9797   4.461   4.515   3.811
 2966SOL    HW2 9798   4.517   4.439   3.679
 2967SOL     OW 9799   5.992   1.760   4.086
 2967SOL    HW1 9800   6.005   1.737   3.989
 2967SOL    HW2 9801   5.902   1.800   4.099
 2968SOL     OW 9802   6.907   3.973   3.699
 2968SOL    HW1 9803   6.829   4.034   3.710
 2968SOL    HW2 9804   6.955   3.995   3.614
 2969SOL     OW 9805   4.750   1.129   5.133
 2969SOL    HW1 9806   4.784   1.123   5.040
 2969SOL    HW2 9807   4.796   1.061   5.190
 2970SOL     OW 9808   1.006   4.693   6.337
 2970SOL    HW1 9809   0.980   4.667   6.430
 2970SOL    HW2 9810   1.083   4.636   6.307
 2971SOL     OW 9811   4.866   3.439   3.318
 2971SOL    HW1 9812   4.887   3.435   3.415
 2971SOL    HW2 9813   4.889   3.530   3.282
 2972SOL     OW 9814   0.552   4.372   6.386
 2972SOL    HW1 9815   0.533   4.318   6.303
 2972SOL    HW2 9816   0.532   4.316   6.467
 2973SOL     OW 9817   5.328   6.114   4.230
 2973SOL    HW1 9818   5.259   6.135   4.299
 2973SOL    HW2 9819   5.362   6.199   4.190
 2974SOL     OW 9820   0.227   3.830   2.137
 2974SOL    HW1 9821   0.147   3.782   2.101
 2974SOL    HW2 9822   0.302   3.765   2.150
 2975SOL     OW 9823   0.411   0.928   4.545
 2975SOL    HW1 9824   0.460   0.841   4.551
 2975SOL    HW2 9825   0.467   1.000   4.586
 2976SOL     OW 9826   3.339   6.818   2.003
 2976SOL    HW1 9827   3.347   6.844   2.099
 2976SOL    HW2 9828   3.423   6.843   1.954
 2977SOL     OW 9829   3.566   6.567   4.082
 2977SOL    HW1 9830   3.504   6.560   4.004
 2977SOL    HW2 9831   3.617   6.652   4.077
 2978SOL     OW 9832   4.298   6.387   0.012
 2978SOL    HW1 9833   4.396   6.399   7.021
 2978SOL    HW2 9834   4.247   6.458   6.990
 2979SOL     OW 9835   2.768   0.837   3.810
 2979SOL    HW1 9836   2.748   0.898   3.887
 2979SOL    HW2 9837   2.724   0.749   3.825
 2980SOL     OW 9838   6.794   6.120   3.698
 2980SOL    HW1 9839   6.788   6.113   3.798
 2980SOL    HW2 9840   6.889   6.110   3.669
 2981SOL     OW 9841   1.892   1.089   5.494
 2981SOL    HW1 9842   1.794   1.098   5.474
 2981SOL    HW2 9843   1.908   1.003   5.541
 2982SOL     OW 9844   4.796   0.191   3.134
 2982SOL    HW1 9845   4.746   0.199   3.048
 2982SOL    HW2 9846   4.792   0.097   3.167
 2983SOL     OW 9847   6.378   0.219   3.203
 2983SOL    HW1 9848   6.323   0.215   3.287
 2983SOL    HW2 9849   6.349   0.147   3.141
 2984SOL     OW 9850   5.349   4.668   1.851
 2984SOL    HW1 9851   5.363   4.651   1.753
 2984SOL    HW2 9852   5.259   4.710   1.865
 2985SOL     OW 9853   6.130   1.930   3.256
 2985SOL    HW1 9854   6.110   1.951   3.351
 2985SOL    HW2 9855   6.214   1.876   3.250
 2986SOL     OW 9856   2.204   3.741   5.218
 2986SOL    HW1 9857   2.241   3.820   5.170
 2986SOL    HW2 9858   2.110   3.725   5.188
 2987SOL     OW 9859   4.397   2.388   4.623
 2987SOL    HW1 9860   4.479   2.376   4.679
 2987SOL    HW2 9861   4.316   2.370   4.679
 2988SOL     OW 9862   0.638   0.478   2.298
 2988SOL    HW1 9863   0.542   0.460   2.278
 2988SOL    HW2 9864   0.645   0.557   2.360
 2989SOL     OW 9865   6.653   4.934   1.072
 2989SOL    HW1 9866   6.693   5.001   1.009
 2989SOL    HW2 9867   6.726   4.894   1.129
 2990SOL     OW 9868   3.346   0.085   0.946
 2990SOL    HW1 9869   3.360   0.062   1.042
 2990SOL    HW2 9870   3.416   0.150   0.917
 2991SOL     OW 9871   6.581   4.844   0.444
 2991SOL    HW1 9872   6.484   4.823   0.430
 2991SOL    HW2 9873   6.621   4.774   0.503
 2992SOL     OW 9874   4.123   4.510   6.576
 2992SOL    HW1 9875   4.197   4.554   6.627
 2992SOL    HW2 9876   4.122   4.544   6.482
 2993SOL     OW 9877   1.852   5.522   0.408
 2993SOL    HW1 9878   1.931   5.580   0.386
 2993SOL    HW2 9879   1.806   5.557   0.490
 2994SOL     OW 9880   4.261   6.734   0.134
 2994SOL    HW1 9881   4.298   6.753   0.224
 2994SOL    HW2 9882   4.168   6.699   0.142
 2995SOL     OW 9883   3.060   1.257   6.007
 2995SOL    HW1 9884   2.989   1.191   5.982
 2995SOL    HW2 9885   3.146   1.232   5.961
 2996SOL     OW 9886   3.744   5.539   6.136
 2996SOL    HW1 9887   3.663   5.489   6.107
 2996SOL    HW2 9888   3.752   5.534   6.236
 2997SOL     OW 9889   5.331   6.602   0.245
 2997SOL    HW1 9890   5.253   6.654   0.280
 2997SOL    HW2 9891   5.412   6.621   0.300
 2998SOL     OW 9892   6.596   5.830   5.153
 2998SOL    HW1 9893   6.563   5.904   5.212
 2998SOL    HW2 9894   6.652   5.767   5.206
 2999SOL     OW 9895   3.301   6.189   2.214
 2999SOL    HW1 9896   3.210   6.185   2.254
 2999SOL    HW2 9897   3.363   6.130   2.266
 3000SOL     OW 9898   1.799   2.990   4.871
 3000SOL    HW1 9899   1.810   3.089   4.872
 3000SOL    HW2 9900   1.823   2.953   4.961
 3001SOL     OW 9901   4.493   0.227   6.110
 3001SOL    HW1 9902   4.450   0.266   6.192
 3001SOL    HW2 9903   4.424   0.217   6.039
 3002SOL     OW 9904   3.699   0.116   5.597
 3002SOL    HW1 9905   3.721   0.214   5.593
 3002SOL    HW2 9906   3.765   0.065   5.542
 3003SOL     OW 9907   2.650   0.287   6.375
 3003SOL    HW1 9908   2.725   0.240   6.329
 3003SOL    HW2 9909   2.580   0.220   6.400
 3004SOL     OW 9910   6.477   3.561   4.931
 3004SOL    HW1 9911   6.500   3.638   4.990
 3004SOL    HW2 9912   6.385   3.529   4.953
 3005SOL     OW 9913   4.615   2.437   1.828
 3005SOL    HW1 9914   4.606   2.525   1.874
 3005SOL    HW2 9915   4.681   2.444   1.754
 3006SOL     OW 9916   5.327   0.761   1.477
 3006SOL    HW1 9917   5.427   0.765   1.481
 3006SOL    HW2 9918   5.298   0.680   1.425
 3007SOL     OW 9919   6.388   6.005   2.096
 3007SOL    HW1 9920   6.337   6.090   2.101
 3007SOL    HW2 9921   6.356   5.942   2.167
 3008SOL     OW 9922   4.181   5.546   6.156
 3008SOL    HW1 9923   4.210   5.565   6.250
 3008SOL    HW2 9924   4.188   5.630   6.102
 3009SOL     OW 9925   1.050   1.597   3.037
 3009SOL    HW1 9926   0.970   1.626   2.985
 3009SOL    HW2 9927   1.089   1.514   2.995
 3010SOL     OW 9928   3.930   6.945   2.122
 3010SOL    HW1 9929   3.882   7.020   2.077
 3010SOL    HW2 9930   3.910   6.859   2.074
 3011SOL     OW 9931   5.454   0.573   6.657
 3011SOL    HW1 9932   5.400   0.633   6.717
 3011SOL    HW2 9933   5.470   0.619   6.570
 3012SOL     OW 9934   0.083   4.677   2.283
 3012SOL    HW1 9935   7.022   4.628   2.288
 3012SOL    HW2 9936   0.152   4.619   2.240
 3013SOL     OW 9937   5.685   4.312   2.371
 3013SOL    HW1 9938   5.758   4.304   2.303
 3013SOL    HW2 9939   5.599   4.278   2.332
 3014SOL     OW 9940   5.184   1.323   4.972
 3014SOL    HW1 9941   5.125   1.292   4.898
 3014SOL    HW2 9942   5.278   1.296   4.953
 3015SOL     OW 9943   3.052   2.619   6.922
 3015SOL    HW1 9944   2.990   2.575   6.988
 3015SOL    HW2 9945   3.045   2.572   6.834
 3016SOL     OW 9946   3.617   6.068   3.120
 3016SOL    HW1 9947   3.569   6.149   3.154
 3016SOL    HW2 9948   3.551   6.000   3.089
 3017SOL     OW 9949   6.753   6.090   1.461
 3017SOL    HW1 9950   6.692   6.105   1.383
 3017SOL    HW2 9951   6.700   6.057   1.539
 3018SOL     OW 9952   3.454   0.018   6.145
 3018SOL    HW1 9953   3.422   0.043   6.053
 3018SOL    HW2 9954   3.507   6.959   6.139
 3019SOL     OW 9955   5.521   0.004   2.049
 3019SOL    HW1 9956   5.430   0.045   2.055
 3019SOL    HW2 9957   5.561   0.024   1.960
 3020SOL     OW 9958   1.423   1.542   0.650
 3020SOL    HW1 9959   1.326   1.563   0.662
 3020SOL    HW2 9960   1.442   1.450   0.685
 3021SOL     OW 9961   3.609   1.019   6.235
 3021SOL    HW1 9962   3.678   0.995   6.167
 3021SOL    HW2 9963   3.578   1.113   6.220
 3022SOL     OW 9964   4.902   6.867   2.818
 3022SOL    HW1 9965   4.909   6.951   2.873
 3022SOL    HW2 9966   4.956   6.795   2.862
 3023SOL     OW 9967   5.818   6.819   2.174
 3023SOL    HW1 9968   5.883   6.856   2.241
 3023SOL    HW2 9969   5.846   6.844   2.082
 3024SOL     OW 9970   2.996   6.236   6.689
 3024SOL    HW1 9971   2.920   6.192   6.641
 3024SOL    HW2 9972   3.059   6.166   6.724
 3025SOL     OW 9973   1.694   2.491   1.802
 3025SOL    HW1 9974   1.736   2.409   1.840
 3025SOL    HW2 9975   1.756   2.569   1.812
 3026SOL     OW 9976   2.169   4.380   1.201
 3026SOL    HW1 9977   2.154   4.286   1.169
 3026SOL    HW2 9978   2.087   4.412   1.250
 3027SOL     OW 9979   1.088   1.879   4.071
 3027SOL    HW1 9980   1.055   1.915   4.158
 3027SOL    HW2 9981   1.073   1.947   3.999
 3028SOL     OW 9982   1.741   0.370   4.795
 3028SOL    HW1 9983   1.692   0.318   4.725
 3028SOL    HW2 9984   1.677   0.403   4.864
 3029SOL     OW 9985   4.967   6.416   5.470
 3029SOL    HW1 9986   4.946   6.447   5.562
 3029SOL    HW2 9987   4.949   6.318   5.463
 3030SOL     OW 9988   1.325   2.158   5.999
 3030SOL    HW1 9989   1.400   2.203   6.049
 3030SOL    HW2 9990   1.297   2.216   5.923
 3031SOL     OW 9991   1.563   4.786   6.813
 3031SOL    HW1 9992   1.547   4.782   6.912
 3031SOL    HW2 9993   1.633   4.854   6.793
 3032SOL     OW 9994   4.796   0.356   5.801
 3032SOL    HW1 9995   4.767   0.277   5.747
 3032SOL    HW2 9996   4.737   0.365   5.881
 3033SOL     OW 9997   5.137   4.876   6.444
 3033SOL    HW1 9998   5.070   4.928   6.498
 3033SOL    HW2 9999   5.170   4.799   6.498
 3034SOL     OW10000   2.221   0.296   4.300
 3034SOL    HW110001   2.306   0.280   4.250
 3034SOL    HW210002   2.240   0.294   4.398
 3035SOL     OW10003   6.422   6.990   6.598
 3035SOL    HW110004   6.393   6.911   6.544
 3035SOL    HW210005   6.506   6.967   6.647
 3036SOL     OW10006   1.372   4.725   6.262
 3036SOL    HW110007   1.379   4.728   6.362
 3036SOL    HW210008   1.402   4.812   6.223
 3037SOL     OW10009   6.702   6.396   5.566
 3037SOL    HW110010   6.729   6.434   5.478
 3037SOL    HW210011   6.701   6.468   5.635
 3038SOL     OW10012   5.683   0.126   5.549
 3038SOL    HW110013   5.693   0.214   5.501
 3038SOL    HW210014   5.590   0.091   5.534
 3039SOL     OW10015   0.673   5.143   0.922
 3039SOL    HW110016   0.768   5.173   0.913
 3039SOL    HW210017   0.665   5.048   0.893
 3040SOL     OW10018   2.593   2.741   6.735
 3040SOL    HW110019   2.506   2.704   6.767
 3040SOL    HW210020   2.586   2.764   6.638
 3041SOL     OW10021   1.947   2.132   6.178
 3041SOL    HW110022   1.912   2.221   6.209
 3041SOL    HW210023   2.038   2.144   6.139
 3042SOL     OW10024   4.678   0.565   1.887
 3042SOL    HW110025   4.614   0.547   1.961
 3042SOL    HW210026   4.700   0.663   1.886
 3043SOL     OW10027   0.097   5.463   0.548
 3043SOL    HW110028   0.052   5.392   0.494
 3043SOL    HW210029   0.052   5.470   0.637
 3044SOL     OW10030   3.302   3.902   6.237
 3044SOL    HW110031   3.296   3.825   6.300
 3044SOL    HW210032   3.229   3.895   6.169
 3045SOL     OW10033   5.707   2.182   3.584
 3045SOL    HW110034   5.700   2.091   3.545
 3045SOL    HW210035   5.803   2.203   3.605
 3046SOL     OW10036   2.254   2.424   5.592
 3046SOL    HW110037   2.353   2.432   5.575
 3046SOL    HW210038   2.204   2.440   5.507
 3047SOL     OW10039   6.830   4.396   2.053
 3047SOL    HW110040   6.845   4.429   1.959
 3047SOL    HW210041   6.732   4.393   2.072
 3048SOL     OW10042   3.319   2.556   1.584
 3048SOL    HW110043   3.387   2.502   1.633
 3048SOL    HW210044   3.233   2.506   1.578
 3049SOL     OW10045   0.831   0.489   2.119
 3049SOL    HW110046   0.842   0.396   2.084
 3049SOL    HW210047   0.774   0.488   2.201
 3050SOL     OW10048   3.727   5.256   3.648
 3050SOL    HW110049   3.694   5.287   3.737
 3050SOL    HW210050   3.652   5.216   3.596
 3051SOL     OW10051   2.761   4.082   5.795
 3051SOL    HW110052   2.680   4.024   5.793
 3051SOL    HW210053   2.764   4.137   5.712
 3052SOL     OW10054   4.307   6.907   2.932
 3052SOL    HW110055   4.233   6.840   2.946
 3052SOL    HW210056   4.361   6.914   3.015
 3053SOL     OW10057   5.048   6.526   0.667
 3053SOL    HW110058   5.102   6.485   0.593
 3053SOL    HW210059   5.093   6.510   0.755
 3054SOL     OW10060   1.871   3.735   6.254
 3054SOL    HW110061   1.807   3.666   6.220
 3054SOL    HW210062   1.835   3.827   6.236
 3055SOL     OW10063   5.943   6.011   2.851
 3055SOL    HW110064   6.004   5.933   2.868
 3055SOL    HW210065   5.986   6.095   2.883
 3056SOL     OW10066   6.491   0.799   0.939
 3056SOL    HW110067   6.496   0.736   1.016
 3056SOL    HW210068   6.535   0.759   0.859
 3057SOL     OW10069   6.269   5.756   2.543
 3057SOL    HW110070   6.280   5.658   2.562
 3057SOL    HW210071   6.220   5.767   2.457
 3058SOL     OW10072   6.204   4.863   1.575
 3058SOL    HW110073   6.196   4.877   1.476
 3058SOL    HW210074   6.295   4.827   1.596
 3059SOL     OW10075   1.903   2.795   4.682
 3059SOL    HW110076   1.857   2.857   4.746
 3059SOL    HW210077   1.993   2.831   4.659
 3060SOL     OW10078   6.707   0.026   0.767
 3060SOL    HW110079   6.771   0.099   0.740
 3060SOL    HW210080   6.727   6.970   0.714
 3061SOL     OW10081   0.144   0.552   5.901
 3061SOL    HW110082   0.114   0.647   5.905
 3061SOL    HW210083   0.123   0.515   5.810
 3062SOL     OW10084   2.920   6.171   6.369
 3062SOL    HW110085   3.006   6.188   6.320
 3062SOL    HW210086   2.845   6.213   6.319
 3063SOL     OW10087   1.617   5.226   0.879
 3063SOL    HW110088   1.537   5.257   0.829
 3063SOL    HW210089   1.700   5.262   0.835
 3064SOL     OW10090   6.840   4.534   2.767
 3064SOL    HW110091   6.931   4.573   2.782
 3064SOL    HW210092   6.808   4.561   2.676
 3065SOL     OW10093   1.833   0.790   0.766
 3065SOL    HW110094   1.830   0.875   0.818
 3065SOL    HW210095   1.880   0.719   0.819
 3066SOL     OW10096   6.063   5.193   1.267
 3066SOL    HW110097   6.001   5.236   1.333
 3066SOL    HW210098   6.031   5.212   1.174
 3067SOL     OW10099   5.140   6.584   3.517
 3067SOL    HW110100   5.090   6.511   3.563
 3067SOL    HW210101   5.097   6.672   3.538
 3068SOL     OW10102   6.145   5.069   0.511
 3068SOL    HW110103   6.169   5.086   0.416
 3068SOL    HW210104   6.145   5.155   0.562
 3069SOL     OW10105   1.242   5.652   3.391
 3069SOL    HW110106   1.230   5.636   3.489
 3069SOL    HW210107   1.238   5.565   3.343
 3070SOL     OW10108   4.064   1.745   4.326
 3070SOL    HW110109   4.080   1.823   4.387
 3070SOL    HW210110   4.126   1.750   4.248
 3071SOL     OW10111   6.059   6.763   3.583
 3071SOL    HW110112   6.154   6.745   3.559
 3071SOL    HW210113   6.041   6.731   3.676
 3072SOL     OW10114   0.640   6.949   2.281
 3072SOL    HW110115   0.609   0.017   2.276
 3072SOL    HW210116   0.678   6.922   2.192
 3073SOL     OW10117   1.393   3.508   4.501
 3073SOL    HW110118   1.478   3.458   4.488
 3073SOL    HW210119   1.407   3.604   4.477
 3074SOL     OW10120   5.210   3.312   5.986
 3074SOL    HW110121   5.293   3.353   6.023
 3074SOL    HW210122   5.165   3.258   6.057
 3075SOL     OW10123   1.492   5.489   1.808
 3075SOL    HW110124   1.425   5.492   1.734
 3075SOL    HW210125   1.445   5.497   1.896
 3076SOL     OW10126   0.443   0.454   5.120
 3076SOL    HW110127   0.488   0.371   5.087
 3076SOL    HW210128   0.364   0.474   5.062
 3077SOL     OW10129   5.113   4.799   4.056
 3077SOL    HW110130   5.100   4.896   4.034
 3077SOL    HW210131   5.102   4.744   3.974
 3078SOL     OW10132   2.225   2.940   0.991
 3078SOL    HW110133   2.194   3.029   1.024
 3078SOL    HW210134   2.146   2.879   0.983
 3079SOL     OW10135   6.022   2.654   6.021
 3079SOL    HW110136   5.946   2.612   6.071
 3079SOL    HW210137   5.987   2.703   5.941
 3080SOL     OW10138   6.269   5.783   0.786
 3080SOL    HW110139   6.174   5.787   0.818
 3080SOL    HW210140   6.331   5.803   0.862
 3081SOL     OW10141   6.283   5.024   5.667
 3081SOL    HW110142   6.243   4.934   5.688
 3081SOL    HW210143   6.330   5.019   5.579
 3082SOL     OW10144   2.494   7.015   2.654
 3082SOL    HW110145   2.509   6.922   2.618
 3082SOL    HW210146   2.567   0.048   2.620
 3083SOL     OW10147   3.635   0.599   2.075
 3083SOL    HW110148   3.665   0.686   2.037
 3083SOL    HW210149   3.565   0.616   2.144
 3084SOL     OW10150   4.800   6.541   4.756
 3084SOL    HW110151   4.730   6.521   4.687
 3084SOL    HW210152   4.773   6.498   4.843
 3085SOL     OW10153   0.746   5.574   1.792
 3085SOL    HW110154   0.809   5.608   1.863
 3085SOL    HW210155   0.666   5.633   1.788
 3086SOL     OW10156   5.562   1.099   4.008
 3086SOL    HW110157   5.632   1.161   3.973
 3086SOL    HW210158   5.546   1.025   3.942
 3087SOL     OW10159   5.864   3.072   2.815
 3087SOL    HW110160   5.854   2.987   2.763
 3087SOL    HW210161   5.774   3.105   2.843
 3088SOL     OW10162   2.997   4.395   6.092
 3088SOL    HW110163   3.041   4.307   6.107
 3088SOL    HW210164   2.899   4.388   6.111
 3089SOL     OW10165   1.458   2.401   0.358
 3089SOL    HW110166   1.437   2.493   0.327
 3089SOL    HW210167   1.485   2.403   0.454
 3090SOL     OW10168   0.935   1.502   1.209
 3090SOL    HW110169   0.916   1.578   1.271
 3090SOL    HW210170   0.864   1.432   1.219
 3091SOL     OW10171   2.314   6.888   0.552
 3091SOL    HW110172   2.241   6.829   0.585
 3091SOL    HW210173   2.377   6.909   0.628
 3092SOL     OW10174   4.248   6.594   1.040
 3092SOL    HW110175   4.327   6.607   1.099
 3092SOL    HW210176   4.278   6.570   0.948
 3093SOL     OW10177   5.266   6.145   3.888
 3093SOL    HW110178   5.210   6.083   3.943
 3093SOL    HW210179   5.362   6.117   3.892
 3094SOL     OW10180   3.290   5.464   5.473
 3094SOL    HW110181   3.376   5.472   5.423
 3094SOL    HW210182   3.214   5.487   5.413
 3095SOL     OW10183   3.032   4.871   4.688
 3095SOL    HW110184   2.938   4.864   4.723
 3095SOL    HW210185   3.035   4.839   4.594
 3096SOL     OW10186   0.809   0.745   5.520
 3096SOL    HW110187   0.840   0.679   5.588
 3096SOL    HW210188   0.709   0.745   5.517
 3097SOL     OW10189   1.253   2.994   0.319
 3097SOL    HW110190   1.314   3.058   0.365
 3097SOL    HW210191   1.302   2.948   0.245
 3098SOL     OW10192   3.833   2.109   0.291
 3098SOL    HW110193   3.793   2.142   0.206
 3098SOL    HW210194   3.878   2.021   0.275
 3099SOL     OW10195   1.216   6.002   4.736
 3099SOL    HW110196   1.219   6.041   4.643
 3099SOL    HW210197   1.174   5.912   4.733
 3100SOL     OW10198   6.703   6.783   0.674
 3100SOL    HW110199   6.655   6.705   0.635
 3100SOL    HW210200   6.784   6.752   0.723
 3101SOL     OW10201   4.496   0.078   0.908
 3101SOL    HW110202   4.503   0.166   0.861
 3101SOL    HW210203   4.577   0.064   0.965
 3102SOL     OW10204   1.500   4.998   0.958
 3102SOL    HW110205   1.549   5.071   0.911
 3102SOL    HW210206   1.542   4.981   1.047
 3103SOL     OW10207   3.783   3.332   2.220
 3103SOL    HW110208   3.737   3.249   2.250
 3103SOL    HW210209   3.781   3.338   2.121
 3104SOL     OW10210   6.702   5.286   3.313
 3104SOL    HW110211   6.733   5.342   3.236
 3104SOL    HW210212   6.623   5.330   3.356
 3105SOL     OW10213   6.450   6.212   3.914
 3105SOL    HW110214   6.464   6.149   3.838
 3105SOL    HW210215   6.493   6.300   3.893
 3106SOL     OW10216   0.095   2.826   4.544
 3106SOL    HW110217   0.042   2.857   4.465
 3106SOL    HW210218   0.072   2.730   4.564
 3107SOL     OW10219   3.076   0.139   4.042
 3107SOL    HW110220   3.134   0.208   4.086
 3107SOL    HW210221   3.103   0.048   4.073
 3108SOL     OW10222   3.245   0.101   3.378
 3108SOL    HW110223   3.216   0.058   3.464
 3108SOL    HW210224   3.172   0.093   3.311
 3109SOL     OW10225   4.858   5.989   2.864
 3109SOL    HW110226   4.805   6.074   2.873
 3109SOL    HW210227   4.797   5.915   2.837
 3110SOL     OW10228   0.343   2.587   2.511
 3110SOL    HW110229   0.310   2.669   2.556
 3110SOL    HW210230   0.369   2.519   2.579
 3111SOL     OW10231   6.486   4.761   3.510
 3111SOL    HW110232   6.509   4.746   3.414
 3111SOL    HW210233   6.557   4.818   3.553
 3112SOL     OW10234   3.460   3.564   6.557
 3112SOL    HW110235   3.383   3.506   6.584
 3112SOL    HW210236   3.546   3.515   6.572
 3113SOL     OW10237   3.346   0.437   3.648
 3113SOL    HW110238   3.279   0.486   3.592
 3113SOL    HW210239   3.435   0.440   3.603
 3114SOL     OW10240   5.480   5.670   0.852
 3114SOL    HW110241   5.453   5.716   0.768
 3114SOL    HW210242   5.570   5.629   0.841
 3115SOL     OW10243   2.671   3.588   1.430
 3115SOL    HW110244   2.705   3.494   1.426
 3115SOL    HW210245   2.746   3.650   1.449
 3116SOL     OW10246   6.994   1.808   6.971
 3116SOL    HW110247   7.010   1.885   0.007
 3116SOL    HW210248   6.988   1.723   7.024
 3117SOL     OW10249   3.823   4.257   5.100
 3117SOL    HW110250   3.777   4.318   5.164
 3117SOL    HW210251   3.914   4.235   5.134
 3118SOL     OW10252   6.161   5.114   0.248
 3118SOL    HW110253   6.153   5.213   0.238
 3118SOL    HW210254   6.247   5.083   0.209
 3119SOL     OW10255   1.941   4.640   5.750
 3119SOL    HW110256   2.033   4.628   5.786
 3119SOL    HW210257   1.915   4.560   5.696
 3120SOL     OW10258   3.245   5.563   4.972
 3120SOL    HW110259   3.329   5.578   5.024
 3120SOL    HW210260   3.234   5.636   4.905
 3121SOL     OW10261   0.577   6.446   2.516
 3121SOL    HW110262   0.671   6.473   2.494
 3121SOL    HW210263   0.520   6.528   2.521
 3122SOL     OW10264   3.157   5.548   0.832
 3122SOL    HW110265   3.127   5.540   0.737
 3122SOL    HW210266   3.078   5.563   0.891
 3123SOL     OW10267   4.050   6.839   4.834
 3123SOL    HW110268   4.123   6.855   4.900
 3123SOL    HW210269   4.088   6.803   4.749
 3124SOL     OW10270   3.607   7.012   5.817
 3124SOL    HW110271   3.646   0.003   5.907
 3124SOL    HW210272   3.648   0.048   5.751
 3125SOL     OW10273   6.857   1.628   5.929
 3125SOL    HW110274   6.941   1.662   5.888
 3125SOL    HW210275   6.870   1.614   6.027
 3126SOL     OW10276   4.111   6.332   0.199
 3126SOL    HW110277   4.186   6.348   0.134
 3126SOL    HW210278   4.120   6.394   0.276
 3127SOL     OW10279   0.910   1.799   3.781
 3127SOL    HW110280   0.865   1.845   3.704
 3127SOL    HW210281   0.841   1.758   3.840
 3128SOL     OW10282   1.260   1.395   0.273
 3128SOL    HW110283   1.330   1.428   0.210
 3128SOL    HW210284   1.290   1.309   0.315
 3129SOL     OW10285   1.544   2.937   4.527
 3129SOL    HW110286   1.552   2.992   4.444
 3129SOL    HW210287   1.449   2.907   4.538
 3130SOL     OW10288   1.856   5.751   2.694
 3130SOL    HW110289   1.884   5.840   2.657
 3130SOL    HW210290   1.938   5.698   2.717
 3131SOL     OW10291   0.009   3.377   3.660
 3131SOL    HW110292   0.052   3.287   3.663
 3131SOL    HW210293   6.975   3.382   3.580
 3132SOL     OW10294   5.101   6.380   5.178
 3132SOL    HW110295   5.095   6.464   5.231
 3132SOL    HW210296   5.012   6.334   5.178
 3133SOL     OW10297   2.888   1.698   3.073
 3133SOL    HW110298   2.963   1.684   3.008
 3133SOL    HW210299   2.849   1.789   3.058
 3134SOL     OW10300   4.991   3.282   2.786
 3134SOL    HW110301   4.950   3.240   2.705
 3134SOL    HW210302   5.089   3.295   2.770
 3135SOL     OW10303   3.229   1.690   3.320
 3135SOL    HW110304   3.273   1.681   3.231
 3135SOL    HW210305   3.264   1.772   3.366
 3136SOL     OW10306   6.114   6.500   5.083
 3136SOL    HW110307   6.036   6.439   5.096
 3136SOL    HW210308   6.117   6.567   5.156
 3137SOL     OW10309   6.922   1.624   4.435
 3137SOL    HW110310   6.916   1.680   4.352
 3137SOL    HW210311   6.999   1.655   4.491
 3138SOL     OW10312   5.043   1.776   5.320
 3138SOL    HW110313   5.045   1.691   5.266
 3138SOL    HW210314   5.122   1.832   5.296
 3139SOL     OW10315   4.985   6.130   5.498
 3139SOL    HW110316   4.886   6.121   5.508
 3139SOL    HW210317   5.022   6.047   5.455
 3140SOL     OW10318   6.401   6.576   6.725
 3140SOL    HW110319   6.399   6.539   6.818
 3140SOL    HW210320   6.457   6.517   6.667
 3141SOL     OW10321   0.899   5.062   0.502
 3141SOL    HW110322   0.999   5.053   0.503
 3141SOL    HW210323   0.874   5.159   0.504
 3142SOL     OW10324   3.501   6.588   6.784
 3142SOL    HW110325   3.536   6.604   6.692
 3142SOL    HW210326   3.460   6.672   6.820
 3143SOL     OW10327   0.393   1.920   0.762
 3143SOL    HW110328   0.331   1.907   0.840
 3143SOL    HW210329   0.479   1.961   0.794
 3144SOL     OW10330   1.845   3.757   6.625
 3144SOL    HW110331   1.916   3.816   6.662
 3144SOL    HW210332   1.884   3.670   6.595
 3145SOL     OW10333   4.047   6.687   3.886
 3145SOL    HW110334   4.017   6.598   3.852
 3145SOL    HW210335   4.114   6.674   3.959
 3146SOL     OW10336   2.309   0.615   4.055
 3146SOL    HW110337   2.301   0.517   4.037
 3146SOL    HW210338   2.329   0.663   3.969
 3147SOL     OW10339   3.913   3.668   0.640
 3147SOL    HW110340   3.859   3.684   0.558
 3147SOL    HW210341   3.995   3.616   0.616
 3148SOL     OW10342   3.999   5.790   5.136
 3148SOL    HW110343   4.034   5.702   5.168
 3148SOL    HW210344   3.904   5.780   5.107
 3149SOL     OW10345   3.486   6.454   5.548
 3149SOL    HW110346   3.563   6.517   5.540
 3149SOL    HW210347   3.448   6.436   5.458
 3150SOL     OW10348   6.443   0.099   4.458
 3150SOL    HW110349   6.376   0.031   4.487
 3150SOL    HW210350   6.418   0.133   4.367
 3151SOL     OW10351   3.752   0.736   6.907
 3151SOL    HW110352   3.795   0.826   6.899
 3151SOL    HW210353   3.806   0.679   6.969
 3152SOL     OW10354   1.634   5.038   0.353
 3152SOL    HW110355   1.721   5.085   0.341
 3152SOL    HW210356   1.630   4.996   0.444
 3153SOL     OW10357   0.220   4.392   2.688
 3153SOL    HW110358   0.280   4.471   2.676
 3153SOL    HW210359   0.184   4.364   2.599
 3154SOL     OW10360   5.657   2.011   6.465
 3154SOL    HW110361   5.631   1.973   6.553
 3154SOL    HW210362   5.605   1.966   6.392
 3155SOL     OW10363   4.942   6.034   0.110
 3155SOL    HW110364   4.933   6.065   0.204
 3155SOL    HW210365   4.991   5.946   0.109
 3156SOL     OW10366   3.319   3.710   3.304
 3156SOL    HW110367   3.243   3.754   3.351
 3156SOL    HW210368   3.366   3.778   3.247
 3157SOL     OW10369   2.427   2.725   4.610
 3157SOL    HW110370   2.426   2.753   4.706
 3157SOL    HW210371   2.477   2.639   4.601
 3158SOL     OW10372   4.317   6.210   1.187
 3158SOL    HW110373   4.365   6.222   1.100
 3158SOL    HW210374   4.224   6.247   1.179
 3159SOL     OW10375   5.996   4.606   1.001
 3159SOL    HW110376   5.947   4.686   0.966
 3159SOL    HW210377   5.943   4.565   1.075
 3160SOL     OW10378   5.702   4.672   0.080
 3160SOL    HW110379   5.747   4.738   0.020
 3160SOL    HW210380   5.770   4.628   0.138
 3161SOL     OW10381   0.732   1.907   2.681
 3161SOL    HW110382   0.663   1.967   2.720
 3161SOL    HW210383   0.792   1.874   2.754
 3162SOL     OW10384   6.278   6.619   6.221
 3162SOL    HW110385   6.339   6.654   6.291
 3162SOL    HW210386   6.303   6.657   6.132
 3163SOL     OW10387   2.691   4.253   5.489
 3163SOL    HW110388   2.756   4.178   5.478
 3163SOL    HW210389   2.734   4.339   5.460
 3164SOL     OW10390   5.459   5.620   6.084
 3164SOL    HW110391   5.384   5.628   6.149
 3164SOL    HW210392   5.505   5.531   6.097
 3165SOL     OW10393   0.137   2.694   1.634
 3165SOL    HW110394   0.235   2.689   1.651
 3165SOL    HW210395   0.109   2.620   1.574
 3166SOL     OW10396   5.912   2.802   6.564
 3166SOL    HW110397   5.820   2.792   6.600
 3166SOL    HW210398   5.964   2.864   6.623
 3167SOL     OW10399   1.246   4.372   2.616
 3167SOL    HW110400   1.168   4.328   2.571
 3167SOL    HW210401   1.219   4.401   2.708
 3168SOL     OW10402   5.174   3.003   1.138
 3168SOL    HW110403   5.086   3.040   1.108
 3168SOL    HW210404   5.162   2.955   1.225
 3169SOL     OW10405   1.921   1.737   4.882
 3169SOL    HW110406   1.847   1.726   4.948
 3169SOL    HW210407   1.982   1.810   4.912
 3170SOL     OW10408   4.544   0.481   6.004
 3170SOL    HW110409   4.527   0.416   6.078
 3170SOL    HW210410   4.503   0.446   5.920
 3171SOL     OW10411   6.047   0.096   3.275
 3171SOL    HW110412   6.087   0.004   3.263
 3171SOL    HW210413   6.091   0.159   3.211
 3172SOL     OW10414   6.041   0.418   6.079
 3172SOL    HW110415   5.947   0.396   6.052
 3172SOL    HW210416   6.094   0.334   6.086
 3173SOL     OW10417   1.577   1.626   1.327
 3173SOL    HW110418   1.634   1.570   1.266
 3173SOL    HW210419   1.573   1.720   1.292
 3174SOL     OW10420   1.841   4.297   6.275
 3174SOL    HW110421   1.839   4.252   6.186
 3174SOL    HW210422   1.833   4.396   6.263
 3175SOL     OW10423   6.890   5.930   0.920
 3175SOL    HW110424   6.849   6.015   0.955
 3175SOL    HW210425   6.954   5.894   0.988
 3176SOL     OW10426   1.452   5.613   6.096
 3176SOL    HW110427   1.429   5.694   6.151
 3176SOL    HW210428   1.368   5.567   6.067
 3177SOL     OW10429   0.144   6.919   4.187
 3177SOL    HW110430   0.080   6.981   4.234
 3177SOL    HW210431   0.172   6.846   4.249
 3178SOL     OW10432   1.680   3.342   0.627
 3178SOL    HW110433   1.763   3.383   0.666
 3178SOL    HW210434   1.645   3.400   0.554
 3179SOL     OW10435   1.023   2.374   3.397
 3179SOL    HW110436   0.978   2.301   3.344
 3179SOL    HW210437   1.115   2.344   3.423
 3180SOL     OW10438   5.429   0.970   6.019
 3180SOL    HW110439   5.381   0.966   5.931
 3180SOL    HW210440   5.509   1.029   6.011
 3181SOL     OW10441   0.354   1.859   3.329
 3181SOL    HW110442   0.310   1.773   3.305
 3181SOL    HW210443   0.390   1.902   3.245
 3182SOL     OW10444   1.761   4.655   5.204
 3182SOL    HW110445   1.672   4.663   5.160
 3182SOL    HW210446   1.829   4.623   5.138
 3183SOL     OW10447   4.361   3.142   1.403
 3183SOL    HW110448   4.434   3.133   1.470
 3183SOL    HW210449   4.350   3.055   1.354
 3184SOL     OW10450   2.646   1.320   3.350
 3184SOL    HW110451   2.629   1.349   3.256
 3184SOL    HW210452   2.611   1.227   3.363
 3185SOL     OW10453   0.457   6.570   5.914
 3185SOL    HW110454   0.460   6.486   5.860
 3185SOL    HW210455   0.548   6.588   5.952
 3186SOL     OW10456   3.315   0.441   1.897
 3186SOL    HW110457   3.374   0.511   1.856
 3186SOL    HW210458   3.219   0.463   1.878
 3187SOL     OW10459   2.920   4.436   0.081
 3187SOL    HW110460   2.936   4.396   7.018
 3187SOL    HW210461   3.007   4.466   0.120
 3188SOL     OW10462   4.872   0.366   3.324
 3188SOL    HW110463   4.900   0.441   3.264
 3188SOL    HW210464   4.820   0.299   3.271
 3189SOL     OW10465   0.342   7.002   1.573
 3189SOL    HW110466   0.280   0.054   1.582
 3189SOL    HW210467   0.373   6.994   1.479
 3190SOL     OW10468   0.791   6.807   1.374
 3190SOL    HW110469   0.812   6.711   1.393
 3190SOL    HW210470   0.695   6.824   1.395
 3191SOL     OW10471   3.365   0.465   1.076
 3191SOL    HW110472   3.277   0.494   1.036
 3191SOL    HW210473   3.425   0.433   1.003
 3192SOL     OW10474   5.973   2.561   3.745
 3192SOL    HW110475   6.002   2.608   3.829
 3192SOL    HW210476   5.880   2.526   3.757
 3193SOL     OW10477   4.969   4.359   6.986
 3193SOL    HW110478   4.963   4.386   6.889
 3193SOL    HW210479   4.945   4.437   0.017
 3194SOL     OW10480   1.616   4.863   5.862
 3194SOL    HW110481   1.673   4.942   5.841
 3194SOL    HW210482   1.597   4.812   5.778
 3195SOL     OW10483   0.641   3.832   2.851
 3195SOL    HW110484   0.692   3.752   2.884
 3195SOL    HW210485   0.699   3.886   2.791
 3196SOL     OW10486   0.420   6.339   5.276
 3196SOL    HW110487   0.329   6.309   5.247
 3196SOL    HW210488   0.410   6.399   5.356
 3197SOL     OW10489   0.899   3.894   4.338
 3197SOL    HW110490   0.875   3.814   4.282
 3197SOL    HW210491   0.904   3.975   4.279
 3198SOL     OW10492   5.585   0.325   0.294
 3198SOL    HW110493   5.540   0.309   0.382
 3198SOL    HW210494   5.595   0.238   0.246
 3199SOL     OW10495   3.617   2.107   2.775
 3199SOL    HW110496   3.625   2.124   2.677
 3199SOL    HW210497   3.560   2.027   2.790
 3200SOL     OW10498   6.991   1.873   0.916
 3200SOL    HW110499   6.904   1.892   0.961
 3200SOL    HW210500   6.976   1.867   0.817
 3201SOL     OW10501   4.612   4.488   3.193
 3201SOL    HW110502   4.531   4.545   3.203
 3201SOL    HW210503   4.690   4.532   3.238
 3202SOL     OW10504   1.881   5.714   2.035
 3202SOL    HW110505   1.810   5.675   2.093
 3202SOL    HW210506   1.969   5.709   2.081
 3203SOL     OW10507   5.677   6.891   1.403
 3203SOL    HW110508   5.690   6.927   1.311
 3203SOL    HW210509   5.629   6.959   1.459
 3204SOL     OW10510   6.319   6.247   1.571
 3204SOL    HW110511   6.220   6.232   1.564
 3204SOL    HW210512   6.344   6.331   1.522
 3205SOL     OW10513   1.328   3.680   3.225
 3205SOL    HW110514   1.377   3.765   3.245
 3205SOL    HW210515   1.394   3.608   3.206
 3206SOL     OW10516   1.441   6.343   0.164
 3206SOL    HW110517   1.425   6.401   0.243
 3206SOL    HW210518   1.372   6.271   0.161
 3207SOL     OW10519   0.819   1.464   2.897
 3207SOL    HW110520   0.811   1.491   2.801
 3207SOL    HW210521   0.732   1.480   2.943
 3208SOL     OW10522   6.134   0.612   5.262
 3208SOL    HW110523   6.176   0.558   5.334
 3208SOL    HW210524   6.184   0.698   5.252
 3209SOL     OW10525   2.755   0.320   2.802
 3209SOL    HW110526   2.819   0.247   2.825
 3209SOL    HW210527   2.691   0.289   2.731
 3210SOL     OW10528   0.556   4.892   2.762
 3210SOL    HW110529   0.475   4.841   2.731
 3210SOL    HW210530   0.627   4.888   2.692
 3211SOL     OW10531   0.920   4.315   2.835
 3211SOL    HW110532   0.985   4.382   2.871
 3211SOL    HW210533   0.969   4.232   2.809
 3212SOL     OW10534   4.866   3.037   5.107
 3212SOL    HW110535   4.820   3.046   5.195
 3212SOL    HW210536   4.848   3.118   5.051
 3213SOL     OW10537   5.107   6.689   1.440
 3213SOL    HW110538   5.125   6.593   1.462
 3213SOL    HW210539   5.010   6.700   1.419
 3214SOL     OW10540   4.239   4.187   5.953
 3214SOL    HW110541   4.319   4.191   6.012
 3214SOL    HW210542   4.158   4.217   6.003
 3215SOL     OW10543   5.866   0.867   0.342
 3215SOL    HW110544   5.856   0.785   0.398
 3215SOL    HW210545   5.861   0.841   0.245
 3216SOL     OW10546   6.271   6.601   4.859
 3216SOL    HW110547   6.271   6.537   4.935
 3216SOL    HW210548   6.272   6.551   4.772
 3217SOL     OW10549   6.815   4.200   0.646
 3217SOL    HW110550   6.729   4.224   0.691
 3217SOL    HW210551   6.797   4.135   0.573
 3218SOL     OW10552   3.743   0.966   1.892
 3218SOL    HW110553   3.705   0.882   1.854
 3218SOL    HW210554   3.795   1.014   1.821
 3219SOL     OW10555   6.826   6.770   4.268
 3219SOL    HW110556   6.735   6.730   4.256
 3219SOL    HW210557   6.835   6.804   4.362
 3220SOL     OW10558   6.004   2.904   6.297
 3220SOL    HW110559   6.060   2.895   6.215
 3220SOL    HW210560   5.907   2.906   6.271
 3221SOL     OW10561   3.709   0.112   2.328
 3221SOL    HW110562   3.732   0.110   2.231
 3221SOL    HW210563   3.623   0.161   2.341
 3222SOL     OW10564   6.025   3.804   2.650
 3222SOL    HW110565   6.106   3.746   2.655
 3222SOL    HW210566   6.052   3.900   2.659
 3223SOL     OW10567   2.517   4.568   3.983
 3223SOL    HW110568   2.436   4.569   3.925
 3223SOL    HW210569   2.506   4.498   4.054
 3224SOL     OW10570   3.677   5.799   1.409
 3224SOL    HW110571   3.634   5.722   1.363
 3224SOL    HW210572   3.689   5.875   1.345
 3225SOL     OW10573   2.368   2.393   1.178
 3225SOL    HW110574   2.410   2.457   1.114
 3225SOL    HW210575   2.308   2.442   1.240
 3226SOL     OW10576   0.503   0.991   4.210
 3226SOL    HW110577   0.551   1.038   4.284
 3226SOL    HW210578   0.537   0.898   4.202
 3227SOL     OW10579   2.159   1.794   5.521
 3227SOL    HW110580   2.258   1.796   5.536
 3227SOL    HW210581   2.135   1.713   5.467
 3228SOL     OW10582   4.933   3.294   4.684
 3228SOL    HW110583   4.951   3.196   4.670
 3228SOL    HW210584   4.913   3.337   4.595
 3229SOL     OW10585   4.048   1.774   5.247
 3229SOL    HW110586   4.096   1.825   5.318
 3229SOL    HW210587   4.094   1.788   5.159
 3230SOL     OW10588   1.465   0.490   3.930
 3230SOL    HW110589   1.547   0.528   3.972
 3230SOL    HW210590   1.431   0.552   3.860
 3231SOL     OW10591   4.949   5.499   0.353
 3231SOL    HW110592   5.038   5.508   0.308
 3231SOL    HW210593   4.950   5.420   0.415
 3232SOL     OW10594   2.408   4.457   3.245
 3232SOL    HW110595   2.420   4.535   3.184
 3232SOL    HW210596   2.373   4.379   3.193
 3233SOL     OW10597   1.572   3.741   0.866
 3233SOL    HW110598   1.653   3.689   0.894
 3233SOL    HW210599   1.528   3.780   0.946
 3234SOL     OW10600   6.523   2.334   4.743
 3234SOL    HW110601   6.535   2.389   4.660
 3234SOL    HW210602   6.431   2.295   4.744
 3235SOL     OW10603   5.448   0.567   2.723
 3235SOL    HW110604   5.373   0.538   2.783
 3235SOL    HW210605   5.521   0.499   2.724
 3236SOL     OW10606   0.101   2.927   1.757
 3236SOL    HW110607   0.187   2.976   1.761
 3236SOL    HW210608   0.109   2.850   1.693
 3237SOL     OW10609   2.951   6.415   4.465
 3237SOL    HW110610   2.918   6.325   4.437
 3237SOL    HW210611   2.890   6.486   4.429
 3238SOL     OW10612   6.027   6.320   6.377
 3238SOL    HW110613   6.098   6.289   6.314
 3238SOL    HW210614   5.939   6.319   6.330
 3239SOL     OW10615   0.693   5.445   5.747
 3239SOL    HW110616   0.638   5.421   5.826
 3239SOL    HW210617   0.643   5.421   5.663
 3240SOL     OW10618   0.197   2.163   5.225
 3240SOL    HW110619   0.151   2.122   5.146
 3240SOL    HW210620   0.140   2.152   5.307
 3241SOL     OW10621   4.854   0.099   5.431
 3241SOL    HW110622   4.912   0.026   5.393
 3241SOL    HW210623   4.882   0.187   5.394
 3242SOL     OW10624   3.343   6.651   0.302
 3242SOL    HW110625   3.434   6.689   0.283
 3242SOL    HW210626   3.314   6.677   0.394
 3243SOL     OW10627   3.818   5.412   0.852
 3243SOL    HW110628   3.814   5.503   0.895
 3243SOL    HW210629   3.818   5.423   0.753
 3244SOL     OW10630   1.593   6.006   5.353
 3244SOL    HW110631   1.507   6.056   5.359
 3244SOL    HW210632   1.632   6.017   5.262
 3245SOL     OW10633   2.522   2.106   5.627
 3245SOL    HW110634   2.564   2.084   5.539
 3245SOL    HW210635   2.508   2.022   5.680
 3246SOL     OW10636   5.618   6.259   3.470
 3246SOL    HW110637   5.697   6.252   3.411
 3246SOL    HW210638   5.539   6.291   3.417
 3247SOL     OW10639   6.826   1.873   5.550
 3247SOL    HW110640   6.737   1.919   5.556
 3247SOL    HW210641   6.817   1.779   5.580
 3248SOL     OW10642   5.288   4.043   2.874
 3248SOL    HW110643   5.362   4.067   2.811
 3248SOL    HW210644   5.200   4.068   2.832
 3249SOL     OW10645   3.245   4.254   5.590
 3249SOL    HW110646   3.305   4.191   5.541
 3249SOL    HW210647   3.181   4.201   5.646
 3250SOL     OW10648   4.696   5.610   1.730
 3250SOL    HW110649   4.611   5.558   1.718
 3250SOL    HW210650   4.729   5.597   1.824
 3251SOL     OW10651   3.466   0.986   3.515
 3251SOL    HW110652   3.512   0.955   3.432
 3251SOL    HW210653   3.370   0.958   3.512
 3252SOL     OW10654   3.031   2.114   3.664
 3252SOL    HW110655   3.055   2.046   3.733
 3252SOL    HW210656   2.955   2.170   3.698
 3253SOL     OW10657   4.469   4.128   1.245
 3253SOL    HW110658   4.376   4.164   1.232
 3253SOL    HW210659   4.474   4.081   1.332
 3254SOL     OW10660   5.439   4.431   2.726
 3254SOL    HW110661   5.382   4.474   2.796
 3254SOL    HW210662   5.401   4.449   2.636
 3255SOL     OW10663   4.394   4.627   0.956
 3255SOL    HW110664   4.341   4.701   0.999
 3255SOL    HW210665   4.487   4.627   0.993
 3256SOL     OW10666   6.353   6.144   5.630
 3256SOL    HW110667   6.401   6.101   5.706
 3256SOL    HW210668   6.355   6.084   5.550
 3257SOL     OW10669   2.408   1.650   1.132
 3257SOL    HW110670   2.449   1.740   1.116
 3257SOL    HW210671   2.358   1.652   1.219
 3258SOL     OW10672   5.241   6.523   1.731
 3258SOL    HW110673   5.180   6.445   1.746
 3258SOL    HW210674   5.215   6.598   1.792
 3259SOL     OW10675   6.235   6.566   3.021
 3259SOL    HW110676   6.211   6.505   2.946
 3259SOL    HW210677   6.335   6.575   3.026
 3260SOL     OW10678   1.526   2.389   0.633
 3260SOL    HW110679   1.434   2.356   0.654
 3260SOL    HW210680   1.558   2.447   0.708
 3261SOL     OW10681   4.321   0.234   3.688
 3261SOL    HW110682   4.388   0.186   3.745
 3261SOL    HW210683   4.314   0.189   3.599
 3262SOL     OW10684   4.093   1.459   4.191
 3262SOL    HW110685   4.161   1.389   4.172
 3262SOL    HW210686   4.003   1.416   4.204
 3263SOL     OW10687   3.396   5.213   2.932
 3263SOL    HW110688   3.420   5.282   2.864
 3263SOL    HW210689   3.345   5.139   2.888
 3264SOL     OW10690   4.928   4.547   5.789
 3264SOL    HW110691   4.852   4.612   5.795
 3264SOL    HW210692   4.920   4.494   5.705
 3265SOL     OW10693   5.286   0.391   6.426
 3265SOL    HW110694   5.336   0.465   6.470
 3265SOL    HW210695   5.228   0.429   6.354
 3266SOL     OW10696   0.815   2.550   0.281
 3266SOL    HW110697   0.907   2.585   0.298
 3266SOL    HW210698   0.807   2.457   0.317
 3267SOL     OW10699   4.974   2.648   1.914
 3267SOL    HW110700   5.022   2.636   2.001
 3267SOL    HW210701   4.963   2.746   1.895
 3268SOL     OW10702   1.988   4.692   6.950
 3268SOL    HW110703   1.919   4.629   6.916
 3268SOL    HW210704   1.945   4.777   6.979
 3269SOL     OW10705   4.505   3.777   1.023
 3269SOL    HW110706   4.447   3.787   1.104
 3269SOL    HW210707   4.596   3.815   1.043
 3270SOL     OW10708   0.356   5.242   4.011
 3270SOL    HW110709   0.414   5.314   4.048
 3270SOL    HW210710   0.369   5.158   4.065
 3271SOL     OW10711   4.985   0.727   2.074
 3271SOL    HW110712   4.988   0.637   2.032
 3271SOL    HW210713   5.000   0.718   2.173
 3272SOL     OW10714   5.007   0.102   0.148
 3272SOL    HW110715   4.980   0.053   0.066
 3272SOL    HW210716   4.943   0.083   0.222
 3273SOL     OW10717   1.197   1.060   2.997
 3273SOL    HW110718   1.113   1.011   2.973
 3273SOL    HW210719   1.226   1.117   2.921
 3274SOL     OW10720   2.776   1.714   0.089
 3274SOL    HW110721   2.694   1.726   0.033
 3274SOL    HW210722   2.843   1.784   0.064
 3275SOL     OW10723   4.487   0.819   0.269
 3275SOL    HW110724   4.408   0.849   0.323
 3275SOL    HW210725   4.554   0.893   0.265
 3276SOL     OW10726   2.186   6.226   0.083
 3276SOL    HW110727   2.092   6.197   0.067
 3276SOL    HW210728   2.196   6.323   0.063
 3277SOL     OW10729   0.315   5.840   5.928
 3277SOL    HW110730   0.286   5.928   5.891
 3277SOL    HW210731   0.388   5.855   5.995
 3278SOL     OW10732   1.187   1.201   0.776
 3278SOL    HW110733   1.109   1.248   0.736
 3278SOL    HW210734   1.186   1.212   0.875
 3279SOL     OW10735   2.288   6.095   1.449
 3279SOL    HW110736   2.369   6.089   1.391
 3279SOL    HW210737   2.278   6.011   1.501
 3280SOL     OW10738   2.945   6.084   4.211
 3280SOL    HW110739   2.939   6.167   4.155
 3280SOL    HW210740   2.879   6.090   4.286
 3281SOL     OW10741   2.886   6.335   0.559
 3281SOL    HW110742   2.843   6.267   0.618
 3281SOL    HW210743   2.827   6.353   0.480
 3282SOL     OW10744   2.226   5.968   2.670
 3282SOL    HW110745   2.127   5.965   2.680
 3282SOL    HW210746   2.251   6.040   2.605
 3283SOL     OW10747   2.075   0.138   4.131
 3283SOL    HW110748   2.145   0.096   4.073
 3283SOL    HW210749   2.119   0.182   4.210
 3284SOL     OW10750   1.043   5.294   5.940
 3284SOL    HW110751   1.054   5.293   5.840
 3284SOL    HW210752   1.105   5.362   5.979
 3285SOL     OW10753   0.177   2.633   4.862
 3285SOL    HW110754   0.188   2.536   4.884
 3285SOL    HW210755   0.151   2.683   4.945
 3286SOL     OW10756   4.647   4.798   6.305
 3286SOL    HW110757   4.690   4.874   6.256
 3286SOL    HW210758   4.588   4.747   6.242
 3287SOL     OW10759   0.785   3.677   1.648
 3287SOL    HW110760   0.741   3.587   1.646
 3287SOL    HW210761   0.739   3.735   1.715
 3288SOL     OW10762   1.060   6.142   6.027
 3288SOL    HW110763   1.077   6.234   5.992
 3288SOL    HW210764   1.027   6.147   6.121
 3289SOL     OW10765   1.546   5.591   4.229
 3289SOL    HW110766   1.553   5.617   4.326
 3289SOL    HW210767   1.628   5.540   4.203
 3290SOL     OW10768   0.335   4.672   3.477
 3290SOL    HW110769   0.384   4.648   3.393
 3290SOL    HW210770   0.303   4.766   3.471
 3291SOL     OW10771   1.508   0.559   1.641
 3291SOL    HW110772   1.602   0.526   1.648
 3291SOL    HW210773   1.507   0.659   1.641
 3292SOL     OW10774   0.215   5.382   5.049
 3292SOL    HW110775   0.246   5.469   5.086
 3292SOL    HW210776   0.294   5.324   5.029
 3293SOL     OW10777   5.658   0.785   2.492
 3293SOL    HW110778   5.714   0.781   2.409
 3293SOL    HW210779   5.568   0.747   2.473
 3294SOL     OW10780   0.710   6.509   0.725
 3294SOL    HW110781   0.704   6.498   0.626
 3294SOL    HW210782   0.804   6.527   0.751
 3295SOL     OW10783   1.728   2.201   6.512
 3295SOL    HW110784   1.828   2.196   6.499
 3295SOL    HW210785   1.682   2.179   6.426
 3296SOL     OW10786   0.965   6.670   2.068
 3296SOL    HW110787   0.999   6.687   1.975
 3296SOL    HW210788   0.887   6.729   2.085
 3297SOL     OW10789   2.833   1.463   6.217
 3297SOL    HW110790   2.879   1.418   6.293
 3297SOL    HW210791   2.781   1.396   6.164
 3298SOL     OW10792   6.640   4.336   2.649
 3298SOL    HW110793   6.727   4.372   2.681
 3298SOL    HW210794   6.574   4.336   2.724
 3299SOL     OW10795   0.634   1.083   4.862
 3299SOL    HW110796   0.590   1.105   4.774
 3299SOL    HW210797   0.725   1.123   4.864
 3300SOL     OW10798   0.364   0.058   4.756
 3300SOL    HW110799   0.315   0.115   4.821
 3300SOL    HW210800   0.383   6.995   4.797
 3301SOL     OW10801   6.982   3.975   2.578
 3301SOL    HW110802   6.914   3.904   2.561
 3301SOL    HW210803   6.977   4.004   2.673
 3302SOL     OW10804   1.263   5.774   5.225
 3302SOL    HW110805   1.214   5.861   5.219
 3302SOL    HW210806   1.315   5.772   5.311
 3303SOL     OW10807   2.921   3.295   3.524
 3303SOL    HW110808   2.999   3.242   3.491
 3303SOL    HW210809   2.883   3.250   3.605
 3304SOL     OW10810   1.577   0.879   2.885
 3304SOL    HW110811   1.622   0.965   2.861
 3304SOL    HW210812   1.642   0.803   2.874
 3305SOL     OW10813   0.238   2.265   0.559
 3305SOL    HW110814   0.235   2.232   0.464
 3305SOL    HW210815   0.214   2.362   0.561
 3306SOL     OW10816   1.223   3.339   2.278
 3306SOL    HW110817   1.279   3.411   2.318
 3306SOL    HW210818   1.141   3.325   2.334
 3307SOL     OW10819   0.496   0.322   0.595
 3307SOL    HW110820   0.475   0.342   0.499
 3307SOL    HW210821   0.481   0.225   0.612
 3308SOL     OW10822   5.549   6.457   0.769
 3308SOL    HW110823   5.477   6.389   0.770
 3308SOL    HW210824   5.620   6.432   0.835
 3309SOL     OW10825   1.395   5.568   2.285
 3309SOL    HW110826   1.352   5.563   2.195
 3309SOL    HW210827   1.338   5.623   2.346
 3310SOL     OW10828   1.420   6.784   1.652
 3310SOL    HW110829   1.401   6.814   1.746
 3310SOL    HW210830   1.499   6.722   1.652
 3311SOL     OW10831   4.086   5.974   1.058
 3311SOL    HW110832   4.046   6.065   1.049
 3311SOL    HW210833   4.174   5.972   1.011
 3312SOL     OW10834   2.199   2.994   0.047
 3312SOL    HW110835   2.109   3.034   0.062
 3312SOL    HW210836   2.247   3.045   7.001
 3313SOL     OW10837   6.359   6.218   4.949
 3313SOL    HW110838   6.305   6.138   4.975
 3313SOL    HW210839   6.346   6.291   5.016
 3314SOL     OW10840   0.696   4.119   6.688
 3314SOL    HW110841   0.604   4.140   6.653
 3314SOL    HW210842   0.757   4.103   6.610
 3315SOL     OW10843   6.439   3.491   3.425
 3315SOL    HW110844   6.459   3.410   3.370
 3315SOL    HW210845   6.367   3.469   3.492
 3316SOL     OW10846   3.993   1.565   0.379
 3316SOL    HW110847   3.959   1.479   0.343
 3316SOL    HW210848   4.092   1.558   0.394
 3317SOL     OW10849   4.257   2.647   1.609
 3317SOL    HW110850   4.331   2.622   1.671
 3317SOL    HW210851   4.171   2.654   1.660
 3318SOL     OW10852   2.670   5.119   5.300
 3318SOL    HW110853   2.726   5.120   5.217
 3318SOL    HW210854   2.701   5.045   5.360
 3319SOL     OW10855   6.717   6.482   6.804
 3319SOL    HW110856   6.716   6.460   6.902
 3319SOL    HW210857   6.775   6.562   6.788
 3320SOL     OW10858   0.422   0.267   0.328
 3320SOL    HW110859   0.450   0.186   0.276
 3320SOL    HW210860   0.380   0.334   0.267
 3321SOL     OW10861   4.040   3.296   4.185
 3321SOL    HW110862   4.083   3.222   4.132
 3321SOL    HW210863   4.057   3.383   4.140
 3322SOL     OW10864   4.185   2.323   1.994
 3322SOL    HW110865   4.091   2.302   1.966
 3322SOL    HW210866   4.231   2.373   1.921
 3323SOL     OW10867   2.405   4.271   0.186
 3323SOL    HW110868   2.491   4.301   0.146
 3323SOL    HW210869   2.333   4.272   0.116
 3324SOL     OW10870   6.167   3.394   1.687
 3324SOL    HW110871   6.068   3.377   1.693
 3324SOL    HW210872   6.183   3.479   1.637
 3325SOL     OW10873   1.147   4.467   6.258
 3325SOL    HW110874   1.168   4.482   6.161
 3325SOL    HW210875   1.089   4.386   6.266
 3326SOL     OW10876   5.929   1.084   1.558
 3326SOL    HW110877   5.988   1.162   1.580
 3326SOL    HW210878   5.979   1.020   1.499
 3327SOL     OW10879   4.075   5.655   1.684
 3327SOL    HW110880   4.156   5.691   1.731
 3327SOL    HW210881   4.041   5.723   1.619
 3328SOL     OW10882   6.370   6.939   4.199
 3328SOL    HW110883   6.436   6.913   4.270
 3328SOL    HW210884   6.415   7.000   4.133
 3329SOL     OW10885   5.080   0.892   6.304
 3329SOL    HW110886   5.145   0.842   6.247
 3329SOL    HW210887   5.118   0.904   6.396
 3330SOL     OW10888   6.824   6.415   3.212
 3330SOL    HW110889   6.861   6.390   3.301
 3330SOL    HW210890   6.897   6.416   3.144
 3331SOL     OW10891   1.617   3.908   2.830
 3331SOL    HW110892   1.533   3.878   2.874
 3331SOL    HW210893   1.672   3.828   2.805
 3332SOL     OW10894   3.271   5.400   0.254
 3332SOL    HW110895   3.333   5.476   0.232
 3332SOL    HW210896   3.323   5.325   0.295
 3333SOL     OW10897   2.135   3.172   1.402
 3333SOL    HW110898   2.035   3.172   1.391
 3333SOL    HW210899   2.169   3.078   1.404
 3334SOL     OW10900   1.384   2.499   1.920
 3334SOL    HW110901   1.384   2.518   1.822
 3334SOL    HW210902   1.478   2.485   1.952
 3335SOL     OW10903   3.469   4.119   5.316
 3335SOL    HW110904   3.478   4.069   5.402
 3335SOL    HW210905   3.386   4.090   5.270
 3336SOL     OW10906   4.403   6.107   5.190
 3336SOL    HW110907   4.361   6.017   5.174
 3336SOL    HW210908   4.334   6.179   5.177
 3337SOL     OW10909   3.840   2.965   3.282
 3337SOL    HW110910   3.842   3.019   3.198
 3337SOL    HW210911   3.760   2.905   3.281
 3338SOL     OW10912   3.079   2.985   1.413
 3338SOL    HW110913   3.115   2.915   1.475
 3338SOL    HW210914   2.983   2.967   1.394
 3339SOL     OW10915   1.276   7.022   6.888
 3339SOL    HW110916   1.230   0.064   6.831
 3339SOL    HW210917   1.353   6.983   6.837
 3340SOL     OW10918   3.959   1.456   5.762
 3340SOL    HW110919   3.880   1.487   5.814
 3340SOL    HW210920   3.939   1.460   5.664
 3341SOL     OW10921   1.057   4.364   1.359
 3341SOL    HW110922   0.960   4.345   1.340
 3341SOL    HW210923   1.109   4.279   1.356
 3342SOL     OW10924   6.297   0.612   2.666
 3342SOL    HW110925   6.373   0.603   2.601
 3342SOL    HW210926   6.216   0.567   2.630
 3343SOL     OW10927   3.643   5.631   0.541
 3343SOL    HW110928   3.670   5.536   0.555
 3343SOL    HW210929   3.688   5.666   0.458
 3344SOL     OW10930   1.056   3.583   1.941
 3344SOL    HW110931   0.998   3.507   1.970
 3344SOL    HW210932   1.150   3.552   1.931
 3345SOL     OW10933   5.970   5.401   1.518
 3345SOL    HW110934   5.931   5.356   1.599
 3345SOL    HW210935   6.065   5.372   1.507
 3346SOL     OW10936   1.209   0.757   7.022
 3346SOL    HW110937   1.232   0.827   6.954
 3346SOL    HW210938   1.284   0.748   0.061
 3347SOL     OW10939   0.731   3.787   5.899
 3347SOL    HW110940   0.656   3.843   5.934
 3347SOL    HW210941   0.733   3.793   5.799
 3348SOL     OW10942   3.742   4.262   6.144
 3348SOL    HW110943   3.652   4.291   6.173
 3348SOL    HW210944   3.777   4.192   6.207
 3349SOL     OW10945   1.926   5.206   2.190
 3349SOL    HW110946   1.966   5.132   2.136
 3349SOL    HW210947   1.998   5.267   2.221
 3350SOL     OW10948   1.850   4.882   5.016
 3350SOL    HW110949   1.837   4.925   5.105
 3350SOL    HW210950   1.888   4.790   5.029
 3351SOL     OW10951   5.492   0.613   2.039
 3351SOL    HW110952   5.435   0.628   2.121
 3351SOL    HW210953   5.587   0.638   2.060
 3352SOL     OW10954   5.472   1.355   7.025
 3352SOL    HW110955   5.441   1.366   0.093
 3352SOL    HW210956   5.401   1.307   6.973
 3353SOL     OW10957   4.177   1.190   6.539
 3353SOL    HW110958   4.122   1.247   6.601
 3353SOL    HW210959   4.116   1.132   6.485
 3354SOL     OW10960   2.144   3.257   0.804
 3354SOL    HW110961   2.094   3.225   0.885
 3354SOL    HW210962   2.236   3.285   0.831
 3355SOL     OW10963   1.123   0.493   4.539
 3355SOL    HW110964   1.153   0.587   4.526
 3355SOL    HW210965   1.070   0.486   4.623
 3356SOL     OW10966   2.213   0.799   6.403
 3356SOL    HW110967   2.257   0.718   6.364
 3356SOL    HW210968   2.261   0.827   6.486
 3357SOL     OW10969   3.006   3.129   2.938
 3357SOL    HW110970   2.938   3.057   2.952
 3357SOL    HW210971   3.028   3.136   2.841
 3358SOL     OW10972   0.594   1.778   1.569
 3358SOL    HW110973   0.596   1.708   1.497
 3358SOL    HW210974   0.621   1.736   1.656
 3359SOL     OW10975   0.961   6.814   4.554
 3359SOL    HW110976   0.985   6.815   4.457
 3359SOL    HW210977   0.933   6.722   4.580
 3360SOL     OW10978   2.218   5.329   4.579
 3360SOL    HW110979   2.150   5.313   4.507
 3360SOL    HW210980   2.204   5.262   4.652
 3361SOL     OW10981   6.972   6.749   4.842
 3361SOL    HW110982   6.960   6.701   4.755
 3361SOL    HW210983   6.892   6.805   4.861
 3362SOL     OW10984   3.790   0.578   4.199
 3362SOL    HW110985   3.702   0.566   4.245
 3362SOL    HW210986   3.864   0.550   4.260
 3363SOL     OW10987   5.092   4.113   7.024
 3363SOL    HW110988   5.184   4.150   7.013
 3363SOL    HW210989   5.025   4.183   7.003
 3364SOL     OW10990   1.323   3.508   1.918
 3364SOL    HW110991   1.394   3.572   1.949
 3364SOL    HW210992   1.331   3.422   1.969
 3365SOL     OW10993   1.174   3.050   3.219
 3365SOL    HW110994   1.132   3.140   3.209
 3365SOL    HW210995   1.107   2.986   3.256
 3366SOL     OW10996   6.458   2.957   4.516
 3366SOL    HW110997   6.368   2.924   4.543
 3366SOL    HW210998   6.486   3.031   4.577
 3367SOL     OW10999   3.392   2.862   3.782
 3367SOL    HW111000   3.391   2.884   3.880
 3367SOL    HW211001   3.471   2.804   3.761
 3368SOL     OW11002   2.490   1.085   3.389
 3368SOL    HW111003   2.497   0.988   3.413
 3368SOL    HW211004   2.411   1.098   3.330
 3369SOL     OW11005   4.859   3.095   1.282
 3369SOL    HW111006   4.887   3.124   1.190
 3369SOL    HW211007   4.897   3.159   1.350
 3370SOL     OW11008   0.900   6.159   2.904
 3370SOL    HW111009   0.955   6.165   2.988
 3370SOL    HW211010   0.857   6.069   2.899
 3371SOL     OW11011   2.187   2.576   1.256
 3371SOL    HW111012   2.256   2.647   1.240
 3371SOL    HW211013   2.110   2.589   1.194
 3372SOL     OW11014   5.984   3.089   3.791
 3372SOL    HW111015   5.958   3.089   3.887
 3372SOL    HW211016   5.925   3.152   3.740
 3373SOL     OW11017   6.982   4.296   0.951
 3373SOL    HW111018   6.910   4.357   0.916
 3373SOL    HW211019   6.974   4.290   1.050
 3374SOL     OW11020   0.723   6.121   4.232
 3374SOL    HW111021   0.750   6.211   4.196
 3374SOL    HW211022   0.630   6.100   4.203
 3375SOL     OW11023   0.443   6.131   5.895
 3375SOL    HW111024   0.419   6.211   5.841
 3375SOL    HW211025   0.537   6.139   5.927
 3376SOL     OW11026   3.311   2.984   5.194
 3376SOL    HW111027   3.279   3.067   5.148
 3376SOL    HW211028   3.400   2.958   5.157
 3377SOL     OW11029   6.834   5.392   4.449
 3377SOL    HW111030   6.769   5.461   4.416
 3377SOL    HW211031   6.793   5.342   4.525
 3378SOL     OW11032   1.116   5.858   0.857
 3378SOL    HW111033   1.104   5.859   0.758
 3378SOL    HW211034   1.210   5.833   0.879
 3379SOL     OW11035   5.911   3.830   4.047
 3379SOL    HW111036   5.993   3.884   4.063
 3379SOL    HW211037   5.839   3.859   4.110
 3380SOL     OW11038   2.452   5.261   1.281
 3380SOL    HW111039   2.400   5.182   1.316
 3380SOL    HW211040   2.440   5.268   1.182
 3381SOL     OW11041   2.745   3.707   6.404
 3381SOL    HW111042   2.800   3.763   6.341
 3381SOL    HW211043   2.712   3.764   6.479
 3382SOL     OW11044   6.894   3.908   6.789
 3382SOL    HW111045   6.830   3.983   6.805
 3382SOL    HW211046   6.853   3.822   6.817
 3383SOL     OW11047   3.542   5.587   1.005
 3383SOL    HW111048   3.635   5.618   0.989
 3383SOL    HW211049   3.544   5.498   1.050
 3384SOL     OW11050   2.614   2.851   6.475
 3384SOL    HW111051   2.570   2.800   6.402
 3384SOL    HW211052   2.619   2.948   6.451
 3385SOL     OW11053   6.066   2.210   4.272
 3385SOL    HW111054   6.079   2.111   4.261
 3385SOL    HW211055   6.141   2.248   4.326
 3386SOL     OW11056   0.609   5.756   4.466
 3386SOL    HW111057   0.708   5.772   4.472
 3386SOL    HW211058   0.576   5.785   4.377
 3387SOL     OW11059   6.038   0.926   2.870
 3387SOL    HW111060   6.127   0.958   2.836
 3387SOL    HW211061   5.998   0.864   2.804
 3388SOL     OW11062   6.718   3.604   0.562
 3388SOL    HW111063   6.780   3.682   0.575
 3388SOL    HW211064   6.673   3.582   0.648
 3389SOL     OW11065   6.164   5.527   6.363
 3389SOL    HW111066   6.118   5.477   6.436
 3389SOL    HW211067   6.261   5.504   6.363
 3390SOL     OW11068   3.131   5.111   0.179
 3390SOL    HW111069   3.212   5.129   0.122
 3390SOL    HW211070   3.154   5.129   0.275
 3391SOL     OW11071   5.132   3.874   4.996
 3391SOL    HW111072   5.077   3.793   4.976
 3391SOL    HW211073   5.074   3.955   4.990
 3392SOL     OW11074   5.089   6.228   6.127
 3392SOL    HW111075   5.173   6.282   6.135
 3392SOL    HW211076   5.085   6.186   6.037
 3393SOL     OW11077   3.674   6.603   0.258
 3393SOL    HW111078   3.748   6.565   0.202
 3393SOL    HW211079   3.621   6.528   0.298
 3394SOL     OW11080   3.027   5.062   0.957
 3394SOL    HW111081   2.932   5.038   0.976
 3394SOL    HW211082   3.064   5.114   1.035
 3395SOL     OW11083   2.198   6.855   2.971
 3395SOL    HW111084   2.151   6.943   2.980
 3395SOL    HW211085   2.268   6.848   3.042
 3396SOL     OW11086   5.030   0.272   4.212
 3396SOL    HW111087   5.087   0.348   4.244
 3396SOL    HW211088   4.948   0.308   4.168
 3397SOL     OW11089   2.529   6.321   0.695
 3397SOL    HW111090   2.613   6.286   0.737
 3397SOL    HW211091   2.542   6.417   0.671
 3398SOL     OW11092   6.251   1.189   6.454
 3398SOL    HW111093   6.273   1.248   6.532
 3398SOL    HW211094   6.214   1.245   6.380
 3399SOL     OW11095   6.654   6.371   2.176
 3399SOL    HW111096   6.650   6.436   2.100
 3399SOL    HW211097   6.743   6.379   2.221
 3400SOL     OW11098   3.587   2.689   5.261
 3400SOL    HW111099   3.682   2.720   5.270
 3400SOL    HW211100   3.546   2.730   5.180
 3401SOL     OW11101   7.014   3.219   4.414
 3401SOL    HW111102   6.977   3.144   4.359
 3401SOL    HW211103   0.076   3.247   4.377
 3402SOL     OW11104   5.734   3.339   0.487
 3402SOL    HW111105   5.791   3.410   0.446
 3402SOL    HW211106   5.652   3.380   0.526
 3403SOL     OW11107   5.765   6.430   5.870
 3403SOL    HW111108   5.831   6.443   5.944
 3403SOL    HW211109   5.685   6.488   5.886
 3404SOL     OW11110   4.848   5.201   3.067
 3404SOL    HW111111   4.899   5.199   2.981
 3404SOL    HW211112   4.842   5.109   3.104
 3405SOL     OW11113   4.416   6.328   0.353
 3405SOL    HW111114   4.397   6.265   0.277
 3405SOL    HW211115   4.341   6.394   0.360
 3406SOL     OW11116   4.038   4.967   1.034
 3406SOL    HW111117   3.969   5.005   0.973
 3406SOL    HW211118   4.025   5.004   1.126
 3407SOL     OW11119   1.003   2.992   0.224
 3407SOL    HW111120   1.095   2.997   0.263
 3407SOL    HW211121   0.964   3.084   0.217
 3408SOL     OW11122   4.160   6.891   4.414
 3408SOL    HW111123   4.124   6.971   4.462
 3408SOL    HW211124   4.259   6.889   4.421
 3409SOL     OW11125   3.883   1.794   0.274
 3409SOL    HW111126   3.927   1.708   0.300
 3409SOL    HW211127   3.881   1.802   0.174
 3410SOL     OW11128   6.409   0.679   2.917
 3410SOL    HW111129   6.383   0.769   2.951
 3410SOL    HW211130   6.352   0.655   2.839
 3411SOL     OW11131   6.014   2.962   5.985
 3411SOL    HW111132   6.053   3.052   5.967
 3411SOL    HW211133   6.030   2.903   5.905
 3412SOL     OW11134   5.786   2.846   3.643
 3412SOL    HW111135   5.763   2.942   3.655
 3412SOL    HW211136   5.886   2.836   3.635
 3413SOL     OW11137   6.774   2.529   0.970
 3413SOL    HW111138   6.849   2.467   0.989
 3413SOL    HW211139   6.701   2.514   1.037
 3414SOL     OW11140   3.619   3.286   1.583
 3414SOL    HW111141   3.635   3.385   1.579
 3414SOL    HW211142   3.707   3.239   1.591
 3415SOL     OW11143   2.193   1.544   6.377
 3415SOL    HW111144   2.188   1.643   6.376
 3415SOL    HW211145   2.130   1.508   6.446
 3416SOL     OW11146   6.193   6.930   6.184
 3416SOL    HW111147   6.286   6.894   6.175
 3416SOL    HW211148   6.128   6.853   6.186
 3417SOL     OW11149   5.768   0.448   2.413
 3417SOL    HW111150   5.775   0.350   2.430
 3417SOL    HW211151   5.855   0.482   2.376
 3418SOL     OW11152   4.340   5.702   0.692
 3418SOL    HW111153   4.326   5.693   0.791
 3418SOL    HW211154   4.437   5.699   0.671
 3419SOL     OW11155   2.916   4.854   5.200
 3419SOL    HW111156   2.944   4.907   5.120
 3419SOL    HW211157   2.906   4.758   5.175
 3420SOL     OW11158   4.338   0.996   2.333
 3420SOL    HW111159   4.298   0.960   2.249
 3420SOL    HW211160   4.418   1.051   2.311
 3421SOL     OW11161   0.205   1.717   5.120
 3421SOL    HW111162   0.231   1.795   5.177
 3421SOL    HW211163   0.286   1.680   5.075
 3422SOL     OW11164   3.431   5.827   1.778
 3422SOL    HW111165   3.524   5.834   1.740
 3422SOL    HW211166   3.369   5.885   1.725
 3423SOL     OW11167   2.532   4.297   5.806
 3423SOL    HW111168   2.458   4.319   5.868
 3423SOL    HW211169   2.539   4.367   5.736
 3424SOL     OW11170   5.565   0.889   2.001
 3424SOL    HW111171   5.581   0.987   2.003
 3424SOL    HW211172   5.653   0.841   1.999
 3425SOL     OW11173   6.386   2.749   6.374
 3425SOL    HW111174   6.448   2.828   6.368
 3425SOL    HW211175   6.341   2.736   6.285
 3426SOL     OW11176   6.537   5.303   0.202
 3426SOL    HW111177   6.582   5.358   0.131
 3426SOL    HW211178   6.585   5.216   0.212
 3427SOL     OW11179   1.867   1.421   6.349
 3427SOL    HW111180   1.909   1.428   6.439
 3427SOL    HW211181   1.875   1.509   6.301
 3428SOL     OW11182   5.247   0.107   4.474
 3428SOL    HW111183   5.327   0.088   4.530
 3428SOL    HW211184   5.276   0.148   4.388
 3429SOL     OW11185   4.119   6.811   0.724
 3429SOL    HW111186   4.076   6.745   0.784
 3429SOL    HW211187   4.051   6.877   0.692
 3430SOL     OW11188   2.729   4.310   6.435
 3430SOL    HW111189   2.679   4.395   6.421
 3430SOL    HW211190   2.772   4.310   6.525
 3431SOL     OW11191   0.762   4.657   2.858
 3431SOL    HW111192   0.847   4.604   2.861
 3431SOL    HW211193   0.735   4.671   2.763
 3432SOL     OW11194   0.529   4.902   0.117
 3432SOL    HW111195   0.602   4.862   0.062
 3432SOL    HW211196   0.561   4.987   0.160
 3433SOL     OW11197   1.101   1.043   0.287
 3433SOL    HW111198   1.158   1.061   0.207
 3433SOL    HW211199   1.156   1.049   0.370
 3434SOL     OW11200   3.927   2.390   1.729
 3434SOL    HW111201   3.956   2.485   1.743
 3434SOL    HW211202   3.846   2.372   1.784
 3435SOL     OW11203   2.119   2.317   1.359
 3435SOL    HW111204   2.100   2.415   1.353
 3435SOL    HW211205   2.134   2.281   1.267
 3436SOL     OW11206   4.184   6.434   5.989
 3436SOL    HW111207   4.253   6.362   5.991
 3436SOL    HW211208   4.224   6.519   6.026
 3437SOL     OW11209   1.343   6.590   0.338
 3437SOL    HW111210   1.338   6.640   0.251
 3437SOL    HW211211   1.426   6.616   0.387
 3438SOL     OW11212   2.576   4.240   0.877
 3438SOL    HW111213   2.578   4.142   0.896
 3438SOL    HW211214   2.509   4.259   0.805
 3439SOL     OW11215   3.119   5.665   0.202
 3439SOL    HW111216   3.067   5.586   0.233
 3439SOL    HW211217   3.200   5.677   0.259
 3440SOL     OW11218   3.748   4.012   5.708
 3440SOL    HW111219   3.719   4.017   5.804
 3440SOL    HW211220   3.731   3.921   5.673
 3441SOL     OW11221   6.867   4.986   4.676
 3441SOL    HW111222   6.926   4.949   4.604
 3441SOL    HW211223   6.832   4.911   4.733
 3442SOL     OW11224   1.048   2.531   0.577
 3442SOL    HW111225   0.957   2.494   0.594
 3442SOL    HW211226   1.061   2.542   0.478
 3443SOL     OW11227   0.580   6.122   2.514
 3443SOL    HW111228   0.602   6.219   2.510
 3443SOL    HW211229   0.573   6.084   2.422
 3444SOL     OW11230   0.300   3.985   6.176
 3444SOL    HW111231   0.238   4.042   6.123
 3444SOL    HW211232   0.294   4.010   6.272
 3445SOL     OW11233   6.090   4.799   4.764
 3445SOL    HW111234   6.121   4.834   4.676
 3445SOL    HW211235   6.020   4.728   4.750
 3446SOL     OW11236   4.531   1.542   0.762
 3446SOL    HW111237   4.628   1.538   0.783
 3446SOL    HW211238   4.487   1.611   0.820
 3447SOL     OW11239   4.569   1.733   5.861
 3447SOL    HW111240   4.651   1.678   5.844
 3447SOL    HW211241   4.593   1.830   5.857
 3448SOL     OW11242   0.896   5.063   5.720
 3448SOL    HW111243   0.924   5.097   5.810
 3448SOL    HW211244   0.796   5.061   5.716
 3449SOL     OW11245   0.994   3.663   5.519
 3449SOL    HW111246   0.971   3.569   5.495
 3449SOL    HW211247   0.911   3.712   5.545
 3450SOL     OW11248   2.763   6.959   2.349
 3450SOL    HW111249   2.696   6.907   2.401
 3450SOL    HW211250   2.791   6.908   2.268
 3451SOL     OW11251   1.995   2.135   0.793
 3451SOL    HW111252   1.929   2.069   0.759
 3451SOL    HW211253   1.999   2.214   0.731
 3452SOL     OW11254   4.231   1.855   6.238
 3452SOL    HW111255   4.158   1.815   6.183
 3452SOL    HW211256   4.317   1.808   6.217
 3453SOL     OW11257   4.656   6.509   6.093
 3453SOL    HW111258   4.697   6.421   6.118
 3453SOL    HW211259   4.633   6.560   6.175
 3454SOL     OW11260   1.105   3.301   2.526
 3454SOL    HW111261   1.119   3.398   2.549
 3454SOL    HW211262   1.170   3.245   2.578
 3455SOL     OW11263   0.781   4.075   6.432
 3455SOL    HW111264   0.707   4.013   6.404
 3455SOL    HW211265   0.863   4.022   6.452
 3456SOL     OW11266   4.245   5.571   3.242
 3456SOL    HW111267   4.149   5.582   3.268
 3456SOL    HW211268   4.252   5.504   3.168
 3457SOL     OW11269   4.238   4.514   0.379
 3457SOL    HW111270   4.310   4.465   0.428
 3457SOL    HW211271   4.152   4.464   0.388
 3458SOL     OW11272   4.745   1.613   1.315
 3458SOL    HW111273   4.711   1.548   1.383
 3458SOL    HW211274   4.781   1.694   1.362
 3459SOL     OW11275   6.229   6.242   2.089
 3459SOL    HW111276   6.278   6.316   2.135
 3459SOL    HW211277   6.159   6.281   2.029
 3460SOL     OW11278   3.753   1.970   5.300
 3460SOL    HW111279   3.713   2.014   5.219
 3460SOL    HW211280   3.823   1.905   5.271
 3461SOL     OW11281   4.742   4.635   4.060
 3461SOL    HW111282   4.795   4.621   4.144
 3461SOL    HW211283   4.668   4.699   4.077
 3462SOL     OW11284   1.020   4.940   6.223
 3462SOL    HW111285   1.023   4.852   6.270
 3462SOL    HW211286   0.927   4.958   6.190
 3463SOL     OW11287   5.885   3.767   0.139
 3463SOL    HW111288   5.816   3.708   0.098
 3463SOL    HW211289   5.936   3.716   0.208
 3464SOL     OW11290   0.236   4.451   3.878
 3464SOL    HW111291   0.189   4.476   3.963
 3464SOL    HW211292   0.334   4.441   3.897
 3465SOL     OW11293   0.601   3.088   2.267
 3465SOL    HW111294   0.647   3.046   2.189
 3465SOL    HW211295   0.670   3.121   2.333
 3466SOL     OW11296   6.513   3.650   3.633
 3466SOL    HW111297   6.505   3.579   3.564
 3466SOL    HW211298   6.427   3.701   3.639
 3467SOL     OW11299   1.914   2.497   5.911
 3467SOL    HW111300   1.850   2.572   5.928
 3467SOL    HW211301   1.999   2.534   5.873
 3468SOL     OW11302   4.852   6.094   1.913
 3468SOL    HW111303   4.759   6.057   1.912
 3468SOL    HW211304   4.891   6.087   1.821
 3469SOL     OW11305   5.667   4.272   0.277
 3469SOL    HW111306   5.595   4.334   0.307
 3469SOL    HW211307   5.750   4.325   0.257
 3470SOL     OW11308   6.257   4.990   1.291
 3470SOL    HW111309   6.346   5.016   1.254
 3470SOL    HW211310   6.191   5.062   1.270
 3471SOL     OW11311   4.456   6.850   4.457
 3471SOL    HW111312   4.414   6.849   4.548
 3471SOL    HW211313   4.545   6.894   4.462
 3472SOL     OW11314   4.349   1.469   4.980
 3472SOL    HW111315   4.280   1.397   4.966
 3472SOL    HW211316   4.427   1.430   5.029
 3473SOL     OW11317   4.521   6.971   4.012
 3473SOL    HW111318   4.504   6.875   4.031
 3473SOL    HW211319   4.597   7.003   4.069
 3474SOL     OW11320   4.842   4.235   0.187
 3474SOL    HW111321   4.870   4.289   0.108
 3474SOL    HW211322   4.746   4.207   0.176
 3475SOL     OW11323   1.713   5.205   5.137
 3475SOL    HW111324   1.805   5.245   5.133
 3475SOL    HW211325   1.717   5.119   5.187
 3476SOL     OW11326   4.276   1.955   4.196
 3476SOL    HW111327   4.198   2.005   4.160
 3476SOL    HW211328   4.290   1.979   4.293
 3477SOL     OW11329   4.408   5.179   1.807
 3477SOL    HW111330   4.315   5.160   1.775
 3477SOL    HW211331   4.425   5.277   1.804
 3478SOL     OW11332   3.883   3.974   0.388
 3478SOL    HW111333   3.809   4.012   0.443
 3478SOL    HW211334   3.920   4.045   0.328
 3479SOL     OW11335   1.672   0.212   0.713
 3479SOL    HW111336   1.645   0.301   0.675
 3479SOL    HW211337   1.724   0.226   0.797
 3480SOL     OW11338   1.427   6.955   3.868
 3480SOL    HW111339   1.487   6.986   3.942
 3480SOL    HW211340   1.339   6.927   3.905
 3481SOL     OW11341   1.945   6.085   7.022
 3481SOL    HW111342   1.846   6.080   7.010
 3481SOL    HW211343   1.989   6.102   6.934
 3482SOL     OW11344   0.290   2.438   1.802
 3482SOL    HW111345   0.370   2.400   1.756
 3482SOL    HW211346   0.207   2.392   1.769
 3483SOL     OW11347   3.566   1.385   0.541
 3483SOL    HW111348   3.525   1.303   0.581
 3483SOL    HW211349   3.663   1.390   0.566
 3484SOL     OW11350   3.696   4.092   3.628
 3484SOL    HW111351   3.644   4.154   3.569
 3484SOL    HW211352   3.649   4.083   3.716
 3485SOL     OW11353   6.075   1.712   5.200
 3485SOL    HW111354   6.143   1.639   5.208
 3485SOL    HW211355   6.013   1.692   5.124
 3486SOL     OW11356   5.655   0.771   3.437
 3486SOL    HW111357   5.657   0.760   3.337
 3486SOL    HW211358   5.716   0.845   3.464
 3487SOL     OW11359   0.742   0.308   0.730
 3487SOL    HW111360   0.666   0.306   0.664
 3487SOL    HW211361   0.768   0.403   0.747
 3488SOL     OW11362   6.139   3.984   4.053
 3488SOL    HW111363   6.201   3.965   4.129
 3488SOL    HW211364   6.145   4.081   4.028
 3489SOL     OW11365   2.521   5.183   6.850
 3489SOL    HW111366   2.587   5.111   6.826
 3489SOL    HW211367   2.559   5.272   6.824
 3490SOL     OW11368   4.594   3.595   0.581
 3490SOL    HW111369   4.635   3.625   0.667
 3490SOL    HW211370   4.522   3.659   0.553
 3491SOL     OW11371   5.899   3.091   5.245
 3491SOL    HW111372   5.833   3.052   5.308
 3491SOL    HW211373   5.852   3.121   5.162
 3492SOL     OW11374   6.229   4.959   6.914
 3492SOL    HW111375   6.213   4.861   6.913
 3492SOL    HW211376   6.282   4.983   6.995
 3493SOL     OW11377   6.871   4.986   1.769
 3493SOL    HW111378   6.879   5.080   1.803
 3493SOL    HW211379   6.959   4.957   1.733
 3494SOL     OW11380   3.028   6.229   1.371
 3494SOL    HW111381   3.026   6.164   1.447
 3494SOL    HW211382   3.124   6.248   1.347
 3495SOL     OW11383   5.666   4.294   6.684
 3495SOL    HW111384   5.690   4.287   6.781
 3495SOL    HW211385   5.568   4.275   6.672
 3496SOL     OW11386   0.848   4.831   0.616
 3496SOL    HW111387   0.851   4.924   0.579
 3496SOL    HW211388   0.940   4.792   0.616
 3497SOL     OW11389   4.825   0.305   4.630
 3497SOL    HW111390   4.884   0.326   4.708
 3497SOL    HW211391   4.873   0.243   4.568
 3498SOL     OW11392   0.894   1.890   0.425
 3498SOL    HW111393   0.985   1.925   0.403
 3498SOL    HW211394   0.892   1.791   0.408
 3499SOL     OW11395   0.344   4.034   4.584
 3499SOL    HW111396   0.283   3.964   4.547
 3499SOL    HW211397   0.342   4.115   4.525
 3500SOL     OW11398   5.582   3.083   0.961
 3500SOL    HW111399   5.571   3.169   0.911
 3500SOL    HW211400   5.668   3.039   0.932
 3501SOL     OW11401   0.604   4.969   3.013
 3501SOL    HW111402   0.589   5.067   3.029
 3501SOL    HW211403   0.587   4.948   2.917
 3502SOL     OW11404   0.572   5.289   1.532
 3502SOL    HW111405   0.659   5.334   1.511
 3502SOL    HW211406   0.550   5.301   1.629
 3503SOL     OW11407   3.508   6.956   3.271
 3503SOL    HW111408   3.421   6.993   3.304
 3503SOL    HW211409   3.521   6.865   3.309
 3504SOL     OW11410   1.940   3.005   2.833
 3504SOL    HW111411   1.881   2.981   2.756
 3504SOL    HW211412   1.893   3.070   2.893
 3505SOL     OW11413   4.809   6.800   4.740
 3505SOL    HW111414   4.899   6.836   4.715
 3505SOL    HW211415   4.815   6.702   4.756
 3506SOL     OW11416   6.270   4.994   2.325
 3506SOL    HW111417   6.189   5.037   2.367
 3506SOL    HW211418   6.251   4.975   2.228
 3507SOL     OW11419   6.944   0.340   5.848
 3507SOL    HW111420   6.897   0.259   5.884
 3507SOL    HW211421   6.942   0.413   5.916
 3508SOL     OW11422   6.345   4.440   0.188
 3508SOL    HW111423   6.411   4.455   0.262
 3508SOL    HW211424   6.393   4.436   0.100
 3509SOL     OW11425   5.651   0.261   6.442
 3509SOL    HW111426   5.644   0.356   6.412
 3509SOL    HW211427   5.699   0.257   6.530
 3510SOL     OW11428   1.526   1.823   2.038
 3510SOL    HW111429   1.522   1.896   1.970
 3510SOL    HW211430   1.593   1.755   2.010
 3511SOL     OW11431   0.849   0.793   4.635
 3511SOL    HW111432   0.859   0.770   4.539
 3511SOL    HW211433   0.753   0.813   4.655
 3512SOL     OW11434   3.628   2.987   1.170
 3512SOL    HW111435   3.705   2.991   1.234
 3512SOL    HW211436   3.651   2.927   1.093
 3513SOL     OW11437   5.671   4.168   1.154
 3513SOL    HW111438   5.711   4.096   1.097
 3513SOL    HW211439   5.578   4.187   1.124
 3514SOL     OW11440   2.312   6.375   1.893
 3514SOL    HW111441   2.338   6.341   1.802
 3514SOL    HW211442   2.390   6.420   1.935
 3515SOL     OW11443   3.983   6.332   3.151
 3515SOL    HW111444   4.067   6.287   3.121
 3515SOL    HW211445   3.974   6.324   3.251
 3516SOL     OW11446   2.003   1.071   0.252
 3516SOL    HW111447   2.011   1.134   0.330
 3516SOL    HW211448   2.080   1.007   0.253
 3517SOL     OW11449   0.828   0.352   6.742
 3517SOL    HW111450   0.730   0.363   6.760
 3517SOL    HW211451   0.846   0.260   6.707
 3518SOL     OW11452   4.115   3.580   6.207
 3518SOL    HW111453   4.107   3.613   6.113
 3518SOL    HW211454   4.176   3.501   6.209
 3519SOL     OW11455   3.179   6.739   0.084
 3519SOL    HW111456   3.176   6.838   0.100
 3519SOL    HW211457   3.214   6.693   0.165
 3520SOL     OW11458   3.614   5.086   1.518
 3520SOL    HW111459   3.514   5.079   1.526
 3520SOL    HW211460   3.639   5.086   1.421
 3521SOL     OW11461   6.567   2.374   6.140
 3521SOL    HW111462   6.541   2.401   6.233
 3521SOL    HW211463   6.488   2.384   6.080
 3522SOL     OW11464   2.820   0.373   0.875
 3522SOL    HW111465   2.750   0.424   0.826
 3522SOL    HW211466   2.778   0.322   0.950
 3523SOL     OW11467   2.647   4.596   5.265
 3523SOL    HW111468   2.709   4.551   5.329
 3523SOL    HW211469   2.697   4.621   5.182
 3524SOL     OW11470   2.380   0.741   2.715
 3524SOL    HW111471   2.320   0.715   2.639
 3524SOL    HW211472   2.342   0.820   2.763
 3525SOL     OW11473   1.284   3.286   2.886
 3525SOL    HW111474   1.312   3.265   2.792
 3525SOL    HW211475   1.195   3.245   2.905
 3526SOL     OW11476   3.640   6.690   3.338
 3526SOL    HW111477   3.569   6.632   3.298
 3526SOL    HW211478   3.658   6.661   3.432
 3527SOL     OW11479   5.257   3.626   6.971
 3527SOL    HW111480   5.344   3.646   6.927
 3527SOL    HW211481   5.245   3.527   6.979
 3528SOL     OW11482   1.781   6.746   4.693
 3528SOL    HW111483   1.687   6.775   4.707
 3528SOL    HW211484   1.816   6.705   4.778
 3529SOL     OW11485   3.898   5.725   0.119
 3529SOL    HW111486   3.923   5.721   0.216
 3529SOL    HW211487   3.835   5.802   0.105
 3530SOL     OW11488   2.126   6.593   2.981
 3530SOL    HW111489   2.084   6.563   2.896
 3530SOL    HW211490   2.173   6.680   2.967
 3531SOL     OW11491   5.181   4.552   6.934
 3531SOL    HW111492   5.123   4.601   6.998
 3531SOL    HW211493   5.181   4.454   6.956
 3532SOL     OW11494   2.239   6.605   0.863
 3532SOL    HW111495   2.248   6.509   0.836
 3532SOL    HW211496   2.318   6.632   0.918
 3533SOL     OW11497   1.484   0.672   3.486
 3533SOL    HW111498   1.583   0.668   3.501
 3533SOL    HW211499   1.438   0.691   3.573
 3534SOL     OW11500   5.466   0.504   5.279
 3534SOL    HW111501   5.562   0.476   5.279
 3534SOL    HW211502   5.410   0.432   5.238
 3535SOL     OW11503   5.069   6.738   0.246
 3535SOL    HW111504   5.022   6.729   0.334
 3535SOL    HW211505   5.107   6.830   0.238
 3536SOL     OW11506   0.827   3.137   2.393
 3536SOL    HW111507   0.880   3.056   2.368
 3536SOL    HW211508   0.889   3.214   2.407
 3537SOL     OW11509   3.287   4.871   1.111
 3537SOL    HW111510   3.211   4.882   1.175
 3537SOL    HW211511   3.254   4.880   1.017
 3538SOL     OW11512   3.798   0.681   3.729
 3538SOL    HW111513   3.706   0.719   3.718
 3538SOL    HW211514   3.861   0.730   3.669
 3539SOL     OW11515   4.699   5.515   5.901
 3539SOL    HW111516   4.636   5.590   5.878
 3539SOL    HW211517   4.787   5.553   5.928
 3540SOL     OW11518   3.925   4.669   6.367
 3540SOL    HW111519   3.944   4.710   6.456
 3540SOL    HW211520   3.833   4.695   6.337
 3541SOL     OW11521   1.256   2.705   2.079
 3541SOL    HW111522   1.156   2.695   2.072
 3541SOL    HW211523   1.300   2.635   2.023
 3542SOL     OW11524   6.000   1.275   0.024
 3542SOL    HW111525   6.054   1.357   0.042
 3542SOL    HW211526   5.905   1.292   0.050
 3543SOL     OW11527   0.572   2.799   3.741
 3543SOL    HW111528   0.572   2.776   3.644
 3543SOL    HW211529   0.663   2.779   3.779
 3544SOL     OW11530   3.051   4.298   0.334
 3544SOL    HW111531   3.092   4.388   0.317
 3544SOL    HW211532   3.020   4.258   0.248
 3545SOL     OW11533   4.047   6.501   0.644
 3545SOL    HW111534   3.977   6.429   0.648
 3545SOL    HW211535   4.008   6.587   0.674
 3546SOL     OW11536   6.463   4.700   1.346
 3546SOL    HW111537   6.425   4.648   1.422
 3546SOL    HW211538   6.563   4.705   1.355
 3547SOL     OW11539   1.039   4.140   4.977
 3547SOL    HW111540   0.978   4.119   4.901
 3547SOL    HW211541   1.123   4.182   4.943
 3548SOL     OW11542   6.151   0.168   6.060
 3548SOL    HW111543   6.236   0.216   6.083
 3548SOL    HW211544   6.155   0.075   6.096
 3549SOL     OW11545   2.426   6.296   6.597
 3549SOL    HW111546   2.363   6.340   6.533
 3549SOL    HW211547   2.518   6.293   6.558
 3550SOL     OW11548   5.572   1.795   5.640
 3550SOL    HW111549   5.647   1.855   5.613
 3550SOL    HW211550   5.604   1.700   5.639
 3551SOL     OW11551   5.900   1.896   5.035
 3551SOL    HW111552   5.879   1.892   5.133
 3551SOL    HW211553   5.956   1.976   5.016
 3552SOL     OW11554   6.854   0.053   2.749
 3552SOL    HW111555   6.905   6.994   2.764
 3552SOL    HW211556   6.792   0.068   2.826
 3553SOL     OW11557   6.134   5.939   6.622
 3553SOL    HW111558   6.202   5.986   6.679
 3553SOL    HW211559   6.076   6.007   6.577
 3554SOL     OW11560   4.575   4.372   6.782
 3554SOL    HW111561   4.632   4.446   6.819
 3554SOL    HW211562   4.628   4.318   6.718
 3555SOL     OW11563   2.985   1.685   5.627
 3555SOL    HW111564   3.081   1.702   5.602
 3555SOL    HW211565   2.968   1.720   5.719
 3556SOL     OW11566   5.953   1.065   0.521
 3556SOL    HW111567   5.913   0.991   0.467
 3556SOL    HW211568   5.954   1.149   0.467
 3557SOL     OW11569   5.178   6.345   2.028
 3557SOL    HW111570   5.196   6.437   2.062
 3557SOL    HW211571   5.088   6.314   2.059
 3558SOL     OW11572   3.494   5.739   2.589
 3558SOL    HW111573   3.409   5.719   2.539
 3558SOL    HW211574   3.568   5.684   2.553
 3559SOL     OW11575   3.691   6.552   6.565
 3559SOL    HW111576   3.609   6.504   6.533
 3559SOL    HW211577   3.716   6.623   6.500
 3560SOL     OW11578   2.330   5.806   4.700
 3560SOL    HW111579   2.374   5.785   4.613
 3560SOL    HW211580   2.239   5.845   4.682
 3561SOL     OW11581   4.432   3.214   5.351
 3561SOL    HW111582   4.334   3.216   5.328
 3561SOL    HW211583   4.457   3.122   5.381
 3562SOL     OW11584   2.706   0.997   0.480
 3562SOL    HW111585   2.792   0.946   0.478
 3562SOL    HW211586   2.708   1.069   0.412
 3563SOL     OW11587   0.143   2.191   6.635
 3563SOL    HW111588   0.153   2.270   6.574
 3563SOL    HW211589   0.200   2.205   6.717
 3564SOL     OW11590   6.493   3.740   2.817
 3564SOL    HW111591   6.589   3.766   2.816
 3564SOL    HW211592   6.459   3.743   2.911
 3565SOL     OW11593   5.041   6.468   5.746
 3565SOL    HW111594   4.970   6.487   5.813
 3565SOL    HW211595   5.112   6.538   5.752
 3566SOL     OW11596   1.492   0.903   5.728
 3566SOL    HW111597   1.498   0.867   5.821
 3566SOL    HW211598   1.396   0.912   5.702
 3567SOL     OW11599   6.895   3.986   0.034
 3567SOL    HW111600   6.964   3.915   0.021
 3567SOL    HW211601   6.895   4.047   6.981
 3568SOL     OW11602   4.264   3.487   5.586
 3568SOL    HW111603   4.308   3.487   5.675
 3568SOL    HW211604   4.238   3.580   5.562
 3569SOL     OW11605   1.918   0.423   3.622
 3569SOL    HW111606   1.959   0.337   3.592
 3569SOL    HW211607   1.884   0.413   3.716
 3570SOL     OW11608   6.136   1.589   4.566
 3570SOL    HW111609   6.057   1.647   4.547
 3570SOL    HW211610   6.167   1.546   4.481
 3571SOL     OW11611   6.406   5.180   4.488
 3571SOL    HW111612   6.484   5.241   4.473
 3571SOL    HW211613   6.355   5.210   4.568
 3572SOL     OW11614   6.167   6.547   5.547
 3572SOL    HW111615   6.179   6.612   5.472
 3572SOL    HW211616   6.133   6.595   5.628
 3573SOL     OW11617   0.218   1.810   1.418
 3573SOL    HW111618   0.284   1.765   1.358
 3573SOL    HW211619   0.261   1.890   1.461
 3574SOL     OW11620   6.321   3.992   0.230
 3574SOL    HW111621   6.402   4.048   0.251
 3574SOL    HW211622   6.287   3.949   0.313
 3575SOL     OW11623   6.215   6.780   2.055
 3575SOL    HW111624   6.155   6.854   2.084
 3575SOL    HW211625   6.224   6.781   1.955
 3576SOL     OW11626   6.352   0.650   0.045
 3576SOL    HW111627   6.357   0.737   7.022
 3576SOL    HW211628   6.365   0.575   7.007
 3577SOL     OW11629   2.652   4.011   0.267
 3577SOL    HW111630   2.629   4.045   0.175
 3577SOL    HW211631   2.747   3.980   0.267
 3578SOL     OW11632   3.518   4.318   1.718
 3578SOL    HW111633   3.526   4.398   1.777
 3578SOL    HW211634   3.423   4.306   1.689
 3579SOL     OW11635   1.944   4.421   5.491
 3579SOL    HW111636   2.009   4.374   5.550
 3579SOL    HW211637   1.937   4.372   5.404
 3580SOL     OW11638   6.216   3.025   0.992
 3580SOL    HW111639   6.160   3.043   1.073
 3580SOL    HW211640   6.277   3.103   0.976
 3581SOL     OW11641   6.463   0.499   3.549
 3581SOL    HW111642   6.367   0.471   3.545
 3581SOL    HW211643   6.519   0.436   3.495
 3582SOL     OW11644   0.277   7.003   5.603
 3582SOL    HW111645   0.353   7.012   5.667
 3582SOL    HW211646   0.295   6.929   5.539
 3583SOL     OW11647   1.208   5.312   1.721
 3583SOL    HW111648   1.260   5.241   1.673
 3583SOL    HW211649   1.111   5.289   1.720
 3584SOL     OW11650   6.204   0.109   5.077
 3584SOL    HW111651   6.139   0.171   5.121
 3584SOL    HW211652   6.181   0.100   4.980
 3585SOL     OW11653   2.134   4.626   3.494
 3585SOL    HW111654   2.147   4.668   3.404
 3585SOL    HW211655   2.220   4.626   3.544
 3586SOL     OW11656   1.014   0.910   5.801
 3586SOL    HW111657   0.937   0.972   5.782
 3586SOL    HW211658   1.056   0.935   5.889
 3587SOL     OW11659   3.472   6.427   6.457
 3587SOL    HW111660   3.450   6.331   6.471
 3587SOL    HW211661   3.463   6.450   6.360
 3588SOL     OW11662   1.808   2.063   5.285
 3588SOL    HW111663   1.826   2.068   5.187
 3588SOL    HW211664   1.874   2.120   5.334
 3589SOL     OW11665   3.796   0.296   4.466
 3589SOL    HW111666   3.837   0.208   4.490
 3589SOL    HW211667   3.787   0.303   4.367
 3590SOL     OW11668   1.291   4.956   6.722
 3590SOL    HW111669   1.196   4.932   6.742
 3590SOL    HW211670   1.352   4.891   6.766
 3591SOL     OW11671   5.350   2.182   5.009
 3591SOL    HW111672   5.307   2.270   5.028
 3591SOL    HW211673   5.411   2.158   5.084
 3592SOL     OW11674   5.287   2.255   2.094
 3592SOL    HW111675   5.210   2.279   2.034
 3592SOL    HW211676   5.253   2.216   2.179
 3593SOL     OW11677   1.471   5.851   4.160
 3593SOL    HW111678   1.374   5.831   4.171
 3593SOL    HW211679   1.523   5.765   4.163
 3594SOL     OW11680   3.844   1.919   4.483
 3594SOL    HW111681   3.752   1.879   4.481
 3594SOL    HW211682   3.844   2.004   4.431
 3595SOL     OW11683   2.182   6.861   5.599
 3595SOL    HW111684   2.223   6.777   5.634
 3595SOL    HW211685   2.239   6.939   5.623
 3596SOL     OW11686   0.648   3.929   3.637
 3596SOL    HW111687   0.574   3.865   3.657
 3596SOL    HW211688   0.610   4.017   3.611
 3597SOL     OW11689   3.744   6.987   3.806
 3597SOL    HW111690   3.663   7.019   3.854
 3597SOL    HW211691   3.796   0.039   3.772
 3598SOL     OW11692   1.497   0.295   0.038
 3598SOL    HW111693   1.519   0.205   7.026
 3598SOL    HW211694   1.444   0.284   0.122
 3599SOL     OW11695   0.139   1.554   4.294
 3599SOL    HW111696   0.039   1.552   4.296
 3599SOL    HW211697   0.170   1.648   4.282
 3600SOL     OW11698   6.578   0.039   1.235
 3600SOL    HW111699   6.669   0.074   1.257
 3600SOL    HW211700   6.512   0.074   1.302
 3601SOL     OW11701   6.252   3.932   5.512
 3601SOL    HW111702   6.274   3.967   5.421
 3601SOL    HW211703   6.159   3.895   5.512
 3602SOL     OW11704   2.932   1.430   1.274
 3602SOL    HW111705   2.929   1.408   1.176
 3602SOL    HW211706   2.872   1.368   1.324
 3603SOL     OW11707   4.058   5.829   4.376
 3603SOL    HW111708   4.133   5.774   4.339
 3603SOL    HW211709   4.084   5.925   4.379
 3604SOL     OW11710   6.331   4.317   3.637
 3604SOL    HW111711   6.304   4.223   3.661
 3604SOL    HW211712   6.268   4.381   3.681
 3605SOL     OW11713   6.168   2.654   6.811
 3605SOL    HW111714   6.180   2.688   6.718
 3605SOL    HW211715   6.071   2.651   6.834
 3606SOL     OW11716   1.592   4.459   3.264
 3606SOL    HW111717   1.608   4.366   3.230
 3606SOL    HW211718   1.670   4.516   3.239
 3607SOL     OW11719   4.287   0.017   0.037
 3607SOL    HW111720   4.229   6.998   6.995
 3607SOL    HW211721   4.238   0.094   0.077
 3608SOL     OW11722   0.729   2.593   3.139
 3608SOL    HW111723   0.818   2.636   3.120
 3608SOL    HW211724   0.667   2.662   3.178
 3609SOL     OW11725   6.721   6.818   4.554
 3609SOL    HW111726   6.643   6.767   4.590
 3609SOL    HW211727   6.719   6.912   4.589
 3610SOL     OW11728   2.152   5.570   5.665
 3610SOL    HW111729   2.216   5.617   5.604
 3610SOL    HW211730   2.149   5.473   5.642
 3611SOL     OW11731   4.709   5.747   5.454
 3611SOL    HW111732   4.622   5.761   5.501
 3611SOL    HW211733   4.784   5.766   5.517
 3612SOL     OW11734   2.112   6.397   1.252
 3612SOL    HW111735   2.210   6.386   1.269
 3612SOL    HW211736   2.061   6.380   1.336
 3613SOL     OW11737   5.092   5.181   6.407
 3613SOL    HW111738   5.159   5.132   6.352
 3613SOL    HW211739   5.053   5.120   6.476
 3614SOL     OW11740   3.982   3.440   4.409
 3614SOL    HW111741   3.994   3.383   4.328
 3614SOL    HW211742   4.055   3.421   4.475
 3615SOL     OW11743   6.055   6.421   5.998
 3615SOL    HW111744   6.103   6.489   5.942
 3615SOL    HW211745   6.122   6.366   6.048
 3616SOL     OW11746   5.940   0.542   5.036
 3616SOL    HW111747   5.888   0.592   5.106
 3616SOL    HW211748   6.007   0.603   4.995
 3617SOL     OW11749   7.001   0.454   0.148
 3617SOL    HW111750   0.027   0.371   0.128
 3617SOL    HW211751   0.023   0.534   0.111
 3618SOL     OW11752   2.839   6.529   6.541
 3618SOL    HW111753   2.932   6.497   6.523
 3618SOL    HW211754   2.842   6.617   6.589
 3619SOL     OW11755   5.089   4.296   4.072
 3619SOL    HW111756   5.174   4.327   4.028
 3619SOL    HW211757   5.098   4.199   4.096
 3620SOL     OW11758   6.351   1.297   4.710
 3620SOL    HW111759   6.341   1.262   4.803
 3620SOL    HW211760   6.441   1.271   4.674
 3621SOL     OW11761   1.521   3.302   5.670
 3621SOL    HW111762   1.541   3.204   5.675
 3621SOL    HW211763   1.596   3.353   5.711
 3622SOL     OW11764   0.452   3.413   1.474
 3622SOL    HW111765   0.371   3.395   1.419
 3622SOL    HW211766   0.533   3.420   1.415
 3623SOL     OW11767   6.783   5.109   3.753
 3623SOL    HW111768   6.752   5.082   3.844
 3623SOL    HW211769   6.726   5.185   3.719
 3624SOL     OW11770   1.814   1.386   1.809
 3624SOL    HW111771   1.726   1.387   1.857
 3624SOL    HW211772   1.798   1.385   1.710
 3625SOL     OW11773   0.536   3.291   4.447
 3625SOL    HW111774   0.539   3.369   4.384
 3625SOL    HW211775   0.615   3.232   4.431
 3626SOL     OW11776   2.750   3.920   5.271
 3626SOL    HW111777   2.658   3.939   5.235
 3626SOL    HW211778   2.756   3.955   5.364
 3627SOL     OW11779   3.358   3.167   3.833
 3627SOL    HW111780   3.277   3.110   3.833
 3627SOL    HW211781   3.331   3.263   3.841
 3628SOL     OW11782   2.809   5.469   3.136
 3628SOL    HW111783   2.890   5.420   3.103
 3628SOL    HW211784   2.837   5.555   3.178
 3629SOL     OW11785   5.535   3.115   5.257
 3629SOL    HW111786   5.587   3.081   5.179
 3629SOL    HW211787   5.588   3.102   5.341
 3630SOL     OW11788   5.819   1.610   5.068
 3630SOL    HW111789   5.845   1.543   4.998
 3630SOL    HW211790   5.769   1.685   5.025
 3631SOL     OW11791   2.071   1.068   3.833
 3631SOL    HW111792   2.171   1.059   3.833
 3631SOL    HW211793   2.035   1.031   3.747
 3632SOL     OW11794   3.798   6.818   6.440
 3632SOL    HW111795   3.840   6.880   6.506
 3632SOL    HW211796   3.854   6.815   6.357
 3633SOL     OW11797   1.253   3.387   5.337
 3633SOL    HW111798   1.256   3.480   5.373
 3633SOL    HW211799   1.280   3.322   5.408
 3634SOL     OW11800   3.283   5.500   6.130
 3634SOL    HW111801   3.227   5.565   6.078
 3634SOL    HW211802   3.268   5.514   6.228
 3635SOL     OW11803   1.684   1.002   5.190
 3635SOL    HW111804   1.743   0.925   5.216
 3635SOL    HW211805   1.731   1.088   5.211
 3636SOL     OW11806   1.478   5.819   6.499
 3636SOL    HW111807   1.431   5.866   6.574
 3636SOL    HW211808   1.565   5.781   6.532
 3637SOL     OW11809   4.929   1.256   1.626
 3637SOL    HW111810   4.986   1.292   1.700
 3637SOL    HW211811   4.945   1.157   1.618
 3638SOL     OW11812   6.097   5.060   3.138
 3638SOL    HW111813   6.149   5.145   3.142
 3638SOL    HW211814   6.152   4.986   3.177
 3639SOL     OW11815   2.454   5.586   6.579
 3639SOL    HW111816   2.416   5.630   6.661
 3639SOL    HW211817   2.380   5.541   6.529
 3640SOL     OW11818   2.397   6.996   1.792
 3640SOL    HW111819   2.384   6.897   1.784
 3640SOL    HW211820   2.458   7.016   1.868
 3641SOL     OW11821   2.268   0.729   4.641
 3641SOL    HW111822   2.253   0.768   4.732
 3641SOL    HW211823   2.185   0.741   4.586
 3642SOL     OW11824   6.143   6.549   2.205
 3642SOL    HW111825   6.188   6.629   2.165
 3642SOL    HW211826   6.168   6.541   2.301
 3643SOL     OW11827   3.704   4.958   5.829
 3643SOL    HW111828   3.645   4.880   5.849
 3643SOL    HW211829   3.660   5.016   5.760
 3644SOL     OW11830   6.700   0.167   0.394
 3644SOL    HW111831   6.645   0.237   0.349
 3644SOL    HW211832   6.740   0.206   0.477
 3645SOL     OW11833   3.608   6.398   2.826
 3645SOL    HW111834   3.672   6.334   2.869
 3645SOL    HW211835   3.610   6.485   2.876
 3646SOL     OW11836   6.704   5.607   4.344
 3646SOL    HW111837   6.689   5.627   4.247
 3646SOL    HW211838   6.747   5.685   4.388
 3647SOL     OW11839   2.406   2.284   1.575
 3647SOL    HW111840   2.488   2.334   1.547
 3647SOL    HW211841   2.368   2.236   1.495
 3648SOL     OW11842   3.124   6.024   3.581
 3648SOL    HW111843   3.107   5.940   3.633
 3648SOL    HW211844   3.223   6.043   3.580
 3649SOL     OW11845   3.558   3.161   2.154
 3649SOL    HW111846   3.578   3.063   2.151
 3649SOL    HW211847   3.563   3.199   2.061
 3650SOL     OW11848   5.443   6.526   1.544
 3650SOL    HW111849   5.533   6.556   1.576
 3650SOL    HW211850   5.373   6.552   1.612
 3651SOL     OW11851   1.365   6.289   2.583
 3651SOL    HW111852   1.309   6.263   2.504
 3651SOL    HW211853   1.327   6.249   2.666
 3652SOL     OW11854   4.555   4.904   2.923
 3652SOL    HW111855   4.599   4.944   2.842
 3652SOL    HW211856   4.591   4.813   2.940
 3653SOL     OW11857   6.740   3.178   4.885
 3653SOL    HW111858   6.838   3.178   4.866
 3653SOL    HW211859   6.719   3.250   4.951
 3654SOL     OW11860   1.131   5.725   1.424
 3654SOL    HW111861   1.220   5.731   1.378
 3654SOL    HW211862   1.114   5.631   1.451
 3655SOL     OW11863   0.340   1.116   3.769
 3655SOL    HW111864   0.392   1.147   3.848
 3655SOL    HW211865   0.268   1.053   3.798
 3656SOL     OW11866   2.670   1.243   2.842
 3656SOL    HW111867   2.588   1.197   2.808
 3656SOL    HW211868   2.750   1.212   2.790
 3657SOL     OW11869   4.249   4.888   1.892
 3657SOL    HW111870   4.345   4.887   1.920
 3657SOL    HW211871   4.209   4.798   1.909
 3658SOL     OW11872   2.397   5.598   5.472
 3658SOL    HW111873   2.496   5.607   5.481
 3658SOL    HW211874   2.368   5.635   5.384
 3659SOL     OW11875   0.817   4.062   0.420
 3659SOL    HW111876   0.854   4.008   0.496
 3659SOL    HW211877   0.872   4.145   0.409
 3660SOL     OW11878   4.619   5.383   1.078
 3660SOL    HW111879   4.560   5.327   1.019
 3660SOL    HW211880   4.593   5.369   1.173
 3661SOL     OW11881   4.919   1.733   1.085
 3661SOL    HW111882   4.965   1.669   1.024
 3661SOL    HW211883   4.844   1.686   1.132
 3662SOL     OW11884   2.890   6.216   4.952
 3662SOL    HW111885   2.889   6.316   4.960
 3662SOL    HW211886   2.972   6.188   4.902
 3663SOL     OW11887   1.531   3.730   6.185
 3663SOL    HW111888   1.604   3.671   6.219
 3663SOL    HW211889   1.460   3.738   6.256
 3664SOL     OW11890   4.125   0.015   1.512
 3664SOL    HW111891   4.143   6.951   1.551
 3664SOL    HW211892   4.203   0.075   1.530
 3665SOL     OW11893   1.532   6.837   5.103
 3665SOL    HW111894   1.466   6.829   5.178
 3665SOL    HW211895   1.520   6.926   5.058
 3666SOL     OW11896   0.931   4.650   3.899
 3666SOL    HW111897   0.854   4.692   3.947
 3666SOL    HW211898   0.932   4.551   3.917
 3667SOL     OW11899   0.076   1.309   6.545
 3667SOL    HW111900   0.003   1.258   6.590
 3667SOL    HW211901   0.153   1.320   6.609
 3668SOL     OW11902   1.750   6.151   1.797
 3668SOL    HW111903   1.653   6.143   1.821
 3668SOL    HW211904   1.804   6.097   1.862
 3669SOL     OW11905   5.852   1.836   3.741
 3669SOL    HW111906   5.865   1.923   3.789
 3669SOL    HW211907   5.919   1.769   3.773
 3670SOL     OW11908   2.208   5.617   6.200
 3670SOL    HW111909   2.133   5.550   6.193
 3670SOL    HW211910   2.232   5.649   6.108
 3671SOL     OW11911   1.778   1.072   2.713
 3671SOL    HW111912   1.774   1.171   2.718
 3671SOL    HW211913   1.872   1.042   2.697
 3672SOL     OW11914   6.593   6.943   0.470
 3672SOL    HW111915   6.635   0.006   0.453
 3672SOL    HW211916   6.647   6.893   0.538
 3673SOL     OW11917   4.101   0.711   6.641
 3673SOL    HW111918   4.054   0.783   6.591
 3673SOL    HW211919   4.042   0.631   6.648
 3674SOL     OW11920   1.408   6.555   0.960
 3674SOL    HW111921   1.446   6.487   1.022
 3674SOL    HW211922   1.437   6.535   0.867
 3675SOL     OW11923   1.758   1.650   4.664
 3675SOL    HW111924   1.731   1.555   4.683
 3675SOL    HW211925   1.800   1.689   4.746
 3676SOL     OW11926   1.951   4.913   3.238
 3676SOL    HW111927   1.933   4.885   3.332
 3676SOL    HW211928   1.931   5.010   3.228
 3677SOL     OW11929   6.642   6.841   3.814
 3677SOL    HW111930   6.611   6.936   3.816
 3677SOL    HW211931   6.727   6.833   3.867
 3678SOL     OW11932   1.059   1.470   3.279
 3678SOL    HW111933   1.045   1.508   3.188
 3678SOL    HW211934   1.142   1.509   3.319
 3679SOL     OW11935   0.214   0.854   1.379
 3679SOL    HW111936   0.259   0.895   1.300
 3679SOL    HW211937   0.158   0.923   1.425
 3680SOL     OW11938   6.292   4.091   4.580
 3680SOL    HW111939   6.196   4.065   4.589
 3680SOL    HW211940   6.349   4.009   4.578
 3681SOL     OW11941   5.297   6.321   5.008
 3681SOL    HW111942   5.282   6.234   4.961
 3681SOL    HW211943   5.218   6.342   5.066
 3682SOL     OW11944   0.372   2.475   6.452
 3682SOL    HW111945   0.324   2.490   6.365
 3682SOL    HW211946   0.467   2.451   6.433
 3683SOL     OW11947   5.132   5.950   3.546
 3683SOL    HW111948   5.167   6.041   3.566
 3683SOL    HW211949   5.195   5.903   3.485
 3684SOL     OW11950   1.589   3.208   0.847
 3684SOL    HW111951   1.603   3.264   0.765
 3684SOL    HW211952   1.512   3.146   0.833
 3685SOL     OW11953   6.435   6.830   6.335
 3685SOL    HW111954   6.525   6.803   6.368
 3685SOL    HW211955   6.435   6.928   6.314
 3686SOL     OW11956   5.898   4.523   1.527
 3686SOL    HW111957   5.925   4.441   1.577
 3686SOL    HW211958   5.945   4.526   1.439
 3687SOL     OW11959   3.061   0.963   6.805
 3687SOL    HW111960   3.121   0.893   6.843
 3687SOL    HW211961   3.057   0.953   6.706
 3688SOL     OW11962   6.868   2.969   7.024
 3688SOL    HW111963   6.784   3.009   6.988
 3688SOL    HW211964   6.855   2.944   0.094
 3689SOL     OW11965   2.983   0.133   3.776
 3689SOL    HW111966   2.992   0.171   3.868
 3689SOL    HW211967   2.887   0.131   3.749
 3690SOL     OW11968   4.258   6.428   5.328
 3690SOL    HW111969   4.355   6.447   5.313
 3690SOL    HW211970   4.218   6.388   5.246
 3691SOL     OW11971   3.678   2.646   0.211
 3691SOL    HW111972   3.627   2.562   0.189
 3691SOL    HW211973   3.769   2.622   0.245
 3692SOL     OW11974   1.016   0.114   6.529
 3692SOL    HW111975   1.044   0.159   6.444
 3692SOL    HW211976   1.066   0.154   6.605
 3693SOL     OW11977   2.413   1.689   3.474
 3693SOL    HW111978   2.381   1.671   3.381
 3693SOL    HW211979   2.432   1.603   3.520
 3694SOL     OW11980   2.363   5.765   2.533
 3694SOL    HW111981   2.297   5.837   2.558
 3694SOL    HW211982   2.361   5.693   2.602
 3695SOL     OW11983   1.770   2.633   1.486
 3695SOL    HW111984   1.812   2.635   1.576
 3695SOL    HW211985   1.727   2.544   1.471
 3696SOL     OW11986   3.156   5.741   5.729
 3696SOL    HW111987   3.233   5.766   5.670
 3696SOL    HW211988   3.168   5.783   5.819
 3697SOL     OW11989   5.408   0.064   4.213
 3697SOL    HW111990   5.502   0.029   4.205
 3697SOL    HW211991   5.344   7.014   4.210
 3698SOL     OW11992   3.079   0.434   6.179
 3698SOL    HW111993   3.078   0.339   6.147
 3698SOL    HW211994   2.994   0.480   6.153
 3699SOL     OW11995   1.403   4.323   2.219
 3699SOL    HW111996   1.354   4.409   2.206
 3699SOL    HW211997   1.403   4.299   2.316
 3700SOL     OW11998   0.472   0.478   3.746
 3700SOL    HW111999   0.429   0.563   3.713
 3700SOL    HW212000   0.563   0.499   3.782
 3701SOL     OW12001   5.254   0.315   3.518
 3701SOL    HW112002   5.299   0.373   3.450
 3701SOL    HW212003   5.247   0.364   3.605
 3702SOL     OW12004   4.514   0.925   6.586
 3702SOL    HW112005   4.538   0.932   6.683
 3702SOL    HW212006   4.489   0.830   6.565
 3703SOL     OW12007   4.371   4.324   6.954
 3703SOL    HW112008   4.447   4.341   6.890
 3703SOL    HW212009   4.394   4.245   7.011
 3704SOL     OW12010   2.359   0.278   2.359
 3704SOL    HW112011   2.343   0.247   2.265
 3704SOL    HW212012   2.364   0.378   2.360
 3705SOL     OW12013   5.666   1.231   4.400
 3705SOL    HW112014   5.644   1.326   4.379
 3705SOL    HW212015   5.666   1.218   4.499
 3706SOL     OW12016   2.169   2.104   3.380
 3706SOL    HW112017   2.104   2.096   3.304
 3706SOL    HW212018   2.144   2.040   3.452
 3707SOL     OW12019   4.337   2.275   5.185
 3707SOL    HW112020   4.316   2.358   5.133
 3707SOL    HW212021   4.389   2.212   5.127
 3708SOL     OW12022   6.540   6.938   5.916
 3708SOL    HW112023   6.553   7.004   5.841
 3708SOL    HW212024   6.574   6.848   5.887
 3709SOL     OW12025   4.641   0.331   0.029
 3709SOL    HW112026   4.739   0.344   0.016
 3709SOL    HW212027   4.611   0.380   0.110
 3710SOL     OW12028   6.864   5.213   0.609
 3710SOL    HW112029   6.943   5.212   0.670
 3710SOL    HW212030   6.884   5.161   0.527
 3711SOL     OW12031   6.652   5.237   2.652
 3711SOL    HW112032   6.625   5.158   2.596
 3711SOL    HW212033   6.600   5.238   2.737
 3712SOL     OW12034   1.950   0.254   0.585
 3712SOL    HW112035   2.005   0.188   0.534
 3712SOL    HW212036   1.920   0.214   0.671
 3713SOL     OW12037   3.847   5.812   6.255
 3713SOL    HW112038   3.795   5.770   6.329
 3713SOL    HW212039   3.853   5.749   6.178
 3714SOL     OW12040   4.134   1.339   5.425
 3714SOL    HW112041   4.205   1.399   5.389
 3714SOL    HW212042   4.156   1.313   5.519
 3715SOL     OW12043   5.471   3.865   4.019
 3715SOL    HW112044   5.398   3.802   3.992
 3715SOL    HW212045   5.556   3.839   3.972
 3716SOL     OW12046   0.382   2.026   4.772
 3716SOL    HW112047   0.473   2.018   4.732
 3716SOL    HW212048   0.389   2.021   4.872
 3717SOL     OW12049   6.092   0.428   6.972
 3717SOL    HW112050   6.077   0.460   6.879
 3717SOL    HW212051   6.009   0.384   7.006
 3718SOL     OW12052   0.808   5.480   0.331
 3718SOL    HW112053   0.785   5.418   0.406
 3718SOL    HW212054   0.745   5.465   0.255
 3719SOL     OW12055   3.830   5.461   6.407
 3719SOL    HW112056   3.887   5.394   6.359
 3719SOL    HW212057   3.889   5.519   6.463
 3720SOL     OW12058   0.306   1.747   6.032
 3720SOL    HW112059   0.327   1.658   6.074
 3720SOL    HW212060   0.386   1.781   5.984
 3721SOL     OW12061   4.646   3.067   0.798
 3721SOL    HW112062   4.633   3.130   0.875
 3721SOL    HW212063   4.558   3.047   0.756
 3722SOL     OW12064   5.959   5.984   1.410
 3722SOL    HW112065   5.871   6.006   1.369
 3722SOL    HW212066   5.956   6.003   1.509
 3723SOL     OW12067   4.092   1.249   0.488
 3723SOL    HW112068   4.002   1.284   0.462
 3723SOL    HW212069   4.083   1.156   0.523
 3724SOL     OW12070   6.870   5.018   5.610
 3724SOL    HW112071   6.897   4.924   5.629
 3724SOL    HW212072   6.773   5.030   5.632
 3725SOL     OW12073   6.523   0.306   0.643
 3725SOL    HW112074   6.559   0.299   0.736
 3725SOL    HW212075   6.497   0.215   0.610
 3726SOL     OW12076   5.868   3.625   1.515
 3726SOL    HW112077   5.808   3.587   1.445
 3726SOL    HW212078   5.820   3.698   1.563
 3727SOL     OW12079   2.398   2.820   5.303
 3727SOL    HW112080   2.342   2.769   5.239
 3727SOL    HW212081   2.413   2.913   5.268
 3728SOL     OW12082   0.402   3.304   6.732
 3728SOL    HW112083   0.430   3.317   6.637
 3728SOL    HW212084   0.432   3.381   6.787
 3729SOL     OW12085   0.291   2.707   3.267
 3729SOL    HW112086   0.241   2.794   3.268
 3729SOL    HW212087   0.278   2.663   3.178
 3730SOL     OW12088   2.287   0.749   0.864
 3730SOL    HW112089   2.378   0.784   0.842
 3730SOL    HW212090   2.228   0.826   0.889
 3731SOL     OW12091   3.146   6.424   6.011
 3731SOL    HW112092   3.116   6.508   6.056
 3731SOL    HW212093   3.087   6.407   5.932
 3732SOL     OW12094   1.894   3.627   4.635
 3732SOL    HW112095   1.951   3.591   4.561
 3732SOL    HW212096   1.953   3.663   4.707
 3733SOL     OW12097   2.963   3.526   1.129
 3733SOL    HW112098   3.058   3.511   1.102
 3733SOL    HW212099   2.915   3.574   1.055
 3734SOL     OW12100   5.361   6.675   3.444
 3734SOL    HW112101   5.360   6.742   3.518
 3734SOL    HW212102   5.291   6.605   3.461
 3735SOL     OW12103   3.522   1.698   1.912
 3735SOL    HW112104   3.523   1.661   1.819
 3735SOL    HW212105   3.493   1.793   1.910
 3736SOL     OW12106   4.526   1.236   5.992
 3736SOL    HW112107   4.472   1.277   6.066
 3736SOL    HW212108   4.607   1.291   5.976
 3737SOL     OW12109   3.919   6.721   3.347
 3737SOL    HW112110   3.940   6.813   3.379
 3737SOL    HW212111   3.820   6.712   3.334
 3738SOL     OW12112   6.961   0.141   3.994
 3738SOL    HW112113   7.011   0.227   3.984
 3738SOL    HW212114   7.018   0.065   3.964
 3739SOL     OW12115   1.018   3.792   1.781
 3739SOL    HW112116   0.956   3.732   1.730
 3739SOL    HW212117   1.019   3.765   1.877
 3740SOL     OW12118   5.426   1.012   0.162
 3740SOL    HW112119   5.521   1.011   0.130
 3740SOL    HW212120   5.365   1.030   0.084
 3741SOL     OW12121   3.511   2.059   6.848
 3741SOL    HW112122   3.447   2.134   6.860
 3741SOL    HW212123   3.537   2.053   6.751
 3742SOL     OW12124   3.266   3.425   5.608
 3742SOL    HW112125   3.220   3.500   5.562
 3742SOL    HW212126   3.242   3.339   5.564
 3743SOL     OW12127   0.880   5.887   5.965
 3743SOL    HW112128   0.832   5.819   5.910
 3743SOL    HW212129   0.815   5.956   5.996
 3744SOL     OW12130   0.021   5.632   3.014
 3744SOL    HW112131   6.955   5.670   3.021
 3744SOL    HW212132   0.085   5.705   2.989
 3745SOL     OW12133   5.132   5.649   1.663
 3745SOL    HW112134   5.102   5.558   1.633
 3745SOL    HW212135   5.141   5.650   1.763
 3746SOL     OW12136   4.286   1.461   2.234
 3746SOL    HW112137   4.359   1.527   2.217
 3746SOL    HW212138   4.252   1.473   2.328
 3747SOL     OW12139   2.513   0.180   0.878
 3747SOL    HW112140   2.530   0.082   0.869
 3747SOL    HW212141   2.418   0.194   0.908
 3748SOL     OW12142   5.523   0.981   2.318
 3748SOL    HW112143   5.546   0.935   2.404
 3748SOL    HW212144   5.457   0.925   2.267
 3749SOL     OW12145   1.767   0.706   4.503
 3749SOL    HW112146   1.739   0.715   4.407
 3749SOL    HW212147   1.690   0.673   4.557
 3750SOL     OW12148   0.139   4.731   0.015
 3750SOL    HW112149   0.090   4.783   6.971
 3750SOL    HW212150   0.160   4.791   0.092
 3751SOL     OW12151   1.747   3.990   1.383
 3751SOL    HW112152   1.722   3.894   1.398
 3751SOL    HW212153   1.790   4.027   1.465
 3752SOL     OW12154   5.478   6.249   0.161
 3752SOL    HW112155   5.556   6.277   0.104
 3752SOL    HW212156   5.427   6.177   0.114
 3753SOL     OW12157   6.964   0.087   3.348
 3753SOL    HW112158   6.946   0.185   3.346
 3753SOL    HW212159   6.991   0.060   3.440
 3754SOL     OW12160   2.126   1.035   1.384
 3754SOL    HW112161   2.178   1.121   1.386
 3754SOL    HW212162   2.190   0.958   1.378
 3755SOL     OW12163   3.319   5.181   4.000
 3755SOL    HW112164   3.221   5.198   3.989
 3755SOL    HW212165   3.333   5.092   4.042
 3756SOL     OW12166   1.734   6.410   0.765
 3756SOL    HW112167   1.727   6.315   0.794
 3756SOL    HW212168   1.795   6.459   0.828
 3757SOL     OW12169   0.385   4.438   1.378
 3757SOL    HW112170   0.441   4.409   1.300
 3757SOL    HW212171   0.403   4.534   1.398
 3758SOL     OW12172   2.063   0.031   3.750
 3758SOL    HW112173   2.004   0.091   3.804
 3758SOL    HW212174   2.129   7.012   3.811
 3759SOL     OW12175   5.315   0.289   4.037
 3759SOL    HW112176   5.337   0.211   4.095
 3759SOL    HW212177   5.338   0.374   4.086
 3760SOL     OW12178   0.946   1.239   2.829
 3760SOL    HW112179   0.921   1.321   2.880
 3760SOL    HW212180   1.042   1.245   2.800
 3761SOL     OW12181   4.561   2.069   5.665
 3761SOL    HW112182   4.585   2.007   5.590
 3761SOL    HW212183   4.594   2.030   5.751
 3762SOL     OW12184   0.002   3.091   3.837
 3762SOL    HW112185   0.062   3.017   3.866
 3762SOL    HW212186   6.972   3.060   3.759
 3763SOL     OW12187   0.775   4.637   6.812
 3763SOL    HW112188   0.716   4.559   6.833
 3763SOL    HW212189   0.864   4.605   6.780
 3764SOL     OW12190   2.694   0.704   2.769
 3764SOL    HW112191   2.604   0.724   2.730
 3764SOL    HW212192   2.725   0.783   2.822
 3765SOL     OW12193   5.840   2.667   3.107
 3765SOL    HW112194   5.900   2.594   3.140
 3765SOL    HW212195   5.873   2.755   3.140
 3766SOL     OW12196   1.627   3.281   1.985
 3766SOL    HW112197   1.614   3.190   2.025
 3766SOL    HW212198   1.539   3.326   1.974
 3767SOL     OW12199   1.560   6.032   5.927
 3767SOL    HW112200   1.542   6.051   6.024
 3767SOL    HW212201   1.570   5.934   5.914
 3768SOL     OW12202   1.402   7.016   2.508
 3768SOL    HW112203   1.317   6.975   2.474
 3768SOL    HW212204   1.396   0.003   2.606
 3769SOL     OW12205   5.374   5.521   4.457
 3769SOL    HW112206   5.408   5.597   4.400
 3769SOL    HW212207   5.414   5.436   4.424
 3770SOL     OW12208   2.584   0.738   1.545
 3770SOL    HW112209   2.605   0.832   1.519
 3770SOL    HW212210   2.493   0.735   1.586
 3771SOL     OW12211   6.301   5.354   5.415
 3771SOL    HW112212   6.202   5.345   5.410
 3771SOL    HW212213   6.341   5.336   5.325
 3772SOL     OW12214   1.292   5.547   1.614
 3772SOL    HW112215   1.288   5.480   1.688
 3772SOL    HW212216   1.238   5.628   1.639
 3773SOL     OW12217   5.183   5.158   0.035
 3773SOL    HW112218   5.103   5.144   0.093
 3773SOL    HW212219   5.165   5.121   6.970
 3774SOL     OW12220   6.587   4.765   1.934
 3774SOL    HW112221   6.582   4.861   1.905
 3774SOL    HW212222   6.653   4.756   2.008
 3775SOL     OW12223   4.686   5.053   5.382
 3775SOL    HW112224   4.604   5.110   5.382
 3775SOL    HW212225   4.766   5.109   5.360
 3776SOL     OW12226   4.384   2.986   6.543
 3776SOL    HW112227   4.383   2.955   6.638
 3776SOL    HW212228   4.460   2.943   6.495
 3777SOL     OW12229   3.035   4.865   4.375
 3777SOL    HW112230   3.107   4.920   4.333
 3777SOL    HW212231   3.000   4.799   4.309
 3778SOL     OW12232   3.415   5.275   6.626
 3778SOL    HW112233   3.474   5.280   6.545
 3778SOL    HW212234   3.467   5.235   6.702
 3779SOL     OW12235   6.617   4.646   6.871
 3779SOL    HW112236   6.699   4.663   6.924
 3779SOL    HW212237   6.615   4.708   6.792
 3780SOL     OW12238   5.961   3.752   2.071
 3780SOL    HW112239   5.983   3.700   1.988
 3780SOL    HW212240   5.986   3.697   2.151
 3781SOL     OW12241   1.684   6.066   5.098
 3781SOL    HW112242   1.644   6.089   5.010
 3781SOL    HW212243   1.749   5.990   5.086
 3782SOL     OW12244   4.305   5.029   1.019
 3782SOL    HW112245   4.211   4.998   1.032
 3782SOL    HW212246   4.368   4.961   1.057
 3783SOL     OW12247   4.563   5.335   4.597
 3783SOL    HW112248   4.590   5.394   4.521
 3783SOL    HW212249   4.568   5.239   4.569
 3784SOL     OW12250   5.494   2.823   5.307
 3784SOL    HW112251   5.411   2.790   5.262
 3784SOL    HW212252   5.510   2.919   5.282
 3785SOL     OW12253   1.205   2.665   2.968
 3785SOL    HW112254   1.224   2.641   3.064
 3785SOL    HW212255   1.250   2.599   2.908
 3786SOL     OW12256   2.135   3.406   4.832
 3786SOL    HW112257   2.123   3.311   4.801
 3786SOL    HW212258   2.134   3.409   4.931
 3787SOL     OW12259   5.178   6.337   4.046
 3787SOL    HW112260   5.152   6.297   4.134
 3787SOL    HW212261   5.242   6.276   4.000
 3788SOL     OW12262   5.017   3.032   6.240
 3788SOL    HW112263   4.942   2.996   6.184
 3788SOL    HW212264   5.104   3.007   6.198
 3789SOL     OW12265   2.610   2.954   1.129
 3789SOL    HW112266   2.572   2.914   1.045
 3789SOL    HW212267   2.565   3.041   1.147
 3790SOL     OW12268   0.812   6.315   1.633
 3790SOL    HW112269   0.883   6.304   1.703
 3790SOL    HW212270   0.805   6.232   1.579
 3791SOL     OW12271   4.990   0.351   5.450
 3791SOL    HW112272   4.904   0.398   5.469
 3791SOL    HW212273   5.063   0.418   5.440
 3792SOL     OW12274   6.998   0.067   4.346
 3792SOL    HW112275   6.925   0.129   4.317
 3792SOL    HW212276   7.006   0.069   4.446
 3793SOL     OW12277   3.893   4.519   0.594
 3793SOL    HW112278   3.801   4.488   0.617
 3793SOL    HW212279   3.938   4.450   0.538
 3794SOL     OW12280   1.195   5.024   6.022
 3794SOL    HW112281   1.127   4.978   6.079
 3794SOL    HW212282   1.161   5.115   5.998
 3795SOL     OW12283   2.946   6.001   0.925
 3795SOL    HW112284   2.923   5.929   0.992
 3795SOL    HW212285   3.031   5.977   0.879
 3796SOL     OW12286   4.723   0.526   0.274
 3796SOL    HW112287   4.718   0.592   0.199
 3796SOL    HW212288   4.819   0.504   0.292
 3797SOL     OW12289   0.223   3.170   1.485
 3797SOL    HW112290   0.225   3.249   1.546
 3797SOL    HW212291   0.279   3.097   1.524
 3798SOL     OW12292   1.682   5.467   3.968
 3798SOL    HW112293   1.591   5.456   3.928
 3798SOL    HW212294   1.696   5.396   4.037
 3799SOL     OW12295   7.005   1.238   3.712
 3799SOL    HW112296   6.932   1.289   3.666
 3799SOL    HW212297   0.046   1.207   3.645
 3800SOL     OW12298   5.533   2.283   3.152
 3800SOL    HW112299   5.570   2.193   3.126
 3800SOL    HW212300   5.502   2.330   3.070
 3801SOL     OW12301   5.844   0.731   1.160
 3801SOL    HW112302   5.930   0.683   1.140
 3801SOL    HW212303   5.767   0.675   1.132
 3802SOL     OW12304   6.340   3.736   1.446
 3802SOL    HW112305   6.329   3.818   1.391
 3802SOL    HW212306   6.321   3.758   1.542
 3803SOL     OW12307   3.550   4.183   4.861
 3803SOL    HW112308   3.469   4.223   4.904
 3803SOL    HW212309   3.556   4.213   4.766
 3804SOL     OW12310   3.656   6.229   3.466
 3804SOL    HW112311   3.706   6.257   3.548
 3804SOL    HW212312   3.714   6.170   3.410
 3805SOL     OW12313   2.421   2.443   6.915
 3805SOL    HW112314   2.398   2.495   6.997
 3805SOL    HW212315   2.348   2.455   6.847
 3806SOL     OW12316   2.352   5.000   1.313
 3806SOL    HW112317   2.264   4.964   1.344
 3806SOL    HW212318   2.414   5.009   1.390
 3807SOL     OW12319   1.479   4.295   3.837
 3807SOL    HW112320   1.500   4.207   3.881
 3807SOL    HW212321   1.408   4.282   3.768
 3808SOL     OW12322   3.026   6.920   5.157
 3808SOL    HW112323   2.941   6.894   5.110
 3808SOL    HW212324   3.010   7.003   5.210
 3809SOL     OW12325   5.660   1.944   1.810
 3809SOL    HW112326   5.686   1.973   1.718
 3809SOL    HW212327   5.660   2.022   1.872
 3810SOL     OW12328   4.736   2.182   3.160
 3810SOL    HW112329   4.776   2.101   3.202
 3810SOL    HW212330   4.706   2.161   3.067
 3811SOL     OW12331   7.023   5.710   5.344
 3811SOL    HW112332   0.002   5.622   5.297
 3811SOL    HW212333   0.059   5.775   5.301
 3812SOL     OW12334   4.484   5.472   0.225
 3812SOL    HW112335   4.447   5.459   0.133
 3812SOL    HW212336   4.552   5.401   0.244
 3813SOL     OW12337   6.070   4.380   0.148
 3813SOL    HW112338   6.039   4.350   0.058
 3813SOL    HW212339   6.170   4.392   0.146
 3814SOL     OW12340   6.963   0.151   4.657
 3814SOL    HW112341   6.958   0.191   4.748
 3814SOL    HW212342   6.874   0.156   4.613
 3815SOL     OW12343   6.086   3.480   6.243
 3815SOL    HW112344   6.015   3.409   6.237
 3815SOL    HW212345   6.043   3.570   6.230
 3816SOL     OW12346   6.793   6.542   1.601
 3816SOL    HW112347   6.827   6.496   1.519
 3816SOL    HW212348   6.839   6.630   1.612
 3817SOL     OW12349   4.599   3.494   1.647
 3817SOL    HW112350   4.656   3.576   1.659
 3817SOL    HW212351   4.503   3.521   1.643
 3818SOL     OW12352   5.865   5.945   2.599
 3818SOL    HW112353   5.796   6.008   2.565
 3818SOL    HW212354   5.904   5.982   2.684
 3819SOL     OW12355   6.076   3.415   3.537
 3819SOL    HW112356   6.125   3.399   3.623
 3819SOL    HW212357   6.121   3.489   3.486
 3820SOL     OW12358   3.365   6.415   5.190
 3820SOL    HW112359   3.327   6.343   5.132
 3820SOL    HW212360   3.326   6.503   5.163
 3821SOL     OW12361   1.756   0.021   0.395
 3821SOL    HW112362   1.833   6.985   0.383
 3821SOL    HW212363   1.780   0.112   0.361
 3822SOL     OW12364   5.248   0.082   2.061
 3822SOL    HW112365   5.194   0.036   2.130
 3822SOL    HW212366   5.206   0.068   1.971
 3823SOL     OW12367   5.997   6.191   5.836
 3823SOL    HW112368   6.052   6.224   5.760
 3823SOL    HW212369   6.017   6.245   5.918
 3824SOL     OW12370   2.483   2.916   0.900
 3824SOL    HW112371   2.478   2.927   0.801
 3824SOL    HW212372   2.391   2.919   0.939
 3825SOL     OW12373   0.625   5.010   5.767
 3825SOL    HW112374   0.562   4.932   5.764
 3825SOL    HW212375   0.618   5.056   5.856
 3826SOL     OW12376   5.356   4.053   3.597
 3826SOL    HW112377   5.332   4.045   3.500
 3826SOL    HW212378   5.428   3.987   3.619
 3827SOL     OW12379   0.020   1.938   0.394
 3827SOL    HW112380   0.029   1.892   0.483
 3827SOL    HW212381   0.035   2.036   0.406
 3828SOL     OW12382   4.057   3.317   3.423
 3828SOL    HW112383   4.054   3.218   3.436
 3828SOL    HW212384   4.049   3.362   3.512
 3829SOL     OW12385   0.661   3.678   2.193
 3829SOL    HW112386   0.566   3.649   2.205
 3829SOL    HW212387   0.704   3.691   2.282
 3830SOL     OW12388   5.932   0.488   3.788
 3830SOL    HW112389   5.850   0.544   3.795
 3830SOL    HW212390   5.906   0.391   3.786
 3831SOL     OW12391   4.459   2.433   3.727
 3831SOL    HW112392   4.373   2.382   3.738
 3831SOL    HW212393   4.506   2.436   3.815
 3832SOL     OW12394   6.845   0.773   3.487
 3832SOL    HW112395   6.786   0.852   3.474
 3832SOL    HW212396   6.842   0.715   3.405
 3833SOL     OW12397   1.315   2.765   5.417
 3833SOL    HW112398   1.265   2.752   5.331
 3833SOL    HW212399   1.271   2.838   5.469
 3834SOL     OW12400   5.050   4.139   0.338
 3834SOL    HW112401   4.971   4.167   0.284
 3834SOL    HW212402   5.024   4.064   0.398
 3835SOL     OW12403   4.271   5.875   5.152
 3835SOL    HW112404   4.291   5.794   5.207
 3835SOL    HW212405   4.172   5.880   5.135
 3836SOL     OW12406   6.876   6.140   5.253
 3836SOL    HW112407   6.919   6.120   5.166
 3836SOL    HW212408   6.939   6.118   5.328
 3837SOL     OW12409   4.519   4.342   5.838
 3837SOL    HW112410   4.593   4.287   5.801
 3837SOL    HW212411   4.431   4.301   5.813
 3838SOL     OW12412   0.257   0.441   4.289
 3838SOL    HW112413   0.159   0.442   4.271
 3838SOL    HW212414   0.290   0.346   4.291
 3839SOL     OW12415   5.079   0.410   3.936
 3839SOL    HW112416   5.095   0.502   3.901
 3839SOL    HW212417   5.164   0.373   3.973
 3840SOL     OW12418   2.901   1.074   6.552
 3840SOL    HW112419   2.863   1.055   6.462
 3840SOL    HW212420   2.865   1.161   6.586
 3841SOL     OW12421   6.129   4.707   4.276
 3841SOL    HW112422   6.110   4.721   4.179
 3841SOL    HW212423   6.043   4.697   4.326
 3842SOL     OW12424   1.805   3.899   5.375
 3842SOL    HW112425   1.743   3.847   5.433
 3842SOL    HW212426   1.835   3.982   5.422
 3843SOL     OW12427   4.931   2.109   6.932
 3843SOL    HW112428   4.899   2.203   6.939
 3843SOL    HW212429   5.026   2.104   6.962
 3844SOL     OW12430   0.372   6.974   1.299
 3844SOL    HW112431   0.296   6.919   1.265
 3844SOL    HW212432   0.379   0.031   1.244
 3845SOL     OW12433   2.183   5.320   0.366
 3845SOL    HW112434   2.248   5.271   0.309
 3845SOL    HW212435   2.204   5.418   0.364
 3846SOL     OW12436   0.390   3.269   2.990
 3846SOL    HW112437   0.325   3.276   2.914
 3846SOL    HW212438   0.479   3.305   2.961
 3847SOL     OW12439   6.964   2.112   0.046
 3847SOL    HW112440   6.892   2.143   0.109
 3847SOL    HW212441   6.932   2.124   6.978
 3848SOL     OW12442   5.503   4.026   2.245
 3848SOL    HW112443   5.430   4.037   2.313
 3848SOL    HW212444   5.505   3.932   2.212
 3849SOL     OW12445   6.695   4.939   6.409
 3849SOL    HW112446   6.675   4.876   6.334
 3849SOL    HW212447   6.794   4.948   6.419
 3850SOL     OW12448   2.792   2.329   1.391
 3850SOL    HW112449   2.828   2.396   1.325
 3850SOL    HW212450   2.867   2.274   1.426
 3851SOL     OW12451   0.067   6.302   2.404
 3851SOL    HW112452   0.042   6.207   2.422
 3851SOL    HW212453   0.053   6.357   2.486
 3852SOL     OW12454   1.800   6.816   5.124
 3852SOL    HW112455   1.704   6.827   5.150
 3852SOL    HW212456   1.852   6.781   5.203
 3853SOL     OW12457   2.887   7.025   2.980
 3853SOL    HW112458   2.862   0.054   3.059
 3853SOL    HW212459   2.918   0.058   2.905
 3854SOL     OW12460   0.660   2.517   2.049
 3854SOL    HW112461   0.697   2.517   2.142
 3854SOL    HW212462   0.583   2.453   2.043
 3855SOL     OW12463   3.657   6.686   0.527
 3855SOL    HW112464   3.677   6.660   0.433
 3855SOL    HW212465   3.640   6.603   0.581
 3856SOL     OW12466   0.169   2.813   6.618
 3856SOL    HW112467   0.108   2.833   6.695
 3856SOL    HW212468   0.178   2.714   6.608
 3857SOL     OW12469   2.307   0.333   6.342
 3857SOL    HW112470   2.366   0.303   6.417
 3857SOL    HW212471   2.288   0.256   6.282
 3858SOL     OW12472   4.838   0.385   4.069
 3858SOL    HW112473   4.926   0.396   4.022
 3858SOL    HW212474   4.764   0.383   4.002
 3859SOL     OW12475   6.400   0.051   1.990
 3859SOL    HW112476   6.380   7.012   1.917
 3859SOL    HW212477   6.331   0.043   2.062
 3860SOL     OW12478   1.570   6.738   4.060
 3860SOL    HW112479   1.615   6.744   3.970
 3860SOL    HW212480   1.562   6.641   4.086
 3861SOL     OW12481   2.793   5.409   1.542
 3861SOL    HW112482   2.791   5.447   1.634
 3861SOL    HW212483   2.877   5.437   1.496
 3862SOL     OW12484   1.838   0.454   3.944
 3862SOL    HW112485   1.785   0.433   4.027
 3862SOL    HW212486   1.910   0.386   3.932
 3863SOL     OW12487   3.457   6.864   0.453
 3863SOL    HW112488   3.403   6.878   0.536
 3863SOL    HW212489   3.550   6.837   0.478
 3864SOL     OW12490   1.922   0.481   4.966
 3864SOL    HW112491   1.896   0.399   4.914
 3864SOL    HW212492   1.913   0.561   4.907
 3865SOL     OW12493   3.789   1.058   0.559
 3865SOL    HW112494   3.720   1.047   0.487
 3865SOL    HW212495   3.781   1.150   0.598
 3866SOL     OW12496   2.581   2.127   6.663
 3866SOL    HW112497   2.668   2.092   6.627
 3866SOL    HW212498   2.592   2.153   6.759
 3867SOL     OW12499   0.917   2.662   2.317
 3867SOL    HW112500   0.941   2.572   2.283
 3867SOL    HW212501   0.820   2.681   2.299
 3868SOL     OW12502   4.617   0.679   0.076
 3868SOL    HW112503   4.551   0.719   0.140
 3868SOL    HW212504   4.568   0.623   0.010
 3869SOL     OW12505   5.125   1.854   3.784
 3869SOL    HW112506   5.089   1.809   3.702
 3869SOL    HW212507   5.103   1.951   3.781
 3870SOL     OW12508   0.310   0.757   4.822
 3870SOL    HW112509   0.321   0.856   4.810
 3870SOL    HW212510   0.240   0.724   4.759
 3871SOL     OW12511   2.935   5.537   4.595
 3871SOL    HW112512   2.877   5.509   4.672
 3871SOL    HW212513   2.880   5.539   4.511
 3872SOL     OW12514   2.968   3.350   5.544
 3872SOL    HW112515   3.000   3.424   5.485
 3872SOL    HW212516   3.028   3.270   5.533
 3873SOL     OW12517   4.433   1.930   0.519
 3873SOL    HW112518   4.426   1.854   0.454
 3873SOL    HW212519   4.412   1.898   0.611
 3874SOL     OW12520   2.827   1.190   6.942
 3874SOL    HW112521   2.738   1.228   6.920
 3874SOL    HW212522   2.823   1.090   6.939
 3875SOL     OW12523   1.173   2.418   6.384
 3875SOL    HW112524   1.176   2.363   6.467
 3875SOL    HW212525   1.265   2.453   6.364
 3876SOL     OW12526   3.822   5.162   2.034
 3876SOL    HW112527   3.749   5.095   2.050
 3876SOL    HW212528   3.902   5.137   2.089
 3877SOL     OW12529   6.825   1.242   6.992
 3877SOL    HW112530   6.744   1.206   0.011
 3877SOL    HW212531   6.815   1.340   6.978
 3878SOL     OW12532   5.057   0.889   4.663
 3878SOL    HW112533   4.989   0.877   4.735
 3878SOL    HW212534   5.066   0.804   4.611
 3879SOL     OW12535   5.962   5.807   0.705
 3879SOL    HW112536   5.902   5.886   0.713
 3879SOL    HW212537   5.981   5.771   0.796
 3880SOL     OW12538   4.518   4.791   4.126
 3880SOL    HW112539   4.427   4.751   4.108
 3880SOL    HW212540   4.512   4.890   4.119
 3881SOL     OW12541   0.892   3.518   0.427
 3881SOL    HW112542   0.894   3.493   0.330
 3881SOL    HW212543   0.911   3.436   0.482
 3882SOL     OW12544   0.671   2.005   6.854
 3882SOL    HW112545   0.643   2.011   6.950
 3882SOL    HW212546   0.655   2.094   6.809
 3883SOL     OW12547   4.927   5.462   3.128
 3883SOL    HW112548   4.880   5.485   3.214
 3883SOL    HW212549   4.897   5.371   3.098
 3884SOL     OW12550   0.504   4.528   2.004
 3884SOL    HW112551   0.601   4.518   1.985
 3884SOL    HW212552   0.480   4.625   2.007
 3885SOL     OW12553   5.212   5.521   2.715
 3885SOL    HW112554   5.261   5.586   2.774
 3885SOL    HW212555   5.128   5.492   2.761
 3886SOL     OW12556   3.380   6.785   5.400
 3886SOL    HW112557   3.334   6.701   5.373
 3886SOL    HW212558   3.432   6.822   5.322
 3887SOL     OW12559   1.011   6.497   2.283
 3887SOL    HW112560   1.110   6.485   2.286
 3887SOL    HW212561   0.985   6.546   2.200
 3888SOL     OW12562   6.070   5.467   4.115
 3888SOL    HW112563   6.067   5.450   4.213
 3888SOL    HW212564   6.161   5.446   4.079
 3889SOL     OW12565   4.693   3.691   0.143
 3889SOL    HW112566   4.734   3.674   0.054
 3889SOL    HW212567   4.707   3.611   0.202
 3890SOL     OW12568   5.346   2.895   4.159
 3890SOL    HW112569   5.423   2.854   4.209
 3890SOL    HW212570   5.271   2.914   4.222
 3891SOL     OW12571   5.998   5.736   2.995
 3891SOL    HW112572   5.919   5.676   2.982
 3891SOL    HW212573   6.057   5.732   2.914
 3892SOL     OW12574   6.918   1.610   1.445
 3892SOL    HW112575   7.003   1.662   1.447
 3892SOL    HW212576   6.847   1.664   1.399
 3893SOL     OW12577   4.111   3.645   2.487
 3893SOL    HW112578   4.029   3.590   2.472
 3893SOL    HW212579   4.124   3.660   2.584
 3894SOL     OW12580   4.433   0.524   5.702
 3894SOL    HW112581   4.460   0.582   5.626
 3894SOL    HW212582   4.355   0.564   5.750
 3895SOL     OW12583   1.682   0.388   4.154
 3895SOL    HW112584   1.607   0.331   4.119
 3895SOL    HW212585   1.721   0.345   4.235
 3896SOL     OW12586   0.901   0.746   6.729
 3896SOL    HW112587   0.818   0.801   6.726
 3896SOL    HW212588   0.928   0.731   6.824
 3897SOL     OW12589   4.418   6.590   1.800
 3897SOL    HW112590   4.446   6.627   1.711
 3897SOL    HW212591   4.483   6.621   1.870
 3898SOL     OW12592   4.176   2.915   0.326
 3898SOL    HW112593   4.223   2.826   0.323
 3898SOL    HW212594   4.236   2.983   0.368
 3899SOL     OW12595   3.371   6.697   6.300
 3899SOL    HW112596   3.379   6.767   6.229
 3899SOL    HW212597   3.425   6.617   6.275
 3900SOL     OW12598   5.084   3.920   3.152
 3900SOL    HW112599   5.157   3.853   3.138
 3900SOL    HW212600   5.108   3.980   3.228
 3901SOL     OW12601   2.725   0.149   0.132
 3901SOL    HW112602   2.746   0.069   0.076
 3901SOL    HW212603   2.704   0.120   0.225
 3902SOL     OW12604   6.375   3.094   2.953
 3902SOL    HW112605   6.372   3.174   2.893
 3902SOL    HW212606   6.289   3.043   2.945
 3903SOL     OW12607   3.250   4.938   6.555
 3903SOL    HW112608   3.278   4.865   6.493
 3903SOL    HW212609   3.167   4.911   6.603
 3904SOL     OW12610   1.370   0.532   0.327
 3904SOL    HW112611   1.369   0.603   0.256
 3904SOL    HW212612   1.347   0.444   0.287
 3905SOL     OW12613   6.899   5.899   5.073
 3905SOL    HW112614   6.870   5.843   5.151
 3905SOL    HW212615   6.986   5.865   5.037
 3906SOL     OW12616   6.791   6.496   5.314
 3906SOL    HW112617   6.885   6.497   5.281
 3906SOL    HW212618   6.729   6.504   5.236
 3907SOL     OW12619   6.875   1.310   4.407
 3907SOL    HW112620   6.923   1.385   4.361
 3907SOL    HW212621   6.782   1.337   4.428
 3908SOL     OW12622   1.963   3.123   5.992
 3908SOL    HW112623   1.872   3.111   5.953
 3908SOL    HW212624   2.025   3.158   5.922
 3909SOL     OW12625   5.776   5.276   3.992
 3909SOL    HW112626   5.818   5.315   3.911
 3909SOL    HW212627   5.804   5.180   4.002
 3910SOL     OW12628   4.073   3.697   2.751
 3910SOL    HW112629   4.089   3.618   2.810
 3910SOL    HW212630   4.068   3.780   2.807
 3911SOL     OW12631   6.201   2.167   5.885
 3911SOL    HW112632   6.183   2.238   5.953
 3911SOL    HW212633   6.115   2.140   5.841
 3912SOL     OW12634   5.448   2.696   6.699
 3912SOL    HW112635   5.542   2.731   6.706
 3912SOL    HW212636   5.412   2.716   6.608
 3913SOL     OW12637   0.984   6.488   0.711
 3913SOL    HW112638   1.012   6.446   0.624
 3913SOL    HW212639   1.060   6.542   0.748
 3914SOL     OW12640   3.022   5.520   5.834
 3914SOL    HW112641   3.071   5.601   5.802
 3914SOL    HW212642   2.934   5.513   5.787
 3915SOL     OW12643   6.482   5.867   1.416
 3915SOL    HW112644   6.521   5.939   1.358
 3915SOL    HW212645   6.439   5.909   1.496
 3916SOL     OW12646   0.941   0.579   2.887
 3916SOL    HW112647   0.968   0.490   2.851
 3916SOL    HW212648   0.892   0.631   2.817
 3917SOL     OW12649   2.233   6.901   6.640
 3917SOL    HW112650   2.175   6.856   6.572
 3917SOL    HW212651   2.278   6.831   6.696
 3918SOL     OW12652   5.830   3.826   0.702
 3918SOL    HW112653   5.904   3.865   0.647
 3918SOL    HW212654   5.834   3.863   0.795
 3919SOL     OW12655   3.295   6.397   0.109
 3919SOL    HW112656   3.251   6.487   0.118
 3919SOL    HW212657   3.356   6.382   0.186
 3920SOL     OW12658   2.199   1.865   6.728
 3920SOL    HW112659   2.111   1.855   6.681
 3920SOL    HW212660   2.188   1.841   6.824
 3921SOL     OW12661   1.259   3.699   1.692
 3921SOL    HW112662   1.292   3.641   1.766
 3921SOL    HW212663   1.181   3.753   1.723
 3922SOL     OW12664   1.023   4.594   0.846
 3922SOL    HW112665   1.048   4.634   0.757
 3922SOL    HW212666   1.005   4.668   0.911
 3923SOL     OW12667   6.701   0.413   6.775
 3923SOL    HW112668   6.751   0.499   6.789
 3923SOL    HW212669   6.622   0.410   6.836
 3924SOL     OW12670   6.958   4.621   4.790
 3924SOL    HW112671   6.903   4.559   4.734
 3924SOL    HW212672   0.028   4.614   4.762
 3925SOL     OW12673   1.683   5.348   2.155
 3925SOL    HW112674   1.777   5.316   2.161
 3925SOL    HW212675   1.640   5.311   2.073
 3926SOL     OW12676   4.293   4.673   2.145
 3926SOL    HW112677   4.220   4.659   2.079
 3926SOL    HW212678   4.382   4.668   2.098
 3927SOL     OW12679   0.724   3.629   6.443
 3927SOL    HW112680   0.643   3.581   6.410
 3927SOL    HW212681   0.803   3.569   6.437
 3928SOL     OW12682   5.180   5.882   6.277
 3928SOL    HW112683   5.128   5.801   6.305
 3928SOL    HW212684   5.161   5.903   6.181
 3929SOL     OW12685   0.969   1.940   4.796
 3929SOL    HW112686   0.979   1.866   4.729
 3929SOL    HW212687   1.060   1.976   4.819
 3930SOL     OW12688   2.320   1.720   3.798
 3930SOL    HW112689   2.418   1.710   3.782
 3930SOL    HW212690   2.270   1.698   3.714
 3931SOL     OW12691   5.594   1.255   1.578
 3931SOL    HW112692   5.615   1.196   1.500
 3931SOL    HW212693   5.499   1.286   1.571
 3932SOL     OW12694   1.921   2.321   4.184
 3932SOL    HW112695   1.842   2.274   4.222
 3932SOL    HW212696   1.901   2.348   4.090
 3933SOL     OW12697   1.101   6.685   5.322
 3933SOL    HW112698   1.016   6.708   5.274
 3933SOL    HW212699   1.088   6.700   5.420
 3934SOL     OW12700   5.425   0.147   6.377
 3934SOL    HW112701   5.509   0.187   6.414
 3934SOL    HW212702   5.351   0.215   6.380
 3935SOL     OW12703   5.176   0.682   0.950
 3935SOL    HW112704   5.094   0.739   0.961
 3935SOL    HW212705   5.248   0.715   1.010
 3936SOL     OW12706   0.297   5.155   3.155
 3936SOL    HW112707   0.328   5.161   3.249
 3936SOL    HW212708   0.199   5.134   3.153
 3937SOL     OW12709   0.312   1.251   2.659
 3937SOL    HW112710   0.381   1.321   2.640
 3937SOL    HW212711   0.237   1.291   2.712
 3938SOL     OW12712   0.102   2.191   2.151
 3938SOL    HW112713   0.052   2.136   2.084
 3938SOL    HW212714   0.060   2.282   2.156
 3939SOL     OW12715   2.906   1.718   1.537
 3939SOL    HW112716   2.863   1.803   1.567
 3939SOL    HW212717   2.836   1.652   1.512
 3940SOL     OW12718   4.097   3.215   1.395
 3940SOL    HW112719   4.192   3.192   1.417
 3940SOL    HW212720   4.045   3.131   1.377
 3941SOL     OW12721   4.276   3.882   6.401
 3941SOL    HW112722   4.275   3.877   6.501
 3941SOL    HW212723   4.258   3.976   6.372
 3942SOL     OW12724   6.570   6.530   6.227
 3942SOL    HW112725   6.521   6.461   6.280
 3942SOL    HW212726   6.525   6.542   6.138
 3943SOL     OW12727   0.297   3.656   4.140
 3943SOL    HW112728   0.212   3.606   4.124
 3943SOL    HW212729   0.287   3.750   4.109
 3944SOL     OW12730   5.289   2.463   4.878
 3944SOL    HW112731   5.313   2.387   4.818
 3944SOL    HW212732   5.193   2.486   4.867
 3945SOL     OW12733   6.772   0.483   0.571
 3945SOL    HW112734   6.754   0.582   0.573
 3945SOL    HW212735   6.694   0.434   0.610
 3946SOL     OW12736   4.150   4.808   3.140
 3946SOL    HW112737   4.221   4.809   3.069
 3946SOL    HW212738   4.114   4.901   3.152
 3947SOL     OW12739   6.043   5.483   6.981
 3947SOL    HW112740   5.977   5.464   6.908
 3947SOL    HW212741   6.111   5.410   6.985
 3948SOL     OW12742   6.353   4.477   0.930
 3948SOL    HW112743   6.346   4.562   0.983
 3948SOL    HW212744   6.274   4.468   0.870
 3949SOL     OW12745   5.095   6.530   3.233
 3949SOL    HW112746   5.113   6.535   3.331
 3949SOL    HW212747   5.040   6.448   3.213
 3950SOL     OW12748   1.126   5.889   0.584
 3950SOL    HW112749   1.147   5.966   0.523
 3950SOL    HW212750   1.058   5.830   0.540
 3951SOL     OW12751   5.622   0.160   2.242
 3951SOL    HW112752   5.659   0.119   2.325
 3951SOL    HW212753   5.587   0.087   2.182
 3952SOL     OW12754   6.465   2.183   0.433
 3952SOL    HW112755   6.499   2.091   0.452
 3952SOL    HW212756   6.381   2.199   0.484
 3953SOL     OW12757   3.560   4.090   3.013
 3953SOL    HW112758   3.469   4.128   2.996
 3953SOL    HW212759   3.621   4.111   2.937
 3954SOL     OW12760   3.768   4.761   5.521
 3954SOL    HW112761   3.782   4.663   5.530
 3954SOL    HW212762   3.820   4.809   5.592
 3955SOL     OW12763   4.161   1.264   5.006
 3955SOL    HW112764   4.102   1.304   4.937
 3955SOL    HW212765   4.135   1.169   5.023
 3956SOL     OW12766   1.860   1.095   1.415
 3956SOL    HW112767   1.827   1.044   1.494
 3956SOL    HW212768   1.954   1.067   1.394
 3957SOL     OW12769   3.394   0.895   4.600
 3957SOL    HW112770   3.304   0.919   4.636
 3957SOL    HW212771   3.411   0.798   4.614
 3958SOL     OW12772   5.521   0.981   5.356
 3958SOL    HW112773   5.601   1.021   5.401
 3958SOL    HW212774   5.548   0.898   5.307
 3959SOL     OW12775   4.608   5.125   0.860
 3959SOL    HW112776   4.532   5.189   0.871
 3959SOL    HW212777   4.586   5.061   0.787
 3960SOL     OW12778   5.251   2.298   4.204
 3960SOL    HW112779   5.227   2.379   4.257
 3960SOL    HW212780   5.348   2.277   4.215
 3961SOL     OW12781   5.727   6.227   3.740
 3961SOL    HW112782   5.740   6.128   3.732
 3961SOL    HW212783   5.712   6.266   3.650
 3962SOL     OW12784   0.060   5.462   5.299
 3962SOL    HW112785   6.996   5.419   5.293
 3962SOL    HW212786   0.120   5.423   5.230
 3963SOL     OW12787   4.579   0.008   2.089
 3963SOL    HW112788   4.595   0.060   2.004
 3963SOL    HW212789   4.560   0.072   2.163
 3964SOL     OW12790   5.436   3.376   3.434
 3964SOL    HW112791   5.433   3.279   3.411
 3964SOL    HW212792   5.344   3.415   3.428
 3965SOL     OW12793   4.980   3.826   4.621
 3965SOL    HW112794   4.973   3.754   4.690
 3965SOL    HW212795   5.007   3.912   4.664
 3966SOL     OW12796   2.548   5.817   6.239
 3966SOL    HW112797   2.532   5.842   6.334
 3966SOL    HW212798   2.639   5.778   6.229
 3967SOL     OW12799   2.130   4.894   2.881
 3967SOL    HW112800   2.229   4.902   2.884
 3967SOL    HW212801   2.088   4.985   2.883
 3968SOL     OW12802   3.927   6.990   0.497
 3968SOL    HW112803   3.995   0.033   0.470
 3968SOL    HW212804   3.847   0.009   0.536
 3969SOL     OW12805   1.245   5.283   2.372
 3969SOL    HW112806   1.341   5.310   2.382
 3969SOL    HW212807   1.240   5.185   2.350
 3970SOL     OW12808   5.444   6.303   2.543
 3970SOL    HW112809   5.449   6.233   2.471
 3970SOL    HW212810   5.349   6.326   2.561
 3971SOL     OW12811   2.633   5.730   3.963
 3971SOL    HW112812   2.640   5.773   4.053
 3971SOL    HW212813   2.725   5.707   3.931
 3972SOL     OW12814   2.072   3.836   0.078
 3972SOL    HW112815   2.041   3.914   0.133
 3972SOL    HW212816   2.153   3.862   0.025
 3973SOL     OW12817   1.044   5.313   0.384
 3973SOL    HW112818   1.007   5.403   0.360
 3973SOL    HW212819   1.122   5.324   0.446
 3974SOL     OW12820   2.082   1.018   5.057
 3974SOL    HW112821   2.146   1.093   5.075
 3974SOL    HW212822   1.994   1.055   5.027
 3975SOL     OW12823   5.445   2.434   6.261
 3975SOL    HW112824   5.496   2.370   6.319
 3975SOL    HW212825   5.399   2.384   6.188
 3976SOL     OW12826   2.101   5.456   2.264
 3976SOL    HW112827   2.173   5.516   2.300
 3976SOL    HW212828   2.109   5.450   2.165
 3977SOL     OW12829   0.645   3.509   6.724
 3977SOL    HW112830   0.685   3.541   6.638
 3977SOL    HW212831   0.645   3.583   6.791
 3978SOL     OW12832   6.581   4.370   3.552
 3978SOL    HW112833   6.495   4.353   3.600
 3978SOL    HW212834   6.633   4.439   3.602
 3979SOL     OW12835   3.949   0.281   6.389
 3979SOL    HW112836   3.865   0.243   6.429
 3979SOL    HW212837   3.947   0.381   6.396
 3980SOL     OW12838   6.134   6.285   5.615
 3980SOL    HW112839   6.219   6.233   5.625
 3980SOL    HW212840   6.155   6.378   5.586
 3981SOL     OW12841   4.715   6.876   0.434
 3981SOL    HW112842   4.619   6.873   0.463
 3981SOL    HW212843   4.763   6.795   0.468
 3982SOL     OW12844   3.219   5.800   2.502
 3982SOL    HW112845   3.162   5.761   2.574
 3982SOL    HW212846   3.247   5.892   2.528
 3983SOL     OW12847   3.727   5.700   3.413
 3983SOL    HW112848   3.715   5.780   3.354
 3983SOL    HW212849   3.719   5.728   3.509
 3984SOL     OW12850   6.692   2.663   2.845
 3984SOL    HW112851   6.673   2.761   2.835
 3984SOL    HW212852   6.645   2.612   2.773
 3985SOL     OW12853   4.016   5.452   6.655
 3985SOL    HW112854   3.985   5.379   6.593
 3985SOL    HW212855   4.116   5.449   6.661
 3986SOL     OW12856   5.181   0.688   1.698
 3986SOL    HW112857   5.252   0.699   1.629
 3986SOL    HW212858   5.206   0.614   1.760
 3987SOL     OW12859   3.233   5.193   5.194
 3987SOL    HW112860   3.320   5.183   5.147
 3987SOL    HW212861   3.168   5.240   5.135
 3988SOL     OW12862   4.180   5.268   0.521
 3988SOL    HW112863   4.245   5.212   0.573
 3988SOL    HW212864   4.219   5.358   0.505
 3989SOL     OW12865   5.834   2.022   0.228
 3989SOL    HW112866   5.915   1.980   0.187
 3989SOL    HW212867   5.853   2.045   0.323
 3990SOL     OW12868   6.022   2.229   2.615
 3990SOL    HW112869   6.063   2.242   2.525
 3990SOL    HW212870   5.944   2.291   2.626
 3991SOL     OW12871   6.871   0.633   3.223
 3991SOL    HW112872   6.922   0.683   3.153
 3991SOL    HW212873   6.778   0.615   3.192
 3992SOL     OW12874   3.189   1.891   0.929
 3992SOL    HW112875   3.152   1.836   1.004
 3992SOL    HW212876   3.127   1.885   0.850
 3993SOL     OW12877   1.418   3.063   1.631
 3993SOL    HW112878   1.509   3.087   1.666
 3993SOL    HW212879   1.348   3.099   1.693
 3994SOL     OW12880   2.729   6.423   4.746
 3994SOL    HW112881   2.711   6.465   4.656
 3994SOL    HW212882   2.708   6.326   4.742
 3995SOL     OW12883   1.672   2.799   5.177
 3995SOL    HW112884   1.756   2.822   5.225
 3995SOL    HW212885   1.680   2.708   5.136
 3996SOL     OW12886   0.223   6.093   4.713
 3996SOL    HW112887   0.206   6.190   4.698
 3996SOL    HW212888   0.320   6.078   4.732
 3997SOL     OW12889   5.574   0.137   4.609
 3997SOL    HW112890   5.636   0.208   4.576
 3997SOL    HW212891   5.601   0.049   4.570
 3998SOL     OW12892   4.186   2.320   3.733
 3998SOL    HW112893   4.112   2.386   3.721
 3998SOL    HW212894   4.181   2.251   3.661
 3999SOL     OW12895   5.372   2.259   4.718
 3999SOL    HW112896   5.381   2.191   4.792
 3999SOL    HW212897   5.412   2.222   4.634
 4000SOL     OW12898   4.019   0.066   3.684
 4000SOL    HW112899   4.100   0.093   3.735
 4000SOL    HW212900   3.953   0.141   3.683
 4001SOL     OW12901   0.988   2.583   3.555
 4001SOL    HW112902   1.082   2.599   3.585
 4001SOL    HW212903   0.985   2.501   3.498
 4002SOL     OW12904   1.996   3.593   1.927
 4002SOL    HW112905   1.972   3.538   1.847
 4002SOL    HW212906   2.084   3.562   1.963
 4003SOL     OW12907   3.484   1.253   4.920
 4003SOL    HW112908   3.418   1.271   4.847
 4003SOL    HW212909   3.443   1.277   5.008
 4004SOL     OW12910   6.964   1.960   5.328
 4004SOL    HW112911   7.008   1.892   5.270
 4004SOL    HW212912   6.891   1.917   5.381
 4005SOL     OW12913   5.846   5.366   5.586
 4005SOL    HW112914   5.878   5.384   5.679
 4005SOL    HW212915   5.762   5.312   5.590
 4006SOL     OW12916   3.493   6.427   2.573
 4006SOL    HW112917   3.554   6.417   2.652
 4006SOL    HW212918   3.543   6.406   2.489
 4007SOL     OW12919   6.672   1.743   6.534
 4007SOL    HW112920   6.735   1.804   6.581
 4007SOL    HW212921   6.676   1.760   6.435
 4008SOL     OW12922   2.726   2.442   5.199
 4008SOL    HW112923   2.632   2.473   5.214
 4008SOL    HW212924   2.779   2.457   5.283
 4009SOL     OW12925   3.855   3.004   2.738
 4009SOL    HW112926   3.778   3.029   2.680
 4009SOL    HW212927   3.927   2.962   2.682
 4010SOL     OW12928   2.237   3.082   6.575
 4010SOL    HW112929   2.199   3.174   6.565
 4010SOL    HW212930   2.165   3.014   6.559
 4011SOL     OW12931   0.592   2.491   1.324
 4011SOL    HW112932   0.652   2.454   1.395
 4011SOL    HW212933   0.555   2.579   1.355
 4012SOL     OW12934   6.645   3.016   3.475
 4012SOL    HW112935   6.588   2.937   3.500
 4012SOL    HW212936   6.662   3.071   3.557
 4013SOL     OW12937   4.349   2.388   3.455
 4013SOL    HW112938   4.342   2.473   3.509
 4013SOL    HW212939   4.286   2.320   3.492
 4014SOL     OW12940   5.637   5.899   2.316
 4014SOL    HW112941   5.715   5.842   2.344
 4014SOL    HW212942   5.552   5.848   2.328
 4015SOL     OW12943   4.392   3.297   0.062
 4015SOL    HW112944   4.315   3.234   0.057
 4015SOL    HW212945   4.430   3.310   6.996
 4016SOL     OW12946   3.125   6.670   4.850
 4016SOL    HW112947   3.152   6.757   4.891
 4016SOL    HW212948   3.126   6.679   4.750
 4017SOL     OW12949   6.767   6.463   0.038
 4017SOL    HW112950   6.688   6.502   0.087
 4017SOL    HW212951   6.765   6.363   0.047
 4018SOL     OW12952   2.715   6.423   0.362
 4018SOL    HW112953   2.787   6.430   0.293
 4018SOL    HW212954   2.629   6.400   0.318
 4019SOL     OW12955   5.258   5.219   3.310
 4019SOL    HW112956   5.277   5.265   3.224
 4019SOL    HW212957   5.193   5.273   3.364
 4020SOL     OW12958   5.427   2.615   5.067
 4020SOL    HW112959   5.385   2.553   5.001
 4020SOL    HW212960   5.360   2.683   5.097
 4021SOL     OW12961   4.079   4.648   0.106
 4021SOL    HW112962   4.060   4.741   0.075
 4021SOL    HW212963   4.175   4.640   0.130
 4022SOL     OW12964   5.396   0.524   1.234
 4022SOL    HW112965   5.320   0.516   1.169
 4022SOL    HW212966   5.396   0.446   1.296
 4023SOL     OW12967   6.799   0.351   5.628
 4023SOL    HW112968   6.852   0.344   5.713
 4023SOL    HW212969   6.841   0.293   5.558
 4024SOL     OW12970   4.255   4.771   4.368
 4024SOL    HW112971   4.343   4.759   4.414
 4024SOL    HW212972   4.181   4.764   4.434
 4025SOL     OW12973   1.647   4.115   2.664
 4025SOL    HW112974   1.709   4.138   2.589
 4025SOL    HW212975   1.662   4.020   2.692
 4026SOL     OW12976   5.111   0.073   4.807
 4026SOL    HW112977   5.053   0.153   4.791
 4026SOL    HW212978   5.077   7.023   4.753
 4027SOL     OW12979   4.456   5.463   1.699
 4027SOL    HW112980   4.439   5.480   1.602
 4027SOL    HW212981   4.416   5.537   1.753
 4028SOL     OW12982   2.488   6.679   3.756
 4028SOL    HW112983   2.539   6.764   3.770
 4028SOL    HW212984   2.420   6.692   3.685
 4029SOL     OW12985   1.885   3.803   3.742
 4029SOL    HW112986   1.832   3.883   3.770
 4029SOL    HW212987   1.845   3.721   3.784
 4030SOL     OW12988   1.364   1.484   6.182
 4030SOL    HW112989   1.305   1.416   6.137
 4030SOL    HW212990   1.358   1.474   6.281
 4031SOL     OW12991   5.293   5.807   3.891
 4031SOL    HW112992   5.202   5.848   3.904
 4031SOL    HW212993   5.291   5.746   3.811
 4032SOL     OW12994   4.521   6.919   4.897
 4032SOL    HW112995   4.591   6.888   4.833
 4032SOL    HW212996   4.523   7.019   4.903
 4033SOL     OW12997   3.184   3.949   5.802
 4033SOL    HW112998   3.117   3.886   5.841
 4033SOL    HW212999   3.144   4.040   5.792
 4034SOL     OW13000   6.204   2.814   4.201
 4034SOL    HW113001   6.239   2.885   4.140
 4034SOL    HW213002   6.277   2.784   4.262
 4035SOL     OW13003   0.645   5.423   0.958
 4035SOL    HW113004   0.670   5.474   0.876
 4035SOL    HW213005   0.615   5.331   0.932
 4036SOL     OW13006   6.185   6.279   2.663
 4036SOL    HW113007   6.138   6.277   2.751
 4036SOL    HW213008   6.151   6.205   2.605
 4037SOL     OW13009   6.425   4.240   6.272
 4037SOL    HW113010   6.393   4.310   6.208
 4037SOL    HW213011   6.462   4.163   6.220
 4038SOL     OW13012   6.477   5.455   3.462
 4038SOL    HW113013   6.457   5.546   3.497
 4038SOL    HW213014   6.399   5.395   3.479
 4039SOL     OW13015   4.339   5.986   0.972
 4039SOL    HW113016   4.354   6.082   0.949
 4039SOL    HW213017   4.420   5.949   1.016
 4040SOL     OW13018   3.522   6.385   0.314
 4040SOL    HW113019   3.581   6.316   0.273
 4040SOL    HW213020   3.486   6.351   0.401
 4041SOL     OW13021   1.326   6.934   3.623
 4041SOL    HW113022   1.275   6.849   3.635
 4041SOL    HW213023   1.368   6.960   3.710
 4042SOL     OW13024   6.098   5.359   1.913
 4042SOL    HW113025   6.186   5.369   1.867
 4042SOL    HW213026   6.032   5.317   1.851
 4043SOL     OW13027   6.197   4.015   1.830
 4043SOL    HW113028   6.170   4.111   1.830
 4043SOL    HW213029   6.193   3.980   1.924
 4044SOL     OW13030   6.825   5.432   2.701
 4044SOL    HW113031   6.767   5.353   2.682
 4044SOL    HW213032   6.774   5.517   2.684
 4045SOL     OW13033   2.084   4.604   6.014
 4045SOL    HW113034   2.150   4.577   6.085
 4045SOL    HW213035   2.061   4.701   6.025
 4046SOL     OW13036   0.089   2.877   0.914
 4046SOL    HW113037   0.174   2.827   0.930
 4046SOL    HW213038   0.076   2.890   0.816
 4047SOL     OW13039   3.119   4.044   1.943
 4047SOL    HW113040   3.071   4.040   2.030
 4047SOL    HW213041   3.217   4.026   1.957
 4048SOL     OW13042   4.666   2.373   1.201
 4048SOL    HW113043   4.698   2.301   1.263
 4048SOL    HW213044   4.743   2.432   1.177
 4049SOL     OW13045   7.019   0.753   5.501
 4049SOL    HW113046   7.025   0.851   5.522
 4049SOL    HW213047   6.951   0.710   5.560
 4050SOL     OW13048   2.374   0.411   1.659
 4050SOL    HW113049   2.363   0.313   1.671
 4050SOL    HW213050   2.313   0.460   1.721
 4051SOL     OW13051   1.521   4.309   0.770
 4051SOL    HW113052   1.571   4.381   0.722
 4051SOL    HW213053   1.445   4.349   0.821
 4052SOL     OW13054   1.458   5.952   1.454
 4052SOL    HW113055   1.550   5.955   1.494
 4052SOL    HW213056   1.409   6.035   1.477
 4053SOL     OW13057   2.974   4.763   3.321
 4053SOL    HW113058   3.034   4.742   3.398
 4053SOL    HW213059   2.881   4.776   3.355
 4054SOL     OW13060   5.362   1.674   7.025
 4054SOL    HW113061   5.298   1.749   7.014
 4054SOL    HW213062   5.369   1.623   6.939
 4055SOL     OW13063   4.234   2.664   0.847
 4055SOL    HW113064   4.159   2.682   0.911
 4055SOL    HW213065   4.313   2.630   0.898
 4056SOL     OW13066   3.718   2.890   0.742
 4056SOL    HW113067   3.686   2.838   0.821
 4056SOL    HW213068   3.650   2.960   0.718
 4057SOL     OW13069   6.570   2.003   0.702
 4057SOL    HW113070   6.645   2.049   0.655
 4057SOL    HW213071   6.569   2.030   0.798
 4058SOL     OW13072   1.304   1.696   4.848
 4058SOL    HW113073   1.295   1.781   4.795
 4058SOL    HW213074   1.262   1.621   4.798
 4059SOL     OW13075   6.238   2.167   5.254
 4059SOL    HW113076   6.275   2.078   5.282
 4059SOL    HW213077   6.207   2.217   5.335
 4060SOL     OW13078   3.611   6.078   5.053
 4060SOL    HW113079   3.519   6.039   5.046
 4060SOL    HW213080   3.607   6.177   5.039
 4061SOL     OW13081   2.674   3.164   1.411
 4061SOL    HW113082   2.627   3.171   1.323
 4061SOL    HW213083   2.736   3.242   1.423
 4062SOL     OW13084   3.893   6.384   2.690
 4062SOL    HW113085   3.899   6.375   2.590
 4062SOL    HW213086   3.842   6.466   2.713
 4063SOL     OW13087   2.476   4.860   6.279
 4063SOL    HW113088   2.490   4.927   6.206
 4063SOL    HW213089   2.557   4.856   6.337
 4064SOL     OW13090   5.967   6.747   4.297
 4064SOL    HW113091   5.941   6.679   4.228
 4064SOL    HW213092   6.038   6.807   4.259
 4065SOL     OW13093   6.865   4.956   0.137
 4065SOL    HW113094   6.856   4.858   0.155
 4065SOL    HW213095   6.898   5.001   0.219
 4066SOL     OW13096   6.257   5.407   1.137
 4066SOL    HW113097   6.157   5.399   1.145
 4066SOL    HW213098   6.283   5.406   1.040
 4067SOL     OW13099   5.701   1.085   1.384
 4067SOL    HW113100   5.744   1.149   1.320
 4067SOL    HW213101   5.770   1.051   1.448
 4068SOL     OW13102   6.080   1.509   4.809
 4068SOL    HW113103   6.097   1.554   4.722
 4068SOL    HW213104   5.994   1.458   4.804
 4069SOL     OW13105   0.067   6.160   0.671
 4069SOL    HW113106   0.113   6.187   0.755
 4069SOL    HW213107   0.073   6.061   0.659
 4070SOL     OW13108   6.806   3.582   3.168
 4070SOL    HW113109   6.784   3.655   3.104
 4070SOL    HW213110   6.901   3.592   3.200
 4071SOL     OW13111   2.384   0.541   3.592
 4071SOL    HW113112   2.304   0.598   3.573
 4071SOL    HW213113   2.371   0.493   3.679
 4072SOL     OW13114   0.818   0.266   3.956
 4072SOL    HW113115   0.830   0.251   4.054
 4072SOL    HW213116   0.778   0.356   3.941
 4073SOL     OW13117   2.942   4.858   1.451
 4073SOL    HW113118   2.927   4.947   1.495
 4073SOL    HW213119   2.886   4.789   1.496
 4074SOL     OW13120   0.593   2.936   0.787
 4074SOL    HW113121   0.515   2.976   0.835
 4074SOL    HW213122   0.597   2.838   0.805
 4075SOL     OW13123   5.033   0.052   3.606
 4075SOL    HW113124   5.124   0.058   3.648
 4075SOL    HW213125   4.978   0.131   3.635
 4076SOL     OW13126   1.867   2.254   2.965
 4076SOL    HW113127   1.823   2.168   2.941
 4076SOL    HW213128   1.870   2.264   3.065
 4077SOL     OW13129   3.279   0.896   0.691
 4077SOL    HW113130   3.254   0.915   0.786
 4077SOL    HW213131   3.341   0.817   0.688
 4078SOL     OW13132   4.924   3.961   2.918
 4078SOL    HW113133   4.990   3.945   2.992
 4078SOL    HW213134   4.973   3.986   2.835
 4079SOL     OW13135   6.211   0.571   4.498
 4079SOL    HW113136   6.207   0.472   4.499
 4079SOL    HW213137   6.201   0.604   4.404
 4080SOL     OW13138   3.652   2.870   2.973
 4080SOL    HW113139   3.739   2.828   2.949
 4080SOL    HW213140   3.660   2.970   2.969
 4081SOL     OW13141   2.631   2.426   6.650
 4081SOL    HW113142   2.578   2.483   6.713
 4081SOL    HW213143   2.622   2.330   6.678
 4082SOL     OW13144   1.191   2.369   5.738
 4082SOL    HW113145   1.142   2.400   5.820
 4082SOL    HW213146   1.132   2.307   5.686
 4083SOL     OW13147   6.078   5.220   2.898
 4083SOL    HW113148   6.103   5.129   2.930
 4083SOL    HW213149   6.141   5.249   2.826
 4084SOL     OW13150   4.772   0.605   2.449
 4084SOL    HW113151   4.859   0.559   2.432
 4084SOL    HW213152   4.778   0.657   2.535
 4085SOL     OW13153   2.576   4.565   2.733
 4085SOL    HW113154   2.557   4.644   2.792
 4085SOL    HW213155   2.557   4.481   2.784
 4086SOL     OW13156   5.891   4.574   4.756
 4086SOL    HW113157   5.798   4.606   4.776
 4086SOL    HW213158   5.907   4.486   4.801
 4087SOL     OW13159   2.350   0.715   1.676
 4087SOL    HW113160   2.298   0.650   1.731
 4087SOL    HW213161   2.311   0.806   1.685
 4088SOL     OW13162   0.508   1.835   5.883
 4088SOL    HW113163   0.591   1.841   5.938
 4088SOL    HW213164   0.529   1.794   5.794
 4089SOL     OW13165   0.990   1.036   2.091
 4089SOL    HW113166   0.984   0.961   2.026
 4089SOL    HW213167   1.045   1.110   2.052
 4090SOL     OW13168   2.492   2.663   5.774
 4090SOL    HW113169   2.491   2.563   5.772
 4090SOL    HW213170   2.499   2.698   5.681
 4091SOL     OW13171   3.322   5.849   2.011
 4091SOL    HW113172   3.263   5.929   1.999
 4091SOL    HW213173   3.365   5.826   1.924
 4092SOL     OW13174   5.352   2.008   6.076
 4092SOL    HW113175   5.403   1.982   5.994
 4092SOL    HW213176   5.271   1.950   6.085
 4093SOL     OW13177   5.314   3.985   3.332
 4093SOL    HW113178   5.329   4.043   3.252
 4093SOL    HW213179   5.312   3.889   3.304
 4094SOL     OW13180   7.007   6.624   0.020
 4094SOL    HW113181   7.023   6.671   0.107
 4094SOL    HW213182   6.921   6.573   0.025
 4095SOL     OW13183   1.718   4.876   0.607
 4095SOL    HW113184   1.668   4.830   0.680
 4095SOL    HW213185   1.794   4.820   0.577
 4096SOL     OW13186   0.779   0.404   6.396
 4096SOL    HW113187   0.854   0.359   6.445
 4096SOL    HW213188   0.745   0.344   6.324
 4097SOL     OW13189   0.295   3.570   4.852
 4097SOL    HW113190   0.340   3.524   4.776
 4097SOL    HW213191   0.331   3.534   4.938
 4098SOL     OW13192   1.058   5.633   1.726
 4098SOL    HW113193   0.985   5.669   1.667
 4098SOL    HW213194   1.017   5.596   1.810
 4099SOL     OW13195   6.395   3.324   5.630
 4099SOL    HW113196   6.329   3.260   5.590
 4099SOL    HW213197   6.488   3.293   5.609
 4100SOL     OW13198   2.247   1.618   2.756
 4100SOL    HW113199   2.336   1.623   2.800
 4100SOL    HW213200   2.214   1.523   2.757
 4101SOL     OW13201   6.613   6.056   6.736
 4101SOL    HW113202   6.707   6.088   6.747
 4101SOL    HW213203   6.612   5.972   6.681
 4102SOL     OW13204   1.233   5.712   0.058
 4102SOL    HW113205   1.312   5.744   0.111
 4102SOL    HW213206   1.251   5.619   0.025
 4103SOL     OW13207   2.379   6.019   2.918
 4103SOL    HW113208   2.389   5.932   2.966
 4103SOL    HW213209   2.353   6.002   2.823
 4104SOL     OW13210   2.059   6.072   5.323
 4104SOL    HW113211   1.972   6.118   5.345
 4104SOL    HW213212   2.094   6.026   5.404
 4105SOL     OW13213   4.302   0.516   2.518
 4105SOL    HW113214   4.358   0.471   2.588
 4105SOL    HW213215   4.347   0.600   2.489
 4106SOL     OW13216   1.531   6.919   1.916
 4106SOL    HW113217   1.477   6.998   1.887
 4106SOL    HW213218   1.470   6.841   1.929
 4107SOL     OW13219   1.364   0.900   0.902
 4107SOL    HW113220   1.400   0.845   0.978
 4107SOL    HW213221   1.395   0.994   0.912
 4108SOL     OW13222   6.504   6.016   5.798
 4108SOL    HW113223   6.502   5.923   5.835
 4108SOL    HW213224   6.559   6.018   5.715
 4109SOL     OW13225   5.326   6.287   4.481
 4109SOL    HW113226   5.379   6.206   4.503
 4109SOL    HW213227   5.363   6.365   4.532
 4110SOL     OW13228   4.798   2.820   0.496
 4110SOL    HW113229   4.843   2.880   0.430
 4110SOL    HW213230   4.728   2.871   0.546
 4111SOL     OW13231   5.834   5.031   4.076
 4111SOL    HW113232   5.804   4.936   4.085
 4111SOL    HW213233   5.917   5.034   4.020
 4112SOL     OW13234   4.548   6.033   4.054
 4112SOL    HW113235   4.536   6.122   4.009
 4112SOL    HW213236   4.463   6.007   4.099
 4113SOL     OW13237   4.298   5.473   4.589
 4113SOL    HW113238   4.367   5.412   4.628
 4113SOL    HW213239   4.264   5.535   4.660
 4114SOL     OW13240   0.275   1.282   1.595
 4114SOL    HW113241   0.334   1.361   1.610
 4114SOL    HW213242   0.309   1.205   1.649
 4115SOL     OW13243   4.445   5.894   3.490
 4115SOL    HW113244   4.386   5.883   3.410
 4115SOL    HW213245   4.401   5.955   3.556
 4116SOL     OW13246   5.678   3.099   3.739
 4116SOL    HW113247   5.584   3.091   3.771
 4116SOL    HW213248   5.709   3.194   3.747
 4117SOL     OW13249   0.742   1.134   3.384
 4117SOL    HW113250   0.738   1.230   3.360
 4117SOL    HW213251   0.728   1.124   3.483
 4118SOL     OW13252   1.393   6.856   1.055
 4118SOL    HW113253   1.354   6.931   1.001
 4118SOL    HW213254   1.350   6.770   1.029
 4119SOL     OW13255   6.691   0.487   4.355
 4119SOL    HW113256   6.656   0.437   4.275
 4119SOL    HW213257   6.619   0.492   4.424
 4120SOL     OW13258   2.565   0.784   6.143
 4120SOL    HW113259   2.516   0.731   6.212
 4120SOL    HW213260   2.663   0.765   6.151
 4121SOL     OW13261   6.651   0.795   2.305
 4121SOL    HW113262   6.673   0.700   2.283
 4121SOL    HW213263   6.553   0.804   2.317
 4122SOL     OW13264   1.011   5.249   3.307
 4122SOL    HW113265   1.065   5.329   3.332
 4122SOL    HW213266   1.061   5.166   3.331
 4123SOL     OW13267   5.314   4.043   1.227
 4123SOL    HW113268   5.371   4.100   1.168
 4123SOL    HW213269   5.286   3.960   1.177
 4124SOL     OW13270   6.548   6.610   0.188
 4124SOL    HW113271   6.536   6.531   0.248
 4124SOL    HW213272   6.531   6.694   0.240
 4125SOL     OW13273   6.813   2.692   0.305
 4125SOL    HW113274   6.721   2.656   0.323
 4125SOL    HW213275   6.807   2.790   0.288
 4126SOL     OW13276   1.128   3.870   4.128
 4126SOL    HW113277   1.217   3.913   4.139
 4126SOL    HW213278   1.107   3.861   4.030
 4127SOL     OW13279   5.396   2.549   3.957
 4127SOL    HW113280   5.329   2.581   4.023
 4127SOL    HW213281   5.350   2.500   3.884
 4128SOL     OW13282   6.730   2.558   6.536
 4128SOL    HW113283   6.796   2.604   6.477
 4128SOL    HW213284   6.745   2.586   6.631
 4129SOL     OW13285   2.873   1.313   1.031
 4129SOL    HW113286   2.817   1.324   0.949
 4129SOL    HW213287   2.948   1.250   1.012
 4130SOL     OW13288   6.049   2.399   0.402
 4130SOL    HW113289   6.031   2.429   0.495
 4130SOL    HW213290   6.063   2.300   0.401
 4131SOL     OW13291   4.511   6.657   3.042
 4131SOL    HW113292   4.602   6.616   3.051
 4131SOL    HW213293   4.515   6.754   3.065
 4132SOL     OW13294   6.567   4.724   3.267
 4132SOL    HW113295   6.584   4.820   3.247
 4132SOL    HW213296   6.513   4.684   3.193
 4133SOL     OW13297   5.564   6.510   2.690
 4133SOL    HW113298   5.531   6.600   2.662
 4133SOL    HW213299   5.514   6.439   2.640
 4134SOL     OW13300   1.748   3.425   1.459
 4134SOL    HW113301   1.726   3.490   1.386
 4134SOL    HW213302   1.665   3.406   1.512
 4135SOL     OW13303   5.922   0.996   1.066
 4135SOL    HW113304   5.891   0.911   1.108
 4135SOL    HW213305   5.908   1.072   1.130
 4136SOL     OW13306   0.419   4.483   1.042
 4136SOL    HW113307   0.322   4.473   1.062
 4136SOL    HW213308   0.442   4.429   0.961
 4137SOL     OW13309   0.250   3.009   6.455
 4137SOL    HW113310   0.214   2.930   6.506
 4137SOL    HW213311   0.348   3.015   6.469
 4138SOL     OW13312   4.491   6.827   6.631
 4138SOL    HW113313   4.484   6.927   6.630
 4138SOL    HW213314   4.537   6.796   6.548
 4139SOL     OW13315   1.949   4.402   2.582
 4139SOL    HW113316   2.011   4.472   2.549
 4139SOL    HW213317   1.976   4.373   2.674
 4140SOL     OW13318   2.455   0.115   6.476
 4140SOL    HW113319   2.458   0.076   6.568
 4140SOL    HW213320   2.448   0.041   6.409
 4141SOL     OW13321   5.059   1.604   5.940
 4141SOL    HW113322   4.989   1.593   5.869
 4141SOL    HW213323   5.041   1.542   6.016
 4142SOL     OW13324   6.313   5.335   1.399
 4142SOL    HW113325   6.291   5.358   1.304
 4142SOL    HW213326   6.366   5.250   1.402
 4143SOL     OW13327   6.165   3.842   6.525
 4143SOL    HW113328   6.087   3.892   6.563
 4143SOL    HW213329   6.249   3.892   6.544
 4144SOL     OW13330   4.240   1.089   1.646
 4144SOL    HW113331   4.331   1.116   1.614
 4144SOL    HW213332   4.170   1.139   1.595
 4145SOL     OW13333   6.045   0.295   1.611
 4145SOL    HW113334   6.050   0.356   1.691
 4145SOL    HW213335   6.114   0.223   1.620
 4146SOL     OW13336   4.590   0.005   1.373
 4146SOL    HW113337   4.562   6.970   1.299
 4146SOL    HW213338   4.512   0.057   1.405
 4147SOL     OW13339   4.954   5.075   0.168
 4147SOL    HW113340   4.902   5.021   0.101
 4147SOL    HW213341   4.897   5.149   0.204
 4148SOL     OW13342   2.813   1.507   5.888
 4148SOL    HW113343   2.750   1.515   5.811
 4148SOL    HW213344   2.770   1.455   5.961
 4149SOL     OW13345   1.418   3.833   6.628
 4149SOL    HW113346   1.379   3.875   6.709
 4149SOL    HW213347   1.346   3.818   6.560
 4150SOL     OW13348   5.175   1.571   0.155
 4150SOL    HW113349   5.246   1.604   0.092
 4150SOL    HW213350   5.192   1.606   0.247
 4151SOL     OW13351   2.547   5.947   4.850
 4151SOL    HW113352   2.534   5.949   4.949
 4151SOL    HW213353   2.470   5.902   4.807
 4152SOL     OW13354   2.388   4.326   1.383
 4152SOL    HW113355   2.486   4.344   1.386
 4152SOL    HW213356   2.349   4.365   1.299
 4153SOL     OW13357   6.878   5.827   2.128
 4153SOL    HW113358   6.956   5.870   2.083
 4153SOL    HW213359   6.794   5.851   2.079
 4154SOL     OW13360   0.275   6.639   3.918
 4154SOL    HW113361   0.339   6.714   3.935
 4154SOL    HW213362   0.312   6.578   3.847
 4155SOL     OW13363   6.762   0.436   1.944
 4155SOL    HW113364   6.662   0.436   1.950
 4155SOL    HW213365   6.798   0.350   1.981
 4156SOL     OW13366   0.300   5.304   5.527
 4156SOL    HW113367   0.258   5.231   5.581
 4156SOL    HW213368   0.236   5.381   5.520
 4157SOL     OW13369   5.585   5.973   0.780
 4157SOL    HW113370   5.548   5.919   0.704
 4157SOL    HW213371   5.512   5.995   0.844
 4158SOL     OW13372   0.437   3.049   0.976
 4158SOL    HW113373   0.445   3.093   1.066
 4158SOL    HW213374   0.387   2.963   0.986
 4159SOL     OW13375   2.997   0.937   4.304
 4159SOL    HW113376   3.026   1.025   4.267
 4159SOL    HW213377   2.959   0.949   4.395
 4160SOL     OW13378   1.144   6.409   5.970
 4160SOL    HW113379   1.153   6.488   6.030
 4160SOL    HW213380   1.228   6.396   5.918
 4161SOL     OW13381   3.252   3.513   3.094
 4161SOL    HW113382   3.166   3.471   3.126
 4161SOL    HW213383   3.241   3.612   3.090
 4162SOL     OW13384   5.415   5.687   1.282
 4162SOL    HW113385   5.502   5.737   1.273
 4162SOL    HW213386   5.364   5.723   1.360
 4163SOL     OW13387   3.919   5.855   1.521
 4163SOL    HW113388   3.827   5.821   1.499
 4163SOL    HW213389   3.914   5.954   1.537
 4164SOL     OW13390   5.532   1.650   6.365
 4164SOL    HW113391   5.584   1.597   6.298
 4164SOL    HW213392   5.496   1.733   6.321
 4165SOL     OW13393   3.599   1.584   4.232
 4165SOL    HW113394   3.661   1.506   4.221
 4165SOL    HW213395   3.511   1.552   4.268
 4166SOL     OW13396   6.653   1.731   1.744
 4166SOL    HW113397   6.716   1.730   1.822
 4166SOL    HW213398   6.584   1.803   1.758
 4167SOL     OW13399   3.972   5.141   4.526
 4167SOL    HW113400   3.942   5.119   4.619
 4167SOL    HW213401   4.004   5.236   4.523
 4168SOL     OW13402   5.351   4.335   7.002
 4168SOL    HW113403   5.366   4.434   6.999
 4168SOL    HW213404   5.345   4.305   0.071
 4169SOL     OW13405   5.440   3.297   6.531
 4169SOL    HW113406   5.519   3.235   6.531
 4169SOL    HW213407   5.395   3.295   6.442
 4170SOL     OW13408   1.020   2.599   5.371
 4170SOL    HW113409   0.920   2.604   5.373
 4170SOL    HW213410   1.054   2.651   5.292
 4171SOL     OW13411   0.715   1.709   6.395
 4171SOL    HW113412   0.672   1.782   6.344
 4171SOL    HW213413   0.713   1.730   6.493
 4172SOL     OW13414   2.852   2.837   6.752
 4172SOL    HW113415   2.848   2.922   6.804
 4172SOL    HW213416   2.765   2.788   6.761
 4173SOL     OW13417   4.289   1.447   5.681
 4173SOL    HW113418   4.257   1.507   5.607
 4173SOL    HW213419   4.275   1.492   5.769
 4174SOL     OW13420   4.452   6.672   4.035
 4174SOL    HW113421   4.475   6.623   3.952
 4174SOL    HW213422   4.474   6.616   4.115
 4175SOL     OW13423   1.456   4.962   6.100
 4175SOL    HW113424   1.527   4.936   6.035
 4175SOL    HW213425   1.366   4.943   6.060
 4176SOL     OW13426   5.200   6.711   5.766
 4176SOL    HW113427   5.247   6.797   5.748
 4176SOL    HW213428   5.178   6.704   5.863
 4177SOL     OW13429   3.987   4.809   2.896
 4177SOL    HW113430   4.052   4.775   2.964
 4177SOL    HW213431   3.902   4.837   2.943
 4178SOL     OW13432   4.107   6.588   1.444
 4178SOL    HW113433   4.075   6.494   1.433
 4178SOL    HW213434   4.205   6.594   1.423
 4179SOL     OW13435   3.970   2.396   7.024
 4179SOL    HW113436   3.970   2.344   6.938
 4179SOL    HW213437   3.901   2.359   0.059
 4180SOL     OW13438   4.507   3.823   0.278
 4180SOL    HW113439   4.576   3.756   0.253
 4180SOL    HW213440   4.455   3.790   0.357
 4181SOL     OW13441   5.848   6.806   5.937
 4181SOL    HW113442   5.758   6.804   5.981
 4181SOL    HW213443   5.919   6.786   6.005
 4182SOL     OW13444   1.000   5.668   5.207
 4182SOL    HW113445   1.096   5.693   5.196
 4182SOL    HW213446   0.942   5.735   5.161
 4183SOL     OW13447   4.239   1.790   0.738
 4183SOL    HW113448   4.165   1.730   0.769
 4183SOL    HW213449   4.320   1.775   0.794
 4184SOL     OW13450   3.719   5.431   3.354
 4184SOL    HW113451   3.737   5.527   3.374
 4184SOL    HW213452   3.621   5.414   3.356
 4185SOL     OW13453   4.675   4.213   3.251
 4185SOL    HW113454   4.633   4.304   3.248
 4185SOL    HW213455   4.681   4.176   3.159
 4186SOL     OW13456   1.818   5.870   0.239
 4186SOL    HW113457   1.802   5.807   0.163
 4186SOL    HW213458   1.780   5.959   0.217
 4187SOL     OW13459   2.464   3.466   5.723
 4187SOL    HW113460   2.530   3.434   5.655
 4187SOL    HW213461   2.397   3.526   5.678
 4188SOL     OW13462   4.356   6.785   6.872
 4188SOL    HW113463   4.278   6.844   6.892
 4188SOL    HW213464   4.393   6.809   6.782
 4189SOL     OW13465   4.315   4.865   3.500
 4189SOL    HW113466   4.381   4.863   3.575
 4189SOL    HW213467   4.356   4.913   3.422
 4190SOL     OW13468   6.037   6.528   1.680
 4190SOL    HW113469   5.999   6.619   1.664
 4190SOL    HW213470   6.128   6.522   1.639
 4191SOL     OW13471   4.535   3.366   6.832
 4191SOL    HW113472   4.625   3.406   6.848
 4191SOL    HW213473   4.473   3.435   6.794
 4192SOL     OW13474   1.510   3.800   6.950
 4192SOL    HW113475   1.434   3.820   6.888
 4192SOL    HW213476   1.557   3.717   6.920
 4193SOL     OW13477   0.108   0.250   6.987
 4193SOL    HW113478   0.051   0.172   7.015
 4193SOL    HW213479   0.204   0.228   7.003
 4194SOL     OW13480   5.084   1.825   5.755
 4194SOL    HW113481   5.115   1.762   5.827
 4194SOL    HW213482   5.037   1.774   5.684
 4195SOL     OW13483   3.100   6.929   1.140
 4195SOL    HW113484   3.041   6.960   1.215
 4195SOL    HW213485   3.194   6.960   1.156
 4196SOL     OW13486   6.385   3.024   2.640
 4196SOL    HW113487   6.415   3.004   2.547
 4196SOL    HW213488   6.310   3.090   2.638
 4197SOL     OW13489   3.295   0.845   6.938
 4197SOL    HW113490   3.378   0.835   6.992
 4197SOL    HW213491   3.242   0.760   6.940
 4198SOL     OW13492   6.088   2.466   1.995
 4198SOL    HW113493   6.121   2.487   2.087
 4198SOL    HW213494   6.131   2.381   1.964
 4199SOL     OW13495   0.437   3.580   6.370
 4199SOL    HW113496   0.395   3.489   6.369
 4199SOL    HW213497   0.378   3.645   6.322
 4200SOL     OW13498   4.780   1.930   4.018
 4200SOL    HW113499   4.820   1.898   4.104
 4200SOL    HW213500   4.681   1.926   4.024
 4201SOL     OW13501   6.089   6.977   4.181
 4201SOL    HW113502   6.043   7.018   4.103
 4201SOL    HW213503   6.188   6.993   4.175
 4202SOL     OW13504   4.739   3.822   1.626
 4202SOL    HW113505   4.744   3.894   1.697
 4202SOL    HW213506   4.694   3.859   1.545
 4203SOL     OW13507   5.931   4.479   5.386
 4203SOL    HW113508   5.879   4.456   5.469
 4203SOL    HW213509   6.011   4.534   5.411
 4204SOL     OW13510   1.691   4.101   6.699
 4204SOL    HW113511   1.670   4.186   6.650
 4204SOL    HW213512   1.661   4.023   6.644
 4205SOL     OW13513   4.634   6.530   6.402
 4205SOL    HW113514   4.662   6.619   6.368
 4205SOL    HW213515   4.649   6.525   6.501
 4206SOL     OW13516   2.081   2.122   3.933
 4206SOL    HW113517   2.015   2.194   3.915
 4206SOL    HW213518   2.108   2.124   4.029
 4207SOL     OW13519   0.307   2.143   2.534
 4207SOL    HW113520   0.288   2.171   2.628
 4207SOL    HW213521   0.223   2.149   2.480
 4208SOL     OW13522   1.824   2.107   3.590
 4208SOL    HW113523   1.860   2.015   3.580
 4208SOL    HW213524   1.898   2.174   3.588
 4209SOL     OW13525   0.027   5.983   1.973
 4209SOL    HW113526   0.031   6.028   2.062
 4209SOL    HW213527   7.003   6.041   1.908
 4210SOL     OW13528   2.978   4.024   5.109
 4210SOL    HW113529   2.926   4.067   5.035
 4210SOL    HW213530   2.915   3.982   5.174
 4211SOL     OW13531   3.840   2.797   5.228
 4211SOL    HW113532   3.850   2.786   5.129
 4211SOL    HW213533   3.923   2.766   5.273
 4212SOL     OW13534   6.993   2.144   3.240
 4212SOL    HW113535   6.915   2.176   3.187
 4212SOL    HW213536   7.021   2.215   3.304
 4213SOL     OW13537   3.471   0.169   3.831
 4213SOL    HW113538   3.522   0.181   3.746
 4213SOL    HW213539   3.402   0.098   3.819
 4214SOL     OW13540   6.776   5.665   3.118
 4214SOL    HW113541   6.767   5.664   3.218
 4214SOL    HW213542   6.726   5.743   3.081
 4215SOL     OW13543   5.818   6.678   5.690
 4215SOL    HW113544   5.780   6.587   5.707
 4215SOL    HW213545   5.821   6.729   5.776
 4216SOL     OW13546   2.565   5.250   1.911
 4216SOL    HW113547   2.565   5.181   1.983
 4216SOL    HW213548   2.542   5.339   1.950
 4217SOL     OW13549   1.289   0.124   3.228
 4217SOL    HW113550   1.264   0.028   3.215
 4217SOL    HW213551   1.263   0.176   3.147
 4218SOL     OW13552   2.164   0.959   0.947
 4218SOL    HW113553   2.202   1.047   0.921
 4218SOL    HW213554   2.129   0.964   1.041
 4219SOL     OW13555   3.640   5.232   3.061
 4219SOL    HW113556   3.543   5.221   3.039
 4219SOL    HW213557   3.654   5.212   3.158
 4220SOL     OW13558   5.413   1.617   1.157
 4220SOL    HW113559   5.457   1.545   1.105
 4220SOL    HW213560   5.482   1.670   1.206
 4221SOL     OW13561   0.931   6.354   0.970
 4221SOL    HW113562   0.959   6.404   0.887
 4221SOL    HW213563   0.864   6.284   0.945
 4222SOL     OW13564   4.956   3.353   4.006
 4222SOL    HW113565   4.904   3.420   4.059
 4222SOL    HW213566   5.029   3.316   4.063
 4223SOL     OW13567   3.567   3.788   2.779
 4223SOL    HW113568   3.478   3.746   2.796
 4223SOL    HW213569   3.632   3.756   2.847
 4224SOL     OW13570   4.723   5.058   4.484
 4224SOL    HW113571   4.769   4.970   4.474
 4224SOL    HW213572   4.738   5.113   4.402
 4225SOL     OW13573   1.154   1.675   6.243
 4225SOL    HW113574   1.210   1.598   6.212
 4225SOL    HW213575   1.183   1.703   6.334
 4226SOL     OW13576   0.666   5.226   5.047
 4226SOL    HW113577   0.699   5.170   4.971
 4226SOL    HW213578   0.724   5.212   5.127
 4227SOL     OW13579   4.902   5.355   2.091
 4227SOL    HW113580   4.982   5.343   2.149
 4227SOL    HW213581   4.861   5.266   2.071
 4228SOL     OW13582   1.613   4.734   4.457
 4228SOL    HW113583   1.695   4.776   4.418
 4228SOL    HW213584   1.611   4.637   4.433
 4229SOL     OW13585   5.879   5.609   5.448
 4229SOL    HW113586   5.868   5.673   5.524
 4229SOL    HW213587   5.867   5.515   5.481
 4230SOL     OW13588   6.941   0.994   1.849
 4230SOL    HW113589   6.903   0.952   1.931
 4230SOL    HW213590   6.928   0.933   1.771
 4231SOL     OW13591   0.190   1.590   6.545
 4231SOL    HW113592   0.129   1.512   6.534
 4231SOL    HW213593   0.137   1.672   6.565
 4232SOL     OW13594   1.583   5.019   4.153
 4232SOL    HW113595   1.560   4.952   4.083
 4232SOL    HW213596   1.561   4.982   4.243
 4233SOL     OW13597   4.897   5.565   2.292
 4233SOL    HW113598   4.933   5.537   2.380
 4233SOL    HW213599   4.845   5.490   2.251
 4234SOL     OW13600   3.582   5.104   5.614
 4234SOL    HW113601   3.646   5.180   5.618
 4234SOL    HW213602   3.544   5.097   5.522
 4235SOL     OW13603   6.970   5.939   6.152
 4235SOL    HW113604   6.978   5.907   6.246
 4235SOL    HW213605   6.982   6.038   6.149
 4236SOL     OW13606   0.838   5.673   3.048
 4236SOL    HW113607   0.833   5.574   3.040
 4236SOL    HW213608   0.764   5.706   3.107
 4237SOL     OW13609   0.463   4.675   4.347
 4237SOL    HW113610   0.381   4.714   4.305
 4237SOL    HW213611   0.437   4.624   4.430
 4238SOL     OW13612   3.491   6.353   2.069
 4238SOL    HW113613   3.563   6.299   2.027
 4238SOL    HW213614   3.433   6.294   2.125
 4239SOL     OW13615   4.351   1.723   3.965
 4239SOL    HW113616   4.388   1.637   3.929
 4239SOL    HW213617   4.426   1.781   3.997
 4240SOL     OW13618   5.634   6.621   2.061
 4240SOL    HW113619   5.690   6.538   2.057
 4240SOL    HW213620   5.681   6.690   2.116
 4241SOL     OW13621   6.251   4.224   0.542
 4241SOL    HW113622   6.273   4.319   0.519
 4241SOL    HW213623   6.180   4.190   0.481
 4242SOL     OW13624   3.007   2.138   3.390
 4242SOL    HW113625   2.990   2.151   3.488
 4242SOL    HW213626   2.986   2.043   3.365
 4243SOL     OW13627   4.746   1.278   3.112
 4243SOL    HW113628   4.756   1.371   3.147
 4243SOL    HW213629   4.695   1.281   3.025
 4244SOL     OW13630   3.205   2.997   4.361
 4244SOL    HW113631   3.240   2.940   4.436
 4244SOL    HW213632   3.261   2.981   4.279
 4245SOL     OW13633   5.634   0.511   6.898
 4245SOL    HW113634   5.564   0.491   6.829
 4245SOL    HW213635   5.594   0.567   6.971
 4246SOL     OW13636   7.024   3.580   0.102
 4246SOL    HW113637   6.994   3.488   0.076
 4246SOL    HW213638   0.094   3.578   0.126
 4247SOL     OW13639   0.635   5.661   5.118
 4247SOL    HW113640   0.609   5.576   5.164
 4247SOL    HW213641   0.662   5.641   5.024
 4248SOL     OW13642   2.161   3.752   5.855
 4248SOL    HW113643   2.193   3.823   5.917
 4248SOL    HW213644   2.174   3.782   5.760
 4249SOL     OW13645   5.315   4.613   5.656
 4249SOL    HW113646   5.396   4.667   5.633
 4249SOL    HW213647   5.262   4.661   5.726
 4250SOL     OW13648   1.147   4.851   2.916
 4250SOL    HW113649   1.213   4.809   2.979
 4250SOL    HW213650   1.056   4.847   2.956
 4251SOL     OW13651   5.279   3.987   0.484
 4251SOL    HW113652   5.303   4.083   0.495
 4251SOL    HW213653   5.234   3.953   0.567
 4252SOL     OW13654   0.553   5.442   5.246
 4252SOL    HW113655   0.569   5.353   5.203
 4252SOL    HW213656   0.565   5.433   5.345
 4253SOL     OW13657   4.111   6.744   2.905
 4253SOL    HW113658   4.057   6.701   2.977
 4253SOL    HW213659   4.050   6.792   2.842
 4254SOL     OW13660   2.797   4.341   1.571
 4254SOL    HW113661   2.821   4.244   1.561
 4254SOL    HW213662   2.720   4.363   1.511
 4255SOL     OW13663   0.795   2.238   4.511
 4255SOL    HW113664   0.864   2.186   4.459
 4255SOL    HW213665   0.815   2.335   4.505
 4256SOL     OW13666   1.866   0.931   1.643
 4256SOL    HW113667   1.856   0.990   1.724
 4256SOL    HW213668   1.961   0.928   1.614
 4257SOL     OW13669   4.000   2.201   4.744
 4257SOL    HW113670   4.068   2.246   4.801
 4257SOL    HW213671   4.009   2.232   4.649
 4258SOL     OW13672   5.143   6.636   2.215
 4258SOL    HW113673   5.201   6.708   2.177
 4258SOL    HW213674   5.191   6.592   2.291
 4259SOL     OW13675   1.558   2.713   1.036
 4259SOL    HW113676   1.624   2.715   0.961
 4259SOL    HW213677   1.605   2.730   1.123
 4260SOL     OW13678   4.287   5.845   3.267
 4260SOL    HW113679   4.247   5.754   3.258
 4260SOL    HW213680   4.220   5.908   3.306
 4261SOL     OW13681   1.948   1.444   3.183
 4261SOL    HW113682   1.951   1.544   3.174
 4261SOL    HW213683   2.040   1.407   3.181
 4262SOL     OW13684   0.263   6.113   6.336
 4262SOL    HW113685   0.210   6.037   6.375
 4262SOL    HW213686   0.220   6.143   6.251
 4263SOL     OW13687   4.050   5.324   6.185
 4263SOL    HW113688   4.103   5.406   6.161
 4263SOL    HW213689   3.975   5.313   6.121
 4264SOL     OW13690   0.090   0.235   0.743
 4264SOL    HW113691   0.137   0.225   0.655
 4264SOL    HW213692   0.147   0.195   0.815
 4265SOL     OW13693   0.408   2.440   0.339
 4265SOL    HW113694   0.422   2.500   0.418
 4265SOL    HW213695   0.474   2.365   0.342
 4266SOL     OW13696   3.329   4.484   1.142
 4266SOL    HW113697   3.294   4.577   1.130
 4266SOL    HW213698   3.429   4.488   1.151
 4267SOL     OW13699   2.210   4.152   6.100
 4267SOL    HW113700   2.131   4.173   6.042
 4267SOL    HW213701   2.211   4.214   6.178
 4268SOL     OW13702   1.564   0.890   0.312
 4268SOL    HW113703   1.524   0.982   0.308
 4268SOL    HW213704   1.640   0.890   0.377
 4269SOL     OW13705   2.823   3.838   0.693
 4269SOL    HW113706   2.830   3.912   0.760
 4269SOL    HW213707   2.779   3.872   0.610
 4270SOL     OW13708   4.062   2.787   5.922
 4270SOL    HW113709   3.978   2.840   5.915
 4270SOL    HW213710   4.087   2.751   5.832
 4271SOL     OW13711   1.342   6.916   0.109
 4271SOL    HW113712   1.307   6.971   0.032
 4271SOL    HW213713   1.265   6.874   0.157
 4272SOL     OW13714   0.145   4.339   3.468
 4272SOL    HW113715   0.115   4.394   3.546
 4272SOL    HW213716   0.064   4.305   3.418
 4273SOL     OW13717   5.461   6.079   4.629
 4273SOL    HW113718   5.425   6.065   4.721
 4273SOL    HW213719   5.520   6.001   4.605
 4274SOL     OW13720   2.037   0.267   3.896
 4274SOL    HW113721   2.025   0.198   3.967
 4274SOL    HW213722   2.133   0.294   3.892
 4275SOL     OW13723   1.436   6.592   6.477
 4275SOL    HW113724   1.395   6.564   6.390
 4275SOL    HW213725   1.384   6.552   6.552
 4276SOL     OW13726   1.671   4.519   2.486
 4276SOL    HW113727   1.693   4.461   2.408
 4276SOL    HW213728   1.746   4.514   2.553
 4277SOL     OW13729   0.700   5.264   4.249
 4277SOL    HW113730   0.744   5.229   4.166
 4277SOL    HW213731   0.614   5.309   4.224
 4278SOL     OW13732   0.954   6.356   5.511
 4278SOL    HW113733   0.922   6.262   5.496
 4278SOL    HW213734   0.906   6.418   5.449
 4279SOL     OW13735   3.314   5.688   4.143
 4279SOL    HW113736   3.276   5.708   4.233
 4279SOL    HW213737   3.333   5.590   4.136
 4280SOL     OW13738   4.887   3.489   3.593
 4280SOL    HW113739   4.978   3.518   3.620
 4280SOL    HW213740   4.829   3.570   3.580
 4281SOL     OW13741   2.427   3.791   5.353
 4281SOL    HW113742   2.337   3.765   5.319
 4281SOL    HW213743   2.457   3.875   5.308
 4282SOL     OW13744   0.557   3.164   1.195
 4282SOL    HW113745   0.637   3.104   1.194
 4282SOL    HW213746   0.576   3.242   1.255
 4283SOL     OW13747   2.029   0.678   4.056
 4283SOL    HW113748   2.129   0.677   4.067
 4283SOL    HW213749   2.006   0.699   3.961
 4284SOL     OW13750   6.444   1.573   3.012
 4284SOL    HW113751   6.393   1.489   2.994
 4284SOL    HW213752   6.409   1.646   2.952
 4285SOL     OW13753   0.970   6.323   5.107
 4285SOL    HW113754   1.047   6.375   5.141
 4285SOL    HW213755   0.987   6.294   5.013
 4286SOL     OW13756   5.614   5.610   6.923
 4286SOL    HW113757   5.649   5.641   6.834
 4286SOL    HW213758   5.682   5.631   6.994
 4287SOL     OW13759   3.985   6.446   5.081
 4287SOL    HW113760   3.960   6.509   5.155
 4287SOL    HW213761   3.950   6.482   4.995
 4288SOL     OW13762   1.617   6.664   2.675
 4288SOL    HW113763   1.573   6.749   2.704
 4288SOL    HW213764   1.630   6.604   2.754
 4289SOL     OW13765   6.161   3.564   0.508
 4289SOL    HW113766   6.243   3.506   0.510
 4289SOL    HW213767   6.118   3.563   0.598
 4290SOL     OW13768   2.405   1.320   2.380
 4290SOL    HW113769   2.312   1.289   2.360
 4290SOL    HW213770   2.454   1.336   2.295
 4291SOL     OW13771   6.002   4.849   1.161
 4291SOL    HW113772   5.905   4.843   1.136
 4291SOL    HW213773   6.056   4.862   1.078
 4292SOL     OW13774   5.966   5.917   5.863
 4292SOL    HW113775   5.960   5.893   5.960
 4292SOL    HW213776   5.971   6.017   5.854
 4293SOL     OW13777   0.185   2.539   6.645
 4293SOL    HW113778   0.197   2.492   6.732
 4293SOL    HW213779   0.260   2.515   6.583
 4294SOL     OW13780   5.087   2.666   6.295
 4294SOL    HW113781   5.098   2.732   6.221
 4294SOL    HW213782   5.041   2.584   6.261
 4295SOL     OW13783   3.867   6.511   4.841
 4295SOL    HW113784   3.909   6.434   4.793
 4295SOL    HW213785   3.860   6.589   4.780
 4296SOL     OW13786   2.443   1.066   1.501
 4296SOL    HW113787   2.426   0.981   1.451
 4296SOL    HW213788   2.440   1.143   1.438
 4297SOL     OW13789   6.023   0.736   6.635
 4297SOL    HW113790   6.009   0.729   6.536
 4297SOL    HW213791   6.091   0.807   6.653
 4298SOL     OW13792   2.950   5.162   1.246
 4298SOL    HW113793   2.887   5.229   1.285
 4298SOL    HW213794   3.033   5.158   1.301
 4299SOL     OW13795   1.086   4.026   6.405
 4299SOL    HW113796   1.135   4.097   6.456
 4299SOL    HW213797   1.130   4.014   6.315
 4300SOL     OW13798   5.765   0.148   6.077
 4300SOL    HW113799   5.801   0.117   6.165
 4300SOL    HW213800   5.817   0.105   6.002
 4301SOL     OW13801   2.628   1.475   0.216
 4301SOL    HW113802   2.560   1.543   0.245
 4301SOL    HW213803   2.717   1.497   0.256
 4302SOL     OW13804   0.889   6.422   6.837
 4302SOL    HW113805   0.845   6.511   6.849
 4302SOL    HW213806   0.946   6.402   6.916
 4303SOL     OW13807   6.999   3.822   1.968
 4303SOL    HW113808   0.048   3.836   1.905
 4303SOL    HW213809   6.958   3.910   1.993
 4304SOL     OW13810   3.527   2.856   5.043
 4304SOL    HW113811   3.586   2.925   5.084
 4304SOL    HW213812   3.528   2.866   4.943
 4305SOL     OW13813   6.307   1.197   4.979
 4305SOL    HW113814   6.319   1.107   5.021
 4305SOL    HW213815   6.227   1.242   5.018
 4306SOL     OW13816   6.112   6.273   6.633
 4306SOL    HW113817   6.074   6.304   6.546
 4306SOL    HW213818   6.211   6.260   6.624
 4307SOL     OW13819   5.218   3.311   6.953
 4307SOL    HW113820   5.125   3.276   6.945
 4307SOL    HW213821   5.268   3.294   6.869
 4308SOL     OW13822   4.254   6.862   5.017
 4308SOL    HW113823   4.293   6.770   5.021
 4308SOL    HW213824   4.328   6.929   5.009
 4309SOL     OW13825   1.472   1.276   0.738
 4309SOL    HW113826   1.377   1.251   0.724
 4309SOL    HW213827   1.505   1.236   0.823
 4310SOL     OW13828   1.526   1.005   2.361
 4310SOL    HW113829   1.507   1.025   2.265
 4310SOL    HW213830   1.445   0.966   2.405
 4311SOL     OW13831   1.506   6.092   4.056
 4311SOL    HW113832   1.602   6.095   4.027
 4311SOL    HW213833   1.487   6.004   4.099
 4312SOL     OW13834   1.516   5.028   1.862
 4312SOL    HW113835   1.573   5.110   1.870
 4312SOL    HW213836   1.554   4.956   1.919
 4313SOL     OW13837   4.725   0.326   1.730
 4313SOL    HW113838   4.819   0.298   1.751
 4313SOL    HW213839   4.702   0.406   1.785
 4314SOL     OW13840   5.291   3.467   3.023
 4314SOL    HW113841   5.301   3.432   2.929
 4314SOL    HW213842   5.231   3.406   3.075
 4315SOL     OW13843   2.458   1.751   1.821
 4315SOL    HW113844   2.406   1.736   1.905
 4315SOL    HW213845   2.429   1.837   1.778
 4316SOL     OW13846   0.393   0.385   2.247
 4316SOL    HW113847   0.372   0.383   2.345
 4316SOL    HW213848   0.309   0.370   2.195
 4317SOL     OW13849   4.260   0.439   3.426
 4317SOL    HW113850   4.187   0.452   3.493
 4317SOL    HW213851   4.277   0.341   3.415
 4318SOL     OW13852   0.412   3.084   4.105
 4318SOL    HW113853   0.383   3.150   4.036
 4318SOL    HW213854   0.336   3.064   4.166
 4319SOL     OW13855   2.679   3.408   5.542
 4319SOL    HW113856   2.778   3.422   5.548
 4319SOL    HW213857   2.657   3.313   5.561
 4320SOL     OW13858   0.603   6.328   2.753
 4320SOL    HW113859   0.702   6.315   2.740
 4320SOL    HW213860   0.562   6.359   2.667
 4321SOL     OW13861   0.917   0.850   5.103
 4321SOL    HW113862   0.827   0.892   5.102
 4321SOL    HW213863   0.913   0.763   5.151
 4322SOL     OW13864   5.441   1.467   0.779
 4322SOL    HW113865   5.386   1.533   0.831
 4322SOL    HW213866   5.527   1.450   0.828
 4323SOL     OW13867   6.723   2.309   4.035
 4323SOL    HW113868   6.752   2.404   4.025
 4323SOL    HW213869   6.706   2.269   3.945
 4324SOL     OW13870   6.488   3.284   6.004
 4324SOL    HW113871   6.451   3.191   6.002
 4324SOL    HW213872   6.417   3.348   6.032
 4325SOL     OW13873   1.924   1.641   5.585
 4325SOL    HW113874   1.830   1.640   5.618
 4325SOL    HW213875   1.987   1.630   5.662
 4326SOL     OW13876   6.114   2.416   5.956
 4326SOL    HW113877   6.072   2.404   5.866
 4326SOL    HW213878   6.080   2.500   5.998
 4327SOL     OW13879   5.376   0.090   3.600
 4327SOL    HW113880   5.473   0.114   3.602
 4327SOL    HW213881   5.324   0.162   3.555
 4328SOL     OW13882   5.457   5.390   0.665
 4328SOL    HW113883   5.550   5.423   0.680
 4328SOL    HW213884   5.435   5.319   0.732
 4329SOL     OW13885   4.031   1.509   6.167
 4329SOL    HW113886   3.961   1.580   6.159
 4329SOL    HW213887   4.064   1.505   6.262
 4330SOL     OW13888   1.105   0.202   6.280
 4330SOL    HW113889   1.108   0.299   6.256
 4330SOL    HW213890   1.198   0.165   6.280
 4331SOL     OW13891   5.417   2.745   0.870
 4331SOL    HW113892   5.496   2.805   0.864
 4331SOL    HW213893   5.442   2.661   0.918
 4332SOL     OW13894   5.204   3.645   1.350
 4332SOL    HW113895   5.239   3.552   1.345
 4332SOL    HW213896   5.141   3.653   1.427
 4333SOL     OW13897   5.256   1.970   5.314
 4333SOL    HW113898   5.209   1.982   5.402
 4333SOL    HW213899   5.330   1.904   5.324
 4334SOL     OW13900   4.538   0.534   2.149
 4334SOL    HW113901   4.468   0.465   2.168
 4334SOL    HW213902   4.494   0.624   2.141
 4335SOL     OW13903   3.474   3.949   5.550
 4335SOL    HW113904   3.453   3.948   5.648
 4335SOL    HW213905   3.540   3.877   5.530
 4336SOL     OW13906   1.785   6.629   4.220
 4336SOL    HW113907   1.738   6.716   4.232
 4336SOL    HW213908   1.718   6.555   4.216
 4337SOL     OW13909   0.431   4.925   0.755
 4337SOL    HW113910   0.387   4.987   0.690
 4337SOL    HW213911   0.530   4.935   0.749
 4338SOL     OW13912   6.518   6.009   3.740
 4338SOL    HW113913   6.555   5.918   3.758
 4338SOL    HW213914   6.589   6.066   3.699
 4339SOL     OW13915   5.963   1.243   6.246
 4339SOL    HW113916   6.022   1.315   6.284
 4339SOL    HW213917   5.894   1.218   6.313
 4340SOL     OW13918   4.854   3.042   2.259
 4340SOL    HW113919   4.792   3.016   2.185
 4340SOL    HW213920   4.936   2.986   2.254
 4341SOL     OW13921   0.465   3.811   0.394
 4341SOL    HW113922   0.457   3.901   0.436
 4341SOL    HW213923   0.519   3.750   0.453
 4342SOL     OW13924   6.948   2.836   2.895
 4342SOL    HW113925   6.911   2.904   2.958
 4342SOL    HW213926   6.883   2.761   2.884
 4343SOL     OW13927   2.316   1.749   1.363
 4343SOL    HW113928   2.397   1.793   1.403
 4343SOL    HW213929   2.256   1.716   1.436
 4344SOL     OW13930   2.297   4.185   3.144
 4344SOL    HW113931   2.298   4.086   3.157
 4344SOL    HW213932   2.202   4.218   3.143
 4345SOL     OW13933   2.132   1.528   6.083
 4345SOL    HW113934   2.054   1.579   6.121
 4345SOL    HW213935   2.200   1.514   6.154
 4346SOL     OW13936   0.416   2.674   1.626
 4346SOL    HW113937   0.422   2.708   1.532
 4346SOL    HW213938   0.508   2.669   1.665
 4347SOL     OW13939   6.164   5.811   2.801
 4347SOL    HW113940   6.249   5.852   2.833
 4347SOL    HW213941   6.168   5.798   2.702
 4348SOL     OW13942   1.069   3.709   6.939
 4348SOL    HW113943   1.052   3.783   6.874
 4348SOL    HW213944   1.130   3.743   7.012
 4349SOL     OW13945   0.344   0.282   3.127
 4349SOL    HW113946   0.380   0.282   3.220
 4349SOL    HW213947   0.289   0.200   3.113
 4350SOL     OW13948   5.416   1.449   3.810
 4350SOL    HW113949   5.501   1.446   3.863
 4350SOL    HW213950   5.411   1.534   3.758
 4351SOL     OW13951   3.116   6.403   0.431
 4351SOL    HW113952   3.210   6.372   0.436
 4351SOL    HW213953   3.061   6.356   0.499
 4352SOL     OW13954   6.033   1.316   2.269
 4352SOL    HW113955   5.989   1.327   2.180
 4352SOL    HW213956   6.001   1.231   2.311
 4353SOL     OW13957   3.373   5.734   0.852
 4353SOL    HW113958   3.450   5.684   0.891
 4353SOL    HW213959   3.293   5.675   0.847
 4354SOL     OW13960   1.579   0.486   1.243
 4354SOL    HW113961   1.600   0.542   1.163
 4354SOL    HW213962   1.657   0.488   1.306
 4355SOL     OW13963   4.562   1.127   0.970
 4355SOL    HW113964   4.531   1.202   1.027
 4355SOL    HW213965   4.625   1.069   1.021
 4356SOL     OW13966   4.054   4.138   0.229
 4356SOL    HW113967   4.018   4.111   0.140
 4356SOL    HW213968   4.149   4.109   0.237
 4357SOL     OW13969   6.421   1.076   6.765
 4357SOL    HW113970   6.364   1.146   6.808
 4357SOL    HW213971   6.459   1.016   6.835
 4358SOL     OW13972   6.760   0.411   1.673
 4358SOL    HW113973   6.753   0.417   1.772
 4358SOL    HW213974   6.755   0.316   1.644
 4359SOL     OW13975   6.399   2.703   4.335
 4359SOL    HW113976   6.425   2.766   4.409
 4359SOL    HW213977   6.473   2.638   4.319
 4360SOL     OW13978   2.291   3.251   1.139
 4360SOL    HW113979   2.232   3.300   1.203
 4360SOL    HW213980   2.325   3.314   1.070
 4361SOL     OW13981   5.546   1.776   2.141
 4361SOL    HW113982   5.591   1.800   2.227
 4361SOL    HW213983   5.573   1.841   2.070
 4362SOL     OW13984   5.584   4.401   3.790
 4362SOL    HW113985   5.496   4.371   3.753
 4362SOL    HW213986   5.612   4.340   3.864
 4363SOL     OW13987   4.793   1.582   5.797
 4363SOL    HW113988   4.803   1.545   5.705
 4363SOL    HW213989   4.775   1.508   5.861
 4364SOL     OW13990   3.500   3.447   5.385
 4364SOL    HW113991   3.513   3.387   5.464
 4364SOL    HW213992   3.518   3.395   5.301
 4365SOL     OW13993   3.154   1.272   1.571
 4365SOL    HW113994   3.135   1.366   1.599
 4365SOL    HW213995   3.250   1.250   1.588
 4366SOL     OW13996   5.212   5.202   1.182
 4366SOL    HW113997   5.240   5.107   1.197
 4366SOL    HW213998   5.293   5.260   1.176
 4367SOL     OW13999   0.400   6.266   0.426
 4367SOL    HW114000   0.470   6.337   0.429
 4367SOL    HW214001   0.401   6.216   0.513
 4368SOL     OW14002   5.116   3.398   1.722
 4368SOL    HW114003   5.045   3.378   1.788
 4368SOL    HW214004   5.079   3.393   1.629
 4369SOL     OW14005   3.152   5.665   1.651
 4369SOL    HW114006   3.187   5.673   1.744
 4369SOL    HW214007   3.112   5.574   1.638
 4370SOL     OW14008   5.566   4.929   2.833
 4370SOL    HW114009   5.553   4.898   2.928
 4370SOL    HW214010   5.566   4.849   2.772
 4371SOL     OW14011   6.913   1.706   2.196
 4371SOL    HW114012   6.930   1.676   2.290
 4371SOL    HW214013   6.818   1.735   2.187
 4372SOL     OW14014   4.831   6.737   3.365
 4372SOL    HW114015   4.916   6.737   3.417
 4372SOL    HW214016   4.780   6.653   3.385
 4373SOL     OW14017   0.084   1.800   6.203
 4373SOL    HW114018   0.026   1.775   6.126
 4373SOL    HW214019   0.174   1.756   6.193
 4374SOL     OW14020   3.106   2.125   1.196
 4374SOL    HW114021   3.070   2.101   1.106
 4374SOL    HW214022   3.121   2.041   1.250
 4375SOL     OW14023   3.696   6.821   4.111
 4375SOL    HW114024   3.773   6.856   4.165
 4375SOL    HW214025   3.617   6.881   4.124
 4376SOL     OW14026   6.317   1.845   3.988
 4376SOL    HW114027   6.297   1.785   4.065
 4376SOL    HW214028   6.365   1.794   3.917
 4377SOL     OW14029   6.128   5.402   6.598
 4377SOL    HW114030   6.203   5.341   6.625
 4377SOL    HW214031   6.053   5.393   6.664
 4378SOL     OW14032   2.102   1.546   3.600
 4378SOL    HW114033   2.159   1.499   3.532
 4378SOL    HW214034   2.109   1.498   3.688
 4379SOL     OW14035   2.808   1.980   5.498
 4379SOL    HW114036   2.787   1.883   5.488
 4379SOL    HW214037   2.801   2.024   5.408
 4380SOL     OW14038   0.325   1.494   2.356
 4380SOL    HW114039   0.393   1.429   2.388
 4380SOL    HW214040   0.247   1.445   2.318
 4381SOL     OW14041   1.739   6.015   6.627
 4381SOL    HW114042   1.748   5.916   6.629
 4381SOL    HW214043   1.763   6.049   6.536
 4382SOL     OW14044   0.427   4.385   4.939
 4382SOL    HW114045   0.409   4.302   4.887
 4382SOL    HW214046   0.383   4.463   4.894
 4383SOL     OW14047   6.496   3.452   6.926
 4383SOL    HW114048   6.495   3.426   7.022
 4383SOL    HW214049   6.590   3.447   6.891
 4384SOL     OW14050   5.601   6.720   3.799
 4384SOL    HW114051   5.505   6.700   3.821
 4384SOL    HW214052   5.633   6.658   3.728
 4385SOL     OW14053   4.195   1.634   5.484
 4385SOL    HW114054   4.196   1.608   5.387
 4385SOL    HW214055   4.160   1.727   5.493
 4386SOL     OW14056   1.928   3.710   5.190
 4386SOL    HW114057   1.951   3.773   5.116
 4386SOL    HW214058   1.894   3.762   5.269
 4387SOL     OW14059   6.220   1.789   0.363
 4387SOL    HW114060   6.280   1.736   0.423
 4387SOL    HW214061   6.180   1.865   0.416
 4388SOL     OW14062   5.024   3.741   6.872
 4388SOL    HW114063   4.975   3.680   6.809
 4388SOL    HW214064   5.109   3.698   6.900
 4389SOL     OW14065   0.765   3.322   0.984
 4389SOL    HW114066   0.805   3.246   1.035
 4389SOL    HW214067   0.690   3.288   0.927
 4390SOL     OW14068   0.170   1.157   0.732
 4390SOL    HW114069   0.084   1.107   0.719
 4390SOL    HW214070   0.162   1.249   0.694
 4391SOL     OW14071   1.283   5.685   0.705
 4391SOL    HW114072   1.324   5.621   0.639
 4391SOL    HW214073   1.240   5.760   0.655
 4392SOL     OW14074   1.363   3.170   5.468
 4392SOL    HW114075   1.442   3.222   5.500
 4392SOL    HW214076   1.345   3.095   5.531
 4393SOL     OW14077   5.275   0.522   1.913
 4393SOL    HW114078   5.350   0.555   1.971
 4393SOL    HW214079   5.311   0.458   1.846
 4394SOL     OW14080   1.291   0.373   2.159
 4394SOL    HW114081   1.389   0.389   2.174
 4394SOL    HW214082   1.266   0.283   2.194
 4395SOL     OW14083   2.519   4.999   1.541
 4395SOL    HW114084   2.613   5.033   1.549
 4395SOL    HW214085   2.464   5.033   1.617
 4396SOL     OW14086   3.072   1.221   2.915
 4396SOL    HW114087   3.088   1.213   3.013
 4396SOL    HW214088   3.153   1.261   2.871
 4397SOL     OW14089   3.175   1.834   4.450
 4397SOL    HW114090   3.248   1.903   4.452
 4397SOL    HW214091   3.206   1.751   4.497
 4398SOL     OW14092   1.866   3.044   5.310
 4398SOL    HW114093   1.797   3.100   5.265
 4398SOL    HW214094   1.956   3.066   5.274
 4399SOL     OW14095   2.696   6.315   1.747
 4399SOL    HW114096   2.794   6.299   1.736
 4399SOL    HW214097   2.658   6.249   1.812
 4400SOL     OW14098   1.973   5.825   4.539
 4400SOL    HW114099   1.949   5.794   4.447
 4400SOL    HW214100   2.024   5.753   4.587
 4401SOL     OW14101   3.397   6.101   6.707
 4401SOL    HW114102   3.385   6.027   6.773
 4401SOL    HW214103   3.395   6.189   6.756
 4402SOL     OW14104   1.680   0.293   2.901
 4402SOL    HW114105   1.722   0.360   2.963
 4402SOL    HW214106   1.601   0.333   2.856
 4403SOL     OW14107   0.893   4.922   2.082
 4403SOL    HW114108   0.923   4.831   2.052
 4403SOL    HW214109   0.863   4.975   2.003
 4404SOL     OW14110   6.999   6.665   6.415
 4404SOL    HW114111   6.912   6.622   6.440
 4404SOL    HW214112   0.048   6.600   6.429
 4405SOL     OW14113   2.119   5.884   2.273
 4405SOL    HW114114   2.155   5.794   2.247
 4405SOL    HW214115   2.030   5.872   2.316
 4406SOL     OW14116   5.717   4.112   1.950
 4406SOL    HW114117   5.759   4.054   2.019
 4406SOL    HW214118   5.772   4.110   1.866
 4407SOL     OW14119   5.905   6.724   1.483
 4407SOL    HW114120   5.837   6.770   1.425
 4407SOL    HW214121   5.946   6.648   1.432
 4408SOL     OW14122   4.307   1.001   6.983
 4408SOL    HW114123   4.292   1.013   0.055
 4408SOL    HW214124   4.254   0.922   6.951
 4409SOL     OW14125   2.717   0.661   3.406
 4409SOL    HW114126   2.771   0.741   3.433
 4409SOL    HW214127   2.690   0.670   3.310
 4410SOL     OW14128   0.481   6.669   1.155
 4410SOL    HW114129   0.517   6.706   1.241
 4410SOL    HW214130   0.556   6.653   1.091
 4411SOL     OW14131   4.000   4.689   5.302
 4411SOL    HW114132   3.922   4.635   5.270
 4411SOL    HW214133   4.045   4.641   5.377
 4412SOL     OW14134   4.325   6.390   2.275
 4412SOL    HW114135   4.316   6.327   2.198
 4412SOL    HW214136   4.326   6.484   2.241
 4413SOL     OW14137   4.949   5.971   3.738
 4413SOL    HW114138   4.857   5.947   3.708
 4413SOL    HW214139   5.006   5.990   3.658
 4414SOL     OW14140   5.035   3.828   1.572
 4414SOL    HW114141   4.989   3.904   1.616
 4414SOL    HW214142   5.132   3.828   1.596
 4415SOL     OW14143   2.137   3.021   1.874
 4415SOL    HW114144   2.137   3.121   1.878
 4415SOL    HW214145   2.212   2.990   1.816
 4416SOL     OW14146   5.151   2.554   3.191
 4416SOL    HW114147   5.186   2.576   3.101
 4416SOL    HW214148   5.064   2.507   3.183
 4417SOL     OW14149   6.950   4.125   2.328
 4417SOL    HW114150   6.966   4.084   2.417
 4417SOL    HW214151   0.006   4.118   2.272
 4418SOL     OW14152   6.574   6.676   5.803
 4418SOL    HW114153   6.619   6.590   5.829
 4418SOL    HW214154   6.585   6.691   5.705
 4419SOL     OW14155   6.415   5.528   6.693
 4419SOL    HW114156   6.378   5.591   6.624
 4419SOL    HW214157   6.363   5.538   6.778
 4420SOL     OW14158   3.526   2.214   1.023
 4420SOL    HW114159   3.508   2.200   1.120
 4420SOL    HW214160   3.552   2.309   1.007
 4421SOL     OW14161   1.817   2.839   0.427
 4421SOL    HW114162   1.799   2.763   0.365
 4421SOL    HW214163   1.893   2.815   0.488
 4422SOL     OW14164   6.605   3.551   6.317
 4422SOL    HW114165   6.542   3.548   6.239
 4422SOL    HW214166   6.693   3.511   6.290
 4423SOL     OW14167   6.286   4.265   5.475
 4423SOL    HW114168   6.234   4.302   5.398
 4423SOL    HW214169   6.349   4.195   5.443
 4424SOL     OW14170   5.176   5.899   2.360
 4424SOL    HW114171   5.126   5.885   2.446
 4424SOL    HW214172   5.149   5.987   2.320
 4425SOL     OW14173   1.450   5.175   1.344
 4425SOL    HW114174   1.465   5.216   1.434
 4425SOL    HW214175   1.489   5.234   1.273
 4426SOL     OW14176   0.572   0.382   4.448
 4426SOL    HW114177   0.590   0.326   4.529
 4426SOL    HW214178   0.474   0.378   4.426
 4427SOL     OW14179   2.185   5.659   2.017
 4427SOL    HW114180   2.202   5.754   1.993
 4427SOL    HW214181   2.257   5.626   2.078
 4428SOL     OW14182   5.800   5.915   3.722
 4428SOL    HW114183   5.744   5.894   3.802
 4428SOL    HW214184   5.810   5.832   3.667
 4429SOL     OW14185   2.731   6.043   3.460
 4429SOL    HW114186   2.647   6.025   3.510
 4429SOL    HW214187   2.710   6.090   3.374
 4430SOL     OW14188   5.723   3.967   5.259
 4430SOL    HW114189   5.636   3.985   5.213
 4430SOL    HW214190   5.716   3.882   5.311
 4431SOL     OW14191   4.064   6.698   4.590
 4431SOL    HW114192   3.978   6.649   4.573
 4431SOL    HW214193   4.093   6.742   4.505
 4432SOL     OW14194   0.952   3.860   6.590
 4432SOL    HW114195   1.008   3.918   6.531
 4432SOL    HW214196   0.970   3.764   6.568
 4433SOL     OW14197   0.898   1.140   5.500
 4433SOL    HW114198   0.831   1.079   5.542
 4433SOL    HW214199   0.854   1.196   5.430
 4434SOL     OW14200   0.381   0.360   2.524
 4434SOL    HW114201   0.294   0.317   2.550
 4434SOL    HW214202   0.428   0.393   2.606
 4435SOL     OW14203   2.307   3.916   0.350
 4435SOL    HW114204   2.362   3.835   0.367
 4435SOL    HW214205   2.210   3.891   0.350
 4436SOL     OW14206   4.544   2.402   1.543
 4436SOL    HW114207   4.484   2.433   1.616
 4436SOL    HW214208   4.565   2.305   1.556
 4437SOL     OW14209   6.527   4.394   6.992
 4437SOL    HW114210   6.594   4.343   0.020
 4437SOL    HW214211   6.573   4.470   6.947
 4438SOL     OW14212   3.866   0.951   5.279
 4438SOL    HW114213   3.876   0.894   5.360
 4438SOL    HW214214   3.893   1.045   5.300
 4439SOL     OW14215   2.808   6.229   2.979
 4439SOL    HW114216   2.761   6.207   2.893
 4439SOL    HW214217   2.837   6.144   3.023
 4440SOL     OW14218   1.243   4.502   6.509
 4440SOL    HW114219   1.261   4.597   6.536
 4440SOL    HW214220   1.203   4.502   6.417
 4441SOL     OW14221   6.982   2.028   1.359
 4441SOL    HW114222   0.009   2.008   1.277
 4441SOL    HW214223   0.017   2.059   1.431
 4442SOL     OW14224   1.997   5.346   6.830
 4442SOL    HW114225   2.016   5.444   6.834
 4442SOL    HW214226   2.083   5.296   6.818
 4443SOL     OW14227   0.564   5.449   6.001
 4443SOL    HW114228   0.630   5.500   6.057
 4443SOL    HW214229   0.483   5.506   5.987
 4444SOL     OW14230   5.930   5.399   0.273
 4444SOL    HW114231   6.022   5.413   0.309
 4444SOL    HW214232   5.935   5.342   0.191
 4445SOL     OW14233   0.924   4.505   0.373
 4445SOL    HW114234   0.871   4.479   0.454
 4445SOL    HW214235   0.862   4.510   0.295
 4446SOL     OW14236   4.470   1.759   0.923
 4446SOL    HW114237   4.550   1.717   0.966
 4446SOL    HW214238   4.396   1.765   0.990
 4447SOL     OW14239   4.255   5.795   5.962
 4447SOL    HW114240   4.181   5.758   5.906
 4447SOL    HW214241   4.231   5.886   5.995
 4448SOL     OW14242   3.634   6.457   1.294
 4448SOL    HW114243   3.615   6.544   1.249
 4448SOL    HW214244   3.666   6.474   1.388
 4449SOL     OW14245   3.737   1.610   5.867
 4449SOL    HW114246   3.661   1.548   5.884
 4449SOL    HW214247   3.711   1.676   5.797
 4450SOL     OW14248   2.606   6.695   0.064
 4450SOL    HW114249   2.643   6.665   7.003
 4450SOL    HW214250   2.529   6.758   0.049
 4451SOL     OW14251   4.537   5.206   3.426
 4451SOL    HW114252   4.507   5.297   3.396
 4451SOL    HW214253   4.573   5.212   3.519
 4452SOL     OW14254   4.755   5.866   4.165
 4452SOL    HW114255   4.842   5.906   4.195
 4452SOL    HW214256   4.705   5.934   4.111
 4453SOL     OW14257   6.809   4.690   0.120
 4453SOL    HW114258   6.732   4.663   0.177
 4453SOL    HW214259   6.864   4.609   0.097
 4454SOL     OW14260   1.339   3.101   0.731
 4454SOL    HW114261   1.352   3.153   0.646
 4454SOL    HW214262   1.300   3.012   0.709
 4455SOL     OW14263   1.184   0.272   4.795
 4455SOL    HW114264   1.121   0.210   4.843
 4455SOL    HW214265   1.227   0.224   4.719
 4456SOL     OW14266   2.497   6.917   4.271
 4456SOL    HW114267   2.445   6.836   4.245
 4456SOL    HW214268   2.571   6.931   4.206
 4457SOL     OW14269   1.539   1.431   4.305
 4457SOL    HW114270   1.602   1.501   4.339
 4457SOL    HW214271   1.587   1.344   4.295
 4458SOL     OW14272   1.130   3.469   6.834
 4458SOL    HW114273   1.093   3.547   6.885
 4458SOL    HW214274   1.055   3.407   6.808
 4459SOL     OW14275   0.510   3.240   3.279
 4459SOL    HW114276   0.487   3.212   3.186
 4459SOL    HW214277   0.430   3.280   3.323
 4460SOL     OW14278   0.208   2.356   4.833
 4460SOL    HW114279   0.227   2.292   4.758
 4460SOL    HW214280   0.288   2.366   4.891
 4461SOL     OW14281   1.665   0.548   0.966
 4461SOL    HW114282   1.731   0.474   0.978
 4461SOL    HW214283   1.692   0.604   0.887
 4462SOL     OW14284   6.633   4.341   3.025
 4462SOL    HW114285   6.727   4.335   3.057
 4462SOL    HW214286   6.625   4.301   2.934
 4463SOL     OW14287   5.763   1.510   0.206
 4463SOL    HW114288   5.679   1.566   0.212
 4463SOL    HW214289   5.842   1.568   0.225
 4464SOL     OW14290   0.116   3.952   1.457
 4464SOL    HW114291   0.214   3.957   1.474
 4464SOL    HW214292   0.070   3.915   1.537
 4465SOL     OW14293   3.521   5.356   1.607
 4465SOL    HW114294   3.596   5.342   1.541
 4465SOL    HW214295   3.550   5.323   1.697
 4466SOL     OW14296   0.939   2.442   2.152
 4466SOL    HW114297   0.859   2.384   2.138
 4466SOL    HW214298   1.008   2.422   2.083
 4467SOL     OW14299   5.481   5.116   2.385
 4467SOL    HW114300   5.497   5.209   2.417
 4467SOL    HW214301   5.488   5.053   2.462
 4468SOL     OW14302   1.864   3.147   1.426
 4468SOL    HW114303   1.872   3.086   1.504
 4468SOL    HW214304   1.817   3.231   1.454
 4469SOL     OW14305   2.374   5.782   1.541
 4469SOL    HW114306   2.310   5.771   1.466
 4469SOL    HW214307   2.463   5.812   1.505
 4470SOL     OW14308   0.913   0.123   2.763
 4470SOL    HW114309   0.912   0.107   2.862
 4470SOL    HW214310   0.991   0.076   2.722
 4471SOL     OW14311   1.047   6.813   6.419
 4471SOL    HW114312   0.951   6.826   6.445
 4471SOL    HW214313   1.099   6.895   6.442
 4472SOL     OW14314   1.744   2.502   0.790
 4472SOL    HW114315   1.751   2.597   0.760
 4472SOL    HW214316   1.757   2.497   0.889
 4473SOL     OW14317   0.156   3.597   4.391
 4473SOL    HW114318   0.230   3.580   4.325
 4473SOL    HW214319   0.155   3.525   4.460
 4474SOL     OW14320   3.219   5.955   0.915
 4474SOL    HW114321   3.287   5.894   0.875
 4474SOL    HW214322   3.203   5.929   1.011
 4475SOL     OW14323   0.724   3.811   0.910
 4475SOL    HW114324   0.691   3.888   0.854
 4475SOL    HW214325   0.764   3.846   0.994
 4476SOL     OW14326   5.500   1.066   4.277
 4476SOL    HW114327   5.515   1.094   4.182
 4476SOL    HW214328   5.570   1.106   4.335
 4477SOL     OW14329   0.638   0.868   5.033
 4477SOL    HW114330   0.621   0.781   4.986
 4477SOL    HW214331   0.643   0.942   4.966
 4478SOL     OW14332   1.672   7.002   1.505
 4478SOL    HW114333   1.677   0.076   1.502
 4478SOL    HW214334   1.592   6.971   1.454
 4479SOL     OW14335   1.846   2.327   0.046
 4479SOL    HW114336   1.830   2.326   0.145
 4479SOL    HW214337   1.830   2.236   0.009
 4480SOL     OW14338   0.832   6.804   3.331
 4480SOL    HW114339   0.782   6.752   3.401
 4480SOL    HW214340   0.929   6.806   3.356
 4481SOL     OW14341   1.889   3.805   5.943
 4481SOL    HW114342   1.968   3.786   5.885
 4481SOL    HW214343   1.900   3.760   6.031
 4482SOL     OW14344   2.046   0.079   1.562
 4482SOL    HW114345   2.120   0.049   1.622
 4482SOL    HW214346   2.014   0.002   1.506
 4483SOL     OW14347   1.281   3.702   1.048
 4483SOL    HW114348   1.258   3.635   0.978
 4483SOL    HW214349   1.209   3.703   1.118
 4484SOL     OW14350   2.346   1.211   6.885
 4484SOL    HW114351   2.404   1.290   6.906
 4484SOL    HW214352   2.349   1.146   6.961
 4485SOL     OW14353   6.543   2.413   5.465
 4485SOL    HW114354   6.558   2.505   5.500
 4485SOL    HW214355   6.579   2.405   5.372
 4486SOL     OW14356   4.837   4.789   4.471
 4486SOL    HW114357   4.852   4.727   4.548
 4486SOL    HW214358   4.886   4.755   4.391
 4487SOL     OW14359   0.654   2.632   6.750
 4487SOL    HW114360   0.627   2.559   6.813
 4487SOL    HW214361   0.573   2.676   6.712
 4488SOL     OW14362   0.262   4.121   3.593
 4488SOL    HW114363   0.227   4.206   3.553
 4488SOL    HW214364   0.286   4.137   3.688
 4489SOL     OW14365   3.671   6.282   5.970
 4489SOL    HW114366   3.578   6.318   5.982
 4489SOL    HW214367   3.737   6.357   5.972
 4490SOL     OW14368   5.297   1.348   1.685
 4490SOL    HW114369   5.300   1.251   1.712
 4490SOL    HW214370   5.283   1.404   1.766
 4491SOL     OW14371   1.057   3.313   3.145
 4491SOL    HW114372   1.075   3.263   3.060
 4491SOL    HW214373   0.979   3.375   3.131
 4492SOL     OW14374   6.908   0.863   2.325
 4492SOL    HW114375   6.899   0.962   2.314
 4492SOL    HW214376   6.817   0.821   2.322
 4493SOL     OW14377   5.242   1.453   5.808
 4493SOL    HW114378   5.180   1.514   5.856
 4493SOL    HW214379   5.203   1.361   5.804
 4494SOL     OW14380   1.346   0.359   1.749
 4494SOL    HW114381   1.300   0.423   1.810
 4494SOL    HW214382   1.420   0.406   1.701
 4495SOL     OW14383   4.097   6.801   1.029
 4495SOL    HW114384   4.163   6.725   1.030
 4495SOL    HW214385   4.137   6.878   0.979
 4496SOL     OW14386   2.832   6.215   5.529
 4496SOL    HW114387   2.832   6.137   5.592
 4496SOL    HW214388   2.811   6.298   5.580
 4497SOL     OW14389   3.808   1.002   6.016
 4497SOL    HW114390   3.901   0.975   5.990
 4497SOL    HW214391   3.810   1.093   6.058
 4498SOL     OW14392   0.695   4.594   4.227
 4498SOL    HW114393   0.607   4.606   4.274
 4498SOL    HW214394   0.703   4.660   4.154
 4499SOL     OW14395   5.575   1.335   2.367
 4499SOL    HW114396   5.650   1.400   2.374
 4499SOL    HW214397   5.489   1.382   2.386
 4500SOL     OW14398   4.133   6.123   0.653
 4500SOL    HW114399   4.161   6.046   0.595
 4500SOL    HW214400   4.198   6.133   0.729
 4501SOL     OW14401   5.879   0.852   2.326
 4501SOL    HW114402   5.966   0.812   2.298
 4501SOL    HW214403   5.887   0.952   2.326
 4502SOL     OW14404   6.977   3.916   6.306
 4502SOL    HW114405   6.919   3.855   6.360
 4502SOL    HW214406   7.013   3.867   6.227
 4503SOL     OW14407   3.451   1.588   2.679
 4503SOL    HW114408   3.548   1.578   2.700
 4503SOL    HW214409   3.435   1.562   2.584
 4504SOL     OW14410   0.878   2.475   2.769
 4504SOL    HW114411   0.881   2.555   2.709
 4504SOL    HW214412   0.970   2.438   2.780
 4505SOL     OW14413   5.862   3.288   3.634
 4505SOL    HW114414   5.932   3.339   3.584
 4505SOL    HW214415   5.817   3.348   3.700
 4506SOL     OW14416   5.264   3.495   6.319
 4506SOL    HW114417   5.256   3.396   6.330
 4506SOL    HW214418   5.198   3.540   6.380
 4507SOL     OW14419   6.351   2.173   3.502
 4507SOL    HW114420   6.322   2.080   3.523
 4507SOL    HW214421   6.420   2.171   3.430
 4508SOL     OW14422   6.968   4.515   0.703
 4508SOL    HW114423   6.984   4.554   0.612
 4508SOL    HW214424   0.029   4.487   0.743
 4509SOL     OW14425   5.003   2.375   2.265
 4509SOL    HW114426   5.042   2.287   2.290
 4509SOL    HW214427   5.019   2.441   2.338
 4510SOL     OW14428   4.242   1.378   4.510
 4510SOL    HW114429   4.232   1.417   4.419
 4510SOL    HW214430   4.161   1.324   4.532
 4511SOL     OW14431   6.753   5.110   6.817
 4511SOL    HW114432   6.849   5.136   6.832
 4511SOL    HW214433   6.694   5.189   6.830
 4512SOL     OW14434   3.188   3.161   5.560
 4512SOL    HW114435   3.181   3.167   5.659
 4512SOL    HW214436   3.169   3.067   5.531
 4513SOL     OW14437   0.283   7.004   0.511
 4513SOL    HW114438   0.339   6.988   0.593
 4513SOL    HW214439   0.258   0.074   0.507
 4514SOL     OW14440   4.697   4.858   6.827
 4514SOL    HW114441   4.692   4.842   6.728
 4514SOL    HW214442   4.608   4.838   6.868
 4515SOL     OW14443   3.847   0.752   6.387
 4515SOL    HW114444   3.780   0.812   6.430
 4515SOL    HW214445   3.803   0.666   6.363
 4516SOL     OW14446   3.041   2.429   5.960
 4516SOL    HW114447   3.035   2.472   6.050
 4516SOL    HW214448   3.044   2.500   5.890
 4517SOL     OW14449   4.473   0.987   4.920
 4517SOL    HW114450   4.392   0.945   4.881
 4517SOL    HW214451   4.515   1.048   4.853
 4518SOL     OW14452   0.179   6.492   0.954
 4518SOL    HW114453   0.213   6.532   0.869
 4518SOL    HW214454   0.232   6.526   1.031
 4519SOL     OW14455   4.666   6.745   0.182
 4519SOL    HW114456   4.676   6.814   0.253
 4519SOL    HW214457   4.686   6.655   0.221
 4520SOL     OW14458   4.596   5.560   5.076
 4520SOL    HW114459   4.540   5.515   5.006
 4520SOL    HW214460   4.693   5.551   5.051
 4521SOL     OW14461   4.261   2.326   4.262
 4521SOL    HW114462   4.345   2.272   4.275
 4521SOL    HW214463   4.238   2.328   4.165
 4522SOL     OW14464   5.844   3.686   3.605
 4522SOL    HW114465   5.807   3.624   3.536
 4522SOL    HW214466   5.860   3.636   3.690
 4523SOL     OW14467   6.404   2.848   5.910
 4523SOL    HW114468   6.392   2.941   5.874
 4523SOL    HW214469   6.478   2.847   5.977
 4524SOL     OW14470   1.962   3.997   2.322
 4524SOL    HW114471   1.989   3.907   2.288
 4524SOL    HW214472   2.043   4.054   2.333
 4525SOL     OW14473   3.830   2.576   5.583
 4525SOL    HW114474   3.735   2.598   5.559
 4525SOL    HW214475   3.832   2.526   5.669
 4526SOL     OW14476   1.199   0.292   5.232
 4526SOL    HW114477   1.194   0.328   5.325
 4526SOL    HW214478   1.218   0.367   5.168
 4527SOL     OW14479   0.466   1.720   2.825
 4527SOL    HW114480   0.556   1.752   2.796
 4527SOL    HW214481   0.426   1.786   2.889
 4528SOL     OW14482   5.242   0.289   4.969
 4528SOL    HW114483   5.313   0.248   4.912
 4528SOL    HW214484   5.275   0.298   5.063
 4529SOL     OW14485   2.024   1.957   3.721
 4529SOL    HW114486   2.005   1.860   3.739
 4529SOL    HW214487   2.045   2.003   3.806
 4530SOL     OW14488   4.026   5.986   6.365
 4530SOL    HW114489   3.949   5.953   6.310
 4530SOL    HW214490   4.079   6.052   6.312
 4531SOL     OW14491   1.454   6.507   5.022
 4531SOL    HW114492   1.376   6.472   5.075
 4531SOL    HW214493   1.507   6.571   5.078
 4532SOL     OW14494   6.703   1.623   2.693
 4532SOL    HW114495   6.650   1.588   2.616
 4532SOL    HW214496   6.704   1.555   2.767
 4533SOL     OW14497   2.822   0.148   1.551
 4533SOL    HW114498   2.889   0.177   1.620
 4533SOL    HW214499   2.753   0.091   1.595
 4534SOL     OW14500   5.492   1.836   4.433
 4534SOL    HW114501   5.549   1.760   4.465
 4534SOL    HW214502   5.426   1.802   4.366
 4535SOL     OW14503   1.800   0.146   0.105
 4535SOL    HW114504   1.862   0.185   0.037
 4535SOL    HW214505   1.792   0.208   0.183
 4536SOL     OW14506   3.458   0.269   5.978
 4536SOL    HW114507   3.550   0.246   6.010
 4536SOL    HW214508   3.403   0.299   6.056
 4537SOL     OW14509   3.001   3.341   3.113
 4537SOL    HW114510   3.013   3.281   3.034
 4537SOL    HW214511   2.970   3.288   3.192
 4538SOL     OW14512   0.382   2.183   0.769
 4538SOL    HW114513   0.344   2.092   0.782
 4538SOL    HW214514   0.333   2.229   0.695
 4539SOL     OW14515   1.732   5.597   4.994
 4539SOL    HW114516   1.768   5.518   4.946
 4539SOL    HW214517   1.663   5.642   4.937
 4540SOL     OW14518   1.137   2.158   0.439
 4540SOL    HW114519   1.112   2.238   0.384
 4540SOL    HW214520   1.228   2.128   0.413
 4541SOL     OW14521   4.017   3.202   6.839
 4541SOL    HW114522   4.041   3.228   6.745
 4541SOL    HW214523   4.006   3.103   6.845
 4542SOL     OW14524   0.304   1.511   6.240
 4542SOL    HW114525   0.300   1.542   6.335
 4542SOL    HW214526   0.400   1.507   6.210
 4543SOL     OW14527   3.695   1.978   0.882
 4543SOL    HW114528   3.641   2.060   0.895
 4543SOL    HW214529   3.635   1.901   0.859
 4544SOL     OW14530   4.600   6.706   0.765
 4544SOL    HW114531   4.673   6.768   0.792
 4544SOL    HW214532   4.514   6.756   0.757
 4545SOL     OW14533   2.621   3.105   5.573
 4545SOL    HW114534   2.615   3.005   5.570
 4545SOL    HW214535   2.532   3.144   5.548
 4546SOL     OW14536   3.719   0.493   5.775
 4546SOL    HW114537   3.634   0.546   5.771
 4546SOL    HW214538   3.710   0.423   5.846
 4547SOL     OW14539   0.586   0.359   6.852
 4547SOL    HW114540   0.515   0.289   6.847
 4547SOL    HW214541   0.543   0.450   6.855
 4548SOL     OW14542   3.458   1.361   1.854
 4548SOL    HW114543   3.527   1.295   1.825
 4548SOL    HW214544   3.502   1.434   1.907
 4549SOL     OW14545   0.402   3.779   3.680
 4549SOL    HW114546   0.404   3.686   3.643
 4549SOL    HW214547   0.322   3.790   3.740
 4550SOL     OW14548   2.055   5.723   4.913
 4550SOL    HW114549   2.025   5.720   4.818
 4550SOL    HW214550   2.153   5.707   4.917
 4551SOL     OW14551   2.741   2.319   5.499
 4551SOL    HW114552   2.815   2.366   5.548
 4551SOL    HW214553   2.687   2.266   5.564
 4552SOL     OW14554   4.457   1.020   0.558
 4552SOL    HW114555   4.417   1.093   0.503
 4552SOL    HW214556   4.557   1.027   0.556
 4553SOL     OW14557   0.271   6.173   0.174
 4553SOL    HW114558   0.325   6.192   0.255
 4553SOL    HW214559   0.282   6.077   0.148
 4554SOL     OW14560   5.793   0.217   2.979
 4554SOL    HW114561   5.797   0.185   3.073
 4554SOL    HW214562   5.717   0.172   2.931
 4555SOL     OW14563   0.778   0.949   1.474
 4555SOL    HW114564   0.804   0.876   1.411
 4555SOL    HW214565   0.770   0.912   1.566
 4556SOL     OW14566   5.440   4.758   4.112
 4556SOL    HW114567   5.388   4.760   4.026
 4556SOL    HW214568   5.385   4.714   4.183
 4557SOL     OW14569   0.258   4.822   4.256
 4557SOL    HW114570   0.182   4.859   4.310
 4557SOL    HW214571   0.232   4.817   4.160
 4558SOL     OW14572   1.343   4.078   4.888
 4558SOL    HW114573   1.361   3.981   4.900
 4558SOL    HW214574   1.336   4.122   4.978
 4559SOL     OW14575   6.781   3.125   3.987
 4559SOL    HW114576   6.770   3.099   4.083
 4559SOL    HW214577   6.876   3.113   3.959
 4560SOL     OW14578   5.587   4.550   2.949
 4560SOL    HW114579   5.585   4.456   2.914
 4560SOL    HW214580   5.681   4.578   2.963
 4561SOL     OW14581   4.827   2.566   4.333
 4561SOL    HW114582   4.735   2.567   4.373
 4561SOL    HW214583   4.842   2.479   4.286
 4562SOL     OW14584   3.576   1.310   0.258
 4562SOL    HW114585   3.561   1.386   0.322
 4562SOL    HW214586   3.538   1.335   0.169
 4563SOL     OW14587   0.765   4.493   1.991
 4563SOL    HW114588   0.751   4.554   1.913
 4563SOL    HW214589   0.819   4.414   1.962
 4564SOL     OW14590   2.214   4.051   2.773
 4564SOL    HW114591   2.210   4.019   2.868
 4564SOL    HW214592   2.235   4.148   2.770
 4565SOL     OW14593   1.744   6.811   5.969
 4565SOL    HW114594   1.800   6.894   5.967
 4565SOL    HW214595   1.803   6.731   5.981
 4566SOL     OW14596   6.354   4.447   3.338
 4566SOL    HW114597   6.421   4.419   3.407
 4566SOL    HW214598   6.270   4.395   3.350
 4567SOL     OW14599   0.150   6.911   6.841
 4567SOL    HW114600   0.105   6.898   6.752
 4567SOL    HW214601   0.239   6.953   6.827
 4568SOL     OW14602   1.115   5.167   3.879
 4568SOL    HW114603   1.140   5.218   3.961
 4568SOL    HW214604   1.093   5.073   3.903
 4569SOL     OW14605   2.430   1.906   3.267
 4569SOL    HW114606   2.457   1.874   3.358
 4569SOL    HW214607   2.450   2.003   3.259
 4570SOL     OW14608   5.039   5.268   1.394
 4570SOL    HW114609   5.100   5.301   1.466
 4570SOL    HW214610   5.088   5.262   1.307
 4571SOL     OW14611   2.441   3.594   5.968
 4571SOL    HW114612   2.466   3.567   5.875
 4571SOL    HW214613   2.492   3.676   5.994
 4572SOL     OW14614   3.657   2.880   2.102
 4572SOL    HW114615   3.643   2.877   2.004
 4572SOL    HW214616   3.659   2.787   2.139
 4573SOL     OW14617   2.848   4.901   6.875
 4573SOL    HW114618   2.865   4.972   6.943
 4573SOL    HW214619   2.830   4.814   6.921
 4574SOL     OW14620   5.059   0.781   2.325
 4574SOL    HW114621   5.002   0.823   2.394
 4574SOL    HW214622   5.098   0.696   2.361
 4575SOL     OW14623   0.814   0.604   5.210
 4575SOL    HW114624   0.718   0.626   5.230
 4575SOL    HW214625   0.855   0.558   5.289
 4576SOL     OW14626   3.398   3.771   6.728
 4576SOL    HW114627   3.427   3.689   6.678
 4576SOL    HW214628   3.301   3.763   6.750
 4577SOL     OW14629   0.657   1.797   2.222
 4577SOL    HW114630   0.590   1.862   2.258
 4577SOL    HW214631   0.745   1.843   2.210
 4578SOL     OW14632   1.860   1.345   2.633
 4578SOL    HW114633   1.766   1.377   2.637
 4578SOL    HW214634   1.922   1.422   2.646
 4579SOL     OW14635   4.764   0.879   3.800
 4579SOL    HW114636   4.834   0.842   3.739
 4579SOL    HW214637   4.800   0.883   3.893
 4580SOL     OW14638   0.443   1.197   0.547
 4580SOL    HW114639   0.363   1.177   0.490
 4580SOL    HW214640   0.443   1.293   0.572
 4581SOL     OW14641   2.660   0.599   1.125
 4581SOL    HW114642   2.751   0.606   1.165
 4581SOL    HW214643   2.640   0.503   1.105
 4582SOL     OW14644   0.068   0.691   3.532
 4582SOL    HW114645   0.097   0.691   3.437
 4582SOL    HW214646   7.007   0.739   3.540
 4583SOL     OW14647   2.024   6.956   7.014
 4583SOL    HW114648   2.065   6.969   6.924
 4583SOL    HW214649   1.977   0.013   0.016
 4584SOL     OW14650   0.473   1.968   4.365
 4584SOL    HW114651   0.474   2.053   4.419
 4584SOL    HW214652   0.506   1.986   4.273
 4585SOL     OW14653   1.464   2.574   3.372
 4585SOL    HW114654   1.521   2.576   3.454
 4585SOL    HW214655   1.520   2.595   3.292
 4586SOL     OW14656   6.006   5.081   6.589
 4586SOL    HW114657   6.019   5.134   6.673
 4586SOL    HW214658   6.087   5.091   6.531
 4587SOL     OW14659   4.145   4.201   5.483
 4587SOL    HW114660   4.103   4.111   5.483
 4587SOL    HW214661   4.106   4.256   5.410
 4588SOL     OW14662   3.274   3.689   6.403
 4588SOL    HW114663   3.355   3.649   6.446
 4588SOL    HW214664   3.192   3.659   6.452
 4589SOL     OW14665   5.955   6.352   2.443
 4589SOL    HW114666   5.999   6.264   2.460
 4589SOL    HW214667   5.930   6.359   2.347
 4590SOL     OW14668   3.757   5.445   1.478
 4590SOL    HW114669   3.707   5.496   1.408
 4590SOL    HW214670   3.775   5.505   1.556
 4591SOL     OW14671   2.478   1.107   5.148
 4591SOL    HW114672   2.504   1.187   5.093
 4591SOL    HW214673   2.432   1.137   5.231
 4592SOL     OW14674   2.548   1.470   3.822
 4592SOL    HW114675   2.514   1.436   3.910
 4592SOL    HW214676   2.484   1.445   3.749
 4593SOL     OW14677   1.203   6.062   4.466
 4593SOL    HW114678   1.219   6.103   4.377
 4593SOL    HW214679   1.216   5.963   4.460
 4594SOL     OW14680   2.193   6.737   3.282
 4594SOL    HW114681   2.158   6.662   3.337
 4594SOL    HW214682   2.265   6.703   3.221
 4595SOL     OW14683   5.520   1.897   6.261
 4595SOL    HW114684   5.460   1.965   6.220
 4595SOL    HW214685   5.592   1.873   6.195
 4596SOL     OW14686   1.231   0.815   2.106
 4596SOL    HW114687   1.205   0.735   2.160
 4596SOL    HW214688   1.160   0.834   2.038
 4597SOL     OW14689   2.695   5.763   0.426
 4597SOL    HW114690   2.734   5.738   0.514
 4597SOL    HW214691   2.724   5.855   0.401
 4598SOL     OW14692   0.703   4.336   0.671
 4598SOL    HW114693   0.788   4.348   0.723
 4598SOL    HW214694   0.665   4.426   0.650
 4599SOL     OW14695   3.828   6.716   2.005
 4599SOL    HW114696   3.780   6.763   1.931
 4599SOL    HW214697   3.883   6.642   1.968
 4600SOL     OW14698   0.374   6.984   6.638
 4600SOL    HW114699   0.350   6.895   6.600
 4600SOL    HW214700   0.399   0.020   6.563
 4601SOL     OW14701   1.819   0.480   5.743
 4601SOL    HW114702   1.721   0.489   5.728
 4601SOL    HW214703   1.857   0.568   5.770
 4602SOL     OW14704   3.052   1.971   6.168
 4602SOL    HW114705   3.011   2.062   6.172
 4602SOL    HW214706   2.986   1.903   6.200
 4603SOL     OW14707   3.795   6.875   1.013
 4603SOL    HW114708   3.738   6.953   1.040
 4603SOL    HW214709   3.887   6.887   1.051
 4604SOL     OW14710   6.850   6.803   3.984
 4604SOL    HW114711   6.864   6.883   4.043
 4604SOL    HW214712   6.840   6.722   4.041
 4605SOL     OW14713   3.630   0.294   1.616
 4605SOL    HW114714   3.602   0.370   1.558
 4605SOL    HW214715   3.568   0.216   1.601
 4606SOL     OW14716   0.026   6.572   5.035
 4606SOL    HW114717   0.099   6.510   5.004
 4606SOL    HW214718   7.023   6.629   4.958
 4607SOL     OW14719   1.949   1.766   0.700
 4607SOL    HW114720   1.855   1.732   0.708
 4607SOL    HW214721   1.951   1.863   0.721
 4608SOL     OW14722   0.216   3.061   4.593
 4608SOL    HW114723   0.148   3.134   4.602
 4608SOL    HW214724   0.170   2.972   4.592
 4609SOL     OW14725   5.007   5.459   6.978
 4609SOL    HW114726   5.065   5.399   6.924
 4609SOL    HW214727   4.919   5.415   6.995
 4610SOL     OW14728   5.213   5.086   0.552
 4610SOL    HW114729   5.191   5.032   0.471
 4610SOL    HW214730   5.311   5.080   0.572
 4611SOL     OW14731   0.027   1.351   6.285
 4611SOL    HW114732   0.046   1.328   6.380
 4611SOL    HW214733   0.109   1.390   6.242
 4612SOL     OW14734   2.106   1.603   2.183
 4612SOL    HW114735   2.006   1.599   2.187
 4612SOL    HW214736   2.143   1.570   2.270
 4613SOL     OW14737   1.473   4.746   1.537
 4613SOL    HW114738   1.426   4.695   1.465
 4613SOL    HW214739   1.435   4.838   1.543
 4614SOL     OW14740   6.752   4.519   3.708
 4614SOL    HW114741   6.795   4.608   3.692
 4614SOL    HW214742   6.752   4.499   3.806
 4615SOL     OW14743   1.608   4.303   6.480
 4615SOL    HW114744   1.601   4.383   6.421
 4615SOL    HW214745   1.569   4.223   6.433
 4616SOL     OW14746   0.962   3.477   6.363
 4616SOL    HW114747   1.001   3.448   6.275
 4616SOL    HW214748   0.894   3.411   6.393
 4617SOL     OW14749   0.090   2.602   3.626
 4617SOL    HW114750   0.150   2.539   3.675
 4617SOL    HW214751   0.001   2.605   3.670
 4618SOL     OW14752   1.705   3.640   5.752
 4618SOL    HW114753   1.751   3.709   5.807
 4618SOL    HW214754   1.746   3.550   5.770
 4619SOL     OW14755   4.822   6.276   6.190
 4619SOL    HW114756   4.920   6.284   6.172
 4619SOL    HW214757   4.793   6.181   6.178
 4620SOL     OW14758   0.424   4.834   1.971
 4620SOL    HW114759   0.338   4.877   1.999
 4620SOL    HW214760   0.429   4.831   1.871
 4621SOL     OW14761   3.172   0.338   2.924
 4621SOL    HW114762   3.204   0.244   2.932
 4621SOL    HW214763   3.246   0.396   2.890
 4622SOL     OW14764   5.386   0.345   0.501
 4622SOL    HW114765   5.333   0.384   0.576
 4622SOL    HW214766   5.325   0.291   0.442
 4623SOL     OW14767   2.936   4.997   2.191
 4623SOL    HW114768   2.913   5.018   2.096
 4623SOL    HW214769   2.920   4.900   2.208
 4624SOL     OW14770   4.544   1.495   1.699
 4624SOL    HW114771   4.455   1.535   1.720
 4624SOL    HW214772   4.598   1.488   1.783
 4625SOL     OW14773   1.636   5.751   1.714
 4625SOL    HW114774   1.614   5.655   1.695
 4625SOL    HW214775   1.731   5.769   1.687
 4626SOL     OW14776   3.880   2.938   1.811
 4626SOL    HW114777   3.862   3.031   1.779
 4626SOL    HW214778   3.794   2.888   1.817
 4627SOL     OW14779   5.648   6.792   5.032
 4627SOL    HW114780   5.589   6.863   4.992
 4627SOL    HW214781   5.600   6.704   5.029
 4628SOL     OW14782   5.602   4.737   3.417
 4628SOL    HW114783   5.638   4.659   3.468
 4628SOL    HW214784   5.649   4.744   3.329
 4629SOL     OW14785   1.783   5.467   6.981
 4629SOL    HW114786   1.869   5.417   6.972
 4629SOL    HW214787   1.707   5.401   6.981
 4630SOL     OW14788   2.111   3.607   1.438
 4630SOL    HW114789   2.113   3.644   1.531
 4630SOL    HW214790   2.196   3.558   1.419
 4631SOL     OW14791   6.701   0.660   2.803
 4631SOL    HW114792   6.761   0.581   2.813
 4631SOL    HW214793   6.620   0.648   2.860
 4632SOL     OW14794   3.046   5.100   3.006
 4632SOL    HW114795   3.052   5.010   3.049
 4632SOL    HW214796   2.952   5.115   2.973
 4633SOL     OW14797   5.031   2.553   4.831
 4633SOL    HW114798   4.988   2.480   4.779
 4633SOL    HW214799   4.966   2.592   4.896
 4634SOL     OW14800   4.036   3.902   4.718
 4634SOL    HW114801   4.003   3.838   4.648
 4634SOL    HW214802   4.129   3.930   4.697
 4635SOL     OW14803   4.408   5.732   2.057
 4635SOL    HW114804   4.332   5.746   2.121
 4635SOL    HW214805   4.494   5.758   2.101
 4636SOL     OW14806   1.593   5.196   6.903
 4636SOL    HW114807   1.531   5.219   6.828
 4636SOL    HW214808   1.662   5.130   6.871
 4637SOL     OW14809   2.840   1.848   3.342
 4637SOL    HW114810   2.798   1.882   3.258
 4637SOL    HW214811   2.898   1.770   3.321
 4638SOL     OW14812   4.468   4.720   0.550
 4638SOL    HW114813   4.544   4.655   0.543
 4638SOL    HW214814   4.386   4.673   0.582
 4639SOL     OW14815   3.890   2.130   1.869
 4639SOL    HW114816   3.835   2.052   1.901
 4639SOL    HW214817   3.832   2.211   1.865
 4640SOL     OW14818   6.188   3.418   0.060
 4640SOL    HW114819   6.118   3.437   7.017
 4640SOL    HW214820   6.261   3.486   0.053
 4641SOL     OW14821   1.795   5.543   4.555
 4641SOL    HW114822   1.881   5.560   4.604
 4641SOL    HW214823   1.776   5.445   4.554
 4642SOL     OW14824   6.553   1.334   4.952
 4642SOL    HW114825   6.465   1.293   4.975
 4642SOL    HW214826   6.561   1.423   4.997
 4643SOL     OW14827   0.516   1.852   0.121
 4643SOL    HW114828   0.577   1.789   0.074
 4643SOL    HW214829   0.432   1.864   0.067
 4644SOL     OW14830   1.796   0.296   0.354
 4644SOL    HW114831   1.774   0.390   0.325
 4644SOL    HW214832   1.837   0.299   0.445
 4645SOL     OW14833   6.483   1.565   5.080
 4645SOL    HW114834   6.536   1.582   5.163
 4645SOL    HW214835   6.491   1.643   5.019
 4646SOL     OW14836   2.134   3.925   3.974
 4646SOL    HW114837   2.120   3.987   3.897
 4646SOL    HW214838   2.058   3.860   3.979
 4647SOL     OW14839   1.651   6.624   1.644
 4647SOL    HW114840   1.639   6.531   1.608
 4647SOL    HW214841   1.741   6.658   1.618
 4648SOL     OW14842   2.808   1.264   5.057
 4648SOL    HW114843   2.821   1.185   4.997
 4648SOL    HW214844   2.711   1.286   5.063
 4649SOL     OW14845   6.054   1.469   0.538
 4649SOL    HW114846   5.994   1.411   0.483
 4649SOL    HW214847   6.150   1.449   0.515
 4650SOL     OW14848   4.825   6.073   1.039
 4650SOL    HW114849   4.894   6.140   1.065
 4650SOL    HW214850   4.864   6.008   0.974
 4651SOL     OW14851   0.035   3.880   6.007
 4651SOL    HW114852   6.966   3.886   5.976
 4651SOL    HW214853   0.075   3.972   6.009
 4652SOL     OW14854   0.232   6.825   5.384
 4652SOL    HW114855   0.257   6.732   5.409
 4652SOL    HW214856   0.290   6.856   5.308
 4653SOL     OW14857   0.035   5.799   1.122
 4653SOL    HW114858   0.031   5.705   1.155
 4653SOL    HW214859   7.016   5.859   1.188
 4654SOL     OW14860   0.806   0.503   6.028
 4654SOL    HW114861   0.718   0.549   6.013
 4654SOL    HW214862   0.846   0.534   6.114
 4655SOL     OW14863   5.333   3.358   1.989
 4655SOL    HW114864   5.276   3.303   2.050
 4655SOL    HW214865   5.328   3.322   1.896
 4656SOL     OW14866   6.642   1.050   2.151
 4656SOL    HW114867   6.697   1.105   2.214
 4656SOL    HW214868   6.652   0.953   2.176
 4657SOL     OW14869   3.618   1.403   3.052
 4657SOL    HW114870   3.679   1.323   3.054
 4657SOL    HW214871   3.671   1.486   3.038
 4658SOL     OW14872   1.258   2.229   6.583
 4658SOL    HW114873   1.357   2.214   6.584
 4658SOL    HW214874   1.214   2.152   6.538
 4659SOL     OW14875   2.105   4.334   0.830
 4659SOL    HW114876   2.080   4.409   0.769
 4659SOL    HW214877   2.182   4.363   0.887
 4660SOL     OW14878   1.118   5.561   3.971
 4660SOL    HW114879   1.199   5.517   4.009
 4660SOL    HW214880   1.054   5.491   3.939
 4661SOL     OW14881   0.970   1.719   5.703
 4661SOL    HW114882   1.038   1.682   5.765
 4661SOL    HW214883   0.955   1.655   5.627
 4662SOL     OW14884   1.784   0.185   5.830
 4662SOL    HW114885   1.823   0.276   5.815
 4662SOL    HW214886   1.818   0.123   5.760
 4663SOL     OW14887   1.417   0.097   0.440
 4663SOL    HW114888   1.507   0.076   0.402
 4663SOL    HW214889   1.427   0.124   0.536
 4664SOL     OW14890   5.881   0.055   5.776
 4664SOL    HW114891   5.829   0.096   5.701
 4664SOL    HW214892   5.855   6.985   5.785
 4665SOL     OW14893   0.627   0.497   3.428
 4665SOL    HW114894   0.668   0.587   3.412
 4665SOL    HW214895   0.664   0.458   3.512
 4666SOL     OW14896   1.678   2.111   5.793
 4666SOL    HW114897   1.746   2.067   5.851
 4666SOL    HW214898   1.693   2.210   5.793
 4667SOL     OW14899   6.912   3.373   0.810
 4667SOL    HW114900   6.924   3.292   0.867
 4667SOL    HW214901   6.944   3.354   0.717
 4668SOL     OW14902   4.989   2.109   4.566
 4668SOL    HW114903   5.053   2.035   4.584
 4668SOL    HW214904   4.993   2.134   4.469
 4669SOL     OW14905   5.054   6.879   6.431
 4669SOL    HW114906   5.074   6.842   6.340
 4669SOL    HW214907   5.138   6.884   6.485
 4670SOL     OW14908   0.134   3.382   6.812
 4670SOL    HW114909   0.222   3.345   6.786
 4670SOL    HW214910   0.091   3.425   6.732
 4671SOL     OW14911   0.387   3.144   2.078
 4671SOL    HW114912   0.461   3.156   2.145
 4671SOL    HW214913   0.417   3.081   2.007
 4672SOL     OW14914   3.327   4.047   6.930
 4672SOL    HW114915   3.238   4.012   6.901
 4672SOL    HW214916   3.372   4.094   6.854
 4673SOL     OW14917   5.873   0.834   0.825
 4673SOL    HW114918   5.870   0.819   0.924
 4673SOL    HW214919   5.819   0.915   0.802
 4674SOL     OW14920   0.880   2.701   0.960
 4674SOL    HW114921   0.900   2.765   1.035
 4674SOL    HW214922   0.784   2.710   0.934
 4675SOL     OW14923   1.797   5.473   6.675
 4675SOL    HW114924   1.724   5.430   6.623
 4675SOL    HW214925   1.870   5.407   6.692
 4676SOL     OW14926   0.732   6.381   4.100
 4676SOL    HW114927   0.690   6.439   4.170
 4676SOL    HW214928   0.688   6.397   4.012
 4677SOL     OW14929   3.843   0.020   6.843
 4677SOL    HW114930   3.748   0.005   6.871
 4677SOL    HW214931   3.855   7.015   6.749
 4678SOL     OW14932   2.266   4.177   6.961
 4678SOL    HW114933   2.168   4.159   6.962
 4678SOL    HW214934   2.294   4.205   6.869
 4679SOL     OW14935   2.631   6.813   5.701
 4679SOL    HW114936   2.586   6.725   5.720
 4679SOL    HW214937   2.596   6.849   5.614
 4680SOL     OW14938   1.670   4.751   0.071
 4680SOL    HW114939   1.592   4.700   0.106
 4680SOL    HW214940   1.740   4.758   0.142
 4681SOL     OW14941   6.817   5.816   4.481
 4681SOL    HW114942   6.910   5.848   4.498
 4681SOL    HW214943   6.751   5.885   4.511
 4682SOL     OW14944   3.408   6.285   0.530
 4682SOL    HW114945   3.437   6.191   0.514
 4682SOL    HW214946   3.393   6.299   0.628
 4683SOL     OW14947   6.933   4.815   3.191
 4683SOL    HW114948   6.894   4.805   3.282
 4683SOL    HW214949   6.862   4.843   3.127
 4684SOL     OW14950   1.214   1.684   5.147
 4684SOL    HW114951   1.274   1.684   5.067
 4684SOL    HW214952   1.146   1.610   5.138
 4685SOL     OW14953   4.891   4.536   5.226
 4685SOL    HW114954   4.800   4.574   5.210
 4685SOL    HW214955   4.953   4.609   5.256
 4686SOL     OW14956   5.497   6.197   0.420
 4686SOL    HW114957   5.557   6.118   0.409
 4686SOL    HW214958   5.457   6.221   0.331
 4687SOL     OW14959   5.581   6.471   4.385
 4687SOL    HW114960   5.569   6.557   4.336
 4687SOL    HW214961   5.657   6.420   4.346
 4688SOL     OW14962   0.895   2.136   0.554
 4688SOL    HW114963   0.986   2.148   0.513
 4688SOL    HW214964   0.882   2.039   0.575
 4689SOL     OW14965   1.985   5.082   4.611
 4689SOL    HW114966   2.055   5.105   4.678
 4689SOL    HW214967   1.912   5.030   4.656
 4690SOL     OW14968   1.461   1.670   0.342
 4690SOL    HW114969   1.387   1.736   0.350
 4690SOL    HW214970   1.456   1.605   0.417
 4691SOL     OW14971   3.762   4.476   0.107
 4691SOL    HW114972   3.773   4.436   0.198
 4691SOL    HW214973   3.736   4.573   0.116
 4692SOL     OW14974   0.472   5.932   2.987
 4692SOL    HW114975   0.532   5.893   3.058
 4692SOL    HW214976   0.512   5.914   2.897
 4693SOL     OW14977   0.960   0.677   3.881
 4693SOL    HW114978   1.027   0.747   3.907
 4693SOL    HW214979   0.965   0.663   3.782
 4694SOL     OW14980   0.806   1.228   5.979
 4694SOL    HW114981   0.883   1.289   5.959
 4694SOL    HW214982   0.781   1.237   6.075
 4695SOL     OW14983   2.848   3.054   1.751
 4695SOL    HW114984   2.927   3.094   1.797
 4695SOL    HW214985   2.865   2.957   1.735
 4696SOL     OW14986   5.678   3.583   0.019
 4696SOL    HW114987   5.598   3.545   0.064
 4696SOL    HW214988   5.650   3.641   6.969
 4697SOL     OW14989   1.061   5.258   6.688
 4697SOL    HW114990   1.058   5.260   6.788
 4697SOL    HW214991   1.078   5.165   6.656
 4698SOL     OW14992   6.041   3.652   2.307
 4698SOL    HW114993   6.118   3.708   2.338
 4698SOL    HW214994   6.012   3.591   2.382
 4699SOL     OW14995   6.721   0.107   2.988
 4699SOL    HW114996   6.696   0.178   3.053
 4699SOL    HW214997   6.696   0.018   3.024
 4700SOL     OW14998   5.394   6.852   0.071
 4700SOL    HW114999   5.381   6.889   0.163
 4700SOL    HW215000   5.440   6.921   0.015
 4701SOL     OW15001   0.804   0.909   0.503
 4701SOL    HW115002   0.734   0.857   0.454
 4701SOL    HW215003   0.836   0.984   0.445
 4702SOL     OW15004   2.717   3.384   0.063
 4702SOL    HW115005   2.769   3.327   0.127
 4702SOL    HW215006   2.780   3.437   0.007
 4703SOL     OW15007   1.484   0.875   1.643
 4703SOL    HW115008   1.455   0.964   1.677
 4703SOL    HW215009   1.502   0.881   1.544
 4704SOL     OW15010   4.547   7.024   0.191
 4704SOL    HW115011   4.457   0.032   0.165
 4704SOL    HW215012   4.557   0.002   0.291
 4705SOL     OW15013   3.164   4.114   4.248
 4705SOL    HW115014   3.126   4.198   4.209
 4705SOL    HW215015   3.195   4.131   4.342
 4706SOL     OW15016   4.983   5.061   1.183
 4706SOL    HW115017   5.050   5.116   1.134
 4706SOL    HW215018   5.005   5.061   1.281
 4707SOL     OW15019   3.551   6.175   1.265
 4707SOL    HW115020   3.455   6.177   1.293
 4707SOL    HW215021   3.594   6.264   1.286
 4708SOL     OW15022   1.624   2.910   2.994
 4708SOL    HW115023   1.593   2.933   2.902
 4708SOL    HW215024   1.544   2.898   3.054
 4709SOL     OW15025   2.927   3.877   0.278
 4709SOL    HW115026   3.018   3.844   0.251
 4709SOL    HW215027   2.934   3.929   0.363
 4710SOL     OW15028   4.972   2.689   1.377
 4710SOL    HW115029   4.904   2.701   1.450
 4710SOL    HW215030   5.030   2.611   1.397
 4711SOL     OW15031   2.879   6.758   3.151
 4711SOL    HW115032   2.973   6.763   3.184
 4711SOL    HW215033   2.863   6.830   3.084
 4712SOL     OW15034   1.405   4.212   6.927
 4712SOL    HW115035   1.456   4.220   7.012
 4712SOL    HW215036   1.460   4.246   6.851
 4713SOL     OW15037   2.448   5.777   1.178
 4713SOL    HW115038   2.457   5.803   1.082
 4713SOL    HW215039   2.470   5.680   1.189
 4714SOL     OW15040   2.977   1.984   0.716
 4714SOL    HW115041   2.888   2.023   0.738
 4714SOL    HW215042   2.979   1.956   0.621
 4715SOL     OW15043   5.410   4.166   4.920
 4715SOL    HW115044   5.337   4.234   4.917
 4715SOL    HW215045   5.374   4.076   4.896
 4716SOL     OW15046   2.919   5.219   0.381
 4716SOL    HW115047   2.979   5.171   0.445
 4716SOL    HW215048   2.963   5.305   0.353
 4717SOL     OW15049   1.576   5.701   4.491
 4717SOL    HW115050   1.662   5.668   4.531
 4717SOL    HW215051   1.585   5.798   4.470
 4718SOL     OW15052   5.397   0.871   6.579
 4718SOL    HW115053   5.396   0.851   6.481
 4718SOL    HW215054   5.492   0.869   6.612
 4719SOL     OW15055   4.446   2.986   1.662
 4719SOL    HW115056   4.499   3.010   1.744
 4719SOL    HW215057   4.507   2.945   1.594
 4720SOL     OW15058   2.795   0.800   4.189
 4720SOL    HW115059   2.863   0.850   4.242
 4720SOL    HW215060   2.768   0.853   4.109
 4721SOL     OW15061   1.176   1.565   0.748
 4721SOL    HW115062   1.130   1.653   0.756
 4721SOL    HW215063   1.120   1.503   0.693
 4722SOL     OW15064   3.107   0.681   2.532
 4722SOL    HW115065   3.159   0.646   2.610
 4722SOL    HW215066   3.015   0.643   2.534
 4723SOL     OW15067   2.889   7.012   6.043
 4723SOL    HW115068   2.853   6.983   5.954
 4723SOL    HW215069   2.955   6.945   6.076
 4724SOL     OW15070   3.957   4.977   1.305
 4724SOL    HW115071   4.020   4.920   1.357
 4724SOL    HW215072   3.948   5.067   1.349
 4725SOL     OW15073   5.425   5.323   2.986
 4725SOL    HW115074   5.484   5.312   3.067
 4725SOL    HW215075   5.341   5.369   3.013
 4726SOL     OW15076   0.401   5.886   5.310
 4726SOL    HW115077   0.433   5.793   5.293
 4726SOL    HW215078   0.463   5.951   5.267
 4727SOL     OW15079   6.156   6.320   1.115
 4727SOL    HW115080   6.251   6.349   1.114
 4727SOL    HW215081   6.125   6.308   1.210
 4728SOL     OW15082   0.405   0.481   0.120
 4728SOL    HW115083   0.468   0.454   0.047
 4728SOL    HW215084   0.328   0.531   0.081
 4729SOL     OW15085   2.872   0.203   0.666
 4729SOL    HW115086   2.791   0.211   0.609
 4729SOL    HW215087   2.859   0.254   0.751
 4730SOL     OW15088   2.116   0.797   5.231
 4730SOL    HW115089   2.143   0.849   5.150
 4730SOL    HW215090   2.101   0.701   5.205
 4731SOL     OW15091   6.063   1.940   6.827
 4731SOL    HW115092   6.084   2.034   6.801
 4731SOL    HW215093   5.967   1.933   6.853
 4732SOL     OW15094   0.462   1.477   0.554
 4732SOL    HW115095   0.547   1.487   0.503
 4732SOL    HW215096   0.452   1.553   0.619
 4733SOL     OW15097   6.747   3.133   4.270
 4733SOL    HW115098   6.647   3.134   4.264
 4733SOL    HW215099   6.781   3.226   4.283
 4734SOL     OW15100   4.997   4.220   6.083
 4734SOL    HW115101   5.026   4.211   5.987
 4734SOL    HW215102   4.975   4.315   6.103
 4735SOL     OW15103   6.934   4.754   3.599
 4735SOL    HW115104   7.010   4.695   3.574
 4735SOL    HW215105   6.957   4.802   3.684
 4736SOL     OW15106   2.305   0.028   1.397
 4736SOL    HW115107   2.361   0.002   1.319
 4736SOL    HW215108   2.269   6.972   1.441
 4737SOL     OW15109   3.252   5.350   1.608
 4737SOL    HW115110   3.350   5.368   1.605
 4737SOL    HW215111   3.230   5.270   1.553
 4738SOL     OW15112   6.819   6.171   2.982
 4738SOL    HW115113   6.905   6.212   2.952
 4738SOL    HW215114   6.827   6.141   3.077
 4739SOL     OW15115   4.157   0.116   1.226
 4739SOL    HW115116   4.157   0.075   1.317
 4739SOL    HW215117   4.223   0.191   1.223
 4740SOL     OW15118   0.511   2.387   3.704
 4740SOL    HW115119   0.492   2.307   3.648
 4740SOL    HW215120   0.587   2.438   3.664
 4741SOL     OW15121   3.674   3.723   1.145
 4741SOL    HW115122   3.714   3.733   1.053
 4741SOL    HW215123   3.693   3.631   1.179
 4742SOL     OW15124   4.030   0.953   0.624
 4742SOL    HW115125   4.053   0.995   0.712
 4742SOL    HW215126   3.936   0.977   0.600
 4743SOL     OW15127   1.827   5.845   0.507
 4743SOL    HW115128   1.844   5.867   0.410
 4743SOL    HW215129   1.910   5.806   0.547
 4744SOL     OW15130   2.029   5.765   1.379
 4744SOL    HW115131   1.938   5.738   1.350
 4744SOL    HW215132   2.097   5.700   1.343
 4745SOL     OW15133   1.680   3.397   0.114
 4745SOL    HW115134   1.696   3.374   0.018
 4745SOL    HW215135   1.668   3.496   0.123
 4746SOL     OW15136   5.049   5.613   3.880
 4746SOL    HW115137   4.983   5.637   3.809
 4746SOL    HW215138   5.012   5.636   3.970
 4747SOL     OW15139   2.303   0.807   6.670
 4747SOL    HW115140   2.357   0.883   6.706
 4747SOL    HW215141   2.246   0.769   6.742
 4748SOL     OW15142   2.233   6.805   1.493
 4748SOL    HW115143   2.258   6.748   1.571
 4748SOL    HW215144   2.199   6.747   1.418
 4749SOL     OW15145   2.383   1.857   0.796
 4749SOL    HW115146   2.451   1.798   0.839
 4749SOL    HW215147   2.299   1.805   0.779
 4750SOL     OW15148   4.880   3.018   5.735
 4750SOL    HW115149   4.806   2.986   5.677
 4750SOL    HW215150   4.843   3.047   5.824
 4751SOL     OW15151   5.051   1.287   3.497
 4751SOL    HW115152   5.019   1.227   3.571
 4751SOL    HW215153   5.026   1.382   3.517
 4752SOL     OW15154   5.409   1.144   6.635
 4752SOL    HW115155   5.415   1.049   6.604
 4752SOL    HW215156   5.471   1.201   6.581
 4753SOL     OW15157   3.326   6.752   4.551
 4753SOL    HW115158   3.227   6.760   4.560
 4753SOL    HW215159   3.367   6.843   4.548
 4754SOL     OW15160   4.697   4.693   6.555
 4754SOL    HW115161   4.674   4.746   6.474
 4754SOL    HW215162   4.685   4.596   6.536
 4755SOL     OW15163   0.580   1.133   1.465
 4755SOL    HW115164   0.554   1.204   1.399
 4755SOL    HW215165   0.657   1.080   1.430
 4756SOL     OW15166   6.965   3.956   5.399
 4756SOL    HW115167   6.882   3.962   5.342
 4756SOL    HW215168   6.938   3.939   5.494
 4757SOL     OW15169   2.148   3.609   0.234
 4757SOL    HW115170   2.236   3.567   0.213
 4757SOL    HW215171   2.125   3.675   0.162
 4758SOL     OW15172   2.391   5.793   3.535
 4758SOL    HW115173   2.476   5.780   3.484
 4758SOL    HW215174   2.396   5.742   3.621
 4759SOL     OW15175   0.715   6.520   1.794
 4759SOL    HW115176   0.742   6.608   1.753
 4759SOL    HW215177   0.751   6.445   1.739
 4760SOL     OW15178   1.726   5.610   0.622
 4760SOL    HW115179   1.718   5.699   0.578
 4760SOL    HW215180   1.639   5.562   0.617
 4761SOL     OW15181   5.200   6.846   1.655
 4761SOL    HW115182   5.295   6.843   1.624
 4761SOL    HW215183   5.146   6.778   1.606
 4762SOL     OW15184   1.708   0.540   2.561
 4762SOL    HW115185   1.766   0.557   2.482
 4762SOL    HW215186   1.625   0.492   2.532
 4763SOL     OW15187   5.783   5.554   2.306
 4763SOL    HW115188   5.848   5.598   2.368
 4763SOL    HW215189   5.825   5.545   2.215
 4764SOL     OW15190   5.134   3.067   0.790
 4764SOL    HW115191   5.217   3.011   0.791
 4764SOL    HW215192   5.055   3.008   0.771
 4765SOL     OW15193   4.067   1.830   6.012
 4765SOL    HW115194   4.083   1.733   5.992
 4765SOL    HW215195   4.148   1.883   5.986
 4766SOL     OW15196   1.353   0.873   4.555
 4766SOL    HW115197   1.289   0.798   4.541
 4766SOL    HW215198   1.388   0.869   4.649
 4767SOL     OW15199   2.382   4.345   3.504
 4767SOL    HW115200   2.458   4.385   3.555
 4767SOL    HW215201   2.378   4.386   3.413
 4768SOL     OW15202   4.755   2.544   6.506
 4768SOL    HW115203   4.792   2.631   6.474
 4768SOL    HW215204   4.729   2.552   6.603
 4769SOL     OW15205   1.424   3.198   0.475
 4769SOL    HW115206   1.468   3.288   0.465
 4769SOL    HW215207   1.493   3.131   0.502
 4770SOL     OW15208   0.138   1.417   3.858
 4770SOL    HW115209   0.053   1.368   3.837
 4770SOL    HW215210   0.130   1.512   3.829
 4771SOL     OW15211   1.874   6.982   4.202
 4771SOL    HW115212   1.873   7.008   4.299
 4771SOL    HW215213   1.946   0.006   4.155
 4772SOL     OW15214   2.880   5.320   2.723
 4772SOL    HW115215   2.873   5.244   2.659
 4772SOL    HW215216   2.927   5.397   2.679
 4773SOL     OW15217   2.910   5.236   4.781
 4773SOL    HW115218   2.978   5.216   4.710
 4773SOL    HW215219   2.955   5.283   4.857
 4774SOL     OW15220   0.840   4.364   0.931
 4774SOL    HW115221   0.854   4.462   0.924
 4774SOL    HW215222   0.910   4.323   0.990
 4775SOL     OW15223   6.068   5.413   4.793
 4775SOL    HW115224   5.992   5.445   4.736
 4775SOL    HW215225   6.040   5.415   4.889
 4776SOL     OW15226   0.405   1.499   5.333
 4776SOL    HW115227   0.492   1.500   5.283
 4776SOL    HW215228   0.372   1.405   5.341
 4777SOL     OW15229   1.609   6.764   3.016
 4777SOL    HW115230   1.520   6.746   3.057
 4777SOL    HW215231   1.657   6.677   2.999
 4778SOL     OW15232   1.808   1.166   0.097
 4778SOL    HW115233   1.794   1.087   0.037
 4778SOL    HW215234   1.885   1.148   0.158
 4779SOL     OW15235   5.268   0.584   4.980
 4779SOL    HW115236   5.182   0.635   4.974
 4779SOL    HW215237   5.250   0.487   4.966
 4780SOL     OW15238   4.686   2.813   4.508
 4780SOL    HW115239   4.705   2.830   4.604
 4780SOL    HW215240   4.714   2.892   4.453
 4781SOL     OW15241   1.250   5.071   2.007
 4781SOL    HW115242   1.201   5.157   2.014
 4781SOL    HW215243   1.336   5.085   1.957
 4782SOL     OW15244   6.761   6.337   4.049
 4782SOL    HW115245   6.762   6.372   3.955
 4782SOL    HW215246   6.816   6.254   4.055
 4783SOL     OW15247   0.046   3.527   6.191
 4783SOL    HW115248   0.111   3.603   6.205
 4783SOL    HW215249   0.009   3.531   6.098
 4784SOL     OW15250   5.097   3.305   0.273
 4784SOL    HW115251   5.171   3.247   0.239
 4784SOL    HW215252   5.084   3.382   0.211
 4785SOL     OW15253   0.745   0.522   3.937
 4785SOL    HW115254   0.827   0.578   3.937
 4785SOL    HW215255   0.718   0.502   4.032
 4786SOL     OW15256   0.558   5.892   0.150
 4786SOL    HW115257   0.587   5.942   0.232
 4786SOL    HW215258   0.458   5.898   0.141
 4787SOL     OW15259   4.851   1.319   4.647
 4787SOL    HW115260   4.822   1.415   4.650
 4787SOL    HW215261   4.950   1.314   4.658
 4788SOL     OW15262   0.219   6.209   0.888
 4788SOL    HW115263   0.260   6.194   0.978
 4788SOL    HW215264   0.202   6.306   0.875
 4789SOL     OW15265   6.373   0.973   2.927
 4789SOL    HW115266   6.378   0.918   2.844
 4789SOL    HW215267   6.465   1.003   2.952
 4790SOL     OW15268   0.105   1.771   4.517
 4790SOL    HW115269   0.188   1.808   4.559
 4790SOL    HW215270   0.046   1.846   4.489
 4791SOL     OW15271   0.725   0.213   0.011
 4791SOL    HW115272   0.687   0.277   6.971
 4791SOL    HW215273   0.769   0.265   0.085
 4792SOL     OW15274   1.820   3.678   2.129
 4792SOL    HW115275   1.829   3.600   2.191
 4792SOL    HW215276   1.897   3.678   2.064
 4793SOL     OW15277   1.207   4.245   5.745
 4793SOL    HW115278   1.171   4.303   5.671
 4793SOL    HW215279   1.150   4.257   5.827
 4794SOL     OW15280   4.791   1.934   5.204
 4794SOL    HW115281   4.884   1.902   5.219
 4794SOL    HW215282   4.738   1.862   5.159
 4795SOL     OW15283   6.790   1.347   5.852
 4795SOL    HW115284   6.828   1.307   5.935
 4795SOL    HW215285   6.797   1.447   5.857
 4796SOL     OW15286   4.547   1.344   5.120
 4796SOL    HW115287   4.479   1.274   5.144
 4796SOL    HW215288   4.636   1.301   5.106
 4797SOL     OW15289   2.056   4.732   6.420
 4797SOL    HW115290   2.138   4.789   6.411
 4797SOL    HW215291   2.082   4.638   6.441
 4798SOL     OW15292   3.851   5.842   0.412
 4798SOL    HW115293   3.836   5.938   0.435
 4798SOL    HW215294   3.860   5.788   0.495
 4799SOL     OW15295   4.272   2.662   0.269
 4799SOL    HW115296   4.275   2.641   0.171
 4799SOL    HW215297   4.330   2.598   0.319
 4800SOL     OW15298   0.417   4.344   0.014
 4800SOL    HW115299   0.420   4.265   0.074
 4800SOL    HW215300   0.325   4.355   7.003
 4801SOL     OW15301   5.411   2.064   2.748
 4801SOL    HW115302   5.492   2.008   2.730
 4801SOL    HW215303   5.424   2.156   2.712
 4802SOL     OW15304   6.698   0.043   4.608
 4802SOL    HW115305   6.613   0.042   4.556
 4802SOL    HW215306   6.691   0.110   4.682
 4803SOL     OW15307   5.004   4.180   5.380
 4803SOL    HW115308   5.103   4.192   5.379
 4803SOL    HW215309   4.982   4.085   5.403
 4804SOL     OW15310   4.962   2.133   0.603
 4804SOL    HW115311   4.918   2.046   0.578
 4804SOL    HW215312   4.896   2.207   0.593
 4805SOL     OW15313   5.731   1.368   7.025
 4805SOL    HW115314   5.632   1.361   7.016
 4805SOL    HW215315   5.754   1.424   0.079
 4806SOL     OW15316   1.373   1.436   3.042
 4806SOL    HW115317   1.342   1.416   3.135
 4806SOL    HW215318   1.294   1.441   2.981
 4807SOL     OW15319   6.681   4.249   6.595
 4807SOL    HW115320   6.588   4.286   6.604
 4807SOL    HW215321   6.684   4.186   6.518
 4808SOL     OW15322   3.641   5.722   2.213
 4808SOL    HW115323   3.684   5.634   2.190
 4808SOL    HW215324   3.553   5.705   2.259
 4809SOL     OW15325   3.234   3.925   1.192
 4809SOL    HW115326   3.219   3.899   1.288
 4809SOL    HW215327   3.150   3.913   1.140
 4810SOL     OW15328   1.833   5.540   4.261
 4810SOL    HW115329   1.901   5.613   4.260
 4810SOL    HW215330   1.825   5.503   4.353
 4811SOL     OW15331   3.276   3.485   4.489
 4811SOL    HW115332   3.213   3.409   4.500
 4811SOL    HW215333   3.266   3.524   4.397
 4812SOL     OW15334   1.691   6.512   2.937
 4812SOL    HW115335   1.659   6.438   2.996
 4812SOL    HW215336   1.781   6.488   2.901
 4813SOL     OW15337   0.842   2.372   5.098
 4813SOL    HW115338   0.858   2.303   5.027
 4813SOL    HW215339   0.785   2.332   5.170
 4814SOL     OW15340   6.632   3.505   0.778
 4814SOL    HW115341   6.724   3.467   0.782
 4814SOL    HW215342   6.602   3.531   0.870
 4815SOL     OW15343   6.181   4.757   2.116
 4815SOL    HW115344   6.173   4.765   2.016
 4815SOL    HW215345   6.093   4.732   2.154
 4816SOL     OW15346   2.966   0.516   2.900
 4816SOL    HW115347   3.005   0.603   2.870
 4816SOL    HW215348   3.026   0.441   2.871
 4817SOL     OW15349   4.542   1.961   1.166
 4817SOL    HW115350   4.484   1.958   1.084
 4817SOL    HW215351   4.622   2.019   1.148
 4818SOL     OW15352   4.127   0.311   4.401
 4818SOL    HW115353   4.084   0.398   4.426
 4818SOL    HW215354   4.128   0.302   4.301
 4819SOL     OW15355   2.495   0.834   0.587
 4819SOL    HW115356   2.571   0.891   0.557
 4819SOL    HW215357   2.511   0.805   0.682
 4820SOL     OW15358   6.139   4.296   1.759
 4820SOL    HW115359   6.124   4.364   1.830
 4820SOL    HW215360   6.189   4.337   1.683
 4821SOL     OW15361   0.279   5.867   1.958
 4821SOL    HW115362   0.184   5.894   1.965
 4821SOL    HW215363   0.285   5.777   1.914
 4822SOL     OW15364   0.979   4.008   1.526
 4822SOL    HW115365   0.885   3.991   1.496
 4822SOL    HW215366   1.010   3.932   1.583
 4823SOL     OW15367   0.749   1.405   3.360
 4823SOL    HW115368   0.691   1.442   3.433
 4823SOL    HW215369   0.839   1.448   3.365
 4824SOL     OW15370   5.714   2.665   1.751
 4824SOL    HW115371   5.706   2.723   1.670
 4824SOL    HW215372   5.791   2.602   1.739
 4825SOL     OW15373   0.203   2.987   4.249
 4825SOL    HW115374   0.103   2.991   4.252
 4825SOL    HW215375   0.236   2.920   4.315
 4826SOL     OW15376   7.018   6.569   0.327
 4826SOL    HW115377   0.056   6.579   0.404
 4826SOL    HW215378   6.978   6.658   0.306
 4827SOL     OW15379   4.862   1.719   0.432
 4827SOL    HW115380   4.842   1.638   0.377
 4827SOL    HW215381   4.911   1.786   0.377
 4828SOL     OW15382   5.111   3.608   6.508
 4828SOL    HW115383   5.117   3.547   6.587
 4828SOL    HW215384   5.015   3.629   6.491
 4829SOL     OW15385   3.890   0.417   4.996
 4829SOL    HW115386   3.848   0.379   5.079
 4829SOL    HW215387   3.969   0.473   5.021
 4830SOL     OW15388   4.714   5.764   5.187
 4830SOL    HW115389   4.633   5.724   5.144
 4830SOL    HW215390   4.703   5.762   5.286
 4831SOL     OW15391   5.967   3.336   6.657
 4831SOL    HW115392   5.888   3.397   6.651
 4831SOL    HW215393   6.044   3.376   6.608
 4832SOL     OW15394   1.662   2.552   6.264
 4832SOL    HW115395   1.669   2.648   6.234
 4832SOL    HW215396   1.746   2.504   6.239
 4833SOL     OW15397   6.575   1.866   3.389
 4833SOL    HW115398   6.567   1.770   3.417
 4833SOL    HW215399   6.664   1.902   3.418
 4834SOL     OW15400   5.377   0.509   3.356
 4834SOL    HW115401   5.433   0.553   3.426
 4834SOL    HW215402   5.428   0.502   3.271
 4835SOL     OW15403   1.372   1.155   6.157
 4835SOL    HW115404   1.317   1.178   6.237
 4835SOL    HW215405   1.466   1.135   6.186
 4836SOL     OW15406   5.693   2.942   2.299
 4836SOL    HW115407   5.681   3.039   2.281
 4836SOL    HW215408   5.617   2.891   2.258
 4837SOL     OW15409   0.226   3.859   1.003
 4837SOL    HW115410   0.225   3.958   1.018
 4837SOL    HW215411   0.218   3.812   1.091
 4838SOL     OW15412   2.623   5.175   2.292
 4838SOL    HW115413   2.572   5.143   2.211
 4838SOL    HW215414   2.680   5.101   2.327
 4839SOL     OW15415   0.720   6.635   6.817
 4839SOL    HW115416   0.674   6.546   6.826
 4839SOL    HW215417   0.653   6.708   6.831
 4840SOL     OW15418   6.118   6.821   6.478
 4840SOL    HW115419   6.046   6.868   6.529
 4840SOL    HW215420   6.081   6.785   6.392
 4841SOL     OW15421   2.322   5.586   1.743
 4841SOL    HW115422   2.245   5.625   1.794
 4841SOL    HW215423   2.355   5.652   1.676
 4842SOL     OW15424   3.423   6.240   1.653
 4842SOL    HW115425   3.407   6.326   1.605
 4842SOL    HW215426   3.472   6.258   1.739
 4843SOL     OW15427   1.093   2.608   6.749
 4843SOL    HW115428   1.024   2.677   6.769
 4843SOL    HW215429   1.151   2.640   6.674
 4844SOL     OW15430   0.545   1.758   5.404
 4844SOL    HW115431   0.447   1.741   5.415
 4844SOL    HW215432   0.583   1.695   5.336
 4845SOL     OW15433   5.581   5.262   3.607
 4845SOL    HW115434   5.573   5.352   3.649
 4845SOL    HW215435   5.627   5.199   3.671
 4846SOL     OW15436   0.028   5.233   0.064
 4846SOL    HW115437   0.080   5.175   0.127
 4846SOL    HW215438   6.983   5.282   0.113
 4847SOL     OW15439   5.219   2.713   4.656
 4847SOL    HW115440   5.282   2.637   4.641
 4847SOL    HW215441   5.149   2.685   4.722
 4848SOL     OW15442   2.597   2.112   1.679
 4848SOL    HW115443   2.621   2.168   1.758
 4848SOL    HW215444   2.509   2.142   1.642
 4849SOL     OW15445   1.392   6.326   5.894
 4849SOL    HW115446   1.377   6.272   5.811
 4849SOL    HW215447   1.448   6.406   5.872
 4850SOL     OW15448   3.960   0.283   3.382
 4850SOL    HW115449   3.963   0.338   3.466
 4850SOL    HW215450   3.869   0.291   3.341
 4851SOL     OW15451   5.101   1.148   5.184
 4851SOL    HW115452   5.197   1.158   5.161
 4851SOL    HW215453   5.046   1.149   5.100
 4852SOL     OW15454   1.173   1.846   1.962
 4852SOL    HW115455   1.215   1.759   1.936
 4852SOL    HW215456   1.153   1.900   1.880
 4853SOL     OW15457   3.369   1.989   1.508
 4853SOL    HW115458   3.350   2.013   1.604
 4853SOL    HW215459   3.459   1.944   1.503
 4854SOL     OW15460   3.591   6.982   6.928
 4854SOL    HW115461   3.639   6.915   6.984
 4854SOL    HW215462   3.559   0.031   6.986
 4855SOL     OW15463   6.548   3.575   2.559
 4855SOL    HW115464   6.540   3.656   2.501
 4855SOL    HW215465   6.588   3.600   2.647
 4856SOL     OW15466   1.932   4.159   3.038
 4856SOL    HW115467   1.838   4.176   3.007
 4856SOL    HW215468   1.940   4.186   3.134
 4857SOL     OW15469   0.516   1.334   5.954
 4857SOL    HW115470   0.545   1.323   5.859
 4857SOL    HW215471   0.543   1.253   6.006
 4858SOL     OW15472   1.379   0.675   3.757
 4858SOL    HW115473   1.327   0.756   3.730
 4858SOL    HW215474   1.339   0.594   3.714
 4859SOL     OW15475   3.436   5.777   6.111
 4859SOL    HW115476   3.482   5.751   6.027
 4859SOL    HW215477   3.408   5.694   6.160
 4860SOL     OW15478   3.968   3.898   0.784
 4860SOL    HW115479   4.016   3.842   0.853
 4860SOL    HW215480   3.939   3.839   0.709
 4861SOL     OW15481   5.315   3.709   6.163
 4861SOL    HW115482   5.300   3.624   6.215
 4861SOL    HW215483   5.226   3.746   6.134
 4862SOL     OW15484   0.826   6.375   1.235
 4862SOL    HW115485   0.733   6.410   1.246
 4862SOL    HW215486   0.843   6.356   1.138
 4863SOL     OW15487   5.172   4.594   6.597
 4863SOL    HW115488   5.143   4.644   6.679
 4863SOL    HW215489   5.263   4.555   6.613
 4864SOL     OW15490   3.129   1.204   4.261
 4864SOL    HW115491   3.188   1.165   4.332
 4864SOL    HW215492   3.186   1.243   4.189
 4865SOL     OW15493   1.750   6.753   5.419
 4865SOL    HW115494   1.795   6.742   5.507
 4865SOL    HW215495   1.742   6.850   5.398
 4866SOL     OW15496   6.640   4.050   6.436
 4866SOL    HW115497   6.702   3.982   6.476
 4866SOL    HW215498   6.546   4.023   6.454
 4867SOL     OW15499   4.700   0.919   3.048
 4867SOL    HW115500   4.615   0.966   3.071
 4867SOL    HW215501   4.683   0.820   3.043
 4868SOL     OW15502   6.716   4.421   0.816
 4868SOL    HW115503   6.807   4.425   0.775
 4868SOL    HW215504   6.693   4.510   0.856
 4869SOL     OW15505   0.472   1.292   1.016
 4869SOL    HW115506   0.392   1.236   0.997
 4869SOL    HW215507   0.542   1.276   0.946
 4870SOL     OW15508   0.512   6.703   1.726
 4870SOL    HW115509   0.516   6.622   1.784
 4870SOL    HW215510   0.603   6.742   1.717
 4871SOL     OW15511   1.386   1.346   3.640
 4871SOL    HW115512   1.406   1.402   3.721
 4871SOL    HW215513   1.310   1.285   3.660
 4872SOL     OW15514   5.965   6.505   2.884
 4872SOL    HW115515   5.961   6.595   2.841
 4872SOL    HW215516   5.898   6.445   2.841
 4873SOL     OW15517   6.455   5.453   5.013
 4873SOL    HW115518   6.540   5.401   5.021
 4873SOL    HW215519   6.430   5.463   4.917
 4874SOL     OW15520   4.894   2.976   3.446
 4874SOL    HW115521   4.901   2.882   3.479
 4874SOL    HW215522   4.905   3.039   3.523
 4875SOL     OW15523   5.887   6.359   5.144
 4875SOL    HW115524   5.873   6.260   5.143
 4875SOL    HW215525   5.920   6.387   5.234
 4876SOL     OW15526   0.675   1.041   1.910
 4876SOL    HW115527   0.657   0.987   1.992
 4876SOL    HW215528   0.653   1.137   1.928
 4877SOL     OW15529   6.186   1.404   6.260
 4877SOL    HW115530   6.180   1.453   6.173
 4877SOL    HW215531   6.208   1.469   6.333
 4878SOL     OW15532   6.948   3.471   2.329
 4878SOL    HW115533   6.968   3.497   2.235
 4878SOL    HW215534   7.022   3.502   2.389
 4879SOL     OW15535   5.905   0.738   2.666
 4879SOL    HW115536   5.958   0.698   2.592
 4879SOL    HW215537   5.812   0.755   2.636
 4880SOL     OW15538   6.686   3.295   6.789
 4880SOL    HW115539   6.604   3.245   6.816
 4880SOL    HW215540   6.716   3.263   6.699
 4881SOL     OW15541   1.656   2.826   1.695
 4881SOL    HW115542   1.641   2.797   1.601
 4881SOL    HW215543   1.729   2.771   1.735
 4882SOL     OW15544   4.812   2.340   4.178
 4882SOL    HW115545   4.810   2.256   4.124
 4882SOL    HW215546   4.773   2.415   4.124
 4883SOL     OW15547   6.021   4.580   0.474
 4883SOL    HW115548   6.110   4.616   0.503
 4883SOL    HW215549   5.957   4.582   0.550
 4884SOL     OW15550   1.746   0.755   1.490
 4884SOL    HW115551   1.711   0.807   1.412
 4884SOL    HW215552   1.784   0.818   1.558
 4885SOL     OW15553   0.922   4.062   0.058
 4885SOL    HW115554   0.930   4.024   6.993
 4885SOL    HW215555   0.911   4.162   0.052
 4886SOL     OW15556   2.742   0.905   2.001
 4886SOL    HW115557   2.657   0.855   1.982
 4886SOL    HW215558   2.816   0.840   2.015
 4887SOL     OW15559   5.679   6.550   0.185
 4887SOL    HW115560   5.629   6.468   0.213
 4887SOL    HW215561   5.685   6.552   0.085
 4888SOL     OW15562   4.262   0.305   3.090
 4888SOL    HW115563   4.307   0.229   3.137
 4888SOL    HW215564   4.200   0.269   3.020
 4889SOL     OW15565   6.655   3.351   4.479
 4889SOL    HW115566   6.591   3.423   4.454
 4889SOL    HW215567   6.746   3.391   4.492
 4890SOL     OW15568   6.834   1.533   4.702
 4890SOL    HW115569   6.855   1.585   4.619
 4890SOL    HW215570   6.837   1.594   4.781
 4891SOL     OW15571   2.890   4.941   6.436
 4891SOL    HW115572   2.873   5.029   6.480
 4891SOL    HW215573   2.937   4.956   6.349
 4892SOL     OW15574   4.838   5.191   2.419
 4892SOL    HW115575   4.830   5.092   2.403
 4892SOL    HW215576   4.747   5.231   2.427
 4893SOL     OW15577   0.814   3.099   1.156
 4893SOL    HW115578   0.880   3.034   1.121
 4893SOL    HW215579   0.849   3.139   1.241
 4894SOL     OW15580   5.023   6.419   1.541
 4894SOL    HW115581   5.046   6.364   1.621
 4894SOL    HW215582   4.936   6.465   1.555
 4895SOL     OW15583   0.016   4.502   5.514
 4895SOL    HW115584   6.984   4.583   5.506
 4895SOL    HW215585   0.111   4.530   5.522
 4896SOL     OW15586   2.814   5.100   5.022
 4896SOL    HW115587   2.717   5.116   5.003
 4896SOL    HW215588   2.867   5.122   4.941
 4897SOL     OW15589   1.930   0.692   4.767
 4897SOL    HW115590   1.898   0.642   4.687
 4897SOL    HW215591   1.863   0.762   4.791
 4898SOL     OW15592   5.038   1.615   3.551
 4898SOL    HW115593   5.001   1.704   3.523
 4898SOL    HW215594   5.130   1.604   3.514
 4899SOL     OW15595   6.219   6.523   1.454
 4899SOL    HW115596   6.193   6.580   1.376
 4899SOL    HW215597   6.318   6.507   1.453
 4900SOL     OW15598   4.098   6.015   5.982
 4900SOL    HW115599   4.132   6.055   5.897
 4900SOL    HW215600   4.028   5.947   5.962
 4901SOL     OW15601   1.136   0.788   6.568
 4901SOL    HW115602   1.212   0.767   6.629
 4901SOL    HW215603   1.050   0.758   6.610
 4902SOL     OW15604   2.638   0.145   5.684
 4902SOL    HW115605   2.721   0.187   5.647
 4902SOL    HW215606   2.658   0.052   5.715
 4903SOL     OW15607   5.287   3.641   2.737
 4903SOL    HW115608   5.269   3.544   2.751
 4903SOL    HW215609   5.205   3.686   2.701
 4904SOL     OW15610   1.479   0.043   1.243
 4904SOL    HW115611   1.429   0.018   1.160
 4904SOL    HW215612   1.432   0.119   1.288
 4905SOL     OW15613   2.730   7.005   3.220
 4905SOL    HW115614   2.659   0.005   3.285
 4905SOL    HW215615   2.741   6.906   3.221
 4906SOL     OW15616   4.994   3.650   4.874
 4906SOL    HW115617   5.064   3.583   4.849
 4906SOL    HW215618   4.921   3.603   4.924
 4907SOL     OW15619   4.161   2.112   6.941
 4907SOL    HW115620   4.241   2.130   6.884
 4907SOL    HW215621   4.085   2.082   6.884
 4908SOL     OW15622   3.522   6.937   0.210
 4908SOL    HW115623   3.435   6.960   0.166
 4908SOL    HW215624   3.505   6.908   0.305
 4909SOL     OW15625   5.036   5.055   4.575
 4909SOL    HW115626   5.014   5.100   4.488
 4909SOL    HW215627   5.075   5.122   4.638
 4910SOL     OW15628   4.311   2.444   6.168
 4910SOL    HW115629   4.245   2.378   6.205
 4910SOL    HW215630   4.402   2.403   6.165
 4911SOL     OW15631   6.574   4.089   2.582
 4911SOL    HW115632   6.479   4.080   2.613
 4911SOL    HW215633   6.618   4.165   2.630
 4912SOL     OW15634   5.659   2.541   4.019
 4912SOL    HW115635   5.661   2.511   4.115
 4912SOL    HW215636   5.566   2.568   3.995
 4913SOL     OW15637   0.892   4.217   5.196
 4913SOL    HW115638   0.968   4.194   5.135
 4913SOL    HW215639   0.920   4.292   5.256
 4914SOL     OW15640   4.142   0.714   4.003
 4914SOL    HW115641   4.060   0.676   4.045
 4914SOL    HW215642   4.223   0.666   4.039
 4915SOL     OW15643   3.757   5.314   5.594
 4915SOL    HW115644   3.756   5.384   5.522
 4915SOL    HW215645   3.759   5.359   5.684
 4916SOL     OW15646   6.020   2.232   3.618
 4916SOL    HW115647   5.977   2.308   3.569
 4916SOL    HW215648   6.059   2.265   3.704
 4917SOL     OW15649   3.683   6.756   0.024
 4917SOL    HW115650   3.715   6.692   6.981
 4917SOL    HW215651   3.633   6.707   0.095
 4918SOL     OW15652   5.718   5.166   3.398
 4918SOL    HW115653   5.657   5.087   3.398
 4918SOL    HW215654   5.698   5.224   3.477
 4919SOL     OW15655   3.153   3.637   1.862
 4919SOL    HW115656   3.127   3.619   1.767
 4919SOL    HW215657   3.192   3.728   1.870
 4920SOL     OW15658   5.699   1.814   6.073
 4920SOL    HW115659   5.732   1.726   6.106
 4920SOL    HW215660   5.773   1.862   6.026
 4921SOL     OW15661   0.288   6.848   2.088
 4921SOL    HW115662   0.320   6.895   2.005
 4921SOL    HW215663   0.254   6.757   2.064
 4922SOL     OW15664   3.305   1.675   6.191
 4922SOL    HW115665   3.218   1.645   6.151
 4922SOL    HW215666   3.308   1.774   6.192
 4923SOL     OW15667   3.898   1.290   1.902
 4923SOL    HW115668   3.814   1.302   1.954
 4923SOL    HW215669   3.917   1.373   1.849
 4924SOL     OW15670   2.434   0.815   5.219
 4924SOL    HW115671   2.439   0.914   5.208
 4924SOL    HW215672   2.433   0.792   5.316
 4925SOL     OW15673   5.545   5.733   3.443
 4925SOL    HW115674   5.567   5.694   3.353
 4925SOL    HW215675   5.527   5.831   3.433
 4926SOL     OW15676   5.192   2.845   1.386
 4926SOL    HW115677   5.105   2.800   1.405
 4926SOL    HW215678   5.263   2.775   1.373
 4927SOL     OW15679   3.039   1.324   0.127
 4927SOL    HW115680   2.963   1.261   0.110
 4927SOL    HW215681   3.087   1.295   0.209
 4928SOL     OW15682   6.661   2.417   0.726
 4928SOL    HW115683   6.741   2.425   0.786
 4928SOL    HW215684   6.637   2.507   0.690
 4929SOL     OW15685   0.613   6.385   4.863
 4929SOL    HW115686   0.659   6.385   4.951
 4929SOL    HW215687   0.525   6.338   4.871
 4930SOL     OW15688   5.081   5.822   2.611
 4930SOL    HW115689   5.072   5.914   2.651
 4930SOL    HW215690   5.145   5.768   2.665
 4931SOL     OW15691   7.015   6.907   0.656
 4931SOL    HW115692   7.009   6.974   0.730
 4931SOL    HW215693   6.957   6.829   0.677
 4932SOL     OW15694   3.728   3.247   2.542
 4932SOL    HW115695   3.668   3.167   2.540
 4932SOL    HW215696   3.787   3.246   2.461
 4933SOL     OW15697   1.346   0.384   6.063
 4933SOL    HW115698   1.439   0.393   6.026
 4933SOL    HW215699   1.297   0.471   6.052
 4934SOL     OW15700   3.907   6.539   1.798
 4934SOL    HW115701   4.006   6.530   1.801
 4934SOL    HW215702   3.866   6.449   1.784
 4935SOL     OW15703   0.528   0.806   5.531
 4935SOL    HW115704   0.529   0.835   5.435
 4935SOL    HW215705   0.479   0.719   5.538
 4936SOL     OW15706   4.160   2.271   1.126
 4936SOL    HW115707   4.222   2.197   1.101
 4936SOL    HW215708   4.128   2.258   1.220
 4937SOL     OW15709   4.554   2.744   5.230
 4937SOL    HW115710   4.523   2.723   5.138
 4937SOL    HW215711   4.598   2.663   5.270
 4938SOL     OW15712   3.801   4.783   6.641
 4938SOL    HW115713   3.811   4.694   6.684
 4938SOL    HW215714   3.716   4.787   6.590
 4939SOL     OW15715   4.751   3.310   6.042
 4939SOL    HW115716   4.682   3.379   6.064
 4939SOL    HW215717   4.822   3.350   5.984
 4940SOL     OW15718   2.206   6.750   3.729
 4940SOL    HW115719   2.241   6.714   3.815
 4940SOL    HW215720   2.108   6.731   3.722
 4941SOL     OW15721   5.456   0.437   0.923
 4941SOL    HW115722   5.410   0.383   0.993
 4941SOL    HW215723   5.388   0.485   0.868
 4942SOL     OW15724   5.055   3.108   6.524
 4942SOL    HW115725   4.972   3.107   6.579
 4942SOL    HW215726   5.035   3.074   6.432
 4943SOL     OW15727   5.410   2.707   1.313
 4943SOL    HW115728   5.435   2.767   1.238
 4943SOL    HW215729   5.492   2.682   1.364
 4944SOL     OW15730   2.126   4.262   2.179
 4944SOL    HW115731   2.177   4.176   2.180
 4944SOL    HW215732   2.049   4.255   2.116
 4945SOL     OW15733   6.996   6.306   4.438
 4945SOL    HW115734   6.957   6.377   4.380
 4945SOL    HW215735   6.949   6.219   4.420
 4946SOL     OW15736   0.557   4.339   2.271
 4946SOL    HW115737   0.649   4.305   2.254
 4946SOL    HW215738   0.524   4.389   2.191
 4947SOL     OW15739   6.539   0.115   0.981
 4947SOL    HW115740   6.543   0.066   1.068
 4947SOL    HW215741   6.606   0.075   0.918
 4948SOL     OW15742   2.360   1.440   1.898
 4948SOL    HW115743   2.445   1.488   1.916
 4948SOL    HW215744   2.283   1.493   1.934
 4949SOL     OW15745   5.453   2.521   4.574
 4949SOL    HW115746   5.549   2.546   4.589
 4949SOL    HW215747   5.429   2.445   4.634
 4950SOL     OW15748   3.500   5.012   4.927
 4950SOL    HW115749   3.454   4.956   4.997
 4950SOL    HW215750   3.590   5.039   4.960
 4951SOL     OW15751   4.511   1.938   4.041
 4951SOL    HW115752   4.471   1.990   3.966
 4951SOL    HW215753   4.443   1.928   4.114
 4952SOL     OW15754   6.939   4.725   5.284
 4952SOL    HW115755   6.948   4.814   5.330
 4952SOL    HW215756   7.001   4.723   5.205
 4953SOL     OW15757   1.526   4.974   2.253
 4953SOL    HW115758   1.611   4.934   2.219
 4953SOL    HW215759   1.546   5.055   2.308
 4954SOL     OW15760   6.409   6.470   7.019
 4954SOL    HW115761   6.336   6.452   0.058
 4954SOL    HW215762   6.459   6.553   0.020
 4955SOL     OW15763   1.106   0.858   0.787
 4955SOL    HW115764   1.206   0.848   0.790
 4955SOL    HW215765   1.069   0.802   0.714
 4956SOL     OW15766   6.337   6.638   4.324
 4956SOL    HW115767   6.320   6.728   4.365
 4956SOL    HW215768   6.262   6.614   4.263
 4957SOL     OW15769   2.026   6.197   3.452
 4957SOL    HW115770   2.003   6.185   3.548
 4957SOL    HW215771   2.038   6.107   3.409
 4958SOL     OW15772   0.286   6.747   6.527
 4958SOL    HW115773   0.305   6.698   6.612
 4958SOL    HW215774   0.245   6.684   6.461
 4959SOL     OW15775   0.497   1.232   6.539
 4959SOL    HW115776   0.467   1.154   6.483
 4959SOL    HW215777   0.596   1.229   6.549
 4960SOL     OW15778   3.956   6.869   5.233
 4960SOL    HW115779   3.980   6.774   5.256
 4960SOL    HW215780   3.914   6.871   5.142
 4961SOL     OW15781   4.637   0.853   5.501
 4961SOL    HW115782   4.716   0.815   5.453
 4961SOL    HW215783   4.597   0.926   5.445
 4962SOL     OW15784   6.436   2.183   2.261
 4962SOL    HW115785   6.440   2.282   2.276
 4962SOL    HW215786   6.468   2.135   2.343
 4963SOL     OW15787   6.594   4.717   0.903
 4963SOL    HW115788   6.617   4.751   0.812
 4963SOL    HW215789   6.576   4.794   0.964
 4964SOL     OW15790   3.692   6.631   2.971
 4964SOL    HW115791   3.780   6.599   3.005
 4964SOL    HW215792   3.697   6.728   2.950
 4965SOL     OW15793   6.995   6.215   4.727
 4965SOL    HW115794   6.946   6.243   4.810
 4965SOL    HW215795   6.958   6.265   4.648
 4966SOL     OW15796   3.975   5.767   4.623
 4966SOL    HW115797   4.017   5.773   4.532
 4966SOL    HW215798   4.047   5.758   4.692
 4967SOL     OW15799   5.289   2.062   6.488
 4967SOL    HW115800   5.351   2.025   6.556
 4967SOL    HW215801   5.233   2.134   6.529
 4968SOL     OW15802   5.706   4.387   6.946
 4968SOL    HW115803   5.805   4.384   6.931
 4968SOL    HW215804   5.677   4.481   6.964
 4969SOL     OW15805   0.769   1.980   1.334
 4969SOL    HW115806   0.814   2.002   1.248
 4969SOL    HW215807   0.670   1.987   1.322
 4970SOL     OW15808   1.681   3.012   5.920
 4970SOL    HW115809   1.646   3.032   5.829
 4970SOL    HW215810   1.606   3.014   5.986
 4971SOL     OW15811   6.988   5.367   3.871
 4971SOL    HW115812   6.983   5.295   3.802
 4971SOL    HW215813   0.018   5.442   3.836
 4972SOL     OW15814   1.661   2.167   5.507
 4972SOL    HW115815   1.697   2.104   5.438
 4972SOL    HW215816   1.720   2.165   5.588
 4973SOL     OW15817   5.595   5.714   2.924
 4973SOL    HW115818   5.497   5.721   2.904
 4973SOL    HW215819   5.641   5.795   2.888
 4974SOL     OW15820   4.304   6.740   0.401
 4974SOL    HW115821   4.246   6.773   0.476
 4974SOL    HW215822   4.390   6.705   0.439
 4975SOL     OW15823   4.643   6.258   0.196
 4975SOL    HW115824   4.576   6.281   0.267
 4975SOL    HW215825   4.608   6.181   0.142
 4976SOL     OW15826   2.443   0.751   4.452
 4976SOL    HW115827   2.362   0.740   4.508
 4976SOL    HW215828   2.466   0.664   4.408
 4977SOL     OW15829   2.883   2.924   0.094
 4977SOL    HW115830   2.814   2.856   0.070
 4977SOL    HW215831   2.942   2.888   0.166
 4978SOL     OW15832   6.064   4.225   6.713
 4978SOL    HW115833   6.159   4.239   6.742
 4978SOL    HW215834   6.031   4.306   6.665
 4979SOL     OW15835   1.936   2.757   3.897
 4979SOL    HW115836   2.007   2.687   3.884
 4979SOL    HW215837   1.905   2.756   3.991
 4980SOL     OW15838   2.456   4.878   3.171
 4980SOL    HW115839   2.524   4.818   3.129
 4980SOL    HW215840   2.462   4.969   3.131
 4981SOL     OW15841   4.628   6.498   5.369
 4981SOL    HW115842   4.625   6.405   5.333
 4981SOL    HW215843   4.721   6.534   5.362
 4982SOL     OW15844   2.884   2.086   0.153
 4982SOL    HW115845   2.883   2.167   0.212
 4982SOL    HW215846   2.828   2.014   0.194
 4983SOL     OW15847   6.478   2.882   5.020
 4983SOL    HW115848   6.410   2.837   4.962
 4983SOL    HW215849   6.551   2.920   4.964
 4984SOL     OW15850   4.542   4.359   2.966
 4984SOL    HW115851   4.562   4.411   3.048
 4984SOL    HW215852   4.576   4.266   2.976
 4985SOL     OW15853   5.519   3.984   1.826
 4985SOL    HW115854   5.584   4.057   1.848
 4985SOL    HW215855   5.442   4.022   1.774
 4986SOL     OW15856   4.397   4.652   3.214
 4986SOL    HW115857   4.301   4.647   3.242
 4986SOL    HW215858   4.403   4.699   3.125
 4987SOL     OW15859   0.523   3.513   1.006
 4987SOL    HW115860   0.516   3.425   0.959
 4987SOL    HW215861   0.546   3.584   0.939
 4988SOL     OW15862   1.569   2.110   5.008
 4988SOL    HW115863   1.581   2.185   4.942
 4988SOL    HW215864   1.483   2.123   5.058
 4989SOL     OW15865   6.958   1.018   0.660
 4989SOL    HW115866   6.862   1.041   0.650
 4989SOL    HW215867   6.968   0.919   0.670
 4990SOL     OW15868   0.972   2.489   6.194
 4990SOL    HW115869   0.926   2.400   6.197
 4990SOL    HW215870   1.029   2.499   6.276
 4991SOL     OW15871   2.414   1.709   5.269
 4991SOL    HW115872   2.326   1.680   5.232
 4991SOL    HW215873   2.463   1.630   5.306
 4992SOL     OW15874   4.224   0.736   4.346
 4992SOL    HW115875   4.313   0.721   4.303
 4992SOL    HW215876   4.198   0.833   4.337
 4993SOL     OW15877   1.758   6.414   3.863
 4993SOL    HW115878   1.735   6.400   3.766
 4993SOL    HW215879   1.680   6.388   3.920
 4994SOL     OW15880   0.415   6.669   2.556
 4994SOL    HW115881   0.411   6.716   2.468
 4994SOL    HW215882   0.414   6.736   2.630
 4995SOL     OW15883   6.289   2.968   5.569
 4995SOL    HW115884   6.299   2.868   5.562
 4995SOL    HW215885   6.282   3.007   5.478
 4996SOL     OW15886   0.282   1.844   3.819
 4996SOL    HW115887   0.257   1.773   3.753
 4996SOL    HW215888   0.238   1.824   3.906
 4997SOL     OW15889   0.355   2.167   4.099
 4997SOL    HW115890   0.444   2.126   4.120
 4997SOL    HW215891   0.346   2.175   4.000
 4998SOL     OW15892   1.043   5.111   5.328
 4998SOL    HW115893   1.113   5.177   5.357
 4998SOL    HW215894   1.077   5.060   5.249
 4999SOL     OW15895   6.309   5.134   0.968
 4999SOL    HW115896   6.277   5.046   0.931
 4999SOL    HW215897   6.334   5.123   1.064
 5000SOL     OW15898   0.091   5.295   4.106
 5000SOL    HW115899   0.050   5.325   4.020
 5000SOL    HW215900   0.189   5.281   4.093
 5001SOL     OW15901   4.577   4.808   5.372
 5001SOL    HW115902   4.607   4.901   5.352
 5001SOL    HW215903   4.633   4.771   5.447
 5002SOL     OW15904   1.853   2.286   1.910
 5002SOL    HW115905   1.863   2.251   1.817
 5002SOL    HW215906   1.842   2.210   1.974
 5003SOL     OW15907   6.651   4.765   4.044
 5003SOL    HW115908   6.660   4.853   3.996
 5003SOL    HW215909   6.555   4.744   4.057
 5004SOL     OW15910   3.170   4.201   6.152
 5004SOL    HW115911   3.159   4.176   6.248
 5004SOL    HW215912   3.264   4.181   6.123
 5005SOL     OW15913   4.598   1.811   0.074
 5005SOL    HW115914   4.609   1.721   0.116
 5005SOL    HW215915   4.551   1.801   7.013
 5006SOL     OW15916   5.754   4.289   2.663
 5006SOL    HW115917   5.757   4.285   2.563
 5006SOL    HW215918   5.664   4.322   2.692
 5007SOL     OW15919   3.960   1.523   5.203
 5007SOL    HW115920   3.959   1.621   5.223
 5007SOL    HW215921   3.917   1.506   5.115
 5008SOL     OW15922   6.496   0.788   3.562
 5008SOL    HW115923   6.418   0.847   3.543
 5008SOL    HW215924   6.464   0.693   3.570
 5009SOL     OW15925   1.919   5.950   1.910
 5009SOL    HW115926   1.884   5.874   1.966
 5009SOL    HW215927   1.911   5.926   1.813
 5010SOL     OW15928   3.492   3.202   5.566
 5010SOL    HW115929   3.397   3.202   5.536
 5010SOL    HW215930   3.537   3.118   5.535
 5011SOL     OW15931   1.243   2.622   3.667
 5011SOL    HW115932   1.302   2.699   3.643
 5011SOL    HW215933   1.284   2.571   3.743
 5012SOL     OW15934   5.889   2.841   0.073
 5012SOL    HW115935   5.952   2.910   0.038
 5012SOL    HW215936   5.872   2.857   0.170
 5013SOL     OW15937   4.823   2.477   5.689
 5013SOL    HW115938   4.893   2.495   5.620
 5013SOL    HW215939   4.857   2.410   5.755
 5014SOL     OW15940   6.544   5.865   6.537
 5014SOL    HW115941   6.459   5.814   6.538
 5014SOL    HW215942   6.619   5.805   6.509
 5015SOL     OW15943   5.496   2.233   3.802
 5015SOL    HW115944   5.556   2.193   3.733
 5015SOL    HW215945   5.417   2.274   3.758
 5016SOL     OW15946   2.247   6.563   2.531
 5016SOL    HW115947   2.220   6.482   2.583
 5016SOL    HW215948   2.243   6.644   2.589
 5017SOL     OW15949   1.307   2.192   2.157
 5017SOL    HW115950   1.281   2.112   2.209
 5017SOL    HW215951   1.356   2.257   2.216
 5018SOL     OW15952   7.011   5.174   3.663
 5018SOL    HW115953   6.997   5.178   3.564
 5018SOL    HW215954   6.926   5.145   3.707
 5019SOL     OW15955   2.785   5.378   5.318
 5019SOL    HW115956   2.767   5.282   5.337
 5019SOL    HW215957   2.708   5.433   5.351
 5020SOL     OW15958   4.072   5.142   6.710
 5020SOL    HW115959   4.160   5.164   6.751
 5020SOL    HW215960   4.080   5.144   6.610
 5021SOL     OW15961   2.422   4.028   5.771
 5021SOL    HW115962   2.322   4.037   5.774
 5021SOL    HW215963   2.463   4.099   5.828
 5022SOL     OW15964   2.093   3.799   1.118
 5022SOL    HW115965   1.995   3.821   1.110
 5022SOL    HW215966   2.110   3.709   1.079
 5023SOL     OW15967   6.932   2.855   4.371
 5023SOL    HW115968   6.882   2.850   4.284
 5023SOL    HW215969   6.874   2.898   4.440
 5024SOL     OW15970   5.196   3.461   5.360
 5024SOL    HW115971   5.268   3.487   5.296
 5024SOL    HW215972   5.237   3.438   5.448
 5025SOL     OW15973   6.664   1.231   3.672
 5025SOL    HW115974   6.593   1.239   3.743
 5025SOL    HW215975   6.750   1.204   3.715
 5026SOL     OW15976   0.884   6.348   2.714
 5026SOL    HW115977   0.885   6.286   2.792
 5026SOL    HW215978   0.897   6.442   2.746
 5027SOL     OW15979   0.694   6.094   3.786
 5027SOL    HW115980   0.768   6.065   3.846
 5027SOL    HW215981   0.726   6.170   3.729
 5028SOL     OW15982   0.664   0.027   2.666
 5028SOL    HW115983   0.745   0.059   2.714
 5028SOL    HW215984   0.691   6.985   2.598
 5029SOL     OW15985   6.874   1.424   3.566
 5029SOL    HW115986   6.958   1.477   3.552
 5029SOL    HW215987   6.843   1.387   3.478
 5030SOL     OW15988   2.174   5.727   0.128
 5030SOL    HW115989   2.166   5.688   0.036
 5030SOL    HW215990   2.094   5.785   0.147
 5031SOL     OW15991   5.020   1.209   6.265
 5031SOL    HW115992   5.092   1.183   6.201
 5031SOL    HW215993   5.059   1.223   6.356
 5032SOL     OW15994   1.426   6.014   2.347
 5032SOL    HW115995   1.428   5.975   2.255
 5032SOL    HW215996   1.508   6.068   2.363
 5033SOL     OW15997   0.633   3.978   4.982
 5033SOL    HW115998   0.535   3.968   4.969
 5033SOL    HW215999   0.652   4.061   5.035
 5034SOL     OW16000   6.773   4.051   6.190
 5034SOL    HW116001   6.713   4.056   6.270
 5034SOL    HW216002   6.868   4.046   6.220
 5035SOL     OW16003   6.119   4.638   1.318
 5035SOL    HW116004   6.183   4.665   1.390
 5035SOL    HW216005   6.077   4.719   1.278
 5036SOL     OW16006   1.461   0.624   1.973
 5036SOL    HW116007   1.462   0.561   1.895
 5036SOL    HW216008   1.500   0.712   1.946
 5037SOL     OW16009   4.772   2.837   3.218
 5037SOL    HW116010   4.780   2.877   3.309
 5037SOL    HW216011   4.818   2.896   3.151
 5038SOL     OW16012   2.940   5.687   4.974
 5038SOL    HW116013   2.880   5.643   5.041
 5038SOL    HW216014   3.011   5.623   4.946
 5039SOL     OW16015   1.312   1.941   2.874
 5039SOL    HW116016   1.405   1.976   2.883
 5039SOL    HW216017   1.282   1.903   2.961
 5040SOL     OW16018   3.049   3.675   5.906
 5040SOL    HW116019   3.048   3.660   6.004
 5040SOL    HW216020   2.955   3.673   5.871
 5041SOL     OW16021   0.646   5.613   0.749
 5041SOL    HW116022   0.600   5.692   0.788
 5041SOL    HW216023   0.724   5.643   0.694
 5042SOL     OW16024   5.700   1.531   5.650
 5042SOL    HW116025   5.641   1.471   5.704
 5042SOL    HW216026   5.744   1.479   5.577
 5043SOL     OW16027   4.810   6.980   4.007
 5043SOL    HW116028   4.801   6.999   3.910
 5043SOL    HW216029   4.907   6.980   4.033
 5044SOL     OW16030   5.636   4.736   1.831
 5044SOL    HW116031   5.705   4.713   1.899
 5044SOL    HW216032   5.547   4.749   1.876
 5045SOL     OW16033   5.367   3.539   5.024
 5045SOL    HW116034   5.414   3.554   4.937
 5045SOL    HW216035   5.278   3.496   5.007
 5046SOL     OW16036   3.922   3.578   5.675
 5046SOL    HW116037   3.878   3.491   5.656
 5046SOL    HW216038   4.011   3.581   5.630
 5047SOL     OW16039   0.281   1.779   2.299
 5047SOL    HW116040   0.221   1.777   2.379
 5047SOL    HW216041   0.321   1.688   2.285
 5048SOL     OW16042   5.844   3.655   1.126
 5048SOL    HW116043   5.842   3.621   1.032
 5048SOL    HW216044   5.802   3.589   1.187
 5049SOL     OW16045   0.952   2.197   1.590
 5049SOL    HW116046   1.005   2.156   1.516
 5049SOL    HW216047   0.895   2.126   1.633
 5050SOL     OW16048   1.348   3.751   0.612
 5050SOL    HW116049   1.421   3.741   0.680
 5050SOL    HW216050   1.318   3.661   0.582
 5051SOL     OW16051   2.269   3.681   6.607
 5051SOL    HW116052   2.353   3.627   6.601
 5051SOL    HW216053   2.289   3.769   6.650
 5052SOL     OW16054   5.805   3.197   0.746
 5052SOL    HW116055   5.882   3.221   0.686
 5052SOL    HW216056   5.722   3.239   0.711
 5053SOL     OW16057   2.054   4.105   1.178
 5053SOL    HW116058   2.066   4.067   1.086
 5053SOL    HW216059   1.961   4.084   1.210
 5054SOL     OW16060   4.171   6.259   5.124
 5054SOL    HW116061   4.090   6.317   5.115
 5054SOL    HW216062   4.163   6.180   5.064
 5055SOL     OW16063   1.651   1.815   3.799
 5055SOL    HW116064   1.736   1.773   3.770
 5055SOL    HW216065   1.616   1.875   3.726
 5056SOL     OW16066   3.119   2.259   5.501
 5056SOL    HW116067   3.097   2.176   5.552
 5056SOL    HW216068   3.128   2.237   5.404
 5057SOL     OW16069   0.273   4.173   2.820
 5057SOL    HW116070   0.373   4.162   2.821
 5057SOL    HW216071   0.250   4.247   2.756
 5058SOL     OW16072   3.629   2.249   0.575
 5058SOL    HW116073   3.728   2.254   0.561
 5058SOL    HW216074   3.592   2.342   0.578
 5059SOL     OW16075   4.379   2.090   3.014
 5059SOL    HW116076   4.287   2.068   2.980
 5059SOL    HW216077   4.412   2.173   2.971
 5060SOL     OW16078   0.298   3.127   6.061
 5060SOL    HW116079   0.271   3.214   6.021
 5060SOL    HW216080   0.390   3.136   6.101
 5061SOL     OW16081   4.010   2.462   5.971
 5061SOL    HW116082   3.923   2.446   5.924
 5061SOL    HW216083   3.998   2.534   6.039
 5062SOL     OW16084   5.296   1.052   3.526
 5062SOL    HW116085   5.213   1.054   3.470
 5062SOL    HW216086   5.275   1.088   3.617
 5063SOL     OW16087   1.078   1.375   1.504
 5063SOL    HW116088   1.096   1.451   1.441
 5063SOL    HW216089   0.980   1.356   1.506
 5064SOL     OW16090   5.638   5.110   0.835
 5064SOL    HW116091   5.552   5.135   0.879
 5064SOL    HW216092   5.622   5.033   0.773
 5065SOL     OW16093   2.567   1.395   2.192
 5065SOL    HW116094   2.597   1.433   2.104
 5065SOL    HW216095   2.635   1.329   2.225
 5066SOL     OW16096   1.866   5.194   2.625
 5066SOL    HW116097   1.921   5.274   2.606
 5066SOL    HW216098   1.803   5.177   2.548
 5067SOL     OW16099   5.884   3.076   1.372
 5067SOL    HW116100   5.938   3.024   1.439
 5067SOL    HW216101   5.928   3.164   1.355
 5068SOL     OW16102   1.804   6.071   0.674
 5068SOL    HW116103   1.876   6.073   0.743
 5068SOL    HW216104   1.818   5.993   0.613
 5069SOL     OW16105   4.479   5.774   5.614
 5069SOL    HW116106   4.426   5.691   5.599
 5069SOL    HW216107   4.515   5.774   5.707
 5070SOL     OW16108   5.935   3.362   5.377
 5070SOL    HW116109   5.868   3.289   5.390
 5070SOL    HW216110   6.000   3.336   5.306
 5071SOL     OW16111   2.618   6.499   3.514
 5071SOL    HW116112   2.614   6.577   3.578
 5071SOL    HW216113   2.602   6.414   3.564
 5072SOL     OW16114   0.829   1.258   1.566
 5072SOL    HW116115   0.842   1.264   1.665
 5072SOL    HW216116   0.778   1.174   1.545
 5073SOL     OW16117   1.995   0.964   3.531
 5073SOL    HW116118   1.947   1.048   3.507
 5073SOL    HW216119   1.931   0.901   3.575
 5074SOL     OW16120   3.010   2.160   1.511
 5074SOL    HW116121   3.072   2.142   1.435
 5074SOL    HW216122   3.050   2.228   1.572
 5075SOL     OW16123   6.449   3.008   0.718
 5075SOL    HW116124   6.422   3.077   0.786
 5075SOL    HW216125   6.464   3.053   0.630
 5076SOL     OW16126   0.046   1.017   5.589
 5076SOL    HW116127   0.130   0.979   5.630
 5076SOL    HW216128   0.028   1.107   5.628
 5077SOL     OW16129   0.714   4.596   3.485
 5077SOL    HW116130   0.739   4.559   3.395
 5077SOL    HW216131   0.711   4.696   3.479
 5078SOL     OW16132   6.448   2.330   3.735
 5078SOL    HW116133   6.352   2.338   3.764
 5078SOL    HW216134   6.454   2.261   3.663
 5079SOL     OW16135   1.444   3.541   4.916
 5079SOL    HW116136   1.358   3.570   4.874
 5079SOL    HW216137   1.425   3.477   4.990
 5080SOL     OW16138   6.009   5.673   6.669
 5080SOL    HW116139   6.063   5.603   6.623
 5080SOL    HW216140   6.033   5.763   6.633
 5081SOL     OW16141   2.395   4.472   5.252
 5081SOL    HW116142   2.411   4.379   5.287
 5081SOL    HW216143   2.468   4.532   5.285
 5082SOL     OW16144   5.683   5.792   1.377
 5082SOL    HW116145   5.755   5.728   1.350
 5082SOL    HW216146   5.652   5.771   1.469
 5083SOL     OW16147   2.355   0.232   3.683
 5083SOL    HW116148   2.378   0.250   3.587
 5083SOL    HW216149   2.387   0.141   3.709
 5084SOL     OW16150   3.555   4.457   5.748
 5084SOL    HW116151   3.581   4.373   5.699
 5084SOL    HW216152   3.508   4.519   5.685
 5085SOL     OW16153   0.197   4.772   5.543
 5085SOL    HW116154   0.261   4.698   5.561
 5085SOL    HW216155   0.230   4.827   5.466
 5086SOL     OW16156   1.392   4.748   2.255
 5086SOL    HW116157   1.356   4.722   2.345
 5086SOL    HW216158   1.436   4.837   2.262
 5087SOL     OW16159   0.103   4.987   2.218
 5087SOL    HW116160   0.075   4.947   2.131
 5087SOL    HW216161   0.194   4.953   2.242
 5088SOL     OW16162   4.577   5.260   2.468
 5088SOL    HW116163   4.500   5.227   2.413
 5088SOL    HW216164   4.544   5.323   2.537
 5089SOL     OW16165   5.155   5.883   6.009
 5089SOL    HW116166   5.111   5.966   5.975
 5089SOL    HW216167   5.187   5.829   5.931
 5090SOL     OW16168   2.549   6.492   4.930
 5090SOL    HW116169   2.577   6.461   5.021
 5090SOL    HW216170   2.620   6.467   4.864
 5091SOL     OW16171   6.973   6.356   6.226
 5091SOL    HW116172   0.006   6.351   6.306
 5091SOL    HW216173   6.882   6.320   6.250
 5092SOL     OW16174   3.743   3.414   4.075
 5092SOL    HW116175   3.765   3.384   3.982
 5092SOL    HW216176   3.718   3.335   4.131
 5093SOL     OW16177   2.715   2.195   2.758
 5093SOL    HW116178   2.642   2.132   2.784
 5093SOL    HW216179   2.803   2.149   2.769
 5094SOL     OW16180   1.471   5.969   4.604
 5094SOL    HW116181   1.387   5.916   4.611
 5094SOL    HW216182   1.485   5.996   4.508
 5095SOL     OW16183   0.023   1.346   3.240
 5095SOL    HW116184   0.074   1.363   3.156
 5095SOL    HW216185   0.083   1.306   3.309
 5096SOL     OW16186   6.659   3.216   5.577
 5096SOL    HW116187   6.667   3.225   5.477
 5096SOL    HW216188   6.749   3.227   5.618
 5097SOL     OW16189   0.817   0.503   5.677
 5097SOL    HW116190   0.856   0.443   5.746
 5097SOL    HW216191   0.844   0.472   5.586
 5098SOL     OW16192   3.456   2.770   0.299
 5098SOL    HW116193   3.410   2.826   0.230
 5098SOL    HW216194   3.549   2.751   0.270
 5099SOL     OW16195   1.681   6.347   2.109
 5099SOL    HW116196   1.676   6.418   2.038
 5099SOL    HW216197   1.766   6.296   2.099
 5100SOL     OW16198   5.147   3.170   2.072
 5100SOL    HW116199   5.145   3.165   1.973
 5100SOL    HW216200   5.056   3.196   2.106
 5101SOL     OW16201   3.160   0.419   5.093
 5101SOL    HW116202   3.155   0.504   5.145
 5101SOL    HW216203   3.086   0.358   5.121
 5102SOL     OW16204   5.150   5.246   4.744
 5102SOL    HW116205   5.059   5.253   4.786
 5102SOL    HW216206   5.209   5.191   4.803
 5103SOL     OW16207   1.156   0.623   5.943
 5103SOL    HW116208   1.185   0.717   5.959
 5103SOL    HW216209   1.056   0.620   5.934
 5104SOL     OW16210   3.934   3.336   3.022
 5104SOL    HW116211   4.004   3.382   3.078
 5104SOL    HW216212   3.914   3.392   2.942
 5105SOL     OW16213   4.230   3.061   0.073
 5105SOL    HW116214   4.188   3.017   0.152
 5105SOL    HW216215   4.184   3.031   7.016
 5106SOL     OW16216   3.561   1.795   1.442
 5106SOL    HW116217   3.642   1.815   1.497
 5106SOL    HW216218   3.582   1.812   1.345
 5107SOL     OW16219   5.993   4.894   0.707
 5107SOL    HW116220   5.924   4.825   0.688
 5107SOL    HW216221   6.006   4.951   0.626
 5108SOL     OW16222   3.537   4.845   1.226
 5108SOL    HW116223   3.444   4.855   1.191
 5108SOL    HW216224   3.583   4.934   1.224
 5109SOL     OW16225   1.276   2.899   2.808
 5109SOL    HW116226   1.368   2.887   2.772
 5109SOL    HW216227   1.253   2.822   2.867
 5110SOL     OW16228   5.086   6.909   5.374
 5110SOL    HW116229   5.137   6.823   5.372
 5110SOL    HW216230   5.088   6.950   5.282
 5111SOL     OW16231   1.379   5.490   5.492
 5111SOL    HW116232   1.461   5.450   5.453
 5111SOL    HW216233   1.379   5.589   5.475
 5112SOL     OW16234   1.264   6.069   3.484
 5112SOL    HW116235   1.325   6.148   3.491
 5112SOL    HW216236   1.317   5.985   3.485
 5113SOL     OW16237   1.906   4.343   0.390
 5113SOL    HW116238   1.944   4.380   0.305
 5113SOL    HW216239   1.980   4.307   0.447
 5114SOL     OW16240   4.737   4.576   1.707
 5114SOL    HW116241   4.697   4.665   1.688
 5114SOL    HW216242   4.822   4.588   1.759
 5115SOL     OW16243   1.729   3.805   0.658
 5115SOL    HW116244   1.657   3.785   0.725
 5115SOL    HW216245   1.729   3.902   0.637
 5116SOL     OW16246   0.859   6.790   5.258
 5116SOL    HW116247   0.796   6.742   5.318
 5116SOL    HW216248   0.807   6.846   5.192
 5117SOL     OW16249   0.155   2.278   3.603
 5117SOL    HW116250   0.243   2.230   3.597
 5117SOL    HW216251   0.161   2.348   3.674
 5118SOL     OW16252   4.468   5.754   0.355
 5118SOL    HW116253   4.416   5.725   0.274
 5118SOL    HW216254   4.538   5.820   0.328
 5119SOL     OW16255   5.894   1.865   0.575
 5119SOL    HW116256   5.846   1.777   0.567
 5119SOL    HW216257   5.915   1.883   0.671
 5120SOL     OW16258   4.884   6.873   0.021
 5120SOL    HW116259   4.963   6.819   7.019
 5120SOL    HW216260   4.849   6.838   0.109
 5121SOL     OW16261   1.255   3.215   6.197
 5121SOL    HW116262   1.229   3.311   6.190
 5121SOL    HW216263   1.269   3.191   6.293
 5122SOL     OW16264   4.757   4.777   3.819
 5122SOL    HW116265   4.658   4.786   3.809
 5122SOL    HW216266   4.777   4.719   3.898
 5123SOL     OW16267   4.869   3.200   2.508
 5123SOL    HW116268   4.936   3.268   2.478
 5123SOL    HW216269   4.865   3.126   2.441
 5124SOL     OW16270   1.326   5.801   4.942
 5124SOL    HW116271   1.306   5.892   4.905
 5124SOL    HW216272   1.275   5.787   5.026
 5125SOL     OW16273   6.372   1.642   3.747
 5125SOL    HW116274   6.363   1.643   3.648
 5125SOL    HW216275   6.468   1.628   3.772
 5126SOL     OW16276   1.809   0.973   2.095
 5126SOL    HW116277   1.860   0.900   2.050
 5126SOL    HW216278   1.814   0.961   2.194
 5127SOL     OW16279   2.532   6.342   0.179
 5127SOL    HW116280   2.526   6.244   0.161
 5127SOL    HW216281   2.470   6.391   0.117
 5128SOL     OW16282   5.447   6.949   1.639
 5128SOL    HW116283   5.466   0.012   1.679
 5128SOL    HW216284   5.494   6.878   1.690
 5129SOL     OW16285   6.563   6.586   0.558
 5129SOL    HW116286   6.579   6.513   0.492
 5129SOL    HW216287   6.470   6.622   0.546
 5130SOL     OW16288   6.019   5.004   2.452
 5130SOL    HW116289   5.979   5.025   2.542
 5130SOL    HW216290   5.978   5.064   2.383
 5131SOL     OW16291   1.845   2.512   2.581
 5131SOL    HW116292   1.818   2.416   2.567
 5131SOL    HW216293   1.904   2.519   2.661
 5132SOL     OW16294   2.786   6.004   5.155
 5132SOL    HW116295   2.771   6.080   5.218
 5132SOL    HW216296   2.836   6.036   5.075
 5133SOL     OW16297   3.542   6.104   5.367
 5133SOL    HW116298   3.465   6.146   5.415
 5133SOL    HW216299   3.616   6.171   5.359
 5134SOL     OW16300   6.406   3.608   6.100
 5134SOL    HW116301   6.363   3.586   6.012
 5134SOL    HW216302   6.340   3.656   6.158
 5135SOL     OW16303   6.062   1.314   4.590
 5135SOL    HW116304   6.098   1.263   4.512
 5135SOL    HW216305   6.137   1.353   4.643
 5136SOL     OW16306   3.939   1.977   5.764
 5136SOL    HW116307   3.861   2.020   5.810
 5136SOL    HW216308   3.992   1.925   5.831
 5137SOL     OW16309   3.472   3.450   6.897
 5137SOL    HW116310   3.398   3.516   6.884
 5137SOL    HW216311   3.489   3.403   6.810
 5138SOL     OW16312   2.468   3.246   6.248
 5138SOL    HW116313   2.444   3.333   6.290
 5138SOL    HW216314   2.505   3.185   6.318
 5139SOL     OW16315   0.441   0.042   3.607
 5139SOL    HW116316   0.424   6.973   3.584
 5139SOL    HW216317   0.454   0.095   3.523
 5140SOL     OW16318   3.089   2.831   1.800
 5140SOL    HW116319   3.003   2.808   1.756
 5140SOL    HW216320   3.162   2.836   1.732
 5141SOL     OW16321   0.599   4.260   6.018
 5141SOL    HW116322   0.638   4.341   6.062
 5141SOL    HW216323   0.626   4.258   5.922
 5142SOL     OW16324   5.943   2.823   2.739
 5142SOL    HW116325   5.977   2.863   2.654
 5142SOL    HW216326   5.999   2.743   2.762
 5143SOL     OW16327   6.688   5.250   5.062
 5143SOL    HW116328   6.710   5.300   5.146
 5143SOL    HW216329   6.695   5.152   5.079
 5144SOL     OW16330   1.892   1.512   5.192
 5144SOL    HW116331   1.854   1.580   5.129
 5144SOL    HW216332   1.963   1.555   5.248
 5145SOL     OW16333   3.724   5.418   5.845
 5145SOL    HW116334   3.713   5.376   5.936
 5145SOL    HW216335   3.776   5.502   5.853
 5146SOL     OW16336   2.704   5.042   6.698
 5146SOL    HW116337   2.761   5.106   6.647
 5146SOL    HW216338   2.762   4.974   6.744
 5147SOL     OW16339   6.753   5.206   6.381
 5147SOL    HW116340   6.738   5.235   6.287
 5147SOL    HW216341   6.718   5.113   6.394
 5148SOL     OW16342   0.429   0.626   0.952
 5148SOL    HW116343   0.478   0.576   1.023
 5148SOL    HW216344   0.416   0.721   0.980
 5149SOL     OW16345   0.351   0.582   5.652
 5149SOL    HW116346   0.351   0.644   5.730
 5149SOL    HW216347   0.269   0.524   5.654
 5150SOL     OW16348   2.416   5.703   4.397
 5150SOL    HW116349   2.371   5.791   4.381
 5150SOL    HW216350   2.455   5.669   4.312
 5151SOL     OW16351   4.427   0.824   5.982
 5151SOL    HW116352   4.469   0.814   6.072
 5151SOL    HW216353   4.381   0.739   5.957
 5152SOL     OW16354   0.622   4.806   0.426
 5152SOL    HW116355   0.597   4.864   0.348
 5152SOL    HW216356   0.707   4.842   0.467
 5153SOL     OW16357   1.924   2.230   1.072
 5153SOL    HW116358   1.914   2.146   1.125
 5153SOL    HW216359   1.925   2.208   0.974
 5154SOL     OW16360   1.446   4.147   5.706
 5154SOL    HW116361   1.464   4.049   5.695
 5154SOL    HW216362   1.347   4.162   5.712
 5155SOL     OW16363   3.649   0.775   2.892
 5155SOL    HW116364   3.641   0.689   2.942
 5155SOL    HW216365   3.719   0.766   2.821
 5156SOL     OW16366   5.479   2.896   5.991
 5156SOL    HW116367   5.516   2.826   6.051
 5156SOL    HW216368   5.532   2.981   6.002
 5157SOL     OW16369   6.185   2.476   4.075
 5157SOL    HW116370   6.191   2.465   4.174
 5157SOL    HW216371   6.100   2.524   4.052
 5158SOL     OW16372   3.965   0.511   0.855
 5158SOL    HW116373   4.010   0.598   0.834
 5158SOL    HW216374   3.904   0.524   0.933
 5159SOL     OW16375   2.050   3.457   5.099
 5159SOL    HW116376   2.084   3.395   5.170
 5159SOL    HW216377   2.005   3.535   5.143
 5160SOL     OW16378   1.907   2.790   4.170
 5160SOL    HW116379   1.986   2.728   4.169
 5160SOL    HW216380   1.874   2.800   4.264
 5161SOL     OW16381   1.727   3.263   6.462
 5161SOL    HW116382   1.693   3.341   6.515
 5161SOL    HW216383   1.827   3.267   6.459
 5162SOL     OW16384   6.419   4.988   4.208
 5162SOL    HW116385   6.345   5.043   4.247
 5162SOL    HW216386   6.506   5.015   4.250
 5163SOL     OW16387   5.631   4.108   0.738
 5163SOL    HW116388   5.653   4.039   0.807
 5163SOL    HW216389   5.662   4.077   0.648
 5164SOL     OW16390   5.854   5.797   5.654
 5164SOL    HW116391   5.915   5.831   5.726
 5164SOL    HW216392   5.775   5.750   5.696
 5165SOL     OW16393   6.443   3.828   4.588
 5165SOL    HW116394   6.500   3.858   4.665
 5165SOL    HW216395   6.497   3.831   4.503
 5166SOL     OW16396   1.796   6.911   1.754
 5166SOL    HW116397   1.777   6.919   1.656
 5166SOL    HW216398   1.709   6.908   1.804
 5167SOL     OW16399   1.566   0.527   5.692
 5167SOL    HW116400   1.584   0.596   5.621
 5167SOL    HW216401   1.471   0.497   5.686
 5168SOL     OW16402   4.079   1.895   3.147
 5168SOL    HW116403   4.098   1.797   3.136
 5168SOL    HW216404   4.133   1.947   3.081
 5169SOL     OW16405   4.063   4.305   6.110
 5169SOL    HW116406   4.098   4.382   6.163
 5169SOL    HW216407   3.966   4.292   6.130
 5170SOL     OW16408   4.275   5.437   4.307
 5170SOL    HW116409   4.208   5.430   4.234
 5170SOL    HW216410   4.228   5.440   4.395
 5171SOL     OW16411   2.779   4.841   4.871
 5171SOL    HW116412   2.781   4.921   4.931
 5171SOL    HW216413   2.758   4.759   4.925
 5172SOL     OW16414   1.983   4.544   0.174
 5172SOL    HW116415   1.958   4.591   0.089
 5172SOL    HW216416   2.067   4.585   0.211
 5173SOL     OW16417   6.684   2.855   6.070
 5173SOL    HW116418   6.718   2.768   6.105
 5173SOL    HW216419   6.754   2.925   6.080
 5174SOL     OW16420   1.755   4.657   5.961
 5174SOL    HW116421   1.693   4.733   5.942
 5174SOL    HW216422   1.828   4.656   5.892
 5175SOL     OW16423   0.176   5.353   5.878
 5175SOL    HW116424   0.202   5.437   5.831
 5175SOL    HW216425   0.241   5.335   5.952
 5176SOL     OW16426   5.068   4.275   5.810
 5176SOL    HW116427   5.006   4.348   5.782
 5176SOL    HW216428   5.157   4.287   5.766
 5177SOL     OW16429   4.999   5.669   6.367
 5177SOL    HW116430   4.980   5.605   6.441
 5177SOL    HW216431   4.916   5.685   6.314
 5178SOL     OW16432   2.696   2.038   1.316
 5178SOL    HW116433   2.722   2.134   1.323
 5178SOL    HW216434   2.758   1.982   1.372
 5179SOL     OW16435   3.307   6.249   5.400
 5179SOL    HW116436   3.326   6.329   5.343
 5179SOL    HW216437   3.217   6.212   5.375
 5180SOL     OW16438   3.087   1.598   0.153
 5180SOL    HW116439   3.066   1.510   0.109
 5180SOL    HW216440   3.131   1.658   0.087
 5181SOL     OW16441   2.836   5.915   2.684
 5181SOL    HW116442   2.793   5.957   2.764
 5181SOL    HW216443   2.765   5.895   2.616
 5182SOL     OW16444   4.787   4.152   1.506
 5182SOL    HW116445   4.718   4.190   1.567
 5182SOL    HW216446   4.760   4.168   1.411
 5183SOL     OW16447   3.797   1.117   3.634
 5183SOL    HW116448   3.773   1.075   3.547
 5183SOL    HW216449   3.804   1.216   3.622
 5184SOL     OW16450   0.929   2.203   3.211
 5184SOL    HW116451   1.018   2.170   3.243
 5184SOL    HW216452   0.916   2.176   3.116
 5185SOL     OW16453   3.551   6.988   1.927
 5185SOL    HW116454   3.603   7.019   1.847
 5185SOL    HW216455   3.465   0.012   1.932
 5186SOL     OW16456   5.458   4.813   0.064
 5186SOL    HW116457   5.442   4.888   0.128
 5186SOL    HW216458   5.555   4.790   0.063
 5187SOL     OW16459   5.293   1.500   4.608
 5187SOL    HW116460   5.294   1.565   4.683
 5187SOL    HW216461   5.292   1.549   4.521
 5188SOL     OW16462   1.158   2.969   3.825
 5188SOL    HW116463   1.204   2.901   3.768
 5188SOL    HW216464   1.225   3.017   3.882
 5189SOL     OW16465   4.377   5.846   6.959
 5189SOL    HW116466   4.295   5.888   6.996
 5189SOL    HW216467   4.370   5.746   6.967
 5190SOL     OW16468   2.179   3.067   2.705
 5190SOL    HW116469   2.083   3.057   2.731
 5190SOL    HW216470   2.223   2.977   2.705
 5191SOL     OW16471   5.031   0.435   2.020
 5191SOL    HW116472   5.118   0.463   1.981
 5191SOL    HW216473   4.996   0.356   1.969
 5192SOL     OW16474   6.130   4.488   1.946
 5192SOL    HW116475   6.079   4.511   2.030
 5192SOL    HW216476   6.122   4.564   1.881
 5193SOL     OW16477   4.752   4.179   2.229
 5193SOL    HW116478   4.806   4.097   2.209
 5193SOL    HW216479   4.694   4.201   2.149
 5194SOL     OW16480   4.971   1.193   0.145
 5194SOL    HW116481   4.902   1.141   0.095
 5194SOL    HW216482   4.934   1.282   0.172
 5195SOL     OW16483   6.358   6.410   5.135
 5195SOL    HW116484   6.374   6.428   5.232
 5195SOL    HW216485   6.265   6.439   5.111
 5196SOL     OW16486   0.375   3.618   2.206
 5196SOL    HW116487   0.300   3.629   2.272
 5196SOL    HW216488   0.368   3.529   2.162
 5197SOL     OW16489   3.393   5.659   5.184
 5197SOL    HW116490   3.457   5.603   5.238
 5197SOL    HW216491   3.377   5.746   5.231
 5198SOL     OW16492   4.050   0.993   5.075
 5198SOL    HW116493   3.972   0.986   5.137
 5198SOL    HW216494   4.092   0.903   5.064
 5199SOL     OW16495   0.555   5.569   1.519
 5199SOL    HW116496   0.520   5.612   1.602
 5199SOL    HW216497   0.552   5.469   1.529
 5200SOL     OW16498   0.345   6.921   5.155
 5200SOL    HW116499   0.330   7.019   5.169
 5200SOL    HW216500   0.306   6.894   5.067
 5201SOL     OW16501   5.983   4.872   5.120
 5201SOL    HW116502   6.082   4.871   5.136
 5201SOL    HW216503   5.942   4.790   5.159
 5202SOL     OW16504   3.820   2.962   5.878
 5202SOL    HW116505   3.794   2.868   5.857
 5202SOL    HW216506   3.753   3.002   5.941
 5203SOL     OW16507   1.384   0.256   6.296
 5203SOL    HW116508   1.354   0.312   6.219
 5203SOL    HW216509   1.461   0.199   6.268
 5204SOL     OW16510   1.993   0.626   0.911
 5204SOL    HW116511   2.075   0.659   0.865
 5204SOL    HW216512   2.016   0.601   1.006
 5205SOL     OW16513   6.845   0.162   1.301
 5205SOL    HW116514   6.875   0.249   1.263
 5205SOL    HW216515   6.923   0.099   1.307
 5206SOL     OW16516   1.202   4.149   4.268
 5206SOL    HW116517   1.211   4.248   4.257
 5206SOL    HW216518   1.249   4.120   4.351
 5207SOL     OW16519   5.667   6.697   4.718
 5207SOL    HW116520   5.718   6.647   4.788
 5207SOL    HW216521   5.579   6.653   4.702
 5208SOL     OW16522   6.465   1.663   0.518
 5208SOL    HW116523   6.511   1.715   0.591
 5208SOL    HW216524   6.532   1.637   0.449
 5209SOL     OW16525   5.392   6.420   3.594
 5209SOL    HW116526   5.491   6.436   3.597
 5209SOL    HW216527   5.344   6.498   3.634
 5210SOL     OW16528   5.662   4.509   1.004
 5210SOL    HW116529   5.706   4.500   1.093
 5210SOL    HW216530   5.686   4.431   0.947
 5211SOL     OW16531   5.483   2.780   4.815
 5211SOL    HW116532   5.569   2.757   4.861
 5211SOL    HW216533   5.409   2.724   4.853
 5212SOL     OW16534   6.903   3.805   0.632
 5212SOL    HW116535   6.945   3.804   0.542
 5212SOL    HW216536   6.973   3.791   0.702
 5213SOL     OW16537   4.157   3.436   2.827
 5213SOL    HW116538   4.097   3.371   2.781
 5213SOL    HW216539   4.249   3.397   2.836
 5214SOL     OW16540   5.649   3.185   5.806
 5214SOL    HW116541   5.561   3.230   5.791
 5214SOL    HW216542   5.683   3.207   5.898
 5215SOL     OW16543   7.007   5.209   5.154
 5215SOL    HW116544   6.954   5.291   5.133
 5215SOL    HW216545   0.054   5.199   5.086
 5216SOL     OW16546   5.709   5.101   1.153
 5216SOL    HW116547   5.753   5.115   1.065
 5216SOL    HW216548   5.699   5.003   1.171
 5217SOL     OW16549   4.689   7.011   2.721
 5217SOL    HW116550   4.619   0.029   2.778
 5217SOL    HW216551   4.744   6.950   2.777
 5218SOL     OW16552   6.444   6.970   0.127
 5218SOL    HW116553   6.425   6.927   0.215
 5218SOL    HW216554   6.441   6.901   0.055
 5219SOL     OW16555   3.550   1.302   5.244
 5219SOL    HW116556   3.601   1.342   5.168
 5219SOL    HW216557   3.599   1.317   5.330
 5220SOL     OW16558   2.412   4.868   4.402
 5220SOL    HW116559   2.328   4.825   4.431
 5220SOL    HW216560   2.469   4.802   4.354
 5221SOL     OW16561   5.172   6.048   1.474
 5221SOL    HW116562   5.156   6.014   1.381
 5221SOL    HW216563   5.200   6.144   1.469
 5222SOL     OW16564   0.214   3.450   1.980
 5222SOL    HW116565   0.148   3.516   2.017
 5222SOL    HW216566   0.201   3.362   2.026
 5223SOL     OW16567   6.407   2.790   0.983
 5223SOL    HW116568   6.496   2.809   1.025
 5223SOL    HW216569   6.350   2.872   0.989
 5224SOL     OW16570   1.305   1.965   5.114
 5224SOL    HW116571   1.259   2.021   5.184
 5224SOL    HW216572   1.294   1.868   5.136
 5225SOL     OW16573   6.755   1.846   4.844
 5225SOL    HW116574   6.822   1.773   4.849
 5225SOL    HW216575   6.802   1.933   4.827
 5226SOL     OW16576   0.372   6.166   4.437
 5226SOL    HW116577   0.429   6.107   4.493
 5226SOL    HW216578   0.366   6.257   4.479
 5227SOL     OW16579   0.799   3.532   6.027
 5227SOL    HW116580   0.832   3.620   5.993
 5227SOL    HW216581   0.708   3.515   5.990
 5228SOL     OW16582   1.017   2.219   5.576
 5228SOL    HW116583   0.984   2.142   5.631
 5228SOL    HW216584   1.053   2.186   5.490
 5229SOL     OW16585   3.503   2.046   5.836
 5229SOL    HW116586   3.517   2.119   5.904
 5229SOL    HW216587   3.405   2.024   5.832
 5230SOL     OW16588   6.376   0.281   2.605
 5230SOL    HW116589   6.433   0.243   2.678
 5230SOL    HW216590   6.287   0.235   2.604
 5231SOL     OW16591   6.217   3.838   2.390
 5231SOL    HW116592   6.287   3.811   2.457
 5231SOL    HW216593   6.213   3.937   2.384
 5232SOL     OW16594   1.688   2.379   5.775
 5232SOL    HW116595   1.621   2.452   5.758
 5232SOL    HW216596   1.776   2.420   5.801
 5233SOL     OW16597   3.730   0.078   3.381
 5233SOL    HW116598   3.658   0.018   3.346
 5233SOL    HW216599   3.745   0.152   3.316
 5234SOL     OW16600   2.836   2.726   6.167
 5234SOL    HW116601   2.766   2.671   6.213
 5234SOL    HW216602   2.811   2.737   6.071
 5235SOL     OW16603   2.534   1.870   1.489
 5235SOL    HW116604   2.484   1.909   1.566
 5235SOL    HW216605   2.563   1.942   1.427
 5236SOL     OW16606   3.059   5.010   1.881
 5236SOL    HW116607   3.047   4.934   1.817
 5236SOL    HW216608   2.996   5.084   1.857
 5237SOL     OW16609   1.611   1.753   1.750
 5237SOL    HW116610   1.562   1.690   1.689
 5237SOL    HW216611   1.647   1.701   1.828
 5238SOL     OW16612   0.069   0.341   3.049
 5238SOL    HW116613   0.154   0.339   3.101
 5238SOL    HW216614   7.017   0.332   3.111
 5239SOL     OW16615   2.578   4.458   1.049
 5239SOL    HW116616   2.479   4.453   1.062
 5239SOL    HW216617   2.608   4.380   0.995
 5240SOL     OW16618   2.287   3.905   6.060
 5240SOL    HW116619   2.263   4.002   6.068
 5240SOL    HW216620   2.238   3.853   6.130
 5241SOL     OW16621   2.222   6.790   2.693
 5241SOL    HW116622   2.198   6.801   2.789
 5241SOL    HW216623   2.157   6.840   2.636
 5242SOL     OW16624   3.636   6.836   6.206
 5242SOL    HW116625   3.658   6.742   6.179
 5242SOL    HW216626   3.647   6.846   6.305
 5243SOL     OW16627   2.882   6.004   3.080
 5243SOL    HW116628   2.954   5.982   3.014
 5243SOL    HW216629   2.923   6.016   3.170
 5244SOL     OW16630   4.361   1.126   6.738
 5244SOL    HW116631   4.316   1.115   6.826
 5244SOL    HW216632   4.292   1.146   6.668
 5245SOL     OW16633   3.236   4.276   1.684
 5245SOL    HW116634   3.235   4.188   1.731
 5245SOL    HW216635   3.158   4.332   1.715
 5246SOL     OW16636   5.832   3.962   6.277
 5246SOL    HW116637   5.803   4.057   6.269
 5246SOL    HW216638   5.884   3.937   6.195
 5247SOL     OW16639   5.093   1.742   6.662
 5247SOL    HW116640   5.094   1.688   6.578
 5247SOL    HW216641   5.030   1.819   6.652
 5248SOL     OW16642   5.596   1.444   4.039
 5248SOL    HW116643   5.610   1.530   4.087
 5248SOL    HW216644   5.538   1.384   4.094
 5249SOL     OW16645   0.015   5.097   1.122
 5249SOL    HW116646   6.998   5.008   1.137
 5249SOL    HW216647   7.004   5.164   1.185
 5250SOL     OW16648   2.484   5.535   0.913
 5250SOL    HW116649   2.470   5.508   0.818
 5250SOL    HW216650   2.423   5.611   0.936
 5251SOL     OW16651   0.276   4.893   0.207
 5251SOL    HW116652   0.358   4.912   0.153
 5251SOL    HW216653   0.294   4.817   0.269
 5252SOL     OW16654   3.550   5.577   2.831
 5252SOL    HW116655   3.535   5.622   2.743
 5252SOL    HW216656   3.554   5.647   2.903
 5253SOL     OW16657   0.497   5.856   4.950
 5253SOL    HW116658   0.479   5.794   4.873
 5253SOL    HW216659   0.509   5.803   5.034
 5254SOL     OW16660   4.786   5.751   2.457
 5254SOL    HW116661   4.814   5.728   2.364
 5254SOL    HW216662   4.856   5.720   2.521
 5255SOL     OW16663   6.604   1.689   5.784
 5255SOL    HW116664   6.671   1.671   5.856
 5255SOL    HW216665   6.640   1.656   5.697
 5256SOL     OW16666   5.942   1.650   2.517
 5256SOL    HW116667   5.848   1.632   2.487
 5256SOL    HW216668   5.945   1.736   2.567
 5257SOL     OW16669   4.392   2.222   6.543
 5257SOL    HW116670   4.465   2.279   6.506
 5257SOL    HW216671   4.354   2.166   6.469
 5258SOL     OW16672   4.823   1.543   5.189
 5258SOL    HW116673   4.830   1.505   5.281
 5258SOL    HW216674   4.745   1.605   5.184
 5259SOL     OW16675   5.641   5.030   3.780
 5259SOL    HW116676   5.636   5.031   3.879
 5259SOL    HW216677   5.579   4.960   3.744
 5260SOL     OW16678   2.428   5.981   1.721
 5260SOL    HW116679   2.340   6.016   1.751
 5260SOL    HW216680   2.416   5.891   1.678
 5261SOL     OW16681   5.875   4.789   6.895
 5261SOL    HW116682   5.902   4.870   6.947
 5261SOL    HW216683   5.910   4.797   6.802
 5262SOL     OW16684   1.556   1.215   1.667
 5262SOL    HW116685   1.593   1.274   1.596
 5262SOL    HW216686   1.629   1.158   1.705
 5263SOL     OW16687   2.194   6.367   3.103
 5263SOL    HW116688   2.160   6.458   3.081
 5263SOL    HW216689   2.271   6.344   3.043
 5264SOL     OW16690   6.472   2.583   2.007
 5264SOL    HW116691   6.433   2.502   1.964
 5264SOL    HW216692   6.545   2.620   1.950
 5265SOL     OW16693   6.645   5.885   5.505
 5265SOL    HW116694   6.549   5.858   5.514
 5265SOL    HW216695   6.652   5.984   5.518
 5266SOL     OW16696   1.282   6.935   6.280
 5266SOL    HW116697   1.268   6.877   6.361
 5266SOL    HW216698   1.380   6.949   6.266
 5267SOL     OW16699   5.695   1.991   4.134
 5267SOL    HW116700   5.757   2.043   4.075
 5267SOL    HW216701   5.601   2.008   4.106
 5268SOL     OW16702   5.357   6.919   6.244
 5268SOL    HW116703   5.344   6.856   6.321
 5268SOL    HW216704   5.388   7.007   6.278
 5269SOL     OW16705   1.339   0.229   3.900
 5269SOL    HW116706   1.385   0.318   3.905
 5269SOL    HW216707   1.400   0.162   3.858
 5270SOL     OW16708   0.490   2.135   6.238
 5270SOL    HW116709   0.491   2.206   6.168
 5270SOL    HW216710   0.408   2.078   6.227
 5271SOL     OW16711   1.292   4.663   3.801
 5271SOL    HW116712   1.261   4.757   3.814
 5271SOL    HW216713   1.392   4.660   3.798
 5272SOL     OW16714   4.113   0.794   6.220
 5272SOL    HW116715   4.161   0.867   6.269
 5272SOL    HW216716   4.019   0.789   6.253
 5273SOL     OW16717   3.092   1.673   2.855
 5273SOL    HW116718   3.135   1.756   2.891
 5273SOL    HW216719   3.080   1.682   2.756
 5274SOL     OW16720   5.482   5.161   1.316
 5274SOL    HW116721   5.556   5.136   1.253
 5274SOL    HW216722   5.515   5.159   1.410
 5275SOL     OW16723   5.100   1.874   6.432
 5275SOL    HW116724   5.169   1.944   6.449
 5275SOL    HW216725   5.011   1.917   6.419
 5276SOL     OW16726   4.225   6.393   1.792
 5276SOL    HW116727   4.271   6.312   1.755
 5276SOL    HW216728   4.285   6.472   1.785
 5277SOL     OW16729   2.432   2.686   1.966
 5277SOL    HW116730   2.363   2.742   2.011
 5277SOL    HW216731   2.507   2.745   1.935
 5278SOL     OW16732   3.644   3.614   2.583
 5278SOL    HW116733   3.697   3.627   2.500
 5278SOL    HW216734   3.655   3.695   2.642
 5279SOL     OW16735   1.579   6.081   2.763
 5279SOL    HW116736   1.574   6.139   2.845
 5279SOL    HW216737   1.569   6.138   2.682
 5280SOL     OW16738   3.677   0.864   4.564
 5280SOL    HW116739   3.698   0.766   4.563
 5280SOL    HW216740   3.579   0.876   4.580
 5281SOL     OW16741   0.048   2.393   4.056
 5281SOL    HW116742   0.083   2.334   4.129
 5281SOL    HW216743   0.115   2.465   4.036
 5282SOL     OW16744   4.877   1.981   1.190
 5282SOL    HW116745   4.909   1.895   1.150
 5282SOL    HW216746   4.886   2.054   1.122
 5283SOL     OW16747   4.784   4.467   6.220
 5283SOL    HW116748   4.862   4.525   6.196
 5283SOL    HW216749   4.709   4.484   6.157
 5284SOL     OW16750   4.840   3.053   4.083
 5284SOL    HW116751   4.851   3.150   4.063
 5284SOL    HW216752   4.843   3.001   3.998
 5285SOL     OW16753   4.225   6.674   2.598
 5285SOL    HW116754   4.132   6.701   2.623
 5285SOL    HW216755   4.254   6.596   2.654
 5286SOL     OW16756   2.125   5.070   2.054
 5286SOL    HW116757   2.188   4.994   2.072
 5286SOL    HW216758   2.051   5.037   1.994
 5287SOL     OW16759   0.704   1.208   2.551
 5287SOL    HW116760   0.737   1.137   2.490
 5287SOL    HW216761   0.672   1.166   2.636
 5288SOL     OW16762   4.219   0.647   0.592
 5288SOL    HW116763   4.242   0.677   0.500
 5288SOL    HW216764   4.150   0.709   0.631
 5289SOL     OW16765   1.349   5.777   1.295
 5289SOL    HW116766   1.405   5.837   1.353
 5289SOL    HW216767   1.319   5.828   1.214
 5290SOL     OW16768   5.601   5.984   0.010
 5290SOL    HW116769   5.691   6.015   0.042
 5290SOL    HW216770   5.552   5.940   0.085
 5291SOL     OW16771   1.208   5.632   6.427
 5291SOL    HW116772   1.155   5.674   6.353
 5291SOL    HW216773   1.263   5.702   6.472
 5292SOL     OW16774   5.303   1.652   0.887
 5292SOL    HW116775   5.204   1.645   0.871
 5292SOL    HW216776   5.319   1.670   0.984
 5293SOL     OW16777   1.432   1.646   3.829
 5293SOL    HW116778   1.438   1.609   3.921
 5293SOL    HW216779   1.513   1.702   3.810
 5294SOL     OW16780   4.430   2.791   6.073
 5294SOL    HW116781   4.427   2.828   5.980
 5294SOL    HW216782   4.391   2.699   6.073
 5295SOL     OW16783   6.561   1.129   2.546
 5295SOL    HW116784   6.541   1.037   2.580
 5295SOL    HW216785   6.481   1.165   2.498
 5296SOL     OW16786   0.558   3.099   6.809
 5296SOL    HW116787   0.585   3.099   6.906
 5296SOL    HW216788   0.470   3.145   6.799
 5297SOL     OW16789   1.268   2.977   2.000
 5297SOL    HW116790   1.283   2.930   1.913
 5297SOL    HW216791   1.271   2.910   2.074
 5298SOL     OW16792   1.120   4.373   1.745
 5298SOL    HW116793   1.046   4.378   1.812
 5298SOL    HW216794   1.133   4.278   1.717
 5299SOL     OW16795   3.003   0.285   1.133
 5299SOL    HW116796   3.027   0.238   1.048
 5299SOL    HW216797   3.070   0.262   1.204
 5300SOL     OW16798   0.514   4.888   3.745
 5300SOL    HW116799   0.429   4.839   3.766
 5300SOL    HW216800   0.560   4.914   3.831
 5301SOL     OW16801   4.221   0.483   0.225
 5301SOL    HW116802   4.258   0.569   0.188
 5301SOL    HW216803   4.192   0.424   0.150
 5302SOL     OW16804   6.307   4.065   3.335
 5302SOL    HW116805   6.274   4.038   3.245
 5302SOL    HW216806   6.254   4.143   3.368
 5303SOL     OW16807   1.944   4.887   3.514
 5303SOL    HW116808   1.882   4.808   3.514
 5303SOL    HW216809   2.038   4.854   3.527
 5304SOL     OW16810   4.635   2.923   5.639
 5304SOL    HW116811   4.554   2.952   5.589
 5304SOL    HW216812   4.621   2.830   5.675
 5305SOL     OW16813   2.891   1.303   4.311
 5305SOL    HW116814   2.872   1.360   4.231
 5305SOL    HW216815   2.981   1.260   4.301
 5306SOL     OW16816   2.545   6.544   4.265
 5306SOL    HW116817   2.520   6.454   4.299
 5306SOL    HW216818   2.464   6.591   4.229
 5307SOL     OW16819   3.916   0.175   0.206
 5307SOL    HW116820   3.878   0.188   0.297
 5307SOL    HW216821   3.878   0.092   0.165
 5308SOL     OW16822   6.646   1.514   1.978
 5308SOL    HW116823   6.727   1.572   1.965
 5308SOL    HW216824   6.636   1.454   1.899
 5309SOL     OW16825   3.626   3.888   4.870
 5309SOL    HW116826   3.663   3.811   4.922
 5309SOL    HW216827   3.526   3.883   4.869
 5310SOL     OW16828   5.680   2.860   0.745
 5310SOL    HW116829   5.754   2.831   0.684
 5310SOL    HW216830   5.611   2.910   0.692
 5311SOL     OW16831   0.401   6.373   6.510
 5311SOL    HW116832   0.422   6.445   6.576
 5311SOL    HW216833   0.370   6.291   6.558
 5312SOL     OW16834   0.669   2.979   2.025
 5312SOL    HW116835   0.601   2.906   2.016
 5312SOL    HW216836   0.761   2.940   2.022
 5313SOL     OW16837   0.609   6.223   0.819
 5313SOL    HW116838   0.598   6.165   0.900
 5313SOL    HW216839   0.572   6.314   0.837
 5314SOL     OW16840   3.474   5.258   1.080
 5314SOL    HW116841   3.487   5.241   0.982
 5314SOL    HW216842   3.563   5.276   1.122
 5315SOL     OW16843   5.499   2.426   2.053
 5315SOL    HW116844   5.494   2.513   2.005
 5315SOL    HW216845   5.411   2.380   2.048
 5316SOL     OW16846   5.739   5.462   4.211
 5316SOL    HW116847   5.765   5.389   4.148
 5316SOL    HW216848   5.716   5.544   4.158
 5317SOL     OW16849   6.548   5.632   2.343
 5317SOL    HW116850   6.633   5.620   2.291
 5317SOL    HW216851   6.560   5.704   2.411
 5318SOL     OW16852   0.248   2.517   4.339
 5318SOL    HW116853   0.200   2.521   4.427
 5318SOL    HW216854   0.346   2.506   4.355
 5319SOL     OW16855   3.657   6.969   2.663
 5319SOL    HW116856   3.642   6.932   2.571
 5319SOL    HW216857   3.613   0.032   2.670
 5320SOL     OW16858   6.751   3.301   5.943
 5320SOL    HW116859   6.765   3.268   5.850
 5320SOL    HW216860   6.654   3.295   5.967
 5321SOL     OW16861   2.381   4.611   6.201
 5321SOL    HW116862   2.372   4.696   6.251
 5321SOL    HW216863   2.478   4.586   6.195
 5322SOL     OW16864   2.512   5.885   0.906
 5322SOL    HW116865   2.458   5.870   0.822
 5322SOL    HW216866   2.509   5.982   0.930
 5323SOL     OW16867   5.019   3.038   0.482
 5323SOL    HW116868   5.034   2.942   0.508
 5323SOL    HW216869   4.995   3.091   0.564
 5324SOL     OW16870   3.866   2.992   1.316
 5324SOL    HW116871   3.909   2.929   1.251
 5324SOL    HW216872   3.876   2.956   1.408
 5325SOL     OW16873   4.148   6.424   4.592
 5325SOL    HW116874   4.091   6.365   4.649
 5325SOL    HW216875   4.112   6.517   4.594
 5326SOL     OW16876   0.486   0.132   2.407
 5326SOL    HW116877   0.557   0.125   2.477
 5326SOL    HW216878   0.441   0.221   2.414
 5327SOL     OW16879   6.989   0.445   3.601
 5327SOL    HW116880   0.028   0.377   3.634
 5327SOL    HW216881   0.008   0.533   3.588
 5328SOL     OW16882   3.648   4.744   6.898
 5328SOL    HW116883   3.692   4.726   6.986
 5328SOL    HW216884   3.717   4.766   6.830
 5329SOL     OW16885   0.278   5.319   6.944
 5329SOL    HW116886   0.325   5.238   6.908
 5329SOL    HW216887   0.190   5.291   6.983
 5330SOL     OW16888   3.513   4.202   0.295
 5330SOL    HW116889   3.497   4.257   0.212
 5330SOL    HW216890   3.526   4.107   0.269
 5331SOL     OW16891   5.274   1.264   6.834
 5331SOL    HW116892   5.325   1.219   6.760
 5331SOL    HW216893   5.238   1.194   6.896
 5332SOL     OW16894   6.054   3.211   6.864
 5332SOL    HW116895   6.012   3.238   6.777
 5332SOL    HW216896   6.127   3.275   6.888
 5333SOL     OW16897   1.131   0.918   3.914
 5333SOL    HW116898   1.059   0.929   3.982
 5333SOL    HW216899   1.220   0.924   3.960
 5334SOL     OW16900   3.218   6.146   1.926
 5334SOL    HW116901   3.269   6.159   2.011
 5334SOL    HW216902   3.281   6.139   1.849
 5335SOL     OW16903   0.271   4.508   2.169
 5335SOL    HW116904   0.357   4.479   2.127
 5335SOL    HW216905   0.207   4.537   2.098
 5336SOL     OW16906   1.729   3.448   5.245
 5336SOL    HW116907   1.813   3.487   5.207
 5336SOL    HW216908   1.676   3.519   5.290
 5337SOL     OW16909   6.565   3.376   1.274
 5337SOL    HW116910   6.595   3.404   1.183
 5337SOL    HW216911   6.477   3.331   1.268
 5338SOL     OW16912   6.744   3.140   1.138
 5338SOL    HW116913   6.721   3.229   1.178
 5338SOL    HW216914   6.838   3.142   1.105
 5339SOL     OW16915   5.729   2.727   2.857
 5339SOL    HW116916   5.798   2.793   2.829
 5339SOL    HW216917   5.758   2.682   2.942
 5340SOL     OW16918   4.755   2.974   1.642
 5340SOL    HW116919   4.749   3.031   1.560
 5340SOL    HW216920   4.697   3.012   1.714
 5341SOL     OW16921   4.785   5.000   3.630
 5341SOL    HW116922   4.757   4.919   3.682
 5341SOL    HW216923   4.865   4.978   3.574
 5342SOL     OW16924   6.328   5.516   4.760
 5342SOL    HW116925   6.366   5.584   4.696
 5342SOL    HW216926   6.232   5.499   4.737
 5343SOL     OW16927   3.831   3.338   6.596
 5343SOL    HW116928   3.802   3.433   6.580
 5343SOL    HW216929   3.778   3.299   6.671
 5344SOL     OW16930   6.652   1.458   6.506
 5344SOL    HW116931   6.633   1.525   6.434
 5344SOL    HW216932   6.652   1.504   6.595
 5345SOL     OW16933   3.435   1.415   7.026
 5345SOL    HW116934   3.446   1.466   0.085
 5345SOL    HW216935   3.438   1.479   6.949
 5346SOL     OW16936   2.968   6.419   3.472
 5346SOL    HW116937   3.066   6.407   3.488
 5346SOL    HW216938   2.916   6.366   3.539
 5347SOL     OW16939   5.403   1.635   5.117
 5347SOL    HW116940   5.455   1.580   5.182
 5347SOL    HW216941   5.316   1.662   5.157
 5348SOL     OW16942   5.079   2.992   4.902
 5348SOL    HW116943   5.027   2.941   4.833
 5348SOL    HW216944   5.017   3.029   4.971
 5349SOL     OW16945   0.813   4.285   1.261
 5349SOL    HW116946   0.790   4.215   1.329
 5349SOL    HW216947   0.852   4.241   1.180
 5350SOL     OW16948   0.885   6.806   5.868
 5350SOL    HW116949   0.956   6.811   5.939
 5350SOL    HW216950   0.807   6.754   5.902
 5351SOL     OW16951   0.077   5.947   3.115
 5351SOL    HW116952   7.011   5.981   3.133
 5351SOL    HW216953   0.088   5.932   3.016
 5352SOL     OW16954   1.772   2.728   5.853
 5352SOL    HW116955   1.681   2.688   5.843
 5352SOL    HW216956   1.763   2.820   5.892
 5353SOL     OW16957   3.410   6.152   3.568
 5353SOL    HW116958   3.508   6.136   3.556
 5353SOL    HW216959   3.364   6.143   3.480
 5354SOL     OW16960   4.040   6.086   1.614
 5354SOL    HW116961   4.109   6.030   1.568
 5354SOL    HW216962   4.036   6.062   1.711
 5355SOL     OW16963   5.090   5.853   5.404
 5355SOL    HW116964   5.187   5.830   5.408
 5355SOL    HW216965   5.060   5.856   5.309
 5356SOL     OW16966   1.081   6.457   1.577
 5356SOL    HW116967   1.157   6.513   1.544
 5356SOL    HW216968   1.043   6.497   1.661
 5357SOL     OW16969   6.244   3.673   2.671
 5357SOL    HW116970   6.283   3.592   2.628
 5357SOL    HW216971   6.315   3.723   2.719
 5358SOL     OW16972   5.959   0.911   6.303
 5358SOL    HW116973   5.909   0.894   6.218
 5358SOL    HW216974   6.047   0.864   6.300
 5359SOL     OW16975   2.681   2.631   0.106
 5359SOL    HW116976   2.732   2.563   0.054
 5359SOL    HW216977   2.583   2.611   0.101
 5360SOL     OW16978   5.530   6.135   3.932
 5360SOL    HW116979   5.586   6.173   3.858
 5360SOL    HW216980   5.505   6.208   3.996
 5361SOL     OW16981   1.669   3.883   3.177
 5361SOL    HW116982   1.746   3.874   3.113
 5361SOL    HW216983   1.606   3.953   3.143
 5362SOL     OW16984   6.781   1.381   3.213
 5362SOL    HW116985   6.874   1.345   3.219
 5362SOL    HW216986   6.716   1.306   3.223
 5363SOL     OW16987   5.521   5.624   4.089
 5363SOL    HW116988   5.469   5.704   4.117
 5363SOL    HW216989   5.463   5.563   4.035
 5364SOL     OW16990   4.722   2.514   2.542
 5364SOL    HW116991   4.743   2.481   2.450
 5364SOL    HW216992   4.740   2.612   2.548
 5365SOL     OW16993   3.152   3.887   5.531
 5365SOL    HW116994   3.192   3.797   5.513
 5365SOL    HW216995   3.161   3.908   5.628
 5366SOL     OW16996   0.421   5.310   3.409
 5366SOL    HW116997   0.387   5.402   3.389
 5366SOL    HW216998   0.360   5.265   3.475
 5367SOL     OW16999   6.050   6.267   1.568
 5367SOL    HW117000   6.012   6.200   1.632
 5367SOL    HW217001   6.037   6.359   1.603
 5368SOL     OW17002   0.397   5.174   5.053
 5368SOL    HW117003   0.490   5.206   5.037
 5368SOL    HW217004   0.392   5.133   5.144
 5369SOL     OW17005   4.535   0.126   2.905
 5369SOL    HW117006   4.525   0.064   2.982
 5369SOL    HW217007   4.445   0.162   2.878
 5370SOL     OW17008   2.471   2.431   0.802
 5370SOL    HW117009   2.562   2.464   0.824
 5370SOL    HW217010   2.450   2.454   0.707
 5371SOL     OW17011   6.269   5.423   3.770
 5371SOL    HW117012   6.174   5.455   3.771
 5371SOL    HW217013   6.272   5.325   3.753
 5372SOL     OW17014   1.667   0.000   4.034
 5372SOL    HW117015   1.735   7.017   4.106
 5372SOL    HW217016   1.684   6.958   3.963
 5373SOL     OW17017   3.412   0.674   6.552
 5373SOL    HW117018   3.329   0.639   6.593
 5373SOL    HW217019   3.467   0.598   6.516
 5374SOL     OW17020   1.043   3.723   1.216
 5374SOL    HW117021   1.081   3.746   1.306
 5374SOL    HW217022   1.001   3.805   1.177
 5375SOL     OW17023   2.542   4.562   4.880
 5375SOL    HW117024   2.487   4.488   4.919
 5375SOL    HW217025   2.631   4.565   4.925
 5376SOL     OW17026   1.099   0.881   1.080
 5376SOL    HW117027   1.036   0.958   1.070
 5376SOL    HW217028   1.156   0.872   0.998
 5377SOL     OW17029   0.756   2.233   2.161
 5377SOL    HW117030   0.796   2.142   2.172
 5377SOL    HW217031   0.660   2.225   2.133
 5378SOL     OW17032   5.178   0.284   2.279
 5378SOL    HW117033   5.088   0.242   2.291
 5378SOL    HW217034   5.208   0.272   2.184
 5379SOL     OW17035   2.467   1.930   3.611
 5379SOL    HW117036   2.417   1.954   3.695
 5379SOL    HW217037   2.428   1.846   3.573
 5380SOL     OW17038   5.052   6.201   1.103
 5380SOL    HW117039   5.091   6.119   1.143
 5380SOL    HW217040   5.125   6.256   1.062
 5381SOL     OW17041   3.577   1.777   3.300
 5381SOL    HW117042   3.596   1.777   3.398
 5381SOL    HW217043   3.584   1.871   3.265
 5382SOL     OW17044   3.874   0.607   2.450
 5382SOL    HW117045   3.871   0.696   2.403
 5382SOL    HW217046   3.808   0.545   2.408
 5383SOL     OW17047   2.389   3.412   5.326
 5383SOL    HW117048   2.340   3.484   5.375
 5383SOL    HW217049   2.478   3.447   5.297
 5384SOL     OW17050   5.151   6.572   6.295
 5384SOL    HW117051   5.246   6.599   6.313
 5384SOL    HW217052   5.126   6.496   6.356
 5385SOL     OW17053   3.403   3.547   0.232
 5385SOL    HW117054   3.466   3.509   0.300
 5385SOL    HW217055   3.455   3.593   0.160
 5386SOL     OW17056   4.295   5.006   3.798
 5386SOL    HW117057   4.380   5.018   3.747
 5386SOL    HW217058   4.268   4.910   3.795
 5387SOL     OW17059   1.332   2.606   4.203
 5387SOL    HW117060   1.315   2.631   4.299
 5387SOL    HW217061   1.377   2.517   4.200
 5388SOL     OW17062   6.825   6.066   3.956
 5388SOL    HW117063   6.750   6.032   4.012
 5388SOL    HW217064   6.898   5.998   3.951
 5389SOL     OW17065   5.180   1.652   4.372
 5389SOL    HW117066   5.246   1.699   4.312
 5389SOL    HW217067   5.090   1.653   4.329
 5390SOL     OW17068   5.551   3.558   3.146
 5390SOL    HW117069   5.466   3.516   3.111
 5390SOL    HW217070   5.604   3.489   3.194
 5391SOL     OW17071   4.464   2.519   1.304
 5391SOL    HW117072   4.482   2.492   1.399
 5391SOL    HW217073   4.546   2.504   1.249
 5392SOL     OW17074   5.138   0.519   4.313
 5392SOL    HW117075   5.097   0.610   4.308
 5392SOL    HW217076   5.223   0.518   4.259
 5393SOL     OW17077   4.011   1.319   3.565
 5393SOL    HW117078   4.093   1.332   3.509
 5393SOL    HW217079   4.035   1.269   3.648
 5394SOL     OW17080   0.526   3.319   2.393
 5394SOL    HW117081   0.535   3.219   2.390
 5394SOL    HW217082   0.434   3.344   2.362
 5395SOL     OW17083   0.057   1.064   1.229
 5395SOL    HW117084   0.071   0.978   1.181
 5395SOL    HW217085   7.025   1.124   1.174
 5396SOL     OW17086   4.030   2.646   1.080
 5396SOL    HW117087   4.012   2.615   1.173
 5396SOL    HW217088   4.012   2.572   1.015
 5397SOL     OW17089   0.223   0.392   1.880
 5397SOL    HW117090   0.202   0.396   1.978
 5397SOL    HW217091   0.321   0.383   1.868
 5398SOL     OW17092   6.272   2.458   3.509
 5398SOL    HW117093   6.173   2.472   3.504
 5398SOL    HW217094   6.293   2.360   3.507
 5399SOL     OW17095   1.997   2.643   1.063
 5399SOL    HW117096   1.910   2.597   1.082
 5399SOL    HW217097   2.057   2.581   1.012
 5400SOL     OW17098   5.064   3.309   1.165
 5400SOL    HW117099   5.148   3.349   1.202
 5400SOL    HW217100   5.080   3.277   1.072
 5401SOL     OW17101   5.140   3.070   1.557
 5401SOL    HW117102   5.172   2.988   1.510
 5401SOL    HW217103   5.069   3.115   1.502
 5402SOL     OW17104   1.691   6.352   1.592
 5402SOL    HW117105   1.768   6.347   1.529
 5402SOL    HW217106   1.716   6.312   1.680
 5403SOL     OW17107   5.592   2.174   5.911
 5403SOL    HW117108   5.572   2.083   5.876
 5403SOL    HW217109   5.644   2.167   5.996
 5404SOL     OW17110   4.774   6.540   0.374
 5404SOL    HW117111   4.834   6.601   0.425
 5404SOL    HW217112   4.823   6.456   0.351
 5405SOL     OW17113   0.030   5.065   6.677
 5405SOL    HW117114   0.039   5.156   6.718
 5405SOL    HW217115   0.001   5.000   6.747
 5406SOL     OW17116   2.852   1.066   5.924
 5406SOL    HW117117   2.920   0.994   5.907
 5406SOL    HW217118   2.766   1.042   5.879
 5407SOL     OW17119   1.483   6.922   3.399
 5407SOL    HW117120   1.463   6.988   3.327
 5407SOL    HW217121   1.437   6.950   3.483
 5408SOL     OW17122   2.247   2.501   4.564
 5408SOL    HW117123   2.181   2.468   4.497
 5408SOL    HW217124   2.248   2.601   4.563
 5409SOL     OW17125   0.811   3.412   3.097
 5409SOL    HW117126   0.804   3.351   3.175
 5409SOL    HW217127   0.743   3.387   3.028
 5410SOL     OW17128   6.167   2.178   0.569
 5410SOL    HW117129   6.216   2.262   0.593
 5410SOL    HW217130   6.199   2.103   0.627
 5411SOL     OW17131   3.323   5.351   1.305
 5411SOL    HW117132   3.378   5.329   1.225
 5411SOL    HW217133   3.252   5.417   1.280
 5412SOL     OW17134   1.510   2.625   5.856
 5412SOL    HW117135   1.427   2.601   5.907
 5412SOL    HW217136   1.488   2.642   5.761
 5413SOL     OW17137   6.827   5.470   6.074
 5413SOL    HW117138   6.913   5.451   6.121
 5413SOL    HW217139   6.839   5.456   5.976
 5414SOL     OW17140   5.368   5.521   5.836
 5414SOL    HW117141   5.389   5.551   5.929
 5414SOL    HW217142   5.360   5.421   5.834
 5415SOL     OW17143   1.515   1.757   6.171
 5415SOL    HW117144   1.595   1.750   6.112
 5415SOL    HW217145   1.481   1.666   6.193
 5416SOL     OW17146   3.366   6.055   6.074
 5416SOL    HW117147   3.384   5.957   6.080
 5416SOL    HW217148   3.435   6.105   6.126
 5417SOL     OW17149   5.673   0.411   2.657
 5417SOL    HW117150   5.682   0.459   2.570
 5417SOL    HW217151   5.722   0.324   2.653
 5418SOL     OW17152   0.335   3.675   5.363
 5418SOL    HW117153   0.296   3.767   5.363
 5418SOL    HW217154   0.267   3.610   5.330
 5419SOL     OW17155   3.711   1.451   6.270
 5419SOL    HW117156   3.738   1.471   6.364
 5419SOL    HW217157   3.731   1.529   6.212
 5420SOL     OW17158   1.457   2.477   1.143
 5420SOL    HW117159   1.470   2.566   1.098
 5420SOL    HW217160   1.367   2.441   1.120
 5421SOL     OW17161   4.136   5.179   1.745
 5421SOL    HW117162   4.126   5.268   1.700
 5421SOL    HW217163   4.048   5.131   1.743
 5422SOL     OW17164   2.408   6.046   3.662
 5422SOL    HW117165   2.331   6.067   3.723
 5422SOL    HW217166   2.390   5.961   3.614
 5423SOL     OW17167   4.129   6.794   1.620
 5423SOL    HW117168   4.105   6.709   1.574
 5423SOL    HW217169   4.142   6.776   1.718
 5424SOL     OW17170   4.099   3.699   5.508
 5424SOL    HW117171   4.083   3.660   5.417
 5424SOL    HW217172   4.052   3.787   5.516
 5425SOL     OW17173   1.755   5.427   5.689
 5425SOL    HW117174   1.748   5.508   5.632
 5425SOL    HW217175   1.769   5.453   5.784
 5426SOL     OW17176   0.252   3.801   0.203
 5426SOL    HW117177   0.344   3.808   0.240
 5426SOL    HW217178   0.252   3.740   0.123
 5427SOL     OW17179   5.204   2.181   0.471
 5427SOL    HW117180   5.271   2.167   0.544
 5427SOL    HW217181   5.113   2.192   0.511
 5428SOL     OW17182   4.605   6.051   2.628
 5428SOL    HW117183   4.576   6.011   2.542
 5428SOL    HW217184   4.584   5.988   2.703
 5429SOL     OW17185   2.653   6.893   3.884
 5429SOL    HW117186   2.733   6.841   3.853
 5429SOL    HW217187   2.665   6.917   3.981
 5430SOL     OW17188   1.508   4.505   5.441
 5430SOL    HW117189   1.605   4.513   5.417
 5430SOL    HW217190   1.452   4.517   5.359
 5431SOL     OW17191   4.703   4.580   0.558
 5431SOL    HW117192   4.794   4.601   0.523
 5431SOL    HW217193   4.692   4.481   0.565
 5432SOL     OW17194   0.301   5.156   6.719
 5432SOL    HW117195   0.257   5.069   6.697
 5432SOL    HW217196   0.299   5.215   6.638
 5433SOL     OW17197   2.694   6.746   1.526
 5433SOL    HW117198   2.793   6.742   1.508
 5433SOL    HW217199   2.665   6.661   1.570
 5434SOL     OW17200   4.892   6.306   3.938
 5434SOL    HW117201   4.992   6.304   3.942
 5434SOL    HW217202   4.861   6.244   3.866
 5435SOL     OW17203   6.803   3.843   6.511
 5435SOL    HW117204   6.729   3.777   6.504
 5435SOL    HW217205   6.835   3.848   6.605
 5436SOL     OW17206   1.963   4.413   1.916
 5436SOL    HW117207   1.930   4.321   1.935
 5436SOL    HW217208   1.913   4.451   1.837
 5437SOL     OW17209   3.197   6.175   7.008
 5437SOL    HW117210   3.157   6.196   6.918
 5437SOL    HW217211   3.213   6.260   0.031
 5438SOL     OW17212   5.437   6.750   2.689
 5438SOL    HW117213   5.353   6.734   2.638
 5438SOL    HW217214   5.416   6.795   2.776
 5439SOL     OW17215   1.539   3.948   1.647
 5439SOL    HW117216   1.523   3.849   1.651
 5439SOL    HW217217   1.637   3.966   1.637
 5440SOL     OW17218   5.994   0.081   3.944
 5440SOL    HW117219   6.064   0.074   3.874
 5440SOL    HW217220   5.932   0.003   3.938
 5441SOL     OW17221   6.079   2.113   4.576
 5441SOL    HW117222   6.019   2.072   4.645
 5441SOL    HW217223   6.040   2.100   4.485
 5442SOL     OW17224   2.409   0.491   6.620
 5442SOL    HW117225   2.501   0.480   6.582
 5442SOL    HW217226   2.381   0.587   6.612
 5443SOL     OW17227   6.055   0.558   3.401
 5443SOL    HW117228   5.973   0.513   3.366
 5443SOL    HW217229   6.113   0.586   3.325
 5444SOL     OW17230   0.967   1.428   5.884
 5444SOL    HW117231   1.057   1.464   5.861
 5444SOL    HW217232   0.900   1.503   5.885
 5445SOL     OW17233   6.118   6.703   5.283
 5445SOL    HW117234   6.048   6.739   5.221
 5445SOL    HW217235   6.200   6.760   5.277
 5446SOL     OW17236   1.262   4.958   5.719
 5446SOL    HW117237   1.288   5.046   5.760
 5446SOL    HW217238   1.286   4.884   5.782
 5447SOL     OW17239   6.650   2.330   1.757
 5447SOL    HW117240   6.701   2.245   1.746
 5447SOL    HW217241   6.691   2.402   1.700
 5448SOL     OW17242   6.229   5.005   1.917
 5448SOL    HW117243   6.322   5.014   1.951
 5448SOL    HW217244   6.224   5.043   1.824
 5449SOL     OW17245   1.921   7.005   2.083
 5449SOL    HW117246   1.873   0.031   2.153
 5449SOL    HW217247   1.962   0.042   2.016
 5450SOL     OW17248   4.295   5.786   1.321
 5450SOL    HW117249   4.292   5.852   1.396
 5450SOL    HW217250   4.216   5.800   1.261
 5451SOL     OW17251   0.444   6.034   3.772
 5451SOL    HW117252   0.542   6.050   3.775
 5451SOL    HW217253   0.421   5.987   3.687
 5452SOL     OW17254   2.414   4.390   2.893
 5452SOL    HW117255   2.451   4.305   2.929
 5452SOL    HW217256   2.355   4.370   2.814
 5453SOL     OW17257   5.768   4.776   4.086
 5453SOL    HW117258   5.813   4.688   4.099
 5453SOL    HW217259   5.689   4.782   4.148
 5454SOL     OW17260   5.876   3.862   2.391
 5454SOL    HW117261   5.864   3.804   2.310
 5454SOL    HW217262   5.945   3.822   2.451
 5455SOL     OW17263   2.796   1.956   3.070
 5455SOL    HW117264   2.714   1.988   3.022
 5455SOL    HW217265   2.857   2.034   3.087
 5456SOL     OW17266   5.739   2.316   0.556
 5456SOL    HW117267   5.659   2.257   0.554
 5456SOL    HW217268   5.813   2.274   0.502
 5457SOL     OW17269   6.714   1.144   0.325
 5457SOL    HW117270   6.675   1.125   0.415
 5457SOL    HW217271   6.747   1.238   0.322
 5458SOL     OW17272   5.410   4.934   5.815
 5458SOL    HW117273   5.318   4.919   5.780
 5458SOL    HW217274   5.426   4.875   5.894
 5459SOL     OW17275   2.148   2.982   5.184
 5459SOL    HW117276   2.160   2.933   5.270
 5459SOL    HW217277   2.235   2.982   5.133
 5460SOL     OW17278   0.553   0.555   1.185
 5460SOL    HW117279   0.545   0.465   1.226
 5460SOL    HW217280   0.506   0.622   1.243
 5461SOL     OW17281   5.941   1.321   6.711
 5461SOL    HW117282   5.875   1.259   6.754
 5461SOL    HW217283   6.018   1.336   6.773
 5462SOL     OW17284   4.930   5.398   6.463
 5462SOL    HW117285   4.869   5.368   6.537
 5462SOL    HW217286   5.008   5.337   6.458
 5463SOL     OW17287   1.819   5.048   5.795
 5463SOL    HW117288   1.864   5.112   5.856
 5463SOL    HW217289   1.768   5.099   5.725
 5464SOL     OW17290   2.186   5.183   4.795
 5464SOL    HW117291   2.227   5.092   4.799
 5464SOL    HW217292   2.217   5.237   4.874
 5465SOL     OW17293   0.366   0.160   5.197
 5465SOL    HW117294   0.386   0.190   5.290
 5465SOL    HW217295   0.442   0.184   5.137
 5466SOL     OW17296   5.015   2.258   5.027
 5466SOL    HW117297   5.076   2.272   5.105
 5466SOL    HW217298   5.067   2.218   4.951
 5467SOL     OW17299   5.632   3.215   4.065
 5467SOL    HW117300   5.685   3.134   4.040
 5467SOL    HW217301   5.646   3.286   3.996
 5468SOL     OW17302   6.895   2.768   1.589
 5468SOL    HW117303   6.989   2.758   1.624
 5468SOL    HW217304   6.892   2.843   1.523
 5469SOL     OW17305   4.125   1.854   3.944
 5469SOL    HW117306   4.218   1.817   3.952
 5469SOL    HW217307   4.060   1.779   3.934
 5470SOL     OW17308   3.438   5.087   3.271
 5470SOL    HW117309   3.536   5.070   3.266
 5470SOL    HW217310   3.390   5.028   3.206
 5471SOL     OW17311   5.678   0.753   3.176
 5471SOL    HW117312   5.664   0.851   3.163
 5471SOL    HW217313   5.753   0.722   3.118
 5472SOL     OW17314   2.579   3.536   6.822
 5472SOL    HW117315   2.549   3.611   6.881
 5472SOL    HW217316   2.568   3.449   6.869
 5473SOL     OW17317   2.864   4.753   2.267
 5473SOL    HW117318   2.930   4.691   2.309
 5473SOL    HW217319   2.823   4.709   2.187
 5474SOL     OW17320   1.274   4.803   1.943
 5474SOL    HW117321   1.351   4.780   2.002
 5474SOL    HW217322   1.237   4.892   1.970
 5475SOL     OW17323   1.676   1.610   5.366
 5475SOL    HW117324   1.767   1.631   5.330
 5475SOL    HW217325   1.609   1.674   5.327
 5476SOL     OW17326   2.161   0.845   4.850
 5476SOL    HW117327   2.129   0.890   4.934
 5476SOL    HW217328   2.094   0.777   4.821
 5477SOL     OW17329   2.264   2.964   3.019
 5477SOL    HW117330   2.246   2.942   2.923
 5477SOL    HW217331   2.216   3.049   3.043
 5478SOL     OW17332   5.842   4.349   5.662
 5478SOL    HW117333   5.938   4.321   5.669
 5478SOL    HW217334   5.809   4.379   5.751
 5479SOL     OW17335   5.666   3.248   4.345
 5479SOL    HW117336   5.658   3.232   4.247
 5479SOL    HW217337   5.690   3.344   4.361
 5480SOL     OW17338   1.338   3.796   4.922
 5480SOL    HW117339   1.272   3.731   4.883
 5480SOL    HW217340   1.405   3.746   4.977
 5481SOL     OW17341   3.423   1.592   6.416
 5481SOL    HW117342   3.502   1.538   6.386
 5481SOL    HW217343   3.369   1.618   6.336
 5482SOL     OW17344   5.520   3.535   1.991
 5482SOL    HW117345   5.459   3.457   1.993
 5482SOL    HW217346   5.503   3.589   1.909
 5483SOL     OW17347   6.575   3.031   0.104
 5483SOL    HW117348   6.507   2.969   0.141
 5483SOL    HW217349   6.566   3.036   0.005
 5484SOL     OW17350   6.555   0.314   5.327
 5484SOL    HW117351   6.517   0.221   5.322
 5484SOL    HW217352   6.640   0.318   5.274
 5485SOL     OW17353   3.033   0.713   4.893
 5485SOL    HW117354   2.943   0.687   4.859
 5485SOL    HW217355   3.025   0.742   4.988
 5486SOL     OW17356   1.200   0.159   3.532
 5486SOL    HW117357   1.236   0.181   3.441
 5486SOL    HW217358   1.250   0.081   3.570
 5487SOL     OW17359   4.188   5.303   1.227
 5487SOL    HW117360   4.191   5.346   1.137
 5487SOL    HW217361   4.218   5.207   1.219
 5488SOL     OW17362   4.616   1.444   5.607
 5488SOL    HW117363   4.564   1.473   5.688
 5488SOL    HW217364   4.623   1.344   5.606
 5489SOL     OW17365   6.405   4.347   2.471
 5489SOL    HW117366   6.459   4.428   2.492
 5489SOL    HW217367   6.457   4.265   2.493
 5490SOL     OW17368   2.245   2.093   6.331
 5490SOL    HW117369   2.314   2.129   6.268
 5490SOL    HW217370   2.289   2.069   6.418
 5491SOL     OW17371   0.228   5.796   2.544
 5491SOL    HW117372   0.269   5.880   2.579
 5491SOL    HW217373   0.146   5.774   2.597
 5492SOL     OW17374   1.272   1.619   4.453
 5492SOL    HW117375   1.257   1.583   4.545
 5492SOL    HW217376   1.323   1.552   4.399
 5493SOL     OW17377   2.879   1.525   0.772
 5493SOL    HW117378   2.878   1.582   0.854
 5493SOL    HW217379   2.965   1.539   0.722
 5494SOL     OW17380   6.003   2.914   2.493
 5494SOL    HW117381   5.909   2.921   2.526
 5494SOL    HW217382   6.049   3.002   2.504
 5495SOL     OW17383   3.825   2.983   3.804
 5495SOL    HW117384   3.774   3.047   3.748
 5495SOL    HW217385   3.784   2.892   3.797
 5496SOL     OW17386   4.556   4.859   1.761
 5496SOL    HW117387   4.550   4.957   1.781
 5496SOL    HW217388   4.593   4.846   1.669
 5497SOL     OW17389   5.745   7.023   1.186
 5497SOL    HW117390   5.742   6.962   1.107
 5497SOL    HW217391   5.840   0.009   1.215
 5498SOL     OW17392   3.963   0.911   4.515
 5498SOL    HW117393   3.867   0.887   4.531
 5498SOL    HW217394   4.022   0.840   4.554
 5499SOL     OW17395   0.571   1.257   5.559
 5499SOL    HW117396   0.618   1.174   5.589
 5499SOL    HW217397   0.597   1.334   5.618
 5500SOL     OW17398   2.054   6.094   0.816
 5500SOL    HW117399   2.060   6.141   0.904
 5500SOL    HW217400   2.117   6.136   0.751
 5501SOL     OW17401   2.874   0.566   2.581
 5501SOL    HW117402   2.815   0.587   2.659
 5501SOL    HW217403   2.818   0.550   2.500
 5502SOL     OW17404   4.657   3.079   0.436
 5502SOL    HW117405   4.647   3.170   0.477
 5502SOL    HW217406   4.575   3.025   0.454
 5503SOL     OW17407   0.367   6.593   5.145
 5503SOL    HW117408   0.359   6.515   5.207
 5503SOL    HW217409   0.462   6.626   5.145
 5504SOL     OW17410   3.130   2.077   4.324
 5504SOL    HW117411   3.113   1.981   4.348
 5504SOL    HW217412   3.044   2.124   4.308
 5505SOL     OW17413   3.834   4.555   6.768
 5505SOL    HW117414   3.752   4.498   6.765
 5505SOL    HW217415   3.894   4.523   6.841
 5506SOL     OW17416   0.141   6.622   5.918
 5506SOL    HW117417   0.215   6.667   5.967
 5506SOL    HW217418   0.059   6.620   5.975
 5507SOL     OW17419   3.638   5.988   4.677
 5507SOL    HW117420   3.709   5.994   4.747
 5507SOL    HW217421   3.563   6.050   4.701
 5508SOL     OW17422   1.594   0.444   5.973
 5508SOL    HW117423   1.637   0.494   6.048
 5508SOL    HW217424   1.621   0.484   5.886
 5509SOL     OW17425   6.047   0.217   6.601
 5509SOL    HW117426   6.082   0.175   6.518
 5509SOL    HW217427   6.107   0.194   6.678
 5510SOL     OW17428   5.994   0.566   6.329
 5510SOL    HW117429   5.986   0.511   6.246
 5510SOL    HW217430   5.925   0.537   6.395
 5511SOL     OW17431   6.741   2.530   1.576
 5511SOL    HW117432   6.769   2.474   1.498
 5511SOL    HW217433   6.804   2.607   1.587
 5512SOL     OW17434   0.199   0.582   0.492
 5512SOL    HW117435   0.119   0.530   0.519
 5512SOL    HW217436   0.266   0.581   0.567
 5513SOL     OW17437   3.087   5.963   4.997
 5513SOL    HW117438   3.117   5.987   4.904
 5513SOL    HW217439   2.997   5.921   4.992
 5514SOL     OW17440   5.851   5.488   3.777
 5514SOL    HW117441   5.902   5.552   3.835
 5514SOL    HW217442   5.754   5.492   3.800
 5515SOL     OW17443   6.450   3.750   3.075
 5515SOL    HW117444   6.366   3.702   3.101
 5515SOL    HW217445   6.509   3.761   3.155
 5516SOL     OW17446   1.130   3.043   6.702
 5516SOL    HW117447   1.205   2.977   6.705
 5516SOL    HW217448   1.043   2.996   6.718
 5517SOL     OW17449   2.410   0.980   2.070
 5517SOL    HW117450   2.377   1.057   2.014
 5517SOL    HW217451   2.419   1.009   2.165
 5518SOL     OW17452   5.439   4.696   5.267
 5518SOL    HW117453   5.456   4.701   5.365
 5518SOL    HW217454   5.523   4.665   5.221
 5519SOL     OW17455   5.266   3.788   2.975
 5519SOL    HW117456   5.256   3.717   2.905
 5519SOL    HW217457   5.279   3.877   2.930
 5520SOL     OW17458   1.819   2.795   0.894
 5520SOL    HW117459   1.796   2.885   0.930
 5520SOL    HW217460   1.878   2.747   0.960
 5521SOL     OW17461   4.963   5.427   0.829
 5521SOL    HW117462   4.932   5.455   0.919
 5521SOL    HW217463   4.958   5.327   0.822
 5522SOL     OW17464   1.875   3.129   2.333
 5522SOL    HW117465   1.965   3.085   2.330
 5522SOL    HW217466   1.847   3.153   2.240
 5523SOL     OW17467   3.415   0.673   1.736
 5523SOL    HW117468   3.394   0.720   1.821
 5523SOL    HW217469   3.500   0.708   1.697
 5524SOL     OW17470   5.807   6.082   5.584
 5524SOL    HW117471   5.789   5.988   5.612
 5524SOL    HW217472   5.849   6.132   5.660
 5525SOL     OW17473   6.719   5.673   4.086
 5525SOL    HW117474   6.667   5.698   4.004
 5525SOL    HW217475   6.753   5.579   4.077
 5526SOL     OW17476   5.639   3.168   4.596
 5526SOL    HW117477   5.663   3.195   4.503
 5526SOL    HW217478   5.580   3.087   4.594
 5527SOL     OW17479   2.237   3.210   0.386
 5527SOL    HW117480   2.337   3.211   0.386
 5527SOL    HW217481   2.204   3.132   0.333
 5528SOL     OW17482   6.468   3.452   2.927
 5528SOL    HW117483   6.515   3.538   2.905
 5528SOL    HW217484   6.528   3.395   2.984
 5529SOL     OW17485   0.869   1.239   4.431
 5529SOL    HW117486   0.917   1.311   4.381
 5529SOL    HW217487   0.771   1.245   4.413
 5530SOL     OW17488   0.149   3.019   0.006
 5530SOL    HW117489   0.053   2.992   0.008
 5530SOL    HW217490   0.201   2.954   6.977
 5531SOL     OW17491   1.380   2.916   6.741
 5531SOL    HW117492   1.357   2.851   6.813
 5531SOL    HW217493   1.475   2.901   6.712
 5532SOL     OW17494   2.125   2.094   1.525
 5532SOL    HW117495   2.036   2.090   1.571
 5532SOL    HW217496   2.124   2.169   1.459
 5533SOL     OW17497   3.437   0.113   0.616
 5533SOL    HW117498   3.365   0.048   0.638
 5533SOL    HW217499   3.524   0.064   0.606
 5534SOL     OW17500   6.852   4.470   5.210
 5534SOL    HW117501   6.872   4.563   5.240
 5534SOL    HW217502   6.758   4.466   5.175
 5535SOL     OW17503   6.161   3.364   4.092
 5535SOL    HW117504   6.102   3.283   4.088
 5535SOL    HW217505   6.108   3.442   4.125
 5536SOL     OW17506   2.684   0.360   4.161
 5536SOL    HW117507   2.637   0.443   4.189
 5536SOL    HW217508   2.753   0.335   4.229
 5537SOL     OW17509   4.274   1.676   4.811
 5537SOL    HW117510   4.304   1.616   4.885
 5537SOL    HW217511   4.200   1.631   4.761
 5538SOL     OW17512   5.132   2.590   2.122
 5538SOL    HW117513   5.221   2.596   2.167
 5538SOL    HW217514   5.079   2.516   2.163
 5539SOL     OW17515   2.651   0.077   0.387
 5539SOL    HW117516   2.681   7.022   0.438
 5539SOL    HW217517   2.626   0.149   0.451
 5540SOL     OW17518   5.030   0.154   5.659
 5540SOL    HW117519   4.989   0.223   5.599
 5540SOL    HW217520   5.033   0.066   5.612
 5541SOL     OW17521   4.684   3.330   0.076
 5541SOL    HW117522   4.742   3.268   0.129
 5541SOL    HW217523   4.604   3.356   0.130
 5542SOL     OW17524   4.496   4.127   0.060
 5542SOL    HW117525   4.586   4.089   0.036
 5542SOL    HW217526   4.444   4.060   0.112
 5543SOL     OW17527   1.756   0.356   6.801
 5543SOL    HW117528   1.685   0.290   6.774
 5543SOL    HW217529   1.823   0.310   6.859
 5544SOL     OW17530   3.798   4.756   0.115
 5544SOL    HW117531   3.762   4.838   0.157
 5544SOL    HW217532   3.857   4.708   0.180
 5545SOL     OW17533   5.069   1.206   4.280
 5545SOL    HW117534   5.112   1.146   4.213
 5545SOL    HW217535   5.046   1.293   4.236
 5546SOL     OW17536   0.424   5.042   4.192
 5546SOL    HW117537   0.368   4.962   4.216
 5546SOL    HW217538   0.447   5.092   4.275
 5547SOL     OW17539   5.056   1.799   4.890
 5547SOL    HW117540   5.129   1.845   4.941
 5547SOL    HW217541   4.967   1.835   4.919
 5548SOL     OW17542   0.990   4.870   4.668
 5548SOL    HW117543   0.941   4.918   4.596
 5548SOL    HW217544   1.015   4.935   4.741
 5549SOL     OW17545   4.395   2.716   0.621
 5549SOL    HW117546   4.430   2.622   0.627
 5549SOL    HW217547   4.335   2.733   0.699
 5550SOL     OW17548   2.165   4.457   1.664
 5550SOL    HW117549   2.187   4.434   1.759
 5550SOL    HW217550   2.099   4.392   1.628
 5551SOL     OW17551   2.043   5.525   2.764
 5551SOL    HW117552   2.008   5.459   2.697
 5551SOL    HW217553   2.062   5.477   2.850
 5552SOL     OW17554   1.152   6.610   6.993
 5552SOL    HW117555   1.092   6.656   6.927
 5552SOL    HW217556   1.247   6.621   6.965
 5553SOL     OW17557   5.187   0.666   0.449
 5553SOL    HW117558   5.256   0.608   0.490
 5553SOL    HW217559   5.199   0.761   0.479
 5554SOL     OW17560   6.568   1.562   1.555
 5554SOL    HW117561   6.618   1.476   1.563
 5554SOL    HW217562   6.585   1.618   1.636
 5555SOL     OW17563   1.653   4.975   3.213
 5555SOL    HW117564   1.743   4.951   3.176
 5555SOL    HW217565   1.661   5.057   3.269
 5556SOL     OW17566   0.235   0.669   4.484
 5556SOL    HW117567   0.324   0.715   4.483
 5556SOL    HW217568   0.239   0.591   4.421
 5557SOL     OW17569   3.785   5.945   3.294
 5557SOL    HW117570   3.728   5.997   3.230
 5557SOL    HW217571   3.853   5.893   3.243
 5558SOL     OW17572   4.664   3.798   6.739
 5558SOL    HW117573   4.604   3.733   6.785
 5558SOL    HW217574   4.673   3.772   6.643
 5559SOL     OW17575   3.418   1.014   2.942
 5559SOL    HW117576   3.407   1.002   2.843
 5559SOL    HW217577   3.419   1.112   2.963
 5560SOL     OW17578   0.874   5.420   3.929
 5560SOL    HW117579   0.868   5.342   3.991
 5560SOL    HW217580   0.813   5.406   3.851
 5561SOL     OW17581   3.401   6.250   2.914
 5561SOL    HW117582   3.321   6.246   2.855
 5561SOL    HW217583   3.468   6.314   2.876
 5562SOL     OW17584   3.609   3.924   0.895
 5562SOL    HW117585   3.703   3.896   0.911
 5562SOL    HW217586   3.559   3.850   0.848
 5563SOL     OW17587   2.142   4.580   2.334
 5563SOL    HW117588   2.223   4.555   2.280
 5563SOL    HW217589   2.171   4.622   2.420
 5564SOL     OW17590   5.094   0.455   6.265
 5564SOL    HW117591   5.044   0.381   6.223
 5564SOL    HW217592   5.137   0.512   6.195
 5565SOL     OW17593   3.313   1.963   6.133
 5565SOL    HW117594   3.340   1.939   6.040
 5565SOL    HW217595   3.213   1.969   6.138
 5566SOL     OW17596   1.304   3.972   6.833
 5566SOL    HW117597   1.210   3.994   6.808
 5566SOL    HW217598   1.349   4.054   6.868
 5567SOL     OW17599   0.228   3.579   0.591
 5567SOL    HW117600   0.154   3.596   0.527
 5567SOL    HW217601   0.234   3.655   0.656
 5568SOL     OW17602   4.821   4.885   1.329
 5568SOL    HW117603   4.857   4.945   1.258
 5568SOL    HW217604   4.897   4.841   1.377
 5569SOL     OW17605   2.226   2.794   2.745
 5569SOL    HW117606   2.305   2.733   2.737
 5569SOL    HW217607   2.164   2.759   2.815
 5570SOL     OW17608   6.739   4.097   2.174
 5570SOL    HW117609   6.807   4.123   2.242
 5570SOL    HW217610   6.771   4.123   2.083
 5571SOL     OW17611   6.313   4.699   1.094
 5571SOL    HW117612   6.222   4.674   1.128
 5571SOL    HW217613   6.367   4.735   1.170
 5572SOL     OW17614   1.939   4.296   4.986
 5572SOL    HW117615   1.841   4.283   4.978
 5572SOL    HW217616   1.968   4.368   4.923
 5573SOL     OW17617   3.155   5.108   3.715
 5573SOL    HW117618   3.137   5.197   3.757
 5573SOL    HW217619   3.193   5.122   3.623
 5574SOL     OW17620   0.634   2.243   5.829
 5574SOL    HW117621   0.707   2.300   5.792
 5574SOL    HW217622   0.650   2.147   5.804
 5575SOL     OW17623   0.178   0.198   1.378
 5575SOL    HW117624   0.131   0.122   1.333
 5575SOL    HW217625   0.158   0.195   1.476
 5576SOL     OW17626   1.583   5.350   2.977
 5576SOL    HW117627   1.574   5.437   3.027
 5576SOL    HW217628   1.543   5.276   3.032
 5577SOL     OW17629   2.257   2.943   5.722
 5577SOL    HW117630   2.345   2.896   5.730
 5577SOL    HW217631   2.183   2.879   5.741
 5578SOL     OW17632   3.555   4.065   3.837
 5578SOL    HW117633   3.607   4.010   3.901
 5578SOL    HW217634   3.471   4.098   3.881
 5579SOL     OW17635   0.303   3.343   2.230
 5579SOL    HW117636   0.310   3.265   2.168
 5579SOL    HW217637   0.222   3.332   2.288
 5580SOL     OW17638   5.519   2.406   5.540
 5580SOL    HW117639   5.471   2.493   5.534
 5580SOL    HW217640   5.488   2.356   5.621
 5581SOL     OW17641   1.319   2.700   6.909
 5581SOL    HW117642   1.231   2.656   6.927
 5581SOL    HW217643   1.358   2.664   6.825
 5582SOL     OW17644   2.513   3.104   6.494
 5582SOL    HW117645   2.419   3.077   6.516
 5582SOL    HW217646   2.555   3.145   6.575
 5583SOL     OW17647   5.396   0.241   1.356
 5583SOL    HW117648   5.445   0.213   1.274
 5583SOL    HW217649   5.461   0.262   1.429
 5584SOL     OW17650   1.597   3.319   4.409
 5584SOL    HW117651   1.626   3.311   4.504
 5584SOL    HW217652   1.558   3.231   4.379
 5585SOL     OW17653   5.098   4.743   1.926
 5585SOL    HW117654   5.042   4.813   1.971
 5585SOL    HW217655   5.120   4.670   1.991
 5586SOL     OW17656   6.619   3.818   0.358
 5586SOL    HW117657   6.612   3.822   0.258
 5586SOL    HW217658   6.631   3.722   0.386
 5587SOL     OW17659   5.853   1.116   6.037
 5587SOL    HW117660   5.877   1.164   6.122
 5587SOL    HW217661   5.890   1.024   6.039
 5588SOL     OW17662   3.895   6.672   0.853
 5588SOL    HW117663   3.835   6.600   0.886
 5588SOL    HW217664   3.917   6.734   0.928
 5589SOL     OW17665   5.732   4.980   6.004
 5589SOL    HW117666   5.747   5.011   5.910
 5589SOL    HW217667   5.768   4.887   6.014
 5590SOL     OW17668   6.228   5.950   3.695
 5590SOL    HW117669   6.179   5.958   3.609
 5590SOL    HW217670   6.320   5.987   3.685
 5591SOL     OW17671   5.861   0.989   1.783
 5591SOL    HW117672   5.893   1.032   1.698
 5591SOL    HW217673   5.940   0.962   1.838
 5592SOL     OW17674   1.312   4.059   3.154
 5592SOL    HW117675   1.268   3.976   3.121
 5592SOL    HW217676   1.354   4.042   3.243
 5593SOL     OW17677   0.050   3.694   0.384
 5593SOL    HW117678   6.991   3.744   0.371
 5593SOL    HW217679   0.112   3.713   0.308
 5594SOL     OW17680   6.241   2.225   6.173
 5594SOL    HW117681   6.252   2.201   6.270
 5594SOL    HW217682   6.182   2.305   6.166
 5595SOL     OW17683   0.880   3.092   5.648
 5595SOL    HW117684   0.916   3.115   5.557
 5595SOL    HW217685   0.838   3.001   5.645
 5596SOL     OW17686   3.163   6.254   3.058
 5596SOL    HW117687   3.257   6.287   3.052
 5596SOL    HW217688   3.114   6.302   3.131
 5597SOL     OW17689   5.151   3.264   2.511
 5597SOL    HW117690   5.161   3.279   2.412
 5597SOL    HW217691   5.178   3.170   2.533
 5598SOL     OW17692   5.296   1.623   4.841
 5598SOL    HW117693   5.207   1.667   4.838
 5598SOL    HW217694   5.333   1.627   4.934
 5599SOL     OW17695   1.223   0.488   3.667
 5599SOL    HW117696   1.139   0.542   3.675
 5599SOL    HW217697   1.204   0.393   3.689
 5600SOL     OW17698   1.362   2.008   4.303
 5600SOL    HW117699   1.416   1.937   4.259
 5600SOL    HW217700   1.424   2.076   4.344
 5601SOL     OW17701   2.444   0.585   6.289
 5601SOL    HW117702   2.365   0.525   6.283
 5601SOL    HW217703   2.515   0.541   6.344
 5602SOL     OW17704   1.714   1.368   6.960
 5602SOL    HW117705   1.628   1.366   6.909
 5602SOL    HW217706   1.716   1.293   7.025
 5603SOL     OW17707   5.784   4.440   6.459
 5603SOL    HW117708   5.734   4.382   6.524
 5603SOL    HW217709   5.733   4.524   6.445
 5604SOL     OW17710   6.123   1.539   6.031
 5604SOL    HW117711   6.044   1.600   6.030
 5604SOL    HW217712   6.183   1.560   5.954
 5605SOL     OW17713   1.270   2.602   5.967
 5605SOL    HW117714   1.253   2.682   6.025
 5605SOL    HW217715   1.182   2.562   5.940
 5606SOL     OW17716   5.353   0.126   2.940
 5606SOL    HW117717   5.392   0.186   2.870
 5606SOL    HW217718   5.316   0.180   3.015
 5607SOL     OW17719   6.040   0.856   1.303
 5607SOL    HW117720   6.094   0.781   1.341
 5607SOL    HW217721   5.964   0.818   1.250
 5608SOL     OW17722   4.339   6.820   4.702
 5608SOL    HW117723   4.389   6.860   4.778
 5608SOL    HW217724   4.327   6.722   4.717
 5609SOL     OW17725   1.963   5.764   5.608
 5609SOL    HW117726   1.974   5.847   5.662
 5609SOL    HW217727   2.029   5.695   5.638
 5610SOL     OW17728   4.317   0.137   6.452
 5610SOL    HW117729   4.368   0.141   6.538
 5610SOL    HW217730   4.342   0.214   6.394
 5611SOL     OW17731   1.966   4.676   3.799
 5611SOL    HW117732   1.914   4.761   3.804
 5611SOL    HW217733   2.005   4.666   3.708
 5612SOL     OW17734   2.071   0.512   5.178
 5612SOL    HW117735   2.030   0.487   5.090
 5612SOL    HW217736   2.004   0.497   5.251
 5613SOL     OW17737   3.868   4.811   1.627
 5613SOL    HW117738   3.961   4.802   1.593
 5613SOL    HW217739   3.857   4.902   1.668
 5614SOL     OW17740   4.844   2.365   3.452
 5614SOL    HW117741   4.765   2.305   3.444
 5614SOL    HW217742   4.823   2.441   3.513
 5615SOL     OW17743   1.315   1.556   1.270
 5615SOL    HW117744   1.399   1.571   1.322
 5615SOL    HW217745   1.259   1.639   1.273
 5616SOL     OW17746   2.556   0.193   4.700
 5616SOL    HW117747   2.596   0.189   4.608
 5616SOL    HW217748   2.458   0.177   4.694
 5617SOL     OW17749   1.092   0.992   4.929
 5617SOL    HW117750   1.007   0.955   4.966
 5617SOL    HW217751   1.154   1.014   5.004
 5618SOL     OW17752   6.430   4.660   2.840
 5618SOL    HW117753   6.454   4.632   2.934
 5618SOL    HW217754   6.472   4.748   2.820
 5619SOL     OW17755   2.083   3.682   4.818
 5619SOL    HW117756   2.116   3.587   4.821
 5619SOL    HW217757   2.070   3.716   4.911
 5620SOL     OW17758   3.635   2.357   6.516
 5620SOL    HW117759   3.710   2.422   6.532
 5620SOL    HW217760   3.556   2.383   6.571
 5621SOL     OW17761   1.905   2.112   6.738
 5621SOL    HW117762   1.824   2.170   6.735
 5621SOL    HW217763   1.977   2.153   6.682
 5622SOL     OW17764   5.888   0.697   5.546
 5622SOL    HW117765   5.918   0.790   5.526
 5622SOL    HW217766   5.910   0.675   5.641
 5623SOL     OW17767   0.376   5.886   6.574
 5623SOL    HW117768   0.400   5.981   6.597
 5623SOL    HW217769   0.329   5.885   6.486
 5624SOL     OW17770   1.405   4.111   2.795
 5624SOL    HW117771   1.378   4.033   2.851
 5624SOL    HW217772   1.493   4.092   2.752
 5625SOL     OW17773   6.382   2.235   5.611
 5625SOL    HW117774   6.289   2.244   5.576
 5625SOL    HW217775   6.446   2.277   5.547
 5626SOL     OW17776   4.502   0.121   4.342
 5626SOL    HW117777   4.594   0.157   4.325
 5626SOL    HW217778   4.451   0.118   4.255
 5627SOL     OW17779   1.316   6.138   0.939
 5627SOL    HW117780   1.270   6.191   0.868
 5627SOL    HW217781   1.336   6.046   0.906
 5628SOL     OW17782   0.982   0.994   4.398
 5628SOL    HW117783   0.953   1.089   4.387
 5628SOL    HW217784   1.004   0.977   4.494
 5629SOL     OW17785   3.646   3.430   2.799
 5629SOL    HW117786   3.684   3.496   2.733
 5629SOL    HW217787   3.684   3.339   2.781
 5630SOL     OW17788   0.256   4.487   1.740
 5630SOL    HW117789   0.313   4.425   1.794
 5630SOL    HW217790   0.172   4.507   1.791
 5631SOL     OW17791   4.515   0.603   6.861
 5631SOL    HW117792   4.611   0.608   6.833
 5631SOL    HW217793   4.457   0.590   6.780
 5632SOL     OW17794   3.113   3.166   0.222
 5632SOL    HW117795   3.106   3.208   0.132
 5632SOL    HW217796   3.076   3.073   0.217
 5633SOL     OW17797   6.281   2.751   4.907
 5633SOL    HW117798   6.206   2.796   4.956
 5633SOL    HW217799   6.276   2.773   4.810
 5634SOL     OW17800   4.618   5.676   4.323
 5634SOL    HW117801   4.526   5.709   4.341
 5634SOL    HW217802   4.662   5.735   4.255
 5635SOL     OW17803   3.099   2.088   5.254
 5635SOL    HW117804   3.158   2.136   5.189
 5635SOL    HW217805   3.004   2.100   5.229
 5636SOL     OW17806   3.925   6.155   3.847
 5636SOL    HW117807   4.005   6.209   3.873
 5636SOL    HW217808   3.891   6.186   3.758
 5637SOL     OW17809   5.786   0.136   3.249
 5637SOL    HW117810   5.739   0.102   3.331
 5637SOL    HW217811   5.883   0.113   3.255
 5638SOL     OW17812   4.870   3.767   6.507
 5638SOL    HW117813   4.895   3.844   6.448
 5638SOL    HW217814   4.780   3.733   6.481
 5639SOL     OW17815   3.001   0.262   6.875
 5639SOL    HW117816   3.005   0.170   6.913
 5639SOL    HW217817   3.072   0.318   6.916
 5640SOL     OW17818   2.247   0.003   3.219
 5640SOL    HW117819   2.166   0.033   3.168
 5640SOL    HW217820   2.230   6.938   3.257
 5641SOL     OW17821   5.967   5.917   4.550
 5641SOL    HW117822   5.977   5.869   4.463
 5641SOL    HW217823   5.918   5.859   4.615
 5642SOL     OW17824   1.792   2.065   6.989
 5642SOL    HW117825   1.816   1.981   0.011
 5642SOL    HW217826   1.835   2.066   6.899
 5643SOL     OW17827   5.719   2.114   5.000
 5643SOL    HW117828   5.652   2.148   5.067
 5643SOL    HW217829   5.737   2.017   5.018
 5644SOL     OW17830   2.994   6.990   6.461
 5644SOL    HW117831   3.073   0.023   6.478
 5644SOL    HW217832   3.027   6.900   6.433
 5645SOL     OW17833   5.162   3.429   4.825
 5645SOL    HW117834   5.090   3.398   4.763
 5645SOL    HW217835   5.241   3.459   4.771
 5646SOL     OW17836   1.678   4.288   2.885
 5646SOL    HW117837   1.655   4.225   2.811
 5646SOL    HW217838   1.602   4.352   2.899
 5647SOL     OW17839   6.601   6.584   2.636
 5647SOL    HW117840   6.527   6.516   2.634
 5647SOL    HW217841   6.646   6.586   2.547
 5648SOL     OW17842   4.686   6.356   3.169
 5648SOL    HW117843   4.733   6.442   3.147
 5648SOL    HW217844   4.676   6.348   3.268
 5649SOL     OW17845   0.913   6.506   4.590
 5649SOL    HW117846   0.970   6.484   4.669
 5649SOL    HW217847   0.946   6.455   4.511
 5650SOL     OW17848   6.721   4.112   6.834
 5650SOL    HW117849   6.707   4.158   6.746
 5650SOL    HW217850   6.636   4.070   6.864
 5651SOL     OW17851   2.992   0.911   1.164
 5651SOL    HW117852   3.004   0.993   1.220
 5651SOL    HW217853   2.979   0.832   1.224
 5652SOL     OW17854   0.762   5.762   1.501
 5652SOL    HW117855   0.833   5.737   1.435
 5652SOL    HW217856   0.697   5.687   1.511
 5653SOL     OW17857   0.181   0.189   1.675
 5653SOL    HW117858   0.184   0.269   1.735
 5653SOL    HW217859   0.149   0.110   1.727
 5654SOL     OW17860   3.341   5.695   4.415
 5654SOL    HW117861   3.295   5.632   4.476
 5654SOL    HW217862   3.345   5.786   4.457
 5655SOL     OW17863   5.869   2.472   5.156
 5655SOL    HW117864   5.962   2.485   5.192
 5655SOL    HW217865   5.876   2.437   5.062
 5656SOL     OW17866   6.586   3.333   0.151
 5656SOL    HW117867   6.599   3.238   0.125
 5656SOL    HW217868   6.640   3.353   0.233
 5657SOL     OW17869   5.336   5.722   4.748
 5657SOL    HW117870   5.287   5.743   4.832
 5657SOL    HW217871   5.310   5.631   4.715
 5658SOL     OW17872   2.220   2.984   6.028
 5658SOL    HW117873   2.229   3.059   5.962
 5658SOL    HW217874   2.138   2.932   6.008
 5659SOL     OW17875   2.749   3.807   0.039
 5659SOL    HW117876   2.784   3.801   0.133
 5659SOL    HW217877   2.715   3.900   0.022
 5660SOL     OW17878   4.779   0.648   5.916
 5660SOL    HW117879   4.732   0.731   5.886
 5660SOL    HW217880   4.718   0.594   5.973
 5661SOL     OW17881   1.324   5.548   5.752
 5661SOL    HW117882   1.393   5.617   5.774
 5661SOL    HW217883   1.357   5.491   5.677
 5662SOL     OW17884   3.402   6.354   0.790
 5662SOL    HW117885   3.363   6.282   0.848
 5662SOL    HW217886   3.434   6.429   0.847
 5663SOL     OW17887   1.684   3.523   6.256
 5663SOL    HW117888   1.723   3.444   6.210
 5663SOL    HW217889   1.692   3.511   6.355
 5664SOL     OW17890   4.799   4.472   4.584
 5664SOL    HW117891   4.805   4.396   4.649
 5664SOL    HW217892   4.706   4.475   4.545
 5665SOL     OW17893   1.680   1.805   0.970
 5665SOL    HW117894   1.668   1.706   0.977
 5665SOL    HW217895   1.640   1.837   0.884
 5666SOL     OW17896   6.034   2.127   5.045
 5666SOL    HW117897   6.004   2.212   5.001
 5666SOL    HW217898   6.133   2.128   5.057
 5667SOL     OW17899   2.651   4.694   4.377
 5667SOL    HW117900   2.594   4.621   4.340
 5667SOL    HW217901   2.647   4.691   4.477
 5668SOL     OW17902   4.771   4.082   3.464
 5668SOL    HW117903   4.740   4.106   3.556
 5668SOL    HW217904   4.729   4.144   3.397
 5669SOL     OW17905   5.557   4.340   6.063
 5669SOL    HW117906   5.508   4.254   6.079
 5669SOL    HW217907   5.524   4.382   5.978
 5670SOL     OW17908   1.357   2.331   3.458
 5670SOL    HW117909   1.392   2.420   3.427
 5670SOL    HW217910   1.425   2.288   3.518
 5671SOL     OW17911   0.296   6.270   3.819
 5671SOL    HW117912   0.361   6.195   3.823
 5671SOL    HW217913   0.248   6.277   3.907
 5672SOL     OW17914   5.219   3.128   4.545
 5672SOL    HW117915   5.127   3.092   4.561
 5672SOL    HW217916   5.273   3.119   4.629
 5673SOL     OW17917   1.010   1.357   0.663
 5673SOL    HW117918   1.056   1.377   0.577
 5673SOL    HW217919   0.934   1.294   0.646
 5674SOL     OW17920   2.388   4.768   4.977
 5674SOL    HW117921   2.336   4.704   5.033
 5674SOL    HW217922   2.451   4.718   4.918
 5675SOL     OW17923   2.696   1.107   1.111
 5675SOL    HW117924   2.768   1.173   1.085
 5675SOL    HW217925   2.653   1.071   1.029
 5676SOL     OW17926   3.048   1.130   1.844
 5676SOL    HW117927   3.108   1.098   1.770
 5676SOL    HW217928   3.100   1.189   1.905
 5677SOL     OW17929   0.143   1.445   6.928
 5677SOL    HW117930   0.215   1.478   6.988
 5677SOL    HW217931   0.184   1.403   6.847
 5678SOL     OW17932   3.384   2.003   2.045
 5678SOL    HW117933   3.358   1.995   2.141
 5678SOL    HW217934   3.463   2.063   2.037
 5679SOL     OW17935   6.605   3.362   5.061
 5679SOL    HW117936   6.570   3.441   5.011
 5679SOL    HW217937   6.542   3.285   5.051
 5680SOL     OW17938   0.741   5.593   4.867
 5680SOL    HW117939   0.785   5.669   4.819
 5680SOL    HW217940   0.811   5.526   4.894
 5681SOL     OW17941   1.075   3.357   3.923
 5681SOL    HW117942   1.165   3.318   3.904
 5681SOL    HW217943   1.054   3.427   3.854
 5682SOL     OW17944   2.152   4.825   1.391
 5682SOL    HW117945   2.223   4.760   1.416
 5682SOL    HW217946   2.127   4.880   1.471
 5683SOL     OW17947   6.384   0.620   5.927
 5683SOL    HW117948   6.408   0.694   5.864
 5683SOL    HW217949   6.443   0.625   6.008
 5684SOL     OW17950   2.360   2.818   4.879
 5684SOL    HW117951   2.347   2.744   4.945
 5684SOL    HW217952   2.364   2.905   4.929
 5685SOL     OW17953   2.502   1.857   2.138
 5685SOL    HW117954   2.557   1.934   2.105
 5685SOL    HW217955   2.557   1.801   2.199
 5686SOL     OW17956   4.638   5.937   6.052
 5686SOL    HW117957   4.598   6.014   6.001
 5686SOL    HW217958   4.620   5.950   6.149
 5687SOL     OW17959   1.730   6.183   6.247
 5687SOL    HW117960   1.637   6.192   6.212
 5687SOL    HW217961   1.775   6.272   6.245
 5688SOL     OW17962   1.861   1.849   2.721
 5688SOL    HW117963   1.940   1.872   2.664
 5688SOL    HW217964   1.788   1.811   2.663
 5689SOL     OW17965   0.048   2.511   1.475
 5689SOL    HW117966   0.128   2.461   1.441
 5689SOL    HW217967   6.991   2.464   1.448
 5690SOL     OW17968   2.149   4.889   6.827
 5690SOL    HW117969   2.210   4.850   6.759
 5690SOL    HW217970   2.106   4.816   6.880
 5691SOL     OW17971   4.060   1.618   3.142
 5691SOL    HW117972   4.108   1.545   3.093
 5691SOL    HW217973   4.045   1.590   3.237
 5692SOL     OW17974   5.832   4.678   2.037
 5692SOL    HW117975   5.892   4.621   2.094
 5692SOL    HW217976   5.742   4.684   2.080
 5693SOL     OW17977   4.144   0.421   1.594
 5693SOL    HW117978   4.203   0.346   1.565
 5693SOL    HW217979   4.055   0.384   1.620
 5694SOL     OW17980   0.980   7.014   1.345
 5694SOL    HW117981   0.926   6.930   1.337
 5694SOL    HW217982   1.074   6.996   1.314
 5695SOL     OW17983   2.510   0.757   1.922
 5695SOL    HW117984   2.489   0.764   1.825
 5695SOL    HW217985   2.474   0.837   1.970
 5696SOL     OW17986   1.321   0.306   4.181
 5696SOL    HW117987   1.349   0.309   4.086
 5696SOL    HW217988   1.230   0.347   4.191
 5697SOL     OW17989   6.242   2.652   0.523
 5697SOL    HW117990   6.231   2.738   0.574
 5697SOL    HW217991   6.258   2.673   0.427
 5698SOL     OW17992   2.916   1.986   4.535
 5698SOL    HW117993   2.883   1.976   4.629
 5698SOL    HW217994   3.013   1.963   4.532
 5699SOL     OW17995   1.919   2.776   2.493
 5699SOL    HW117996   1.889   2.680   2.500
 5699SOL    HW217997   2.019   2.780   2.491
 5700SOL     OW17998   6.109   0.512   3.122
 5700SOL    HW117999   6.050   0.573   3.070
 5700SOL    HW218000   6.183   0.565   3.164
 5701SOL     OW18001   6.986   0.748   0.678
 5701SOL    HW118002   0.006   0.701   0.602
 5701SOL    HW218003   6.981   0.687   0.757
 5702SOL     OW18004   2.258   0.061   4.737
 5702SOL    HW118005   2.180   7.026   4.750
 5702SOL    HW218006   2.234   0.133   4.672
 5703SOL     OW18007   0.732   3.308   6.449
 5703SOL    HW118008   0.782   3.222   6.433
 5703SOL    HW218009   0.679   3.301   6.533
 5704SOL     OW18010   4.128   5.947   3.923
 5704SOL    HW118011   4.145   5.945   3.824
 5704SOL    HW218012   4.044   5.998   3.941
 5705SOL     OW18013   5.953   0.580   5.779
 5705SOL    HW118014   5.890   0.516   5.825
 5705SOL    HW218015   6.042   0.535   5.767
 5706SOL     OW18016   4.760   1.942   0.545
 5706SOL    HW118017   4.710   1.992   0.475
 5706SOL    HW218018   4.788   1.853   0.508
 5707SOL     OW18019   5.892   5.272   1.734
 5707SOL    HW118020   5.824   5.238   1.799
 5707SOL    HW218021   5.941   5.194   1.695
 5708SOL     OW18022   5.342   6.535   2.387
 5708SOL    HW118023   5.441   6.542   2.383
 5708SOL    HW218024   5.315   6.482   2.467
 5709SOL     OW18025   6.878   2.529   2.517
 5709SOL    HW118026   6.963   2.511   2.469
 5709SOL    HW218027   6.897   2.542   2.615
 5710SOL     OW18028   3.761   1.897   0.604
 5710SOL    HW118029   3.744   1.949   0.688
 5710SOL    HW218030   3.698   1.928   0.532
 5711SOL     OW18031   5.589   2.014   3.140
 5711SOL    HW118032   5.591   1.960   3.056
 5711SOL    HW218033   5.519   1.976   3.202
 5712SOL     OW18034   6.556   0.353   0.245
 5712SOL    HW118035   6.610   0.419   0.193
 5712SOL    HW218036   6.468   0.340   0.200
 5713SOL     OW18037   2.081   1.201   0.497
 5713SOL    HW118038   2.003   1.157   0.542
 5713SOL    HW218039   2.165   1.176   0.544
 5714SOL     OW18040   6.134   0.168   0.494
 5714SOL    HW118041   6.230   0.198   0.488
 5714SOL    HW218042   6.077   0.232   0.442
 5715SOL     OW18043   0.586   0.219   2.145
 5715SOL    HW118044   0.672   0.236   2.193
 5715SOL    HW218045   0.515   0.282   2.178
 5716SOL     OW18046   6.235   4.344   5.181
 5716SOL    HW118047   6.139   4.316   5.187
 5716SOL    HW218048   6.276   4.306   5.098
 5717SOL     OW18049   1.330   5.221   3.428
 5717SOL    HW118050   1.266   5.217   3.351
 5717SOL    HW218051   1.305   5.152   3.495
 5718SOL     OW18052   1.021   3.161   7.007
 5718SOL    HW118053   1.022   3.071   6.963
 5718SOL    HW218054   0.993   3.230   6.940
 5719SOL     OW18055   2.417   3.284   0.737
 5719SOL    HW118056   2.448   3.197   0.699
 5719SOL    HW218057   2.378   3.341   0.665
 5720SOL     OW18058   3.128   4.858   5.737
 5720SOL    HW118059   3.100   4.853   5.833
 5720SOL    HW218060   3.185   4.939   5.723
 5721SOL     OW18061   1.832   2.780   0.062
 5721SOL    HW118062   1.761   2.838   0.102
 5721SOL    HW218063   1.887   2.833   7.025
 5722SOL     OW18064   1.328   0.268   0.244
 5722SOL    HW118065   1.358   0.214   0.322
 5722SOL    HW218066   1.237   0.237   0.214
 5723SOL     OW18067   3.896   3.382   0.491
 5723SOL    HW118068   3.958   3.311   0.525
 5723SOL    HW218069   3.944   3.470   0.489
 5724SOL     OW18070   5.386   2.263   5.751
 5724SOL    HW118071   5.356   2.351   5.789
 5724SOL    HW218072   5.450   2.220   5.814
 5725SOL     OW18073   0.161   4.184   5.047
 5725SOL    HW118074   0.136   4.276   5.076
 5725SOL    HW218075   0.177   4.183   4.949
 5726SOL     OW18076   5.355   4.023   2.474
 5726SOL    HW118077   5.361   4.070   2.562
 5726SOL    HW218078   5.429   3.956   2.467
 5727SOL     OW18079   0.743   2.653   5.233
 5727SOL    HW118080   0.760   2.559   5.204
 5727SOL    HW218081   0.712   2.707   5.155
 5728SOL     OW18082   4.498   0.170   4.948
 5728SOL    HW118083   4.554   0.196   4.870
 5728SOL    HW218084   4.403   0.157   4.919
 5729SOL     OW18085   2.541   1.917   4.823
 5729SOL    HW118086   2.629   1.962   4.805
 5729SOL    HW218087   2.545   1.822   4.790
 5730SOL     OW18088   6.805   4.410   4.694
 5730SOL    HW118089   6.756   4.429   4.608
 5730SOL    HW218090   6.744   4.428   4.771
 5731SOL     OW18091   0.713   6.851   2.990
 5731SOL    HW118092   0.810   6.876   2.979
 5731SOL    HW218093   0.656   6.922   2.948
 5732SOL     OW18094   0.308   0.722   3.690
 5732SOL    HW118095   0.210   0.716   3.674
 5732SOL    HW218096   0.348   0.791   3.630
 5733SOL     OW18097   3.029   0.400   5.410
 5733SOL    HW118098   3.049   0.488   5.365
 5733SOL    HW218099   3.109   0.341   5.403
 5734SOL     OW18100   1.697   6.801   3.828
 5734SOL    HW118101   1.786   6.755   3.833
 5734SOL    HW218102   1.706   6.886   3.776
 5735SOL     OW18103   3.293   0.817   1.977
 5735SOL    HW118104   3.321   0.754   2.049
 5735SOL    HW218105   3.340   0.905   1.988
 5736SOL     OW18106   1.546   5.598   6.809
 5736SOL    HW118107   1.621   5.533   6.810
 5736SOL    HW218108   1.574   5.683   6.855
 5737SOL     OW18109   5.557   4.567   0.308
 5737SOL    HW118110   5.460   4.566   0.281
 5737SOL    HW218111   5.614   4.572   0.226
 5738SOL     OW18112   1.162   4.396   5.526
 5738SOL    HW118113   1.224   4.377   5.451
 5738SOL    HW218114   1.101   4.471   5.501
 5739SOL     OW18115   0.994   2.425   1.739
 5739SOL    HW118116   0.986   2.355   1.668
 5739SOL    HW218117   1.065   2.398   1.804
 5740SOL     OW18118   3.699   5.697   6.913
 5740SOL    HW118119   3.767   5.636   6.955
 5740SOL    HW218120   3.641   5.645   6.851
 5741SOL     OW18121   0.088   4.559   1.973
 5741SOL    HW118122   0.007   4.501   1.978
 5741SOL    HW218123   0.061   4.655   1.964
 5742SOL     OW18124   0.131   5.716   4.283
 5742SOL    HW118125   0.184   5.794   4.317
 5742SOL    HW218126   0.093   5.665   4.360
 5743SOL     OW18127   1.809   6.139   4.296
 5743SOL    HW118128   1.758   6.197   4.360
 5743SOL    HW218129   1.840   6.193   4.219
 5744SOL     OW18130   6.009   0.229   1.960
 5744SOL    HW118131   6.068   0.305   1.936
 5744SOL    HW218132   5.934   0.261   2.017
 5745SOL     OW18133   1.228   2.351   3.118
 5745SOL    HW118134   1.174   2.434   3.102
 5745SOL    HW218135   1.203   2.311   3.206
 5746SOL     OW18136   6.403   4.712   0.053
 5746SOL    HW118137   6.501   4.714   0.032
 5746SOL    HW218138   6.390   4.693   0.150
 5747SOL     OW18139   0.566   6.400   3.152
 5747SOL    HW118140   0.569   6.486   3.103
 5747SOL    HW218141   0.531   6.328   3.092
 5748SOL     OW18142   1.935   6.822   3.643
 5748SOL    HW118143   1.985   6.906   3.666
 5748SOL    HW218144   1.858   6.845   3.583
 5749SOL     OW18145   1.895   1.093   3.117
 5749SOL    HW118146   1.842   1.168   3.076
 5749SOL    HW218147   1.984   1.127   3.146
 5750SOL     OW18148   6.074   5.684   2.273
 5750SOL    HW118149   6.004   5.697   2.343
 5750SOL    HW218150   6.039   5.622   2.202
 5751SOL     OW18151   1.130   2.915   6.385
 5751SOL    HW118152   1.081   2.936   6.301
 5751SOL    HW218153   1.171   2.999   6.421
 5752SOL     OW18154   0.796   1.138   6.653
 5752SOL    HW118155   0.763   1.064   6.711
 5752SOL    HW218156   0.748   1.223   6.675
 5753SOL     OW18157   4.395   1.700   0.385
 5753SOL    HW118158   4.458   1.669   0.314
 5753SOL    HW218159   4.342   1.622   0.419
 5754SOL     OW18160   6.407   5.277   0.424
 5754SOL    HW118161   6.472   5.267   0.348
 5754SOL    HW218162   6.411   5.197   0.483
 5755SOL     OW18163   3.515   3.780   1.623
 5755SOL    HW118164   3.555   3.855   1.569
 5755SOL    HW218165   3.505   3.699   1.566
 5756SOL     OW18166   6.927   6.502   4.271
 5756SOL    HW118167   6.953   6.499   4.174
 5756SOL    HW218168   6.908   6.597   4.297
 5757SOL     OW18169   0.307   6.308   2.209
 5757SOL    HW118170   0.230   6.340   2.264
 5757SOL    HW218171   0.368   6.384   2.189
 5758SOL     OW18172   2.292   1.562   5.688
 5758SOL    HW118173   2.197   1.578   5.714
 5758SOL    HW218174   2.332   1.647   5.654
 5759SOL     OW18175   0.366   2.139   5.616
 5759SOL    HW118176   0.346   2.054   5.569
 5759SOL    HW218177   0.366   2.123   5.715
 5760SOL     OW18178   1.380   5.093   1.622
 5760SOL    HW118179   1.433   5.053   1.696
 5760SOL    HW218180   1.308   5.029   1.593
 5761SOL     OW18181   5.786   0.402   4.563
 5761SOL    HW118182   5.816   0.349   4.642
 5761SOL    HW218183   5.750   0.490   4.594
 5762SOL     OW18184   5.719   6.311   1.598
 5762SOL    HW118185   5.774   6.280   1.521
 5762SOL    HW218186   5.624   6.286   1.585
 5763SOL     OW18187   1.644   1.546   0.937
 5763SOL    HW118188   1.546   1.527   0.948
 5763SOL    HW218189   1.664   1.556   0.839
 5764SOL     OW18190   4.685   2.954   6.468
 5764SOL    HW118191   4.687   2.994   6.376
 5764SOL    HW218192   4.769   2.902   6.483
 5765SOL     OW18193   6.562   5.777   0.330
 5765SOL    HW118194   6.595   5.785   0.236
 5765SOL    HW218195   6.464   5.757   0.329
 5766SOL     OW18196   3.335   1.191   3.263
 5766SOL    HW118197   3.357   1.228   3.172
 5766SOL    HW218198   3.331   1.265   3.329
 5767SOL     OW18199   6.031   0.400   0.861
 5767SOL    HW118200   6.131   0.395   0.862
 5767SOL    HW218201   6.001   0.454   0.782
 5768SOL     OW18202   6.261   0.897   2.679
 5768SOL    HW118203   6.224   0.936   2.595
 5768SOL    HW218204   6.277   0.799   2.666
 5769SOL     OW18205   2.096   5.413   3.429
 5769SOL    HW118206   2.023   5.476   3.456
 5769SOL    HW218207   2.137   5.373   3.512
 5770SOL     OW18208   5.628   2.206   1.638
 5770SOL    HW118209   5.568   2.271   1.592
 5770SOL    HW218210   5.620   2.116   1.594
 5771SOL     OW18211   0.582   0.993   0.685
 5771SOL    HW118212   0.629   0.929   0.624
 5771SOL    HW218213   0.516   1.047   0.633
 5772SOL     OW18214   6.358   4.410   6.615
 5772SOL    HW118215   6.258   4.417   6.608
 5772SOL    HW218216   6.384   4.392   6.710
 5773SOL     OW18217   4.879   6.069   4.972
 5773SOL    HW118218   4.850   6.133   5.044
 5773SOL    HW218219   4.803   6.007   4.952
 5774SOL     OW18220   2.395   4.836   2.844
 5774SOL    HW118221   2.413   4.843   2.746
 5774SOL    HW218222   2.414   4.924   2.887
 5775SOL     OW18223   0.642   0.655   0.482
 5775SOL    HW118224   0.615   0.644   0.577
 5775SOL    HW218225   0.561   0.657   0.424
 5776SOL     OW18226   4.410   1.405   6.172
 5776SOL    HW118227   4.428   1.451   6.259
 5776SOL    HW218228   4.392   1.473   6.102
 5777SOL     OW18229   5.732   0.419   5.318
 5777SOL    HW118230   5.706   0.399   5.413
 5777SOL    HW218231   5.777   0.508   5.314
 5778SOL     OW18232   2.571   6.424   3.884
 5778SOL    HW118233   2.554   6.518   3.853
 5778SOL    HW218234   2.668   6.413   3.903
 5779SOL     OW18235   4.526   0.326   0.754
 5779SOL    HW118236   4.482   0.398   0.809
 5779SOL    HW218237   4.578   0.368   0.680
 5780SOL     OW18238   6.058   3.965   0.562
 5780SOL    HW118239   6.036   4.043   0.502
 5780SOL    HW218240   6.149   3.930   0.538
 5781SOL     OW18241   3.188   4.657   5.265
 5781SOL    HW118242   3.107   4.642   5.207
 5781SOL    HW218243   3.172   4.736   5.324
 5782SOL     OW18244   4.548   1.963   3.454
 5782SOL    HW118245   4.493   1.981   3.536
 5782SOL    HW218246   4.487   1.956   3.375
 5783SOL     OW18247   2.373   6.843   2.087
 5783SOL    HW118248   2.470   6.820   2.085
 5783SOL    HW218249   2.332   6.809   2.171
 5784SOL     OW18250   1.409   5.951   6.723
 5784SOL    HW118251   1.453   6.040   6.711
 5784SOL    HW218252   1.469   5.891   6.776
 5785SOL     OW18253   2.200   2.142   6.907
 5785SOL    HW118254   2.188   2.060   6.852
 5785SOL    HW218255   2.245   2.212   6.852
 5786SOL     OW18256   0.379   2.625   6.160
 5786SOL    HW118257   0.346   2.574   6.081
 5786SOL    HW218258   0.477   2.606   6.173
 5787SOL     OW18259   0.398   2.920   5.165
 5787SOL    HW118260   0.376   3.002   5.219
 5787SOL    HW218261   0.367   2.839   5.214
 5788SOL     OW18262   0.405   2.032   1.817
 5788SOL    HW118263   0.358   2.067   1.898
 5788SOL    HW218264   0.483   1.977   1.844
 5789SOL     OW18265   3.072   5.237   6.890
 5789SOL    HW118266   3.086   5.242   6.792
 5789SOL    HW218267   3.000   5.170   6.910
 5790SOL     OW18268   6.452   6.306   2.619
 5790SOL    HW118269   6.482   6.240   2.549
 5790SOL    HW218270   6.357   6.287   2.645
 5791SOL     OW18271   3.846   0.855   1.137
 5791SOL    HW118272   3.811   0.761   1.141
 5791SOL    HW218273   3.787   0.910   1.079
 5792SOL     OW18274   4.612   2.188   2.330
 5792SOL    HW118275   4.569   2.268   2.374
 5792SOL    HW218276   4.600   2.195   2.231
 5793SOL     OW18277   3.277   1.841   7.019
 5793SOL    HW118278   3.204   1.796   6.967
 5793SOL    HW218279   3.240   1.924   0.035
 5794SOL     OW18280   3.357   5.870   6.877
 5794SOL    HW118281   3.429   5.802   6.865
 5794SOL    HW218282   3.276   5.827   6.916
 5795SOL     OW18283   1.201   0.003   0.899
 5795SOL    HW118284   1.173   0.098   0.888
 5795SOL    HW218285   1.121   6.970   0.899
 5796SOL     OW18286   4.905   0.933   6.081
 5796SOL    HW118287   4.921   0.859   6.015
 5796SOL    HW218288   4.979   0.934   6.148
 5797SOL     OW18289   0.248   2.486   6.910
 5797SOL    HW118290   0.286   2.535   6.989
 5797SOL    HW218291   0.292   2.397   6.902
 5798SOL     OW18292   2.171   2.781   4.497
 5798SOL    HW118293   2.252   2.825   4.535
 5798SOL    HW218294   2.094   2.846   4.499
 5799SOL     OW18295   2.711   0.173   3.754
 5799SOL    HW118296   2.633   0.169   3.816
 5799SOL    HW218297   2.679   0.192   3.661
 5800SOL     OW18298   1.260   6.417   2.229
 5800SOL    HW118299   1.344   6.388   2.275
 5800SOL    HW218300   1.213   6.337   2.191
 5801SOL     OW18301   1.877   1.545   2.824
 5801SOL    HW118302   1.784   1.560   2.858
 5801SOL    HW218303   1.928   1.631   2.830
 5802SOL     OW18304   0.736   0.220   3.051
 5802SOL    HW118305   0.777   0.211   2.960
 5802SOL    HW218306   0.675   0.143   3.067
 5803SOL     OW18307   0.260   6.769   4.369
 5803SOL    HW118308   0.216   6.680   4.364
 5803SOL    HW218309   0.359   6.758   4.368
 5804SOL     OW18310   6.514   2.187   3.305
 5804SOL    HW118311   6.613   2.177   3.298
 5804SOL    HW218312   6.471   2.162   3.218
 5805SOL     OW18313   0.999   2.629   1.942
 5805SOL    HW118314   1.001   2.564   1.866
 5805SOL    HW218315   0.931   2.600   2.009
 5806SOL     OW18316   6.504   3.925   2.116
 5806SOL    HW118317   6.577   3.989   2.141
 5806SOL    HW218318   6.415   3.967   2.136
 5807SOL     OW18319   1.037   1.541   2.073
 5807SOL    HW118320   0.988   1.457   2.096
 5807SOL    HW218321   1.099   1.524   1.996
 5808SOL     OW18322   0.219   0.612   5.415
 5808SOL    HW118323   0.286   0.600   5.489
 5808SOL    HW218324   0.142   0.667   5.448
 5809SOL     OW18325   6.940   3.711   4.324
 5809SOL    HW118326   6.903   3.668   4.241
 5809SOL    HW218327   7.011   3.653   4.363
 5810SOL     OW18328   2.044   6.546   5.675
 5810SOL    HW118329   1.997   6.633   5.691
 5810SOL    HW218330   2.008   6.503   5.593
 5811SOL     OW18331   3.875   4.979   6.815
 5811SOL    HW118332   3.949   5.025   6.766
 5811SOL    HW218333   3.850   4.895   6.766
 5812SOL     OW18334   6.281   3.779   6.269
 5812SOL    HW118335   6.235   3.857   6.228
 5812SOL    HW218336   6.282   3.788   6.368
 5813SOL     OW18337   5.466   4.491   0.591
 5813SOL    HW118338   5.470   4.568   0.656
 5813SOL    HW218339   5.505   4.520   0.504
 5814SOL     OW18340   5.852   1.111   2.710
 5814SOL    HW118341   5.909   1.068   2.780
 5814SOL    HW218342   5.891   1.199   2.684
 5815SOL     OW18343   6.570   3.923   4.809
 5815SOL    HW118344   6.582   4.019   4.784
 5815SOL    HW218345   6.646   3.895   4.868
 5816SOL     OW18346   6.815   4.256   1.216
 5816SOL    HW118347   6.752   4.208   1.155
 5816SOL    HW218348   6.785   4.350   1.227
 5817SOL     OW18349   6.947   2.699   3.862
 5817SOL    HW118350   6.884   2.764   3.907
 5817SOL    HW218351   0.015   2.724   3.885
 5818SOL     OW18352   2.680   0.203   4.435
 5818SOL    HW118353   2.680   0.106   4.412
 5818SOL    HW218354   2.768   0.244   4.408
 5819SOL     OW18355   4.732   4.134   1.225
 5819SOL    HW118356   4.777   4.195   1.160
 5819SOL    HW218357   4.634   4.131   1.205
 5820SOL     OW18358   0.098   6.802   2.688
 5820SOL    HW118359   0.153   6.877   2.724
 5820SOL    HW218360   0.011   6.798   2.736
 5821SOL     OW18361   6.507   6.735   2.081
 5821SOL    HW118362   6.407   6.741   2.076
 5821SOL    HW218363   6.544   6.721   1.989
 5822SOL     OW18364   0.399   3.763   2.501
 5822SOL    HW118365   0.449   3.795   2.421
 5822SOL    HW218366   0.344   3.837   2.539
 5823SOL     OW18367   2.481   6.733   5.063
 5823SOL    HW118368   2.443   6.804   5.004
 5823SOL    HW218369   2.519   6.659   5.007
 5824SOL     OW18370   1.904   6.188   2.068
 5824SOL    HW118371   1.931   6.099   2.031
 5824SOL    HW218372   1.925   6.259   2.002
 5825SOL     OW18373   4.437   1.860   4.961
 5825SOL    HW118374   4.354   1.898   5.002
 5825SOL    HW218375   4.412   1.794   4.890
 5826SOL     OW18376   1.484   6.228   4.661
 5826SOL    HW118377   1.469   6.132   4.640
 5826SOL    HW218378   1.484   6.241   4.760
 5827SOL     OW18379   2.135   3.696   3.189
 5827SOL    HW118380   2.153   3.602   3.220
 5827SOL    HW218381   2.076   3.742   3.254
 5828SOL     OW18382   4.762   6.725   5.653
 5828SOL    HW118383   4.743   6.807   5.599
 5828SOL    HW218384   4.677   6.672   5.663
 5829SOL     OW18385   2.076   0.129   2.781
 5829SOL    HW118386   2.145   0.139   2.709
 5829SOL    HW218387   2.010   0.204   2.775
 5830SOL     OW18388   4.295   5.701   4.305
 5830SOL    HW118389   4.321   5.737   4.394
 5830SOL    HW218390   4.302   5.602   4.305
 5831SOL     OW18391   2.407   2.321   4.367
 5831SOL    HW118392   2.344   2.259   4.414
 5831SOL    HW218393   2.490   2.271   4.341
 5832SOL     OW18394   2.410   5.663   3.775
 5832SOL    HW118395   2.485   5.676   3.840
 5832SOL    HW218396   2.435   5.592   3.709
 5833SOL     OW18397   3.113   5.069   0.523
 5833SOL    HW118398   3.147   5.121   0.601
 5833SOL    HW218399   3.061   4.990   0.555
 5834SOL     OW18400   6.500   2.473   6.386
 5834SOL    HW118401   6.427   2.539   6.402
 5834SOL    HW218402   6.577   2.494   6.445
 5835SOL     OW18403   4.294   1.454   3.464
 5835SOL    HW118404   4.363   1.398   3.511
 5835SOL    HW218405   4.339   1.509   3.394
 5836SOL     OW18406   4.559   5.835   1.352
 5836SOL    HW118407   4.537   5.910   1.414
 5836SOL    HW218408   4.475   5.784   1.330
 5837SOL     OW18409   2.978   4.066   0.476
 5837SOL    HW118410   2.988   4.147   0.418
 5837SOL    HW218411   2.897   4.076   0.533
 5838SOL     OW18412   3.205   3.394   0.052
 5838SOL    HW118413   3.247   3.434   0.134
 5838SOL    HW218414   3.255   3.312   0.025
 5839SOL     OW18415   1.852   1.550   0.416
 5839SOL    HW118416   1.801   1.480   0.367
 5839SOL    HW218417   1.941   1.513   0.444
 5840SOL     OW18418   0.782   3.567   2.745
 5840SOL    HW118419   0.738   3.499   2.686
 5840SOL    HW218420   0.729   3.578   2.829
 5841SOL     OW18421   5.013   1.528   0.575
 5841SOL    HW118422   5.060   1.566   0.655
 5841SOL    HW218423   4.947   1.594   0.540
 5842SOL     OW18424   3.281   2.032   2.282
 5842SOL    HW118425   3.276   2.054   2.379
 5842SOL    HW218426   3.210   2.081   2.232
 5843SOL     OW18427   3.211   3.257   0.698
 5843SOL    HW118428   3.191   3.298   0.609
 5843SOL    HW218429   3.286   3.192   0.689
 5844SOL     OW18430   0.797   5.202   5.304
 5844SOL    HW118431   0.882   5.149   5.311
 5844SOL    HW218432   0.752   5.205   5.393
 5845SOL     OW18433   1.887   6.714   2.615
 5845SOL    HW118434   1.933   6.803   2.617
 5845SOL    HW218435   1.793   6.724   2.649
 5846SOL     OW18436   0.690   4.720   5.642
 5846SOL    HW118437   0.687   4.758   5.550
 5846SOL    HW218438   0.727   4.627   5.639
 5847SOL     OW18439   1.557   4.508   6.320
 5847SOL    HW118440   1.470   4.557   6.309
 5847SOL    HW218441   1.633   4.573   6.313
 5848SOL     OW18442   2.367   6.733   1.744
 5848SOL    HW118443   2.308   6.659   1.778
 5848SOL    HW218444   2.459   6.697   1.726
 5849SOL     OW18445   2.685   5.493   6.437
 5849SOL    HW118446   2.697   5.588   6.407
 5849SOL    HW218447   2.606   5.488   6.498
 5850SOL     OW18448   6.546   1.124   1.870
 5850SOL    HW118449   6.590   1.051   1.818
 5850SOL    HW218450   6.559   1.108   1.968
 5851SOL     OW18451   0.268   3.835   4.791
 5851SOL    HW118452   0.266   3.740   4.823
 5851SOL    HW218453   0.350   3.849   4.736
 5852SOL     OW18454   5.063   4.089   2.712
 5852SOL    HW118455   5.102   4.178   2.733
 5852SOL    HW218456   4.992   4.100   2.642
 5853SOL     OW18457   4.717   4.913   0.566
 5853SOL    HW118458   4.661   4.841   0.608
 5853SOL    HW218459   4.745   4.885   0.474
 5854SOL     OW18460   2.853   4.464   5.401
 5854SOL    HW118461   2.911   4.501   5.473
 5854SOL    HW218462   2.882   4.499   5.312
 5855SOL     OW18463   2.120   2.648   4.249
 5855SOL    HW118464   2.196   2.586   4.233
 5855SOL    HW218465   2.128   2.689   4.340
 5856SOL     OW18466   0.598   0.643   2.911
 5856SOL    HW118467   0.558   0.712   2.971
 5856SOL    HW218468   0.643   0.573   2.966
 5857SOL     OW18469   5.611   5.282   0.006
 5857SOL    HW118470   5.554   5.205   0.035
 5857SOL    HW218471   5.614   5.286   6.932
 5858SOL     OW18472   2.240   1.568   2.407
 5858SOL    HW118473   2.285   1.657   2.399
 5858SOL    HW218474   2.307   1.499   2.433
 5859SOL     OW18475   5.365   5.166   2.013
 5859SOL    HW118476   5.316   5.114   2.083
 5859SOL    HW218477   5.448   5.117   1.988
 5860SOL     OW18478   1.547   3.361   2.719
 5860SOL    HW118479   1.560   3.315   2.807
 5860SOL    HW218480   1.528   3.294   2.648
 5861SOL     OW18481   5.868   0.658   5.263
 5861SOL    HW118482   5.965   0.633   5.257
 5861SOL    HW218483   5.848   0.687   5.357
 5862SOL     OW18484   6.792   5.052   3.069
 5862SOL    HW118485   6.760   5.037   3.163
 5862SOL    HW218486   6.717   5.089   3.014
 5863SOL     OW18487   3.986   6.934   5.754
 5863SOL    HW118488   3.991   7.025   5.794
 5863SOL    HW218489   3.953   6.940   5.660
 5864SOL     OW18490   4.017   3.236   2.707
 5864SOL    HW118491   3.961   3.160   2.739
 5864SOL    HW218492   4.044   3.221   2.612
 5865SOL     OW18493   6.446   6.748   1.509
 5865SOL    HW118494   6.441   6.666   1.565
 5865SOL    HW218495   6.358   6.762   1.463
 5866SOL     OW18496   3.724   3.330   3.314
 5866SOL    HW118497   3.756   3.417   3.277
 5866SOL    HW218498   3.796   3.288   3.368
 5867SOL     OW18499   3.627   1.420   1.333
 5867SOL    HW118500   3.623   1.400   1.431
 5867SOL    HW218501   3.619   1.335   1.281
 5868SOL     OW18502   1.556   0.459   0.601
 5868SOL    HW118503   1.498   0.532   0.634
 5868SOL    HW218504   1.519   0.421   0.517
 5869SOL     OW18505   1.781   5.563   2.516
 5869SOL    HW118506   1.688   5.526   2.521
 5869SOL    HW218507   1.790   5.638   2.582
 5870SOL     OW18508   4.529   0.498   3.596
 5870SOL    HW118509   4.432   0.471   3.596
 5870SOL    HW218510   4.535   0.597   3.607
 5871SOL     OW18511   4.080   3.452   3.676
 5871SOL    HW118512   4.018   3.421   3.747
 5871SOL    HW218513   4.172   3.461   3.715
 5872SOL     OW18514   4.081   6.357   1.177
 5872SOL    HW118515   4.100   6.438   1.122
 5872SOL    HW218516   3.983   6.337   1.172
 5873SOL     OW18517   4.004   6.141   2.244
 5873SOL    HW118518   3.962   6.051   2.238
 5873SOL    HW218519   4.047   6.152   2.333
 5874SOL     OW18520   0.285   4.864   5.295
 5874SOL    HW118521   0.326   4.955   5.297
 5874SOL    HW218522   0.189   4.871   5.268
 5875SOL     OW18523   4.051   2.120   1.328
 5875SOL    HW118524   4.062   2.038   1.384
 5875SOL    HW218525   3.981   2.179   1.367
 5876SOL     OW18526   3.108   3.173   1.940
 5876SOL    HW118527   3.089   3.257   1.990
 5876SOL    HW218528   3.116   3.097   2.004
 5877SOL     OW18529   5.275   4.140   1.671
 5877SOL    HW118530   5.286   4.238   1.683
 5877SOL    HW218531   5.181   4.113   1.693
 5878SOL     OW18532   1.813   3.871   2.571
 5878SOL    HW118533   1.866   3.842   2.491
 5878SOL    HW218534   1.869   3.932   2.628
 5879SOL     OW18535   1.949   3.538   4.090
 5879SOL    HW118536   2.015   3.477   4.045
 5879SOL    HW218537   1.891   3.484   4.151
 5880SOL     OW18538   3.117   5.735   6.963
 5880SOL    HW118539   3.102   5.684   0.021
 5880SOL    HW218540   3.029   5.767   6.928
 5881SOL     OW18541   1.635   6.330   4.457
 5881SOL    HW118542   1.570   6.296   4.525
 5881SOL    HW218543   1.718   6.361   4.502
 5882SOL     OW18544   5.256   0.343   3.144
 5882SOL    HW118545   5.166   0.307   3.122
 5882SOL    HW218546   5.269   0.343   3.243
 5883SOL     OW18547   0.465   3.124   4.692
 5883SOL    HW118548   0.373   3.099   4.661
 5883SOL    HW218549   0.499   3.200   4.637
 5884SOL     OW18550   0.547   0.774   3.149
 5884SOL    HW118551   0.618   0.744   3.213
 5884SOL    HW218552   0.545   0.874   3.147
 5885SOL     OW18553   5.758   6.394   0.942
 5885SOL    HW118554   5.729   6.473   0.996
 5885SOL    HW218555   5.855   6.404   0.920
 5886SOL     OW18556   5.945   1.968   6.453
 5886SOL    HW118557   5.851   1.999   6.456
 5886SOL    HW218558   6.002   2.029   6.508
 5887SOL     OW18559   4.075   5.776   2.647
 5887SOL    HW118560   4.065   5.715   2.725
 5887SOL    HW218561   4.021   5.742   2.570
 5888SOL     OW18562   6.902   0.211   2.035
 5888SOL    HW118563   6.817   0.159   2.040
 5888SOL    HW218564   6.938   0.224   2.127
 5889SOL     OW18565   2.491   7.006   6.793
 5889SOL    HW118566   2.492   0.079   6.805
 5889SOL    HW218567   2.585   6.974   6.778
 5890SOL     OW18568   3.866   5.137   6.009
 5890SOL    HW118569   3.865   5.112   6.105
 5890SOL    HW218570   3.797   5.083   5.959
 5891SOL     OW18571   2.127   3.812   6.289
 5891SOL    HW118572   2.187   3.733   6.291
 5891SOL    HW218573   2.032   3.782   6.300
 5892SOL     OW18574   2.222   6.289   2.708
 5892SOL    HW118575   2.281   6.294   2.789
 5892SOL    HW218576   2.128   6.310   2.735
 5893SOL     OW18577   1.395   1.759   3.289
 5893SOL    HW118578   1.353   1.714   3.368
 5893SOL    HW218579   1.433   1.847   3.317
 5894SOL     OW18580   1.345   3.663   3.873
 5894SOL    HW118581   1.329   3.611   3.956
 5894SOL    HW218582   1.265   3.720   3.853
 5895SOL     OW18583   5.596   3.742   3.392
 5895SOL    HW118584   5.542   3.711   3.314
 5895SOL    HW218585   5.546   3.724   3.477
 5896SOL     OW18586   5.352   3.222   6.288
 5896SOL    HW118587   5.399   3.258   6.207
 5896SOL    HW218588   5.382   3.129   6.305
 5897SOL     OW18589   4.654   4.910   1.039
 5897SOL    HW118590   4.638   4.999   0.997
 5897SOL    HW218591   4.702   4.923   1.126
 5898SOL     OW18592   2.996   6.439   3.213
 5898SOL    HW118593   3.011   6.534   3.184
 5898SOL    HW218594   2.997   6.435   3.313
 5899SOL     OW18595   5.791   0.195   3.709
 5899SOL    HW118596   5.777   0.117   3.648
 5899SOL    HW218597   5.799   0.163   3.803
 5900SOL     OW18598   3.904   4.835   1.903
 5900SOL    HW118599   3.901   4.923   1.856
 5900SOL    HW218600   3.817   4.788   1.893
 5901SOL     OW18601   3.167   6.374   4.691
 5901SOL    HW118602   3.215   6.460   4.708
 5901SOL    HW218603   3.069   6.387   4.706
 5902SOL     OW18604   6.001   2.417   0.007
 5902SOL    HW118605   6.054   2.337   7.004
 5902SOL    HW218606   5.933   2.389   0.075
 5903SOL     OW18607   0.466   3.187   6.405
 5903SOL    HW118608   0.518   3.163   6.323
 5903SOL    HW218609   0.402   3.260   6.382
 5904SOL     OW18610   1.322   3.134   2.653
 5904SOL    HW118611   1.289   3.054   2.703
 5904SOL    HW218612   1.378   3.104   2.576
 5905SOL     OW18613   0.065   4.587   2.791
 5905SOL    HW118614   0.104   4.663   2.739
 5905SOL    HW218615   0.116   4.504   2.771
 5906SOL     OW18616   1.160   1.330   2.594
 5906SOL    HW118617   1.063   1.314   2.574
 5906SOL    HW218618   1.206   1.360   2.511
 5907SOL     OW18619   2.146   0.712   2.591
 5907SOL    HW118620   2.099   0.793   2.624
 5907SOL    HW218621   2.117   0.632   2.645
 5908SOL     OW18622   0.913   3.128   5.920
 5908SOL    HW118623   0.938   3.222   5.943
 5908SOL    HW218624   0.901   3.120   5.821
 5909SOL     OW18625   6.580   4.473   0.310
 5909SOL    HW118626   6.587   4.476   0.410
 5909SOL    HW218627   6.659   4.425   0.272
 5910SOL     OW18628   1.588   1.566   2.906
 5910SOL    HW118629   1.523   1.618   2.850
 5910SOL    HW218630   1.540   1.526   2.984
 5911SOL     OW18631   6.302   5.725   6.509
 5911SOL    HW118632   6.238   5.799   6.532
 5911SOL    HW218633   6.259   5.662   6.445
 5912SOL     OW18634   0.011   6.906   3.833
 5912SOL    HW118635   6.978   6.840   3.880
 5912SOL    HW218636   0.103   6.868   3.825
 5913SOL     OW18637   6.598   2.154   0.917
 5913SOL    HW118638   6.616   2.252   0.918
 5913SOL    HW218639   6.558   2.126   1.005
 5914SOL     OW18640   1.110   6.466   0.363
 5914SOL    HW118641   1.201   6.501   0.381
 5914SOL    HW218642   1.096   6.381   0.414
 5915SOL     OW18643   4.213   0.631   5.878
 5915SOL    HW118644   4.165   0.719   5.890
 5915SOL    HW218645   4.149   0.556   5.895
 5916SOL     OW18646   0.971   0.076   2.201
 5916SOL    HW118647   0.976   0.158   2.144
 5916SOL    HW218648   1.043   0.012   2.174
 5917SOL     OW18649   3.106   2.853   0.240
 5917SOL    HW118650   3.170   2.816   0.172
 5917SOL    HW218651   3.128   2.817   0.330
 5918SOL     OW18652   3.423   0.007   4.303
 5918SOL    HW118653   3.472   0.094   4.296
 5918SOL    HW218654   3.353   0.015   4.374
 5919SOL     OW18655   3.148   3.223   4.492
 5919SOL    HW118656   3.170   3.141   4.440
 5919SOL    HW218657   3.079   3.201   4.561
 5920SOL     OW18658   0.641   0.198   5.920
 5920SOL    HW118659   0.595   0.262   5.858
 5920SOL    HW218660   0.576   0.165   5.989
 5921SOL     OW18661   2.662   4.361   0.058
 5921SOL    HW118662   2.615   4.418   7.018
 5921SOL    HW218663   2.746   4.406   0.088
 5922SOL     OW18664   5.313   2.925   2.434
 5922SOL    HW118665   5.352   2.836   2.458
 5922SOL    HW218666   5.261   2.961   2.512
 5923SOL     OW18667   5.927   0.904   3.533
 5923SOL    HW118668   5.988   0.958   3.475
 5923SOL    HW218669   5.950   0.920   3.630
 5924SOL     OW18670   5.835   6.444   3.887
 5924SOL    HW118671   5.769   6.394   3.831
 5924SOL    HW218672   5.926   6.405   3.875
 5925SOL     OW18673   4.140   1.420   0.967
 5925SOL    HW118674   4.201   1.366   0.909
 5925SOL    HW218675   4.115   1.368   1.048
 5926SOL     OW18676   5.326   3.734   3.239
 5926SOL    HW118677   5.348   3.729   3.142
 5926SOL    HW218678   5.286   3.647   3.269
 5927SOL     OW18679   0.770   5.110   1.903
 5927SOL    HW118680   0.767   5.198   1.950
 5927SOL    HW218681   0.831   5.117   1.824
 5928SOL     OW18682   2.800   6.915   6.992
 5928SOL    HW118683   2.762   6.871   0.047
 5928SOL    HW218684   2.791   6.853   6.914
 5929SOL     OW18685   1.001   0.737   0.567
 5929SOL    HW118686   0.994   0.675   0.489
 5929SOL    HW218687   0.934   0.811   0.557
 5930SOL     OW18688   1.753   3.949   2.109
 5930SOL    HW118689   1.808   3.990   2.182
 5930SOL    HW218690   1.747   3.850   2.123
 5931SOL     OW18691   5.195   6.248   2.920
 5931SOL    HW118692   5.107   6.291   2.900
 5931SOL    HW218693   5.267   6.317   2.915
 5932SOL     OW18694   3.086   6.673   0.518
 5932SOL    HW118695   3.014   6.676   0.586
 5932SOL    HW218696   3.105   6.577   0.494
 5933SOL     OW18697   6.053   5.951   4.236
 5933SOL    HW118698   6.123   5.880   4.235
 5933SOL    HW218699   5.964   5.910   4.213
 5934SOL     OW18700   2.875   3.355   0.557
 5934SOL    HW118701   2.944   3.397   0.497
 5934SOL    HW218702   2.896   3.377   0.652
 5935SOL     OW18703   0.954   0.479   5.445
 5935SOL    HW118704   1.016   0.546   5.486
 5935SOL    HW218705   0.986   0.387   5.468
 5936SOL     OW18706   3.459   2.978   1.632
 5936SOL    HW118707   3.391   3.026   1.688
 5936SOL    HW218708   3.511   3.044   1.578
 5937SOL     OW18709   0.416   2.465   0.993
 5937SOL    HW118710   0.370   2.397   0.936
 5937SOL    HW218711   0.499   2.425   1.033
 5938SOL     OW18712   0.230   4.101   3.949
 5938SOL    HW118713   0.315   4.087   3.899
 5938SOL    HW218714   0.175   4.171   3.904
 5939SOL     OW18715   4.377   1.217   5.544
 5939SOL    HW118716   4.463   1.187   5.586
 5939SOL    HW218717   4.342   1.297   5.594
 5940SOL     OW18718   4.853   5.306   1.763
 5940SOL    HW118719   4.865   5.229   1.826
 5940SOL    HW218720   4.835   5.390   1.815
 5941SOL     OW18721   0.073   2.004   3.049
 5941SOL    HW118722   0.042   1.909   3.047
 5941SOL    HW218723   0.034   2.050   3.128
 5942SOL     OW18724   5.273   2.523   6.458
 5942SOL    HW118725   5.191   2.556   6.411
 5942SOL    HW218726   5.335   2.480   6.393
 5943SOL     OW18727   1.857   4.835   1.290
 5943SOL    HW118728   1.947   4.804   1.258
 5943SOL    HW218729   1.789   4.816   1.219
 5944SOL     OW18730   6.298   3.526   5.851
 5944SOL    HW118731   6.347   3.497   5.769
 5944SOL    HW218732   6.205   3.553   5.827
 5945SOL     OW18733   6.761   6.486   4.838
 5945SOL    HW118734   6.762   6.582   4.810
 5945SOL    HW218735   6.765   6.428   4.756
 5946SOL     OW18736   1.954   3.176   6.750
 5946SOL    HW118737   1.997   3.262   6.777
 5946SOL    HW218738   1.948   3.171   6.650
 5947SOL     OW18739   3.306   3.493   4.771
 5947SOL    HW118740   3.303   3.481   4.672
 5947SOL    HW218741   3.367   3.425   4.812
 5948SOL     OW18742   4.696   3.621   1.329
 5948SOL    HW118743   4.735   3.604   1.419
 5948SOL    HW218744   4.755   3.581   1.259
 5949SOL     OW18745   0.554   4.084   2.907
 5949SOL    HW118746   0.548   4.106   3.004
 5949SOL    HW218747   0.586   3.990   2.896
 5950SOL     OW18748   3.003   0.008   4.374
 5950SOL    HW118749   3.040   0.048   4.458
 5950SOL    HW218750   2.937   6.963   4.399
 5951SOL     OW18751   0.133   4.060   6.785
 5951SOL    HW118752   0.081   3.991   6.836
 5951SOL    HW218753   0.089   4.077   6.697
 5952SOL     OW18754   3.941   4.078   1.655
 5952SOL    HW118755   3.855   4.104   1.698
 5952SOL    HW218756   4.001   4.157   1.650
 5953SOL     OW18757   6.990   3.590   5.947
 5953SOL    HW118758   0.000   3.683   5.942
 5953SOL    HW218759   6.953   3.564   5.857
 5954SOL     OW18760   1.796   5.711   3.992
 5954SOL    HW118761   1.867   5.704   4.063
 5954SOL    HW218762   1.740   5.628   3.993
 5955SOL     OW18763   5.099   2.763   0.543
 5955SOL    HW118764   5.108   2.706   0.624
 5955SOL    HW218765   5.022   2.731   0.487
 5956SOL     OW18766   5.193   2.925   5.353
 5956SOL    HW118767   5.203   2.997   5.422
 5956SOL    HW218768   5.104   2.881   5.363
 5957SOL     OW18769   6.708   1.849   3.677
 5957SOL    HW118770   6.776   1.856   3.750
 5957SOL    HW218771   6.638   1.920   3.689
 5958SOL     OW18772   2.890   6.684   3.589
 5958SOL    HW118773   2.900   6.592   3.550
 5958SOL    HW218774   2.909   6.752   3.519
 5959SOL     OW18775   5.497   2.873   2.880
 5959SOL    HW118776   5.498   2.900   2.784
 5959SOL    HW218777   5.575   2.813   2.898
 5960SOL     OW18778   4.829   1.045   6.369
 5960SOL    HW118779   4.895   1.068   6.297
 5960SOL    HW218780   4.849   0.954   6.405
 5961SOL     OW18781   2.600   2.494   3.679
 5961SOL    HW118782   2.578   2.506   3.583
 5961SOL    HW218783   2.663   2.417   3.690
 5962SOL     OW18784   4.949   4.738   0.609
 5962SOL    HW118785   4.889   4.712   0.685
 5962SOL    HW218786   4.910   4.816   0.561
 5963SOL     OW18787   2.259   3.898   0.692
 5963SOL    HW118788   2.175   3.924   0.644
 5963SOL    HW218789   2.260   3.799   0.706
 5964SOL     OW18790   1.829   0.057   3.443
 5964SOL    HW118791   1.792   0.080   3.353
 5964SOL    HW218792   1.912   0.110   3.460
 5965SOL     OW18793   2.633   0.339   1.114
 5965SOL    HW118794   2.600   0.314   1.205
 5965SOL    HW218795   2.583   0.286   1.045
 5966SOL     OW18796   2.904   1.826   5.209
 5966SOL    HW118797   2.835   1.786   5.148
 5966SOL    HW218798   2.897   1.784   5.299
 5967SOL     OW18799   4.698   2.495   5.265
 5967SOL    HW118800   4.668   2.447   5.183
 5967SOL    HW218801   4.762   2.438   5.316
 5968SOL     OW18802   5.781   2.394   2.674
 5968SOL    HW118803   5.817   2.439   2.755
 5968SOL    HW218804   5.766   2.462   2.602
 5969SOL     OW18805   4.813   0.140   0.683
 5969SOL    HW118806   4.736   0.128   0.620
 5969SOL    HW218807   4.849   0.233   0.673
 5970SOL     OW18808   6.698   3.008   0.835
 5970SOL    HW118809   6.614   3.012   0.781
 5970SOL    HW218810   6.675   2.988   0.931
 5971SOL     OW18811   0.094   5.614   3.754
 5971SOL    HW118812   0.184   5.573   3.772
 5971SOL    HW218813   0.098   5.664   3.667
 5972SOL     OW18814   5.769   5.197   0.397
 5972SOL    HW118815   5.797   5.267   0.331
 5972SOL    HW218816   5.744   5.242   0.483
 5973SOL     OW18817   2.718   1.202   2.286
 5973SOL    HW118818   2.791   1.161   2.232
 5973SOL    HW218819   2.752   1.223   2.378
 5974SOL     OW18820   5.922   1.783   4.548
 5974SOL    HW118821   5.879   1.864   4.508
 5974SOL    HW218822   5.974   1.810   4.630
 5975SOL     OW18823   4.107   5.407   1.574
 5975SOL    HW118824   4.091   5.485   1.633
 5975SOL    HW218825   4.165   5.434   1.497
 5976SOL     OW18826   1.622   4.255   5.527
 5976SOL    HW118827   1.571   4.337   5.501
 5976SOL    HW218828   1.570   4.204   5.596
 5977SOL     OW18829   6.777   5.318   0.935
 5977SOL    HW118830   6.769   5.241   0.872
 5977SOL    HW218831   6.706   5.385   0.916
 5978SOL     OW18832   2.935   3.722   6.869
 5978SOL    HW118833   2.930   3.626   6.895
 5978SOL    HW218834   2.865   3.774   6.919
 5979SOL     OW18835   6.301   0.135   1.369
 5979SOL    HW118836   6.251   0.202   1.315
 5979SOL    HW218837   6.290   0.044   1.329
 5980SOL     OW18838   3.028   2.362   0.930
 5980SOL    HW118839   3.032   2.462   0.918
 5980SOL    HW218840   2.936   2.330   0.906
 5981SOL     OW18841   2.918   1.890   1.129
 5981SOL    HW118842   2.989   1.856   1.190
 5981SOL    HW218843   2.833   1.903   1.180
 5982SOL     OW18844   5.349   2.836   1.764
 5982SOL    HW118845   5.266   2.889   1.781
 5982SOL    HW218846   5.403   2.880   1.693
 5983SOL     OW18847   0.177   0.897   3.899
 5983SOL    HW118848   0.265   0.874   3.856
 5983SOL    HW218849   0.143   0.819   3.950
 5984SOL     OW18850   6.066   5.910   3.455
 5984SOL    HW118851   6.033   6.003   3.474
 5984SOL    HW218852   6.091   5.903   3.358
 5985SOL     OW18853   6.540   3.820   2.450
 5985SOL    HW118854   6.551   3.904   2.503
 5985SOL    HW218855   6.580   3.832   2.359
 5986SOL     OW18856   3.930   3.949   3.707
 5986SOL    HW118857   3.940   3.984   3.800
 5986SOL    HW218858   3.849   3.990   3.664
 5987SOL     OW18859   0.142   5.862   5.198
 5987SOL    HW118860   0.156   5.872   5.100
 5987SOL    HW218861   0.219   5.903   5.248
 5988SOL     OW18862   1.016   2.768   0.034
 5988SOL    HW118863   1.052   2.861   0.048
 5988SOL    HW218864   0.955   2.744   0.110
 5989SOL     OW18865   1.344   6.805   5.317
 5989SOL    HW118866   1.378   6.743   5.389
 5989SOL    HW218867   1.249   6.782   5.296
 5990SOL     OW18868   2.586   4.502   1.851
 5990SOL    HW118869   2.591   4.532   1.755
 5990SOL    HW218870   2.674   4.516   1.895
 5991SOL     OW18871   5.364   0.810   1.161
 5991SOL    HW118872   5.281   0.840   1.208
 5991SOL    HW218873   5.399   0.726   1.205
 5992SOL     OW18874   3.528   5.627   3.142
 5992SOL    HW118875   3.588   5.587   3.211
 5992SOL    HW218876   3.475   5.555   3.098
 5993SOL     OW18877   5.906   2.118   0.471
 5993SOL    HW118878   5.892   2.022   0.493
 5993SOL    HW218879   5.992   2.149   0.512
 5994SOL     OW18880   6.727   3.578   0.017
 5994SOL    HW118881   6.826   3.576   0.026
 5994SOL    HW218882   6.688   3.496   0.058
 5995SOL     OW18883   4.914   3.531   1.173
 5995SOL    HW118884   4.973   3.600   1.215
 5995SOL    HW218885   4.956   3.441   1.183
 5996SOL     OW18886   2.465   6.749   1.312
 5996SOL    HW118887   2.374   6.760   1.351
 5996SOL    HW218888   2.528   6.718   1.383
 5997SOL     OW18889   6.422   0.596   4.079
 5997SOL    HW118890   6.398   0.550   3.994
 5997SOL    HW218891   6.473   0.679   4.059
 5998SOL     OW18892   6.980   6.148   6.836
 5998SOL    HW118893   6.925   6.186   6.910
 5998SOL    HW218894   6.974   6.208   6.756
 5999SOL     OW18895   4.895   3.295   1.472
 5999SOL    HW118896   4.843   3.272   1.554
 5999SOL    HW218897   4.902   3.395   1.465
 6000SOL     OW18898   0.649   4.183   0.984
 6000SOL    HW118899   0.719   4.254   0.981
 6000SOL    HW218900   0.558   4.225   0.979
 6001SOL     OW18901   5.784   5.468   5.846
 6001SOL    HW118902   5.744   5.553   5.812
 6001SOL    HW218903   5.725   5.428   5.916
 6002SOL     OW18904   5.387   5.164   5.446
 6002SOL    HW118905   5.293   5.198   5.442
 6002SOL    HW218906   5.406   5.111   5.363
 6003SOL     OW18907   2.421   1.948   5.080
 6003SOL    HW118908   2.463   1.910   4.997
 6003SOL    HW218909   2.378   1.874   5.132
 6004SOL     OW18910   5.332   3.223   5.115
 6004SOL    HW118911   5.379   3.175   5.189
 6004SOL    HW218912   5.337   3.170   5.031
 6005SOL     OW18913   4.127   4.179   6.835
 6005SOL    HW118914   4.082   4.261   6.872
 6005SOL    HW218915   4.226   4.188   6.847
 6006SOL     OW18916   3.206   5.910   6.526
 6006SOL    HW118917   3.267   5.969   6.474
 6006SOL    HW218918   3.146   5.967   6.583
 6007SOL     OW18919   1.978   6.299   4.636
 6007SOL    HW118920   1.933   6.250   4.711
 6007SOL    HW218921   1.950   6.395   4.637
 6008SOL     OW18922   2.417   4.030   6.413
 6008SOL    HW118923   2.498   4.047   6.357
 6008SOL    HW218924   2.336   4.027   6.354
 6009SOL     OW18925   4.263   5.062   2.615
 6009SOL    HW118926   4.338   5.086   2.555
 6009SOL    HW218927   4.244   4.964   2.606
 6010SOL     OW18928   0.699   4.620   4.852
 6010SOL    HW118929   0.677   4.528   4.820
 6010SOL    HW218930   0.679   4.686   4.780
 6011SOL     OW18931   5.848   1.335   3.103
 6011SOL    HW118932   5.775   1.290   3.053
 6011SOL    HW218933   5.809   1.391   3.176
 6012SOL     OW18934   6.424   0.408   5.801
 6012SOL    HW118935   6.388   0.493   5.839
 6012SOL    HW218936   6.483   0.429   5.722
 6013SOL     OW18937   5.904   1.642   1.879
 6013SOL    HW118938   5.925   1.612   1.785
 6013SOL    HW218939   5.953   1.727   1.899
 6014SOL     OW18940   3.041   3.156   3.770
 6014SOL    HW118941   3.032   3.101   3.853
 6014SOL    HW218942   3.042   3.253   3.794
 6015SOL     OW18943   6.156   0.291   4.049
 6015SOL    HW118944   6.121   0.202   4.021
 6015SOL    HW218945   6.080   0.350   4.075
 6016SOL     OW18946   4.036   2.245   4.491
 6016SOL    HW118947   3.950   2.221   4.447
 6016SOL    HW218948   4.105   2.263   4.421
 6017SOL     OW18949   1.213   1.545   5.801
 6017SOL    HW118950   1.286   1.613   5.809
 6017SOL    HW218951   1.252   1.456   5.780
 6018SOL     OW18952   2.671   0.980   4.034
 6018SOL    HW118953   2.615   1.025   3.965
 6018SOL    HW218954   2.678   1.038   4.115
 6019SOL     OW18955   6.294   4.756   6.234
 6019SOL    HW118956   6.330   4.820   6.301
 6019SOL    HW218957   6.315   4.662   6.263
 6020SOL     OW18958   0.887   5.315   6.194
 6020SOL    HW118959   0.934   5.276   6.115
 6020SOL    HW218960   0.949   5.313   6.273
 6021SOL     OW18961   5.651   6.563   3.592
 6021SOL    HW118962   5.738   6.529   3.558
 6021SOL    HW218963   5.596   6.597   3.515
 6022SOL     OW18964   6.238   2.940   1.904
 6022SOL    HW118965   6.167   2.873   1.880
 6022SOL    HW218966   6.195   3.022   1.941
 6023SOL     OW18967   4.526   0.209   2.279
 6023SOL    HW118968   4.464   0.144   2.323
 6023SOL    HW218969   4.587   0.248   2.348
 6024SOL     OW18970   0.816   6.401   6.220
 6024SOL    HW118971   0.846   6.308   6.241
 6024SOL    HW218972   0.723   6.414   6.255
 6025SOL     OW18973   2.602   0.506   5.181
 6025SOL    HW118974   2.503   0.510   5.193
 6025SOL    HW218975   2.647   0.514   5.270
 6026SOL     OW18976   5.912   6.163   4.127
 6026SOL    HW118977   5.951   6.156   4.035
 6026SOL    HW218978   5.960   6.101   4.189
 6027SOL     OW18979   5.611   5.380   6.063
 6027SOL    HW118980   5.684   5.337   6.117
 6027SOL    HW218981   5.524   5.333   6.080
 6028SOL     OW18982   5.712   5.735   6.171
 6028SOL    HW118983   5.651   5.700   6.100
 6028SOL    HW218984   5.657   5.762   6.251
 6029SOL     OW18985   3.371   1.291   3.011
 6029SOL    HW118986   3.456   1.330   3.046
 6029SOL    HW218987   3.335   1.348   2.938
 6030SOL     OW18988   6.118   3.424   4.397
 6030SOL    HW118989   6.135   3.496   4.330
 6030SOL    HW218990   6.204   3.394   4.437
 6031SOL     OW18991   0.092   6.203   5.004
 6031SOL    HW118992   7.018   6.206   5.007
 6031SOL    HW218993   0.123   6.223   4.912
 6032SOL     OW18994   3.495   6.293   3.244
 6032SOL    HW118995   3.495   6.390   3.216
 6032SOL    HW218996   3.542   6.284   3.331
 6033SOL     OW18997   0.535   1.407   2.612
 6033SOL    HW118998   0.547   1.496   2.567
 6033SOL    HW218999   0.622   1.359   2.613
 6034SOL     OW19000   0.232   6.890   0.798
 6034SOL    HW119001   0.161   6.924   0.736
 6034SOL    HW219002   0.234   6.790   0.793
 6035SOL     OW19003   2.713   0.509   2.369
 6035SOL    HW119004   2.682   0.586   2.312
 6035SOL    HW219005   2.692   0.423   2.324
 6036SOL     OW19006   6.421   3.467   0.604
 6036SOL    HW119007   6.454   3.491   0.513
 6036SOL    HW219008   6.463   3.528   0.672
 6037SOL     OW19009   4.410   1.686   6.108
 6037SOL    HW119010   4.429   1.687   6.010
 6037SOL    HW219011   4.494   1.705   6.158
 6038SOL     OW19012   1.095   1.354   6.135
 6038SOL    HW119013   1.064   1.261   6.156
 6038SOL    HW219014   1.027   1.399   6.078
 6039SOL     OW19015   3.998   3.525   4.005
 6039SOL    HW119016   3.913   3.489   4.045
 6039SOL    HW219017   3.976   3.579   3.924
 6040SOL     OW19018   0.350   1.784   0.491
 6040SOL    HW119019   0.253   1.774   0.514
 6040SOL    HW219020   0.396   1.834   0.564
 6041SOL     OW19021   1.321   3.481   5.761
 6041SOL    HW119022   1.357   3.535   5.837
 6041SOL    HW219023   1.396   3.432   5.717
 6042SOL     OW19024   3.103   5.780   3.732
 6042SOL    HW119025   3.166   5.833   3.789
 6042SOL    HW219026   3.108   5.684   3.757
 6043SOL     OW19027   2.391   0.153   2.857
 6043SOL    HW119028   2.411   0.137   2.954
 6043SOL    HW219029   2.420   0.073   2.804
 6044SOL     OW19030   0.527   3.267   0.831
 6044SOL    HW119031   0.513   3.175   0.868
 6044SOL    HW219032   0.447   3.292   0.776
 6045SOL     OW19033   5.987   1.506   3.686
 6045SOL    HW119034   5.988   1.408   3.706
 6045SOL    HW219035   5.893   1.537   3.677
 6046SOL     OW19036   3.384   3.273   2.869
 6046SOL    HW119037   3.355   3.290   2.775
 6046SOL    HW219038   3.349   3.184   2.899
 6047SOL     OW19039   6.848   1.390   0.397
 6047SOL    HW119040   6.944   1.375   0.374
 6047SOL    HW219041   6.839   1.400   0.497
 6048SOL     OW19042   5.875   6.057   3.126
 6048SOL    HW119043   5.851   6.095   3.036
 6048SOL    HW219044   5.928   5.974   3.113
 6049SOL     OW19045   4.316   5.216   6.793
 6049SOL    HW119046   4.364   5.226   6.880
 6049SOL    HW219047   4.320   5.303   6.742
 6050SOL     OW19048   2.782   5.377   2.204
 6050SOL    HW119049   2.732   5.309   2.258
 6050SOL    HW219050   2.879   5.350   2.200
 6051SOL     OW19051   0.649   1.516   3.117
 6051SOL    HW119052   0.709   1.466   3.180
 6051SOL    HW219053   0.555   1.483   3.128
 6052SOL     OW19054   5.244   5.485   0.517
 6052SOL    HW119055   5.315   5.455   0.581
 6052SOL    HW219056   5.170   5.418   0.517
 6053SOL     OW19057   4.565   2.417   6.366
 6053SOL    HW119058   4.639   2.483   6.379
 6053SOL    HW219059   4.482   2.451   6.409
 6054SOL     OW19060   4.104   3.729   0.978
 6054SOL    HW119061   4.055   3.723   1.065
 6054SOL    HW219062   4.140   3.638   0.955
 6055SOL     OW19063   2.697   3.801   1.225
 6055SOL    HW119064   2.650   3.722   1.264
 6055SOL    HW219065   2.654   3.885   1.256
 6056SOL     OW19066   4.966   6.305   3.359
 6056SOL    HW119067   4.991   6.333   3.452
 6056SOL    HW219068   4.915   6.220   3.362
 6057SOL     OW19069   5.373   0.559   4.135
 6057SOL    HW119070   5.417   0.604   4.058
 6057SOL    HW219071   5.411   0.595   4.221
 6058SOL     OW19072   6.911   2.442   5.890
 6058SOL    HW119073   6.842   2.437   5.817
 6058SOL    HW219074   6.979   2.371   5.874
 6059SOL     OW19075   4.410   2.599   6.753
 6059SOL    HW119076   4.508   2.618   6.743
 6059SOL    HW219077   4.397   2.523   6.816
 6060SOL     OW19078   2.353   2.433   0.503
 6060SOL    HW119079   2.272   2.470   0.549
 6060SOL    HW219080   2.393   2.503   0.444
 6061SOL     OW19081   3.685   4.087   6.925
 6061SOL    HW119082   3.614   4.072   6.994
 6061SOL    HW219083   3.683   4.012   6.859
 6062SOL     OW19084   2.019   2.227   6.486
 6062SOL    HW119085   2.045   2.322   6.469
 6062SOL    HW219086   2.084   2.166   6.442
 6063SOL     OW19087   4.537   3.821   6.982
 6063SOL    HW119088   4.584   3.797   0.040
 6063SOL    HW219089   4.557   3.916   6.958
 6064SOL     OW19090   6.359   6.067   1.042
 6064SOL    HW119091   6.291   6.016   1.094
 6064SOL    HW219092   6.315   6.110   0.963
 6065SOL     OW19093   2.336   6.286   1.632
 6065SOL    HW119094   2.338   6.207   1.570
 6065SOL    HW219095   2.305   6.366   1.582
 6066SOL     OW19096   5.327   5.744   2.843
 6066SOL    HW119097   5.277   5.775   2.925
 6066SOL    HW219098   5.351   5.823   2.787
 6067SOL     OW19099   0.125   6.051   5.812
 6067SOL    HW119100   0.154   6.144   5.831
 6067SOL    HW219101   0.041   6.031   5.864
 6068SOL     OW19102   5.025   2.178   4.302
 6068SOL    HW119103   5.116   2.196   4.264
 6068SOL    HW219104   4.955   2.212   4.239
 6069SOL     OW19105   6.912   4.352   6.258
 6069SOL    HW119106   6.866   4.281   6.205
 6069SOL    HW219107   6.954   4.418   6.195
 6070SOL     OW19108   2.296   1.477   0.940
 6070SOL    HW119109   2.330   1.563   0.978
 6070SOL    HW219110   2.262   1.418   1.013
 6071SOL     OW19111   5.625   1.129   5.905
 6071SOL    HW119112   5.710   1.103   5.951
 6071SOL    HW219113   5.633   1.110   5.807
 6072SOL     OW19114   6.675   3.710   6.820
 6072SOL    HW119115   6.701   3.673   6.909
 6072SOL    HW219116   6.575   3.719   6.815
 6073SOL     OW19117   5.054   3.536   0.141
 6073SOL    HW119118   5.068   3.626   0.182
 6073SOL    HW219119   5.105   3.530   0.055
 6074SOL     OW19120   1.333   6.714   1.947
 6074SOL    HW119121   1.274   6.635   1.930
 6074SOL    HW219122   1.365   6.711   2.042
 6075SOL     OW19123   5.812   0.749   6.838
 6075SOL    HW119124   5.895   0.761   6.783
 6075SOL    HW219125   5.765   0.665   6.810
 6076SOL     OW19126   0.607   5.964   2.753
 6076SOL    HW119127   0.606   6.042   2.690
 6076SOL    HW219128   0.699   5.953   2.791
 6077SOL     OW19129   5.419   5.955   2.690
 6077SOL    HW119130   5.424   6.031   2.626
 6077SOL    HW219131   5.495   5.961   2.755
 6078SOL     OW19132   4.808   3.924   0.308
 6078SOL    HW119133   4.732   3.866   0.278
 6078SOL    HW219134   4.875   3.932   0.234
 6079SOL     OW19135   3.107   2.265   6.979
 6079SOL    HW119136   3.012   2.296   6.980
 6079SOL    HW219137   3.117   2.186   0.013
 6080SOL     OW19138   6.543   3.780   5.949
 6080SOL    HW119139   6.477   3.783   5.873
 6080SOL    HW219140   6.507   3.723   6.022
 6081SOL     OW19141   1.710   3.116   3.668
 6081SOL    HW119142   1.805   3.104   3.694
 6081SOL    HW219143   1.657   3.037   3.698
 6082SOL     OW19144   5.123   1.402   1.458
 6082SOL    HW119145   5.188   1.371   1.528
 6082SOL    HW219146   5.041   1.437   1.502
 6083SOL     OW19147   4.662   0.232   6.505
 6083SOL    HW119148   4.727   0.163   6.474
 6083SOL    HW219149   4.692   0.323   6.476
 6084SOL     OW19150   6.542   5.565   2.948
 6084SOL    HW119151   6.572   5.478   2.987
 6084SOL    HW219152   6.455   5.551   2.900
 6085SOL     OW19153   0.852   6.379   0.317
 6085SOL    HW119154   0.857   6.279   0.315
 6085SOL    HW219155   0.938   6.417   0.284
 6086SOL     OW19156   3.491   3.973   0.120
 6086SOL    HW119157   3.434   3.991   0.040
 6086SOL    HW219158   3.470   3.883   0.157
 6087SOL     OW19159   4.615   0.184   0.488
 6087SOL    HW119160   4.547   0.114   0.508
 6087SOL    HW219161   4.578   0.248   0.421
 6088SOL     OW19162   4.534   5.393   2.837
 6088SOL    HW119163   4.608   5.451   2.871
 6088SOL    HW219164   4.543   5.302   2.878
 6089SOL     OW19165   6.115   3.654   3.420
 6089SOL    HW119166   6.017   3.666   3.403
 6089SOL    HW219167   6.165   3.662   3.334
 6090SOL     OW19168   3.737   5.211   4.123
 6090SOL    HW119169   3.831   5.180   4.115
 6090SOL    HW219170   3.705   5.197   4.217
 6091SOL     OW19171   0.838   1.107   1.125
 6091SOL    HW119172   0.797   1.183   1.176
 6091SOL    HW219173   0.788   1.023   1.145
 6092SOL     OW19174   2.570   6.988   1.555
 6092SOL    HW119175   2.504   6.989   1.631
 6092SOL    HW219176   2.604   6.895   1.543
 6093SOL     OW19177   2.582   2.392   2.292
 6093SOL    HW119178   2.574   2.463   2.222
 6093SOL    HW219179   2.516   2.319   2.273
 6094SOL     OW19180   0.830   6.128   5.442
 6094SOL    HW119181   0.882   6.087   5.368
 6094SOL    HW219182   0.737   6.089   5.443
 6095SOL     OW19183   5.014   4.670   1.693
 6095SOL    HW119184   5.015   4.571   1.706
 6095SOL    HW219185   5.047   4.714   1.777
 6096SOL     OW19186   4.881   5.759   3.128
 6096SOL    HW119187   4.807   5.763   3.194
 6096SOL    HW219188   4.852   5.707   3.048
 6097SOL     OW19189   2.156   4.837   2.506
 6097SOL    HW119190   2.239   4.822   2.453
 6097SOL    HW219191   2.076   4.823   2.447
 6098SOL     OW19192   6.698   0.228   5.126
 6098SOL    HW119193   6.783   0.200   5.081
 6098SOL    HW219194   6.649   0.292   5.068
 6099SOL     OW19195   3.804   0.368   5.551
 6099SOL    HW119196   3.756   0.412   5.628
 6099SOL    HW219197   3.902   0.370   5.568
 6100SOL     OW19198   0.872   5.470   5.338
 6100SOL    HW119199   0.858   5.372   5.327
 6100SOL    HW219200   0.906   5.508   5.252
 6101SOL     OW19201   6.893   3.431   1.686
 6101SOL    HW119202   6.952   3.456   1.609
 6101SOL    HW219203   6.930   3.351   1.732
 6102SOL     OW19204   3.545   0.191   2.681
 6102SOL    HW119205   3.529   0.250   2.602
 6102SOL    HW219206   3.481   0.215   2.754
 6103SOL     OW19207   6.141   1.775   2.314
 6103SOL    HW119208   6.114   1.869   2.336
 6103SOL    HW219209   6.082   1.739   2.242
 6104SOL     OW19210   6.975   0.686   4.925
 6104SOL    HW119211   6.979   0.770   4.871
 6104SOL    HW219212   6.889   0.638   4.908
 6105SOL     OW19213   3.493   4.367   6.242
 6105SOL    HW119214   3.452   4.408   6.323
 6105SOL    HW219215   3.462   4.273   6.232
 6106SOL     OW19216   6.047   5.005   5.429
 6106SOL    HW119217   6.093   4.975   5.513
 6106SOL    HW219218   6.107   4.990   5.351
 6107SOL     OW19219   5.695   4.959   5.189
 6107SOL    HW119220   5.757   4.898   5.140
 6107SOL    HW219221   5.713   4.952   5.287
 6108SOL     OW19222   1.962   1.102   6.750
 6108SOL    HW119223   2.050   1.090   6.704
 6108SOL    HW219224   1.953   1.196   6.782
 6109SOL     OW19225   6.835   6.552   3.799
 6109SOL    HW119226   6.808   6.645   3.824
 6109SOL    HW219227   6.859   6.549   3.702
 6110SOL     OW19228   1.755   1.611   4.375
 6110SOL    HW119229   1.734   1.602   4.473
 6110SOL    HW219230   1.839   1.561   4.355
 6111SOL     OW19231   2.150   3.545   1.041
 6111SOL    HW119232   2.106   3.464   1.079
 6111SOL    HW219233   2.245   3.526   1.020
 6112SOL     OW19234   5.145   6.775   3.875
 6112SOL    HW119235   5.160   6.802   3.970
 6112SOL    HW219236   5.179   6.682   3.861
 6113SOL     OW19237   1.958   5.546   0.846
 6113SOL    HW119238   1.915   5.484   0.780
 6113SOL    HW219239   1.934   5.640   0.824
 6114SOL     OW19240   5.344   2.163   0.980
 6114SOL    HW119241   5.332   2.130   1.074
 6114SOL    HW219242   5.258   2.157   0.931
 6115SOL     OW19243   1.056   1.091   6.137
 6115SOL    HW119244   1.137   1.040   6.107
 6115SOL    HW219245   0.977   1.031   6.136
 6116SOL     OW19246   5.492   3.684   6.832
 6116SOL    HW119247   5.569   3.733   6.792
 6116SOL    HW219248   5.482   3.595   6.788
 6117SOL     OW19249   1.662   2.149   1.443
 6117SOL    HW119250   1.596   2.106   1.505
 6117SOL    HW219251   1.656   2.248   1.451
 6118SOL     OW19252   5.944   1.409   2.034
 6118SOL    HW119253   5.964   1.494   1.985
 6118SOL    HW219254   5.848   1.386   2.021
 6119SOL     OW19255   6.360   1.545   6.839
 6119SOL    HW119256   6.434   1.586   6.892
 6119SOL    HW219257   6.279   1.603   6.845
 6120SOL     OW19258   3.091   0.691   4.276
 6120SOL    HW119259   3.045   0.779   4.276
 6120SOL    HW219260   3.051   0.632   4.206
 6121SOL     OW19261   2.133   2.252   5.012
 6121SOL    HW119262   2.053   2.247   4.952
 6121SOL    HW219263   2.213   2.280   4.960
 6122SOL     OW19264   5.439   4.995   5.239
 6122SOL    HW119265   5.396   4.906   5.252
 6122SOL    HW219266   5.528   4.983   5.195
 6123SOL     OW19267   5.916   1.813   5.374
 6123SOL    HW119268   5.997   1.801   5.317
 6123SOL    HW219269   5.867   1.726   5.383
 6124SOL     OW19270   2.674   5.890   4.184
 6124SOL    HW119271   2.600   5.954   4.165
 6124SOL    HW219272   2.691   5.886   4.282
 6125SOL     OW19273   2.917   1.766   6.277
 6125SOL    HW119274   2.882   1.719   6.358
 6125SOL    HW219275   2.882   1.720   6.195
 6126SOL     OW19276   5.767   2.893   6.134
 6126SOL    HW119277   5.735   2.987   6.148
 6126SOL    HW219278   5.840   2.893   6.066
 6127SOL     OW19279   4.859   2.017   2.722
 6127SOL    HW119280   4.955   2.004   2.744
 6127SOL    HW219281   4.846   2.012   2.623
 6128SOL     OW19282   5.738   5.658   6.690
 6128SOL    HW119283   5.713   5.594   6.617
 6128SOL    HW219284   5.836   5.653   6.707
 6129SOL     OW19285   2.302   5.637   2.297
 6129SOL    HW119286   2.373   5.567   2.288
 6129SOL    HW219287   2.313   5.685   2.384
 6130SOL     OW19288   5.854   2.971   0.394
 6130SOL    HW119289   5.778   2.909   0.375
 6130SOL    HW219290   5.824   3.066   0.382
 6131SOL     OW19291   6.282   2.008   2.892
 6131SOL    HW119292   6.183   2.005   2.901
 6131SOL    HW219293   6.318   1.914   2.889
 6132SOL     OW19294   4.115   0.506   6.170
 6132SOL    HW119295   4.127   0.596   6.212
 6132SOL    HW219296   4.021   0.497   6.137
 6133SOL     OW19297   0.417   2.255   3.012
 6133SOL    HW119298   0.493   2.319   3.002
 6133SOL    HW219299   0.381   2.260   3.105
 6134SOL     OW19300   0.484   6.358   5.733
 6134SOL    HW119301   0.579   6.360   5.703
 6134SOL    HW219302   0.423   6.353   5.654
 6135SOL     OW19303   0.287   6.816   0.301
 6135SOL    HW119304   0.284   6.884   0.374
 6135SOL    HW219305   0.213   6.833   0.236
 6136SOL     OW19306   0.957   2.741   3.088
 6136SOL    HW119307   1.042   2.738   3.036
 6136SOL    HW219308   0.978   2.742   3.186
 6137SOL     OW19309   0.052   4.171   1.293
 6137SOL    HW119310   0.076   4.094   1.351
 6137SOL    HW219311   6.980   4.176   1.281
 6138SOL     OW19312   4.794   0.399   2.173
 6138SOL    HW119313   4.718   0.458   2.146
 6138SOL    HW219314   4.878   0.431   2.128
 6139SOL     OW19315   1.477   0.794   5.000
 6139SOL    HW119316   1.521   0.788   5.089
 6139SOL    HW219317   1.405   0.864   5.002
 6140SOL     OW19318   1.433   0.136   2.809
 6140SOL    HW119319   1.526   0.159   2.835
 6140SOL    HW219320   1.371   0.154   2.886
 6141SOL     OW19321   0.922   0.852   6.124
 6141SOL    HW119322   0.827   0.880   6.115
 6141SOL    HW219323   0.929   0.775   6.187
 6142SOL     OW19324   6.514   0.639   1.650
 6142SOL    HW119325   6.529   0.727   1.694
 6142SOL    HW219326   6.596   0.582   1.661
 6143SOL     OW19327   0.185   3.413   5.349
 6143SOL    HW119328   0.231   3.409   5.438
 6143SOL    HW219329   0.086   3.413   5.363
 6144SOL     OW19330   4.145   5.204   2.832
 6144SOL    HW119331   4.062   5.251   2.803
 6144SOL    HW219332   4.170   5.137   2.762
 6145SOL     OW19333   5.027   3.780   3.956
 6145SOL    HW119334   5.014   3.754   3.860
 6145SOL    HW219335   5.019   3.879   3.964
 6146SOL     OW19336   5.714   0.080   5.175
 6146SOL    HW119337   5.781   0.091   5.248
 6146SOL    HW219338   5.761   0.072   5.087
 6147SOL     OW19339   1.177   2.739   5.188
 6147SOL    HW119340   1.178   2.835   5.161
 6147SOL    HW219341   1.167   2.682   5.106
 6148SOL     OW19342   3.938   5.177   7.017
 6148SOL    HW119343   3.926   5.100   6.954
 6148SOL    HW219344   3.968   5.258   6.966
 6149SOL     OW19345   3.550   0.934   1.223
 6149SOL    HW119346   3.462   0.889   1.241
 6149SOL    HW219347   3.625   0.870   1.240
 6150SOL     OW19348   1.275   4.224   5.289
 6150SOL    HW119349   1.272   4.152   5.358
 6150SOL    HW219350   1.353   4.210   5.229
 6151SOL     OW19351   4.366   5.033   3.287
 6151SOL    HW119352   4.424   5.083   3.351
 6151SOL    HW219353   4.324   5.098   3.223
 6152SOL     OW19354   1.594   4.503   4.026
 6152SOL    HW119355   1.561   4.433   3.962
 6152SOL    HW219356   1.636   4.578   3.975
 6153SOL     OW19357   5.057   5.719   1.046
 6153SOL    HW119358   5.112   5.672   0.978
 6153SOL    HW219359   4.988   5.657   1.083
 6154SOL     OW19360   5.148   3.573   2.328
 6154SOL    HW119361   5.238   3.536   2.350
 6154SOL    HW219362   5.122   3.547   2.235
 6155SOL     OW19363   2.020   1.709   3.183
 6155SOL    HW119364   1.967   1.775   3.236
 6155SOL    HW219365   2.022   1.737   3.087
 6156SOL     OW19366   5.427   4.652   1.234
 6156SOL    HW119367   5.348   4.608   1.191
 6156SOL    HW219368   5.494   4.582   1.261
 6157SOL     OW19369   0.665   2.596   1.732
 6157SOL    HW119370   0.647   2.554   1.821
 6157SOL    HW219371   0.686   2.693   1.745
 6158SOL     OW19372   3.001   2.190   4.738
 6158SOL    HW119373   2.929   2.240   4.689
 6158SOL    HW219374   3.029   2.242   4.818
 6159SOL     OW19375   6.458   2.403   0.266
 6159SOL    HW119376   6.360   2.411   0.247
 6159SOL    HW219377   6.475   2.317   0.314
 6160SOL     OW19378   1.257   0.306   1.129
 6160SOL    HW119379   1.222   0.260   1.047
 6160SOL    HW219380   1.348   0.341   1.112
 6161SOL     OW19381   4.346   3.526   6.673
 6161SOL    HW119382   4.343   3.515   6.573
 6161SOL    HW219383   4.253   3.538   6.707
 6162SOL     OW19384   6.233   5.315   2.186
 6162SOL    HW119385   6.325   5.282   2.162
 6162SOL    HW219386   6.177   5.320   2.103
 6163SOL     OW19387   6.091   6.267   2.917
 6163SOL    HW119388   6.032   6.346   2.911
 6163SOL    HW219389   6.126   6.258   3.011
 6164SOL     OW19390   3.016   3.905   4.377
 6164SOL    HW119391   3.035   3.949   4.465
 6164SOL    HW219392   3.045   3.965   4.302
 6165SOL     OW19393   3.442   1.626   0.182
 6165SOL    HW119394   3.357   1.651   0.228
 6165SOL    HW219395   3.520   1.653   0.238
 6166SOL     OW19396   2.323   2.682   6.737
 6166SOL    HW119397   2.261   2.675   6.659
 6166SOL    HW219398   2.272   2.708   6.819
 6167SOL     OW19399   1.836   3.434   2.597
 6167SOL    HW119400   1.903   3.391   2.659
 6167SOL    HW219401   1.745   3.396   2.614
 6168SOL     OW19402   0.134   3.869   3.569
 6168SOL    HW119403   0.186   3.949   3.599
 6168SOL    HW219404   0.091   3.826   3.648
 6169SOL     OW19405   2.018   0.597   6.693
 6169SOL    HW119406   2.062   0.529   6.635
 6169SOL    HW219407   2.083   0.629   6.762
 6170SOL     OW19408   2.741   4.018   0.898
 6170SOL    HW119409   2.763   4.047   0.990
 6170SOL    HW219410   2.655   3.967   0.899
 6171SOL     OW19411   2.228   3.996   2.160
 6171SOL    HW119412   2.192   3.909   2.194
 6171SOL    HW219413   2.309   4.020   2.213
 6172SOL     OW19414   2.492   5.453   2.260
 6172SOL    HW119415   2.544   5.446   2.175
 6172SOL    HW219416   2.418   5.386   2.259
 6173SOL     OW19417   1.431   5.833   2.094
 6173SOL    HW119418   1.455   5.737   2.079
 6173SOL    HW219419   1.396   5.872   2.009
 6174SOL     OW19420   5.591   4.742   2.165
 6174SOL    HW119421   5.652   4.756   2.244
 6174SOL    HW219422   5.509   4.693   2.195
 6175SOL     OW19423   5.060   0.145   3.321
 6175SOL    HW119424   5.067   0.107   3.413
 6175SOL    HW219425   5.018   0.236   3.326
 6176SOL     OW19426   5.957   3.130   6.447
 6176SOL    HW119427   5.964   3.038   6.408
 6176SOL    HW219428   6.037   3.147   6.505
 6177SOL     OW19429   6.662   2.753   1.327
 6177SOL    HW119430   6.698   2.691   1.397
 6177SOL    HW219431   6.563   2.744   1.323
 6178SOL     OW19432   6.104   3.534   1.438
 6178SOL    HW119433   6.173   3.602   1.412
 6178SOL    HW219434   6.022   3.580   1.470
 6179SOL     OW19435   0.741   2.021   5.705
 6179SOL    HW119436   0.838   2.003   5.725
 6179SOL    HW219437   0.726   2.014   5.606
 6180SOL     OW19438   3.353   6.766   6.583
 6180SOL    HW119439   3.357   6.680   6.634
 6180SOL    HW219440   3.365   6.748   6.486
 6181SOL     OW19441   5.249   5.994   0.337
 6181SOL    HW119442   5.258   5.900   0.371
 6181SOL    HW219443   5.250   5.992   0.237
 6182SOL     OW19444   4.704   6.661   6.776
 6182SOL    HW119445   4.785   6.694   6.728
 6182SOL    HW219446   4.647   6.739   6.804
 6183SOL     OW19447   2.943   0.916   3.166
 6183SOL    HW119448   2.905   0.989   3.222
 6183SOL    HW219449   3.042   0.913   3.178
 6184SOL     OW19450   6.261   0.701   6.354
 6184SOL    HW119451   6.182   0.639   6.349
 6184SOL    HW219452   6.244   0.781   6.296
 6185SOL     OW19453   0.846   3.788   6.247
 6185SOL    HW119454   0.773   3.751   6.305
 6185SOL    HW219455   0.858   3.885   6.266
 6186SOL     OW19456   5.849   0.037   4.928
 6186SOL    HW119457   5.884   6.991   4.987
 6186SOL    HW219458   5.871   0.016   4.833
 6187SOL     OW19459   3.587   5.112   4.335
 6187SOL    HW119460   3.493   5.131   4.306
 6187SOL    HW219461   3.621   5.032   4.286
 6188SOL     OW19462   2.595   0.121   1.934
 6188SOL    HW119463   2.637   0.042   1.888
 6188SOL    HW219464   2.627   0.205   1.891
 6189SOL     OW19465   6.106   5.196   3.504
 6189SOL    HW119466   6.056   5.110   3.511
 6189SOL    HW219467   6.044   5.267   3.469
 6190SOL     OW19468   5.157   2.622   6.686
 6190SOL    HW119469   5.186   2.717   6.680
 6190SOL    HW219470   5.173   2.576   6.599
 6191SOL     OW19471   6.636   2.024   6.796
 6191SOL    HW119472   6.595   2.046   6.707
 6191SOL    HW219473   6.727   2.064   6.801
 6192SOL     OW19474   3.183   2.446   0.155
 6192SOL    HW119475   3.265   2.459   0.211
 6192SOL    HW219476   3.208   2.401   0.069
 6193SOL     OW19477   5.537   0.153   1.100
 6193SOL    HW119478   5.604   0.084   1.128
 6193SOL    HW219479   5.584   0.236   1.071
 6194SOL     OW19480   2.126   0.468   0.560
 6194SOL    HW119481   2.072   0.384   0.568
 6194SOL    HW219482   2.074   0.535   0.508
 6195SOL     OW19483   2.767   6.795   6.176
 6195SOL    HW119484   2.749   6.893   6.166
 6195SOL    HW219485   2.682   6.749   6.204
 6196SOL     OW19486   0.251   1.083   6.491
 6196SOL    HW119487   0.233   1.174   6.530
 6196SOL    HW219488   0.249   1.015   6.563
 6197SOL     OW19489   2.291   2.901   0.531
 6197SOL    HW119490   2.232   2.973   0.567
 6197SOL    HW219491   2.257   2.871   0.442
 6198SOL     OW19492   4.235   4.938   2.265
 6198SOL    HW119493   4.141   4.937   2.232
 6198SOL    HW219494   4.294   4.889   2.200
 6199SOL     OW19495   1.197   0.515   6.306
 6199SOL    HW119496   1.258   0.584   6.266
 6199SOL    HW219497   1.234   0.484   6.393
 6200SOL     OW19498   3.297   0.058   5.785
 6200SOL    HW119499   3.311   0.145   5.738
 6200SOL    HW219500   3.378   0.001   5.774
 6201SOL     OW19501   2.391   4.356   4.094
 6201SOL    HW119502   2.367   4.340   3.998
 6201SOL    HW219503   2.341   4.291   4.152
 6202SOL     OW19504   3.415   2.530   1.321
 6202SOL    HW119505   3.357   2.542   1.402
 6202SOL    HW219506   3.373   2.461   1.261
 6203SOL     OW19507   4.581   1.947   5.437
 6203SOL    HW119508   4.567   1.847   5.440
 6203SOL    HW219509   4.642   1.970   5.361
 6204SOL     OW19510   1.575   6.510   5.836
 6204SOL    HW119511   1.549   6.570   5.761
 6204SOL    HW219512   1.626   6.431   5.799
 6205SOL     OW19513   5.566   5.800   0.211
 6205SOL    HW119514   5.625   5.722   0.192
 6205SOL    HW219515   5.474   5.768   0.236
 6206SOL     OW19516   5.080   7.008   3.107
 6206SOL    HW119517   5.075   0.024   3.017
 6206SOL    HW219518   5.110   0.049   3.174
 6207SOL     OW19519   1.708   3.895   4.764
 6207SOL    HW119520   1.618   3.935   4.746
 6207SOL    HW219521   1.700   3.796   4.768
 6208SOL     OW19522   5.471   6.293   6.329
 6208SOL    HW119523   5.430   6.329   6.246
 6208SOL    HW219524   5.458   6.194   6.333
 6209SOL     OW19525   3.192   5.346   0.996
 6209SOL    HW119526   3.277   5.334   1.048
 6209SOL    HW219527   3.200   5.428   0.939
 6210SOL     OW19528   5.949   4.779   3.489
 6210SOL    HW119529   5.970   4.682   3.475
 6210SOL    HW219530   5.890   4.811   3.415
 6211SOL     OW19531   2.392   0.702   4.982
 6211SOL    HW119532   2.311   0.754   4.955
 6211SOL    HW219533   2.418   0.728   5.075
 6212SOL     OW19534   6.666   6.336   3.627
 6212SOL    HW119535   6.708   6.249   3.654
 6212SOL    HW219536   6.731   6.389   3.572
 6213SOL     OW19537   0.193   6.512   6.413
 6213SOL    HW119538   0.194   6.512   6.313
 6213SOL    HW219539   0.280   6.476   6.447
 6214SOL     OW19540   6.573   4.993   2.448
 6214SOL    HW119541   6.487   5.007   2.496
 6214SOL    HW219542   6.576   4.901   2.410
 6215SOL     OW19543   2.781   4.514   1.209
 6215SOL    HW119544   2.879   4.499   1.194
 6215SOL    HW219545   2.731   4.483   1.128
 6216SOL     OW19546   6.419   1.778   2.843
 6216SOL    HW119547   6.510   1.818   2.831
 6216SOL    HW219548   6.369   1.779   2.756
 6217SOL     OW19549   5.427   3.053   1.980
 6217SOL    HW119550   5.459   2.989   2.050
 6217SOL    HW219551   5.347   3.014   1.934
 6218SOL     OW19552   3.737   4.892   4.554
 6218SOL    HW119553   3.647   4.895   4.598
 6218SOL    HW219554   3.738   4.954   4.476
 6219SOL     OW19555   0.752   1.883   4.588
 6219SOL    HW119556   0.752   1.971   4.636
 6219SOL    HW219557   0.659   1.849   4.580
 6220SOL     OW19558   1.461   4.209   5.098
 6220SOL    HW119559   1.535   4.142   5.096
 6220SOL    HW219560   1.499   4.301   5.099
 6221SOL     OW19561   4.336   4.829   4.661
 6221SOL    HW119562   4.405   4.885   4.617
 6221SOL    HW219563   4.248   4.843   4.615
 6222SOL     OW19564   6.884   1.320   1.073
 6222SOL    HW119565   6.948   1.393   1.095
 6222SOL    HW219566   6.804   1.358   1.027
 6223SOL     OW19567   5.289   3.962   4.802
 6223SOL    HW119568   5.330   3.890   4.746
 6223SOL    HW219569   5.242   3.921   4.880
 6224SOL     OW19570   2.740   0.776   5.208
 6224SOL    HW119571   2.748   0.711   5.283
 6224SOL    HW219572   2.649   0.768   5.166
 6225SOL     OW19573   4.558   2.325   6.878
 6225SOL    HW119574   4.638   2.301   6.823
 6225SOL    HW219575   4.584   2.391   6.948
 6226SOL     OW19576   6.472   6.786   4.779
 6226SOL    HW119577   6.413   6.734   4.841
 6226SOL    HW219578   6.495   6.874   4.821
 6227SOL     OW19579   2.899   4.647   6.301
 6227SOL    HW119580   2.969   4.581   6.276
 6227SOL    HW219581   2.935   4.740   6.293
 6228SOL     OW19582   0.184   0.530   2.862
 6228SOL    HW119583   0.130   0.478   2.928
 6228SOL    HW219584   0.201   0.622   2.899
 6229SOL     OW19585   1.814   2.627   2.173
 6229SOL    HW119586   1.860   2.703   2.127
 6229SOL    HW219587   1.881   2.560   2.204
 6230SOL     OW19588   1.969   2.060   3.204
 6230SOL    HW119589   1.870   2.051   3.216
 6230SOL    HW219590   1.993   2.043   3.109
 6231SOL     OW19591   0.160   5.379   1.678
 6231SOL    HW119592   0.092   5.432   1.628
 6231SOL    HW219593   0.198   5.308   1.618
 6232SOL     OW19594   1.007   1.250   6.550
 6232SOL    HW119595   0.962   1.336   6.527
 6232SOL    HW219596   0.942   1.189   6.596
 6233SOL     OW19597   4.671   2.009   0.288
 6233SOL    HW119598   4.635   1.935   0.231
 6233SOL    HW219599   4.622   2.094   0.267
 6234SOL     OW19600   2.247   2.304   3.622
 6234SOL    HW119601   2.246   2.227   3.558
 6234SOL    HW219602   2.308   2.375   3.587
 6235SOL     OW19603   2.562   6.258   3.656
 6235SOL    HW119604   2.504   6.177   3.655
 6235SOL    HW219605   2.552   6.306   3.744
 6236SOL     OW19606   6.899   3.888   0.326
 6236SOL    HW119607   6.934   3.981   0.342
 6236SOL    HW219608   6.817   3.893   0.268
 6237SOL     OW19609   4.412   7.019   0.481
 6237SOL    HW119610   4.394   6.969   0.566
 6237SOL    HW219611   4.326   0.030   0.446
 6238SOL     OW19612   4.871   4.273   1.044
 6238SOL    HW119613   4.943   4.209   1.071
 6238SOL    HW219614   4.893   4.313   0.955
 6239SOL     OW19615   2.354   0.973   3.654
 6239SOL    HW119616   2.312   1.061   3.633
 6239SOL    HW219617   2.357   0.916   3.572
 6240SOL     OW19618   2.239   3.632   0.750
 6240SOL    HW119619   2.248   3.571   0.671
 6240SOL    HW219620   2.175   3.592   0.816
 6241SOL     OW19621   4.614   0.095   1.829
 6241SOL    HW119622   4.663   0.159   1.771
 6241SOL    HW219623   4.517   0.096   1.805
 6242SOL     OW19624   3.861   2.184   3.695
 6242SOL    HW119625   3.790   2.122   3.729
 6242SOL    HW219626   3.939   2.182   3.757
 6243SOL     OW19627   5.607   5.295   3.177
 6243SOL    HW119628   5.628   5.268   3.271
 6243SOL    HW219629   5.683   5.270   3.118
 6244SOL     OW19630   2.024   2.085   2.055
 6244SOL    HW119631   2.014   2.118   2.149
 6244SOL    HW219632   2.115   2.111   2.021
 6245SOL     OW19633   2.117   4.269   0.565
 6245SOL    HW119634   2.115   4.283   0.664
 6245SOL    HW219635   2.207   4.235   0.539
 6246SOL     OW19636   3.272   1.339   6.232
 6246SOL    HW119637   3.213   1.404   6.186
 6246SOL    HW219638   3.232   1.247   6.226
 6247SOL     OW19639   6.523   6.189   2.894
 6247SOL    HW119640   6.604   6.211   2.949
 6247SOL    HW219641   6.516   6.253   2.818
 6248SOL     OW19642   0.966   4.751   1.065
 6248SOL    HW119643   0.944   4.689   1.140
 6248SOL    HW219644   0.905   4.830   1.068
 6249SOL     OW19645   5.400   4.116   6.125
 6249SOL    HW119646   5.465   4.039   6.129
 6249SOL    HW219647   5.334   4.108   6.200
 6250SOL     OW19648   5.355   5.261   6.120
 6250SOL    HW119649   5.331   5.174   6.163
 6250SOL    HW219650   5.362   5.247   6.021
 6251SOL     OW19651   4.493   2.074   0.868
 6251SOL    HW119652   4.568   2.009   0.879
 6251SOL    HW219653   4.406   2.025   0.870
 6252SOL     OW19654   2.098   6.593   5.103
 6252SOL    HW119655   2.164   6.548   5.044
 6252SOL    HW219656   2.129   6.588   5.198
 6253SOL     OW19657   1.650   3.735   1.385
 6253SOL    HW119658   1.626   3.718   1.480
 6253SOL    HW219659   1.575   3.704   1.326
 6254SOL     OW19660   5.231   0.526   0.725
 6254SOL    HW119661   5.193   0.573   0.804
 6254SOL    HW219662   5.189   0.436   0.717
 6255SOL     OW19663   0.068   1.342   2.308
 6255SOL    HW119664   0.018   1.406   2.366
 6255SOL    HW219665   0.069   1.376   2.214
 6256SOL     OW19666   3.059   4.824   3.075
 6256SOL    HW119667   3.028   4.804   3.168
 6256SOL    HW219668   3.038   4.747   3.015
 6257SOL     OW19669   4.391   2.878   6.825
 6257SOL    HW119670   4.468   2.886   6.888
 6257SOL    HW219671   4.364   2.781   6.817
 6258SOL     OW19672   5.093   2.303   2.884
 6258SOL    HW119673   5.011   2.333   2.835
 6258SOL    HW219674   5.133   2.225   2.836
 6259SOL     OW19675   3.106   2.371   1.687
 6259SOL    HW119676   3.030   2.404   1.743
 6259SOL    HW219677   3.173   2.325   1.745
 6260SOL     OW19678   3.531   3.381   0.435
 6260SOL    HW119679   3.543   3.365   0.533
 6260SOL    HW219680   3.462   3.317   0.400
 6261SOL     OW19681   4.310   0.663   0.016
 6261SOL    HW119682   4.385   0.615   6.997
 6261SOL    HW219683   4.250   0.703   6.973
 6262SOL     OW19684   0.196   5.559   5.572
 6262SOL    HW119685   0.155   5.629   5.632
 6262SOL    HW219686   0.149   5.560   5.484
 6263SOL     OW19687   6.072   0.608   1.118
 6263SOL    HW119688   6.036   0.549   1.046
 6263SOL    HW219689   6.140   0.670   1.078
 6264SOL     OW19690   1.971   1.345   6.849
 6264SOL    HW119691   1.881   1.369   6.886
 6264SOL    HW219692   2.041   1.359   6.920
 6265SOL     OW19693   4.324   2.940   1.250
 6265SOL    HW119694   4.374   2.877   1.309
 6265SOL    HW219695   4.386   2.976   1.180
 6266SOL     OW19696   2.278   0.144   2.589
 6266SOL    HW119697   2.348   0.094   2.640
 6266SOL    HW219698   2.322   0.211   2.529
 6267SOL     OW19699   2.210   6.628   6.928
 6267SOL    HW119700   2.129   6.642   6.871
 6267SOL    HW219701   2.240   6.715   6.966
 6268SOL     OW19702   3.021   4.946   2.779
 6268SOL    HW119703   3.045   4.973   2.872
 6268SOL    HW219704   2.932   4.901   2.779
 6269SOL     OW19705   6.353   4.873   0.633
 6269SOL    HW119706   6.272   4.879   0.575
 6269SOL    HW219707   6.348   4.791   0.690
 6270SOL     OW19708   0.630   1.531   4.707
 6270SOL    HW119709   0.580   1.611   4.673
 6270SOL    HW219710   0.586   1.448   4.673
 6271SOL     OW19711   6.065   1.162   0.938
 6271SOL    HW119712   5.985   1.105   0.955
 6271SOL    HW219713   6.108   1.133   0.852
 6272SOL     OW19714   1.556   2.236   3.615
 6272SOL    HW119715   1.570   2.232   3.714
 6272SOL    HW219716   1.622   2.176   3.569
 6273SOL     OW19717   3.913   0.294   1.655
 6273SOL    HW119718   3.837   0.259   1.601
 6273SOL    HW219719   3.910   0.255   1.747
 6274SOL     OW19720   3.406   6.346   5.961
 6274SOL    HW119721   3.317   6.382   5.991
 6274SOL    HW219722   3.394   6.295   5.876
 6275SOL     OW19723   2.017   0.492   4.259
 6275SOL    HW119724   2.013   0.552   4.179
 6275SOL    HW219725   2.071   0.411   4.238
 6276SOL     OW19726   1.675   5.285   4.155
 6276SOL    HW119727   1.617   5.210   4.121
 6276SOL    HW219728   1.651   5.305   4.250
 6277SOL     OW19729   5.501   3.110   3.428
 6277SOL    HW119730   5.480   3.054   3.509
 6277SOL    HW219731   5.584   3.076   3.384
 6278SOL     OW19732   5.474   0.646   4.376
 6278SOL    HW119733   5.558   0.646   4.431
 6278SOL    HW219734   5.429   0.735   4.385
 6279SOL     OW19735   4.583   1.509   6.832
 6279SOL    HW119736   4.491   1.545   6.814
 6279SOL    HW219737   4.651   1.575   6.800
 6280SOL     OW19738   0.608   5.148   6.002
 6280SOL    HW119739   0.596   5.128   6.099
 6280SOL    HW219740   0.608   5.247   5.987
 6281SOL     OW19741   2.759   6.903   5.114
 6281SOL    HW119742   2.670   6.857   5.111
 6281SOL    HW219743   2.747   6.999   5.140
 6282SOL     OW19744   1.717   7.021   3.695
 6282SOL    HW119745   1.758   0.008   3.605
 6282SOL    HW219746   1.663   0.075   3.720
 6283SOL     OW19747   0.252   2.695   5.282
 6283SOL    HW119748   0.278   2.600   5.265
 6283SOL    HW219749   0.230   2.707   5.379
 6284SOL     OW19750   2.656   4.584   6.203
 6284SOL    HW119751   2.735   4.620   6.254
 6284SOL    HW219752   2.678   4.492   6.169
 6285SOL     OW19753   1.766   4.557   2.881
 6285SOL    HW119754   1.765   4.458   2.864
 6285SOL    HW219755   1.685   4.598   2.839
 6286SOL     OW19756   5.912   6.998   4.656
 6286SOL    HW119757   5.969   6.915   4.652
 6286SOL    HW219758   5.817   6.974   4.635
 6287SOL     OW19759   4.751   4.438   2.060
 6287SOL    HW119760   4.689   4.511   2.089
 6287SOL    HW219761   4.697   4.359   2.029
 6288SOL     OW19762   5.068   3.673   0.966
 6288SOL    HW119763   4.991   3.612   0.985
 6288SOL    HW219764   5.126   3.631   0.896
 6289SOL     OW19765   1.339   0.919   2.553
 6289SOL    HW119766   1.388   0.859   2.617
 6289SOL    HW219767   1.244   0.890   2.545
 6290SOL     OW19768   5.767   3.387   3.196
 6290SOL    HW119769   5.751   3.407   3.292
 6290SOL    HW219770   5.864   3.395   3.175
 6291SOL     OW19771   4.005   3.908   3.080
 6291SOL    HW119772   4.044   3.827   3.125
 6291SOL    HW219773   3.965   3.968   3.148
 6292SOL     OW19774   0.393   1.854   2.060
 6292SOL    HW119775   0.365   1.815   2.148
 6292SOL    HW219776   0.489   1.881   2.064
 6293SOL     OW19777   4.758   5.983   0.640
 6293SOL    HW119778   4.823   5.957   0.711
 6293SOL    HW219779   4.696   6.053   0.676
 6294SOL     OW19780   4.043   5.170   2.450
 6294SOL    HW119781   4.101   5.121   2.516
 6294SOL    HW219782   4.096   5.188   2.367
 6295SOL     OW19783   6.300   6.032   6.021
 6295SOL    HW119784   6.304   5.967   6.097
 6295SOL    HW219785   6.320   5.985   5.935
 6296SOL     OW19786   6.344   1.224   2.446
 6296SOL    HW119787   6.314   1.305   2.495
 6296SOL    HW219788   6.342   1.242   2.347
 6297SOL     OW19789   5.498   0.414   5.812
 6297SOL    HW119790   5.420   0.476   5.821
 6297SOL    HW219791   5.479   0.345   5.742
 6298SOL     OW19792   0.952   2.046   4.409
 6298SOL    HW119793   1.023   1.976   4.417
 6298SOL    HW219794   0.864   2.007   4.436
 6299SOL     OW19795   6.521   3.031   0.445
 6299SOL    HW119796   6.617   3.030   0.472
 6299SOL    HW219797   6.504   2.959   0.377
 6300SOL     OW19798   5.169   1.069   4.032
 6300SOL    HW119799   5.228   1.117   3.968
 6300SOL    HW219800   5.202   0.974   4.042
 6301SOL     OW19801   3.151   0.287   0.648
 6301SOL    HW119802   3.207   0.241   0.579
 6301SOL    HW219803   3.057   0.255   0.640
 6302SOL     OW19804   0.322   1.151   3.211
 6302SOL    HW119805   0.278   1.099   3.284
 6302SOL    HW219806   0.260   1.161   3.134
 6303SOL     OW19807   2.511   5.960   5.530
 6303SOL    HW119808   2.461   5.895   5.472
 6303SOL    HW219809   2.459   5.976   5.614
 6304SOL     OW19810   3.542   1.199   5.901
 6304SOL    HW119811   3.530   1.208   6.000
 6304SOL    HW219812   3.637   1.215   5.877
 6305SOL     OW19813   5.683   1.369   1.984
 6305SOL    HW119814   5.597   1.403   2.022
 6305SOL    HW219815   5.671   1.275   1.954
 6306SOL     OW19816   5.912   2.835   4.290
 6306SOL    HW119817   5.871   2.795   4.373
 6306SOL    HW219818   6.012   2.823   4.294
 6307SOL     OW19819   2.640   4.746   0.291
 6307SOL    HW119820   2.610   4.673   0.352
 6307SOL    HW219821   2.727   4.783   0.323
 6308SOL     OW19822   3.061   2.021   5.611
 6308SOL    HW119823   2.971   2.000   5.572
 6308SOL    HW219824   3.132   2.001   5.543
 6309SOL     OW19825   5.866   2.325   4.934
 6309SOL    HW119826   5.871   2.335   4.835
 6309SOL    HW219827   5.820   2.240   4.957
 6310SOL     OW19828   1.263   4.819   4.820
 6310SOL    HW119829   1.286   4.722   4.807
 6310SOL    HW219830   1.268   4.842   4.917
 6311SOL     OW19831   6.280   6.489   4.569
 6311SOL    HW119832   6.184   6.467   4.549
 6311SOL    HW219833   6.325   6.522   4.486
 6312SOL     OW19834   5.031   4.504   6.073
 6312SOL    HW119835   5.015   4.525   5.977
 6312SOL    HW219836   5.126   4.523   6.097
 6313SOL     OW19837   2.470   5.234   3.297
 6313SOL    HW119838   2.375   5.203   3.287
 6313SOL    HW219839   2.503   5.211   3.388
 6314SOL     OW19840   3.079   6.576   3.783
 6314SOL    HW119841   3.040   6.667   3.766
 6314SOL    HW219842   3.113   6.572   3.877
 6315SOL     OW19843   2.215   3.460   0.524
 6315SOL    HW119844   2.133   3.498   0.482
 6315SOL    HW219845   2.248   3.383   0.469
 6316SOL     OW19846   4.642   1.984   5.934
 6316SOL    HW119847   4.742   1.971   5.932
 6316SOL    HW219848   4.617   2.034   6.017
 6317SOL     OW19849   6.387   5.765   4.083
 6317SOL    HW119850   6.337   5.750   3.998
 6317SOL    HW219851   6.329   5.740   4.160
 6318SOL     OW19852   2.239   2.134   4.484
 6318SOL    HW119853   2.140   2.141   4.474
 6318SOL    HW219854   2.261   2.090   4.571
 6319SOL     OW19855   0.439   1.414   2.909
 6319SOL    HW119856   0.470   1.505   2.883
 6319SOL    HW219857   0.436   1.355   2.828
 6320SOL     OW19858   6.974   2.352   3.465
 6320SOL    HW119859   6.887   2.354   3.514
 6320SOL    HW219860   0.016   2.306   3.520
 6321SOL     OW19861   2.491   3.563   6.384
 6321SOL    HW119862   2.407   3.600   6.343
 6321SOL    HW219863   2.570   3.612   6.347
 6322SOL     OW19864   0.919   0.723   0.007
 6322SOL    HW119865   0.853   0.721   0.082
 6322SOL    HW219866   1.010   0.700   0.042
 6323SOL     OW19867   3.914   1.545   1.310
 6323SOL    HW119868   3.972   1.470   1.341
 6323SOL    HW219869   3.818   1.523   1.328
 6324SOL     OW19870   4.383   1.850   6.892
 6324SOL    HW119871   4.377   1.925   6.826
 6324SOL    HW219872   4.321   1.870   6.969
 6325SOL     OW19873   1.186   2.613   2.406
 6325SOL    HW119874   1.089   2.635   2.419
 6325SOL    HW219875   1.237   2.696   2.384
 6326SOL     OW19876   4.975   5.837   1.398
 6326SOL    HW119877   4.900   5.772   1.405
 6326SOL    HW219878   5.060   5.793   1.427
 6327SOL     OW19879   4.472   5.436   5.772
 6327SOL    HW119880   4.447   5.345   5.804
 6327SOL    HW219881   4.568   5.454   5.794
 6328SOL     OW19882   3.060   4.064   6.391
 6328SOL    HW119883   3.149   4.035   6.427
 6328SOL    HW219884   2.990   4.049   6.461
 6329SOL     OW19885   1.395   1.705   2.751
 6329SOL    HW119886   1.319   1.700   2.687
 6329SOL    HW219887   1.384   1.784   2.810
 6330SOL     OW19888   3.387   0.846   0.359
 6330SOL    HW119889   3.456   0.881   0.422
 6330SOL    HW219890   3.338   0.922   0.317
 6331SOL     OW19891   5.741   2.968   2.570
 6331SOL    HW119892   5.723   2.994   2.476
 6331SOL    HW219893   5.683   2.890   2.594
 6332SOL     OW19894   5.420   6.165   2.305
 6332SOL    HW119895   5.438   6.231   2.231
 6332SOL    HW219896   5.356   6.095   2.272
 6333SOL     OW19897   2.293   5.539   2.679
 6333SOL    HW119898   2.196   5.558   2.691
 6333SOL    HW219899   2.344   5.578   2.756
 6334SOL     OW19900   2.568   1.418   2.620
 6334SOL    HW119901   2.545   1.364   2.702
 6334SOL    HW219902   2.506   1.393   2.546
 6335SOL     OW19903   0.293   1.346   6.711
 6335SOL    HW119904   0.303   1.445   6.706
 6335SOL    HW219905   0.367   1.302   6.660
 6336SOL     OW19906   0.318   3.164   5.281
 6336SOL    HW119907   0.366   3.249   5.302
 6336SOL    HW219908   0.219   3.182   5.275
 6337SOL     OW19909   6.722   4.529   5.456
 6337SOL    HW119910   6.700   4.447   5.509
 6337SOL    HW219911   6.794   4.508   5.390
 6338SOL     OW19912   3.582   1.152   4.072
 6338SOL    HW119913   3.560   1.076   4.133
 6338SOL    HW219914   3.584   1.119   3.977
 6339SOL     OW19915   0.016   2.344   5.053
 6339SOL    HW119916   0.083   2.328   4.980
 6339SOL    HW219917   0.064   2.366   5.138
 6340SOL     OW19918   2.059   5.196   4.382
 6340SOL    HW119919   2.019   5.159   4.466
 6340SOL    HW219920   2.120   5.127   4.342
 6341SOL     OW19921   6.566   4.900   2.761
 6341SOL    HW119922   6.484   4.929   2.711
 6341SOL    HW219923   6.647   4.916   2.705
 6342SOL     OW19924   1.687   3.006   1.266
 6342SOL    HW119925   1.741   3.061   1.329
 6342SOL    HW219926   1.590   3.025   1.280
 6343SOL     OW19927   4.208   0.892   0.387
 6343SOL    HW119928   4.183   0.897   0.484
 6343SOL    HW219929   4.182   0.977   0.342
 6344SOL     OW19930   0.314   4.455   4.495
 6344SOL    HW119931   0.360   4.370   4.468
 6344SOL    HW219932   0.216   4.447   4.479
 6345SOL     OW19933   2.819   2.247   2.292
 6345SOL    HW119934   2.746   2.315   2.296
 6345SOL    HW219935   2.867   2.254   2.205
 6346SOL     OW19936   0.940   5.764   3.892
 6346SOL    HW119937   0.945   5.779   3.794
 6346SOL    HW219938   1.000   5.688   3.918
 6347SOL     OW19939   3.373   0.174   1.591
 6347SOL    HW119940   3.391   0.268   1.617
 6347SOL    HW219941   3.287   0.169   1.539
 6348SOL     OW19942   1.195   2.099   4.865
 6348SOL    HW119943   1.267   2.051   4.914
 6348SOL    HW219944   1.208   2.198   4.874
 6349SOL     OW19945   2.287   0.157   0.165
 6349SOL    HW119946   2.312   0.061   0.156
 6349SOL    HW219947   2.210   0.166   0.229
 6350SOL     OW19948   1.178   6.194   2.748
 6350SOL    HW119949   1.178   6.099   2.778
 6350SOL    HW219950   1.084   6.226   2.738
 6351SOL     OW19951   0.146   1.647   3.049
 6351SOL    HW119952   0.059   1.693   3.031
 6351SOL    HW219953   0.197   1.639   2.963
 6352SOL     OW19954   6.930   6.051   2.429
 6352SOL    HW119955   6.871   6.104   2.490
 6352SOL    HW219956   6.934   5.957   2.461
 6353SOL     OW19957   6.885   6.430   2.303
 6353SOL    HW119958   6.836   6.462   2.383
 6353SOL    HW219959   6.951   6.360   2.330
 6354SOL     OW19960   0.399   6.561   4.171
 6354SOL    HW119961   0.368   6.594   4.082
 6354SOL    HW219962   0.323   6.520   4.220
 6355SOL     OW19963   1.165   2.353   1.986
 6355SOL    HW119964   1.202   2.294   2.059
 6355SOL    HW219965   1.239   2.408   1.947
 6356SOL     OW19966   3.034   2.946   0.989
 6356SOL    HW119967   2.953   2.888   1.000
 6356SOL    HW219968   3.023   3.028   1.046
 6357SOL     OW19969   4.546   2.165   0.605
 6357SOL    HW119970   4.558   2.132   0.699
 6357SOL    HW219971   4.511   2.091   0.548
 6358SOL     OW19972   0.400   2.754   3.949
 6358SOL    HW119973   0.467   2.777   4.019
 6358SOL    HW219974   0.445   2.748   3.860
 6359SOL     OW19975   6.913   0.883   6.688
 6359SOL    HW119976   6.905   0.982   6.674
 6359SOL    HW219977   6.884   0.835   6.605
 6360SOL     OW19978   3.174   5.952   4.268
 6360SOL    HW119979   3.097   6.015   4.258
 6360SOL    HW219980   3.260   6.001   4.252
 6361SOL     OW19981   3.804   5.804   5.901
 6361SOL    HW119982   3.790   5.875   5.832
 6361SOL    HW219983   3.715   5.773   5.936
 6362SOL     OW19984   6.429   5.463   6.414
 6362SOL    HW119985   6.469   5.449   6.504
 6362SOL    HW219986   6.468   5.397   6.350
 6363SOL     OW19987   0.926   6.036   3.966
 6363SOL    HW119988   0.918   5.938   3.947
 6363SOL    HW219989   0.897   6.054   4.060
 6364SOL     OW19990   1.971   2.847   6.124
 6364SOL    HW119991   1.899   2.810   6.181
 6364SOL    HW219992   1.956   2.945   6.111
 6365SOL     OW19993   5.011   5.512   2.537
 6365SOL    HW119994   5.103   5.520   2.577
 6365SOL    HW219995   4.943   5.514   2.611
 6366SOL     OW19996   0.037   4.557   5.862
 6366SOL    HW119997   7.009   4.569   5.778
 6366SOL    HW219998   0.132   4.582   5.844
 6367SOL     OW19999   5.930   5.696   2.504
 6367SOL    HW120000   5.915   5.626   2.574
 6367SOL    HW220001   5.904   5.786   2.540
 6368SOL     OW20002   2.978   0.628   3.551
 6368SOL    HW120003   2.990   0.584   3.640
 6368SOL    HW220004   2.947   0.722   3.564
 6369SOL     OW20005   2.253   5.374   5.415
 6369SOL    HW120006   2.329   5.439   5.419
 6369SOL    HW220007   2.200   5.389   5.332
 6370SOL     OW20008   5.884   2.659   2.122
 6370SOL    HW120009   5.952   2.597   2.084
 6370SOL    HW220010   5.925   2.749   2.135
 6371SOL     OW20011   4.910   1.998   3.268
 6371SOL    HW120012   4.934   2.010   3.171
 6371SOL    HW220013   4.993   1.999   3.323
 6372SOL     OW20014   2.858   6.005   2.263
 6372SOL    HW120015   2.904   5.925   2.302
 6372SOL    HW220016   2.926   6.068   2.225
 6373SOL     OW20017   3.629   4.364   6.922
 6373SOL    HW120018   3.665   4.271   6.909
 6373SOL    HW220019   3.691   4.416   6.980
 6374SOL     OW20020   2.875   3.633   2.755
 6374SOL    HW120021   2.915   3.709   2.705
 6374SOL    HW220022   2.866   3.553   2.695
 6375SOL     OW20023   1.894   6.272   2.612
 6375SOL    HW120024   1.932   6.281   2.520
 6375SOL    HW220025   1.799   6.303   2.613
 6376SOL     OW20026   0.292   2.529   5.646
 6376SOL    HW120027   0.229   2.587   5.698
 6376SOL    HW220028   0.385   2.542   5.681
 6377SOL     OW20029   0.707   1.465   4.234
 6377SOL    HW120030   0.731   1.426   4.145
 6377SOL    HW220031   0.791   1.479   4.287
 6378SOL     OW20032   4.503   4.743   3.683
 6378SOL    HW120033   4.429   4.704   3.738
 6378SOL    HW220034   4.541   4.672   3.624
 6379SOL     OW20035   2.407   5.012   2.599
 6379SOL    HW120036   2.337   4.957   2.554
 6379SOL    HW220037   2.414   5.101   2.553
 6380SOL     OW20038   0.663   0.710   5.850
 6380SOL    HW120039   0.707   0.798   5.870
 6380SOL    HW220040   0.726   0.653   5.797
 6381SOL     OW20041   2.805   3.349   1.752
 6381SOL    HW120042   2.706   3.337   1.759
 6381SOL    HW220043   2.844   3.271   1.702
 6382SOL     OW20044   1.176   4.495   5.056
 6382SOL    HW120045   1.080   4.470   5.068
 6382SOL    HW220046   1.200   4.492   4.959
 6383SOL     OW20047   4.155   1.468   3.820
 6383SOL    HW120048   4.113   1.383   3.787
 6383SOL    HW220049   4.245   1.448   3.859
 6384SOL     OW20050   6.175   4.506   2.417
 6384SOL    HW120051   6.213   4.594   2.448
 6384SOL    HW220052   6.248   4.437   2.419
 6385SOL     OW20053   0.598   6.013   4.573
 6385SOL    HW120054   0.600   5.917   4.544
 6385SOL    HW220055   0.669   6.064   4.524
 6386SOL     OW20056   2.793   5.555   1.769
 6386SOL    HW120057   2.711   5.608   1.747
 6386SOL    HW220058   2.823   5.577   1.862
 6387SOL     OW20059   6.742   1.962   5.112
 6387SOL    HW120060   6.839   1.985   5.122
 6387SOL    HW220061   6.726   1.924   5.021
 6388SOL     OW20062   2.217   4.763   3.262
 6388SOL    HW120063   2.309   4.800   3.248
 6388SOL    HW220064   2.150   4.824   3.220
 6389SOL     OW20065   0.744   4.678   1.806
 6389SOL    HW120066   0.665   4.708   1.754
 6389SOL    HW220067   0.817   4.746   1.799
 6390SOL     OW20068   0.158   3.888   4.095
 6390SOL    HW120069   0.110   3.846   4.018
 6390SOL    HW220070   0.192   3.979   4.069
 6391SOL     OW20071   3.755   1.165   6.750
 6391SOL    HW120072   3.744   1.263   6.737
 6391SOL    HW220073   3.692   1.116   6.690
 6392SOL     OW20074   1.571   6.482   4.229
 6392SOL    HW120075   1.472   6.484   4.215
 6392SOL    HW220076   1.592   6.443   4.318
 6393SOL     OW20077   5.102   1.181   0.613
 6393SOL    HW120078   5.167   1.210   0.683
 6393SOL    HW220079   5.103   1.247   0.537
 6394SOL     OW20080   3.306   4.887   1.433
 6394SOL    HW120081   3.303   4.826   1.512
 6394SOL    HW220082   3.299   4.833   1.349
 6395SOL     OW20083   5.818   1.251   1.211
 6395SOL    HW120084   5.895   1.314   1.210
 6395SOL    HW220085   5.743   1.290   1.158
 6396SOL     OW20086   5.628   3.775   5.473
 6396SOL    HW120087   5.693   3.703   5.499
 6396SOL    HW220088   5.585   3.750   5.386
 6397SOL     OW20089   0.182   0.630   0.051
 6397SOL    HW120090   0.158   0.608   6.983
 6397SOL    HW220091   0.199   0.728   0.060
 6398SOL     OW20092   3.967   0.657   1.479
 6398SOL    HW120093   4.050   0.621   1.437
 6398SOL    HW220094   3.976   0.655   1.578
 6399SOL     OW20095   2.358   5.779   6.785
 6399SOL    HW120096   2.386   5.874   6.799
 6399SOL    HW220097   2.271   5.763   6.832
 6400SOL     OW20098   2.752   5.428   4.047
 6400SOL    HW120099   2.755   5.396   4.141
 6400SOL    HW220100   2.659   5.456   4.024
 6401SOL     OW20101   1.686   4.228   4.388
 6401SOL    HW120102   1.698   4.327   4.378
 6401SOL    HW220103   1.773   4.186   4.412
 6402SOL     OW20104   1.730   2.310   3.205
 6402SOL    HW120105   1.670   2.317   3.125
 6402SOL    HW220106   1.737   2.215   3.233
 6403SOL     OW20107   0.975   5.891   1.286
 6403SOL    HW120108   0.958   5.986   1.311
 6403SOL    HW220109   1.027   5.846   1.359
 6404SOL     OW20110   5.093   1.082   3.315
 6404SOL    HW120111   5.056   1.151   3.377
 6404SOL    HW220112   5.040   1.082   3.230
 6405SOL     OW20113   2.486   1.437   1.550
 6405SOL    HW120114   2.423   1.508   1.582
 6405SOL    HW220115   2.469   1.352   1.601
 6406SOL     OW20116   2.660   2.197   3.290
 6406SOL    HW120117   2.569   2.170   3.258
 6406SOL    HW220118   2.677   2.157   3.379
 6407SOL     OW20119   4.475   5.132   6.180
 6407SOL    HW120120   4.565   5.111   6.140
 6407SOL    HW220121   4.418   5.177   6.111
 6408SOL     OW20122   6.305   1.455   0.478
 6408SOL    HW120123   6.342   1.387   0.415
 6408SOL    HW220124   6.359   1.539   0.472
 6409SOL     OW20125   1.133   4.245   2.063
 6409SOL    HW120126   1.111   4.179   2.135
 6409SOL    HW220127   1.218   4.292   2.086
 6410SOL     OW20128   1.227   1.372   1.951
 6410SOL    HW120129   1.283   1.341   2.027
 6410SOL    HW220130   1.261   1.334   1.866
 6411SOL     OW20131   2.186   0.957   3.334
 6411SOL    HW120132   2.117   0.948   3.405
 6411SOL    HW220133   2.217   0.867   3.306
 6412SOL     OW20134   0.088   2.065   4.871
 6412SOL    HW120135   0.178   2.076   4.828
 6412SOL    HW220136   0.019   2.106   4.811
 6413SOL     OW20137   0.209   4.439   0.744
 6413SOL    HW120138   0.251   4.530   0.746
 6413SOL    HW220139   0.278   4.370   0.762
 6414SOL     OW20140   6.696   6.678   2.940
 6414SOL    HW120141   6.783   6.634   2.959
 6414SOL    HW220142   6.655   6.637   2.858
 6415SOL     OW20143   1.732   1.639   1.969
 6415SOL    HW120144   1.749   1.548   1.930
 6415SOL    HW220145   1.780   1.647   2.056
 6416SOL     OW20146   2.227   6.297   6.347
 6416SOL    HW120147   2.272   6.383   6.371
 6416SOL    HW220148   2.200   6.300   6.251
 6417SOL     OW20149   0.336   6.825   3.120
 6417SOL    HW120150   0.273   6.761   3.163
 6417SOL    HW220151   0.372   6.784   3.035
 6418SOL     OW20152   6.679   6.036   2.700
 6418SOL    HW120153   6.681   6.005   2.795
 6418SOL    HW220154   6.734   6.119   2.690
 6419SOL     OW20155   2.551   4.005   1.336
 6419SOL    HW120156   2.538   4.001   1.435
 6419SOL    HW220157   2.461   4.011   1.292
 6420SOL     OW20158   0.746   3.176   0.183
 6420SOL    HW120159   0.820   3.218   0.235
 6420SOL    HW220160   0.723   3.233   0.104
 6421SOL     OW20161   6.013   2.114   1.098
 6421SOL    HW120162   5.924   2.150   1.124
 6421SOL    HW220163   6.085   2.174   1.132
 6422SOL     OW20164   6.359   1.908   3.579
 6422SOL    HW120165   6.408   1.893   3.493
 6422SOL    HW220166   6.269   1.864   3.575
 6423SOL     OW20167   5.000   4.336   0.532
 6423SOL    HW120168   5.040   4.255   0.489
 6423SOL    HW220169   4.903   4.319   0.550
 6424SOL     OW20170   6.564   4.847   4.751
 6424SOL    HW120171   6.540   4.943   4.735
 6424SOL    HW220172   6.499   4.788   4.705
 6425SOL     OW20173   0.443   4.820   1.161
 6425SOL    HW120174   0.439   4.920   1.160
 6425SOL    HW220175   0.528   4.789   1.120
 6426SOL     OW20176   6.710   2.574   3.971
 6426SOL    HW120177   6.794   2.586   3.920
 6426SOL    HW220178   6.637   2.629   3.931
 6427SOL     OW20179   1.061   3.051   6.145
 6427SOL    HW120180   1.007   3.074   6.064
 6427SOL    HW220181   1.137   3.115   6.153
 6428SOL     OW20182   6.827   3.127   3.298
 6428SOL    HW120183   6.815   3.226   3.308
 6428SOL    HW220184   6.768   3.080   3.364
 6429SOL     OW20185   0.898   0.643   4.407
 6429SOL    HW120186   0.993   0.654   4.377
 6429SOL    HW220187   0.867   0.551   4.384
 6430SOL     OW20188   6.085   3.841   6.921
 6430SOL    HW120189   6.132   3.929   6.931
 6430SOL    HW220190   6.027   3.826   7.001
 6431SOL     OW20191   5.404   0.797   3.548
 6431SOL    HW120192   5.355   0.881   3.523
 6431SOL    HW220193   5.495   0.798   3.505
 6432SOL     OW20194   5.904   3.420   0.018
 6432SOL    HW120195   5.830   3.482   0.046
 6432SOL    HW220196   5.939   3.372   0.098
 6433SOL     OW20197   2.616   3.764   1.680
 6433SOL    HW120198   2.705   3.743   1.720
 6433SOL    HW220199   2.595   3.861   1.696
 6434SOL     OW20200   2.272   5.579   0.350
 6434SOL    HW120201   2.238   5.628   0.269
 6434SOL    HW220202   2.350   5.628   0.389
 6435SOL     OW20203   4.490   4.086   0.549
 6435SOL    HW120204   4.471   4.054   0.641
 6435SOL    HW220205   4.587   4.074   0.529
 6436SOL     OW20206   1.526   2.866   2.680
 6436SOL    HW120207   1.560   2.775   2.655
 6436SOL    HW220208   1.592   2.935   2.650
 6437SOL     OW20209   0.203   0.884   6.677
 6437SOL    HW120210   0.106   0.862   6.685
 6437SOL    HW220211   0.250   0.808   6.632
 6438SOL     OW20212   1.089   3.836   3.857
 6438SOL    HW120213   1.139   3.862   3.775
 6438SOL    HW220214   0.999   3.801   3.833
 6439SOL     OW20215   7.023   6.623   2.112
 6439SOL    HW120216   6.994   6.555   2.179
 6439SOL    HW220217   0.025   6.576   2.028
 6440SOL     OW20218   0.549   0.777   2.022
 6440SOL    HW120219   0.463   0.747   2.064
 6440SOL    HW220220   0.606   0.697   2.002
 6441SOL     OW20221   3.864   1.334   3.319
 6441SOL    HW120222   3.901   1.279   3.394
 6441SOL    HW220223   3.897   1.428   3.327
 6442SOL     OW20224   3.593   0.498   3.528
 6442SOL    HW120225   3.655   0.441   3.474
 6442SOL    HW220226   3.645   0.547   3.598
 6443SOL     OW20227   2.384   1.141   0.126
 6443SOL    HW120228   2.450   1.217   0.119
 6443SOL    HW220229   2.426   1.066   0.176
 6444SOL     OW20230   0.988   0.614   3.621
 6444SOL    HW120231   1.011   0.647   3.530
 6444SOL    HW220232   0.902   0.563   3.617
 6445SOL     OW20233   3.714   3.747   5.594
 6445SOL    HW120234   3.799   3.704   5.624
 6445SOL    HW220235   3.636   3.702   5.637
 6446SOL     OW20236   6.835   1.672   1.114
 6446SOL    HW120237   6.781   1.712   1.039
 6446SOL    HW220238   6.822   1.727   1.197
 6447SOL     OW20239   1.517   6.881   2.796
 6447SOL    HW120240   1.527   6.838   2.886
 6447SOL    HW220241   1.482   6.974   2.807
 6448SOL     OW20242   6.279   2.140   2.655
 6448SOL    HW120243   6.296   2.069   2.723
 6448SOL    HW220244   6.181   2.159   2.650
 6449SOL     OW20245   3.339   2.958   1.277
 6449SOL    HW120246   3.393   3.033   1.315
 6449SOL    HW220247   3.242   2.974   1.296
 6450SOL     OW20248   6.820   3.500   6.539
 6450SOL    HW120249   6.759   3.503   6.618
 6450SOL    HW220250   6.830   3.405   6.509
 6451SOL     OW20251   2.252   6.746   4.202
 6451SOL    HW120252   2.261   6.674   4.133
 6451SOL    HW220253   2.155   6.761   4.221
 6452SOL     OW20254   4.098   6.543   3.467
 6452SOL    HW120255   4.193   6.543   3.437
 6452SOL    HW220256   4.045   6.607   3.411
 6453SOL     OW20257   2.136   4.050   6.397
 6453SOL    HW120258   2.045   4.076   6.429
 6453SOL    HW220259   2.131   3.963   6.349
 6454SOL     OW20260   2.944   1.499   4.917
 6454SOL    HW120261   2.911   1.412   4.956
 6454SOL    HW220262   3.020   1.533   4.972
 6455SOL     OW20263   6.238   2.675   5.585
 6455SOL    HW120264   6.319   2.622   5.610
 6455SOL    HW220265   6.245   2.703   5.489
 6456SOL     OW20266   6.761   0.554   4.810
 6456SOL    HW120267   6.672   0.600   4.811
 6456SOL    HW220268   6.793   0.544   4.716
 6457SOL     OW20269   6.338   3.367   2.532
 6457SOL    HW120270   6.350   3.310   2.451
 6457SOL    HW220271   6.423   3.416   2.552
 6458SOL     OW20272   1.320   6.440   3.088
 6458SOL    HW120273   1.360   6.451   3.179
 6458SOL    HW220274   1.330   6.346   3.058
 6459SOL     OW20275   5.569   4.815   0.411
 6459SOL    HW120276   5.603   4.749   0.343
 6459SOL    HW220277   5.469   4.820   0.406
 6460SOL     OW20278   3.175   4.844   6.951
 6460SOL    HW120279   3.153   4.812   0.017
 6460SOL    HW220280   3.093   4.881   6.908
 6461SOL     OW20281   3.809   6.004   4.886
 6461SOL    HW120282   3.838   5.909   4.894
 6461SOL    HW220283   3.743   6.025   4.959
 6462SOL     OW20284   2.203   3.044   3.417
 6462SOL    HW120285   2.116   3.022   3.372
 6462SOL    HW220286   2.261   3.096   3.354
 6463SOL     OW20287   1.151   4.732   5.266
 6463SOL    HW120288   1.212   4.663   5.224
 6463SOL    HW220289   1.063   4.690   5.287
 6464SOL     OW20290   1.038   5.461   2.706
 6464SOL    HW120291   1.039   5.541   2.766
 6464SOL    HW220292   1.121   5.407   2.723
 6465SOL     OW20293   6.617   1.049   3.010
 6465SOL    HW120294   6.628   1.095   3.098
 6465SOL    HW220295   6.700   0.996   2.990
 6466SOL     OW20296   0.547   3.188   5.488
 6466SOL    HW120297   0.456   3.217   5.516
 6466SOL    HW220298   0.542   3.095   5.449
 6467SOL     OW20299   2.523   1.295   6.486
 6467SOL    HW120300   2.423   1.302   6.488
 6467SOL    HW220301   2.550   1.210   6.441
 6468SOL     OW20302   4.754   4.305   0.620
 6468SOL    HW120303   4.741   4.218   0.573
 6468SOL    HW220304   4.714   4.300   0.711
 6469SOL     OW20305   6.356   1.071   6.020
 6469SOL    HW120306   6.367   1.169   6.004
 6469SOL    HW220307   6.284   1.035   5.961
 6470SOL     OW20308   6.622   6.201   5.326
 6470SOL    HW120309   6.588   6.294   5.340
 6470SOL    HW220310   6.722   6.201   5.327
 6471SOL     OW20311   5.620   5.685   5.751
 6471SOL    HW120312   5.543   5.631   5.718
 6471SOL    HW220313   5.588   5.749   5.821
 6472SOL     OW20314   1.390   5.526   1.160
 6472SOL    HW120315   1.347   5.506   1.071
 6472SOL    HW220316   1.402   5.625   1.169
 6473SOL     OW20317   2.452   1.407   5.489
 6473SOL    HW120318   2.430   1.312   5.469
 6473SOL    HW220319   2.371   1.454   5.524
 6474SOL     OW20320   2.608   3.594   5.359
 6474SOL    HW120321   2.545   3.671   5.365
 6474SOL    HW220322   2.611   3.546   5.447
 6475SOL     OW20323   4.533   6.243   3.906
 6475SOL    HW120324   4.574   6.333   3.893
 6475SOL    HW220325   4.474   6.221   3.829
 6476SOL     OW20326   5.097   4.813   2.586
 6476SOL    HW120327   5.195   4.795   2.599
 6476SOL    HW220328   5.084   4.908   2.558
 6477SOL     OW20329   6.946   6.659   6.764
 6477SOL    HW120330   6.952   6.754   6.736
 6477SOL    HW220331   6.999   6.644   6.847
 6478SOL     OW20332   4.654   6.207   0.823
 6478SOL    HW120333   4.702   6.159   0.897
 6478SOL    HW220334   4.705   6.289   0.797
 6479SOL     OW20335   4.304   6.102   2.733
 6479SOL    HW120336   4.251   6.185   2.713
 6479SOL    HW220337   4.242   6.028   2.760
 6480SOL     OW20338   2.609   1.541   0.683
 6480SOL    HW120339   2.555   1.541   0.767
 6480SOL    HW220340   2.706   1.546   0.706
 6481SOL     OW20341   4.563   0.740   1.655
 6481SOL    HW120342   4.639   0.803   1.645
 6481SOL    HW220343   4.597   0.650   1.682
 6482SOL     OW20344   0.474   0.591   6.779
 6482SOL    HW120345   0.455   0.650   6.857
 6482SOL    HW220346   0.421   0.622   6.700
 6483SOL     OW20347   2.194   6.017   1.874
 6483SOL    HW120348   2.247   6.031   1.957
 6483SOL    HW220349   2.102   5.985   1.898
 6484SOL     OW20350   5.486   5.990   3.395
 6484SOL    HW120351   5.401   6.008   3.346
 6484SOL    HW220352   5.529   6.076   3.422
 6485SOL     OW20353   0.775   3.292   3.330
 6485SOL    HW120354   0.676   3.278   3.335
 6485SOL    HW220355   0.814   3.290   3.422
 6486SOL     OW20356   1.828   3.209   3.048
 6486SOL    HW120357   1.825   3.295   2.997
 6486SOL    HW220358   1.741   3.162   3.038
 6487SOL     OW20359   5.795   5.545   2.999
 6487SOL    HW120360   5.709   5.590   2.978
 6487SOL    HW220361   5.777   5.455   3.039
 6488SOL     OW20362   3.315   5.086   5.740
 6488SOL    HW120363   3.303   5.173   5.693
 6488SOL    HW220364   3.408   5.080   5.777
 6489SOL     OW20365   2.260   2.082   5.376
 6489SOL    HW120366   2.278   2.020   5.453
 6489SOL    HW220367   2.345   2.095   5.324
 6490SOL     OW20368   3.928   1.251   0.817
 6490SOL    HW120369   3.880   1.280   0.900
 6490SOL    HW220370   3.988   1.173   0.838
 6491SOL     OW20371   3.841   1.251   6.124
 6491SOL    HW120372   3.933   1.289   6.111
 6491SOL    HW220373   3.786   1.314   6.179
 6492SOL     OW20374   5.794   5.927   6.723
 6492SOL    HW120375   5.701   5.960   6.735
 6492SOL    HW220376   5.798   5.829   6.741
 6493SOL     OW20377   1.115   5.990   5.498
 6493SOL    HW120378   1.117   6.009   5.596
 6493SOL    HW220379   1.068   5.904   5.481
 6494SOL     OW20380   1.621   0.239   3.760
 6494SOL    HW120381   1.605   0.296   3.679
 6494SOL    HW220382   1.651   0.297   3.836
 6495SOL     OW20383   5.087   5.273   2.280
 6495SOL    HW120384   5.152   5.201   2.256
 6495SOL    HW220385   5.033   5.244   2.358
 6496SOL     OW20386   1.154   7.016   2.748
 6496SOL    HW120387   1.227   7.016   2.817
 6496SOL    HW220388   1.082   6.952   2.776
 6497SOL     OW20389   0.309   5.460   0.180
 6497SOL    HW120390   0.330   5.418   0.092
 6497SOL    HW220391   0.224   5.513   0.172
 6498SOL     OW20392   1.787   4.248   3.633
 6498SOL    HW120393   1.715   4.311   3.662
 6498SOL    HW220394   1.850   4.296   3.572
 6499SOL     OW20395   5.917   0.895   4.073
 6499SOL    HW120396   5.888   0.942   3.990
 6499SOL    HW220397   5.907   0.956   4.152
 6500SOL     OW20398   5.214   4.961   3.663
 6500SOL    HW120399   5.292   4.899   3.650
 6500SOL    HW220400   5.240   5.053   3.635
 6501SOL     OW20401   6.931   3.552   0.991
 6501SOL    HW120402   6.933   3.516   0.899
 6501SOL    HW220403   6.990   3.498   1.050
 6502SOL     OW20404   1.073   4.566   2.329
 6502SOL    HW120405   1.112   4.540   2.417
 6502SOL    HW220406   1.139   4.545   2.256
 6503SOL     OW20407   4.605   0.434   4.543
 6503SOL    HW120408   4.641   0.524   4.519
 6503SOL    HW220409   4.678   0.378   4.583
 6504SOL     OW20410   2.119   1.455   0.400
 6504SOL    HW120411   2.156   1.528   0.457
 6504SOL    HW220412   2.126   1.368   0.449
 6505SOL     OW20413   5.381   5.454   0.992
 6505SOL    HW120414   5.407   5.546   0.962
 6505SOL    HW220415   5.314   5.461   1.067
 6506SOL     OW20416   1.778   2.046   0.644
 6506SOL    HW120417   1.716   1.982   0.688
 6506SOL    HW220418   1.736   2.081   0.560
 6507SOL     OW20419   3.168   0.744   2.277
 6507SOL    HW120420   3.154   0.842   2.263
 6507SOL    HW220421   3.177   0.725   2.374
 6508SOL     OW20422   2.614   1.570   1.993
 6508SOL    HW120423   2.713   1.561   2.003
 6508SOL    HW220424   2.594   1.640   1.924
 6509SOL     OW20425   0.840   2.707   4.460
 6509SOL    HW120426   0.862   2.773   4.533
 6509SOL    HW220427   0.755   2.734   4.415
 6510SOL     OW20428   5.371   5.224   6.554
 6510SOL    HW120429   5.280   5.181   6.552
 6510SOL    HW220430   5.361   5.323   6.544
 6511SOL     OW20431   6.169   6.105   5.364
 6511SOL    HW120432   6.099   6.173   5.385
 6511SOL    HW220433   6.144   6.018   5.406
 6512SOL     OW20434   5.260   6.540   3.861
 6512SOL    HW120435   5.358   6.557   3.854
 6512SOL    HW220436   5.242   6.474   3.934
 6513SOL     OW20437   2.480   6.779   2.872
 6513SOL    HW120438   2.579   6.772   2.886
 6513SOL    HW220439   2.461   6.825   2.786
 6514SOL     OW20440   3.345   6.702   3.394
 6514SOL    HW120441   3.359   6.618   3.445
 6514SOL    HW220442   3.391   6.778   3.440
 6515SOL     OW20443   0.697   0.929   4.412
 6515SOL    HW120444   0.796   0.919   4.405
 6515SOL    HW220445   0.654   0.839   4.405
 6516SOL     OW20446   1.696   1.596   5.756
 6516SOL    HW120447   1.636   1.670   5.724
 6516SOL    HW220448   1.641   1.528   5.805
 6517SOL     OW20449   1.392   2.131   0.363
 6517SOL    HW120450   1.406   2.127   0.264
 6517SOL    HW220451   1.413   2.223   0.397
 6518SOL     OW20452   5.700   6.311   0.015
 6518SOL    HW120453   5.713   6.282   6.947
 6518SOL    HW220454   5.747   6.247   0.076
 6519SOL     OW20455   1.713   1.726   3.309
 6519SOL    HW120456   1.632   1.668   3.313
 6519SOL    HW220457   1.779   1.697   3.378
 6520SOL     OW20458   6.000   5.056   1.635
 6520SOL    HW120459   6.099   5.066   1.620
 6520SOL    HW220460   5.982   4.967   1.675
 6521SOL     OW20461   1.283   1.943   5.718
 6521SOL    HW120462   1.334   2.009   5.663
 6521SOL    HW220463   1.346   1.895   5.780
 6522SOL     OW20464   2.604   5.679   4.613
 6522SOL    HW120465   2.531   5.674   4.544
 6522SOL    HW220466   2.634   5.587   4.637
 6523SOL     OW20467   1.654   2.413   6.864
 6523SOL    HW120468   1.572   2.365   6.894
 6523SOL    HW220469   1.724   2.404   6.935
 6524SOL     OW20470   3.490   4.153   4.470
 6524SOL    HW120471   3.400   4.119   4.498
 6524SOL    HW220472   3.480   4.247   4.437
 6525SOL     OW20473   0.503   2.484   4.422
 6525SOL    HW120474   0.513   2.584   4.425
 6525SOL    HW220475   0.520   2.451   4.330
 6526SOL     OW20476   1.642   5.944   4.338
 6526SOL    HW120477   1.583   5.906   4.266
 6526SOL    HW220478   1.707   6.008   4.298
 6527SOL     OW20479   2.393   0.877   4.172
 6527SOL    HW120480   2.447   0.872   4.087
 6527SOL    HW220481   2.384   0.785   4.210
 6528SOL     OW20482   6.840   6.876   3.427
 6528SOL    HW120483   6.750   6.910   3.453
 6528SOL    HW220484   6.898   6.953   3.399
 6529SOL     OW20485   6.475   2.567   1.638
 6529SOL    HW120486   6.468   2.650   1.694
 6529SOL    HW220487   6.571   2.551   1.613
 6530SOL     OW20488   6.894   1.862   0.652
 6530SOL    HW120489   6.809   1.814   0.673
 6530SOL    HW220490   6.874   1.959   0.636
 6531SOL     OW20491   5.097   2.985   4.292
 6531SOL    HW120492   5.106   3.020   4.385
 6531SOL    HW220493   5.054   2.895   4.294
 6532SOL     OW20494   1.434   2.615   6.682
 6532SOL    HW120495   1.368   2.624   6.608
 6532SOL    HW220496   1.521   2.583   6.645
 6533SOL     OW20497   4.710   0.984   1.180
 6533SOL    HW120498   4.670   0.893   1.192
 6533SOL    HW220499   4.672   1.047   1.248
 6534SOL     OW20500   1.630   3.019   0.528
 6534SOL    HW120501   1.705   2.958   0.501
 6534SOL    HW220502   1.667   3.098   0.577
 6535SOL     OW20503   2.135   3.135   5.586
 6535SOL    HW120504   2.164   3.074   5.660
 6535SOL    HW220505   2.213   3.158   5.528
 6536SOL     OW20506   6.760   2.350   6.857
 6536SOL    HW120507   6.683   2.323   6.916
 6536SOL    HW220508   6.822   2.408   6.909
 6537SOL     OW20509   1.082   0.145   0.177
 6537SOL    HW120510   1.067   0.106   0.268
 6537SOL    HW220511   1.028   0.096   0.110
 6538SOL     OW20512   2.125   3.176   6.253
 6538SOL    HW120513   2.104   3.138   6.163
 6538SOL    HW220514   2.206   3.130   6.291
 6539SOL     OW20515   2.477   1.778   6.567
 6539SOL    HW120516   2.381   1.805   6.566
 6539SOL    HW220517   2.524   1.819   6.489
 6540SOL     OW20518   3.321   1.723   4.083
 6540SOL    HW120519   3.413   1.691   4.062
 6540SOL    HW220520   3.254   1.670   4.031
 6541SOL     OW20521   2.806   2.741   5.446
 6541SOL    HW120522   2.849   2.651   5.437
 6541SOL    HW220523   2.846   2.803   5.379
 6542SOL     OW20524   5.952   4.501   3.543
 6542SOL    HW120525   6.010   4.440   3.488
 6542SOL    HW220526   5.949   4.467   3.637
 6543SOL     OW20527   0.487   5.645   6.650
 6543SOL    HW120528   0.450   5.727   6.608
 6543SOL    HW220529   0.542   5.670   6.730
 6544SOL     OW20530   6.384   5.900   3.384
 6544SOL    HW120531   6.402   5.852   3.298
 6544SOL    HW220532   6.322   5.977   3.366
 6545SOL     OW20533   5.203   2.888   6.100
 6545SOL    HW120534   5.159   2.853   6.018
 6545SOL    HW220535   5.279   2.947   6.075
 6546SOL     OW20536   3.541   4.746   5.828
 6546SOL    HW120537   3.514   4.718   5.735
 6546SOL    HW220538   3.504   4.681   5.894
 6547SOL     OW20539   5.318   1.533   6.759
 6547SOL    HW120540   5.292   1.437   6.774
 6547SOL    HW220541   5.235   1.587   6.742
 6548SOL     OW20542   6.343   4.620   5.196
 6548SOL    HW120543   6.320   4.529   5.160
 6548SOL    HW220544   6.299   4.690   5.140
 6549SOL     OW20545   3.200   1.293   2.033
 6549SOL    HW120546   3.285   1.325   1.991
 6549SOL    HW220547   3.184   1.343   2.118
 6550SOL     OW20548   1.191   5.629   3.697
 6550SOL    HW120549   1.181   5.635   3.796
 6550SOL    HW220550   1.108   5.664   3.654
 6551SOL     OW20551   2.546   5.041   2.057
 6551SOL    HW120552   2.622   4.986   2.023
 6551SOL    HW220553   2.464   4.984   2.064
 6552SOL     OW20554   4.441   5.034   6.645
 6552SOL    HW120555   4.457   5.063   6.551
 6552SOL    HW220556   4.370   5.092   6.686
 6553SOL     OW20557   6.748   3.005   2.609
 6553SOL    HW120558   6.836   2.962   2.591
 6553SOL    HW220559   6.688   2.940   2.655
 6554SOL     OW20560   0.016   3.655   5.026
 6554SOL    HW120561   6.988   3.664   5.110
 6554SOL    HW220562   0.062   3.742   5.007
 6555SOL     OW20563   0.556   1.356   1.943
 6555SOL    HW120564   0.564   1.407   2.029
 6555SOL    HW220565   0.479   1.292   1.949
 6556SOL     OW20566   3.397   0.481   3.905
 6556SOL    HW120567   3.335   0.560   3.904
 6556SOL    HW220568   3.386   0.430   3.820
 6557SOL     OW20569   5.912   6.286   1.324
 6557SOL    HW120570   5.964   6.262   1.406
 6557SOL    HW220571   5.866   6.204   1.289
 6558SOL     OW20572   0.100   5.914   6.443
 6558SOL    HW120573   0.045   5.974   6.501
 6558SOL    HW220574   0.077   5.818   6.461
 6559SOL     OW20575   3.430   3.025   0.967
 6559SOL    HW120576   3.409   2.933   0.935
 6559SOL    HW220577   3.482   3.019   1.053
 6560SOL     OW20578   3.545   1.754   0.858
 6560SOL    HW120579   3.602   1.681   0.896
 6560SOL    HW220580   3.520   1.731   0.763
 6561SOL     OW20581   3.842   4.019   4.239
 6561SOL    HW120582   3.912   3.959   4.278
 6561SOL    HW220583   3.814   4.086   4.307
 6562SOL     OW20584   5.663   3.453   5.484
 6562SOL    HW120585   5.660   3.422   5.389
 6562SOL    HW220586   5.702   3.381   5.541
 6563SOL     OW20587   1.451   5.094   2.665
 6563SOL    HW120588   1.527   5.036   2.635
 6563SOL    HW220589   1.365   5.042   2.659
 6564SOL     OW20590   1.074   6.518   3.209
 6564SOL    HW120591   1.160   6.516   3.158
 6564SOL    HW220592   1.009   6.576   3.161
 6565SOL     OW20593   6.515   3.866   5.157
 6565SOL    HW120594   6.605   3.885   5.117
 6565SOL    HW220595   6.526   3.810   5.239
 6566SOL     OW20596   3.693   6.840   0.751
 6566SOL    HW120597   3.735   6.814   0.838
 6566SOL    HW220598   3.708   6.767   0.683
 6567SOL     OW20599   6.312   3.301   1.420
 6567SOL    HW120600   6.354   3.257   1.500
 6567SOL    HW220601   6.214   3.309   1.434
 6568SOL     OW20602   4.058   3.968   1.199
 6568SOL    HW120603   4.038   3.876   1.230
 6568SOL    HW220604   4.090   4.023   1.277
 6569SOL     OW20605   0.495   4.869   6.790
 6569SOL    HW120606   0.410   4.819   6.807
 6569SOL    HW220607   0.573   4.808   6.802
 6570SOL     OW20608   6.035   3.314   1.316
 6570SOL    HW120609   6.005   3.342   1.225
 6570SOL    HW220610   6.067   3.394   1.367
 6571SOL     OW20611   2.854   6.375   3.831
 6571SOL    HW120612   2.875   6.299   3.770
 6571SOL    HW220613   2.909   6.454   3.807
 6572SOL     OW20614   1.107   4.159   6.760
 6572SOL    HW120615   1.122   4.213   6.678
 6572SOL    HW220616   1.113   4.219   6.841
 6573SOL     OW20617   1.700   2.137   2.107
 6573SOL    HW120618   1.752   2.208   2.156
 6573SOL    HW220619   1.640   2.090   2.171
 6574SOL     OW20620   1.835   4.914   3.834
 6574SOL    HW120621   1.806   4.939   3.926
 6574SOL    HW220622   1.905   4.979   3.802
 6575SOL     OW20623   2.040   1.062   2.580
 6575SOL    HW120624   2.093   1.075   2.663
 6575SOL    HW220625   2.007   1.150   2.547
 6576SOL     OW20626   1.337   6.415   4.471
 6576SOL    HW120627   1.387   6.349   4.527
 6576SOL    HW220628   1.332   6.502   4.519
 6577SOL     OW20629   6.546   2.506   4.536
 6577SOL    HW120630   6.589   2.468   4.455
 6577SOL    HW220631   6.612   2.565   4.584
 6578SOL     OW20632   6.784   5.409   3.086
 6578SOL    HW120633   6.791   5.507   3.105
 6578SOL    HW220634   6.852   5.382   3.018
 6579SOL     OW20635   0.802   3.985   2.708
 6579SOL    HW120636   0.764   4.034   2.629
 6579SOL    HW220637   0.882   4.034   2.742
 6580SOL     OW20638   5.878   2.622   1.505
 6580SOL    HW120639   5.803   2.580   1.454
 6580SOL    HW220640   5.896   2.568   1.588
 6581SOL     OW20641   2.196   2.423   5.326
 6581SOL    HW120642   2.178   2.327   5.302
 6581SOL    HW220643   2.109   2.469   5.344
 6582SOL     OW20644   0.005   0.257   2.293
 6582SOL    HW120645   0.080   0.199   2.264
 6582SOL    HW220646   0.016   0.280   2.390
 6583SOL     OW20647   5.162   2.270   5.275
 6583SOL    HW120648   5.236   2.336   5.284
 6583SOL    HW220649   5.197   2.178   5.291
 6584SOL     OW20650   5.512   1.951   6.730
 6584SOL    HW120651   5.468   2.039   6.750
 6584SOL    HW220652   5.535   1.906   6.816
 6585SOL     OW20653   1.856   1.107   0.622
 6585SOL    HW120654   1.796   1.185   0.641
 6585SOL    HW220655   1.858   1.046   0.701
 6586SOL     OW20656   0.047   1.297   0.092
 6586SOL    HW120657   0.075   1.351   0.012
 6586SOL    HW220658   7.025   1.215   0.062
 6587SOL     OW20659   1.999   6.949   2.598
 6587SOL    HW120660   1.988   7.010   2.677
 6587SOL    HW220661   2.053   6.995   2.528
 6588SOL     OW20662   2.140   2.891   0.294
 6588SOL    HW120663   2.155   2.887   0.195
 6588SOL    HW220664   2.048   2.860   0.315
 6589SOL     OW20665   5.210   1.608   5.526
 6589SOL    HW120666   5.237   1.587   5.620
 6589SOL    HW220667   5.160   1.530   5.487
 6590SOL     OW20668   6.442   1.074   5.588
 6590SOL    HW120669   6.384   1.112   5.516
 6590SOL    HW220670   6.468   1.147   5.652
 6591SOL     OW20671   5.603   0.953   2.685
 6591SOL    HW120672   5.629   0.888   2.614
 6591SOL    HW220673   5.682   1.008   2.712
 6592SOL     OW20674   5.561   5.811   4.609
 6592SOL    HW120675   5.572   5.787   4.513
 6592SOL    HW220676   5.473   5.776   4.642
 6593SOL     OW20677   4.509   0.775   2.737
 6593SOL    HW120678   4.468   0.852   2.689
 6593SOL    HW220679   4.550   0.712   2.671
 6594SOL     OW20680   5.655   0.876   6.633
 6594SOL    HW120681   5.711   0.935   6.575
 6594SOL    HW220682   5.706   0.853   6.716
 6595SOL     OW20683   1.782   3.699   0.402
 6595SOL    HW120684   1.758   3.746   0.486
 6595SOL    HW220685   1.842   3.622   0.422
 6596SOL     OW20686   3.597   6.546   5.120
 6596SOL    HW120687   3.659   6.545   5.198
 6596SOL    HW220688   3.508   6.511   5.149
 6597SOL     OW20689   6.427   4.581   6.423
 6597SOL    HW120690   6.429   4.525   6.505
 6597SOL    HW220691   6.506   4.559   6.365
 6598SOL     OW20692   2.204   5.542   5.148
 6598SOL    HW120693   2.206   5.613   5.218
 6598SOL    HW220694   2.234   5.580   5.060
 6599SOL     OW20695   4.785   3.573   5.816
 6599SOL    HW120696   4.734   3.517   5.751
 6599SOL    HW220697   4.878   3.537   5.826
 6600SOL     OW20698   4.309   5.925   4.150
 6600SOL    HW120699   4.302   5.846   4.210
 6600SOL    HW220700   4.230   5.927   4.089
 6601SOL     OW20701   0.992   0.249   1.285
 6601SOL    HW120702   0.987   0.152   1.309
 6601SOL    HW220703   1.085   0.271   1.254
 6602SOL     OW20704   6.217   1.329   1.470
 6602SOL    HW120705   6.271   1.295   1.547
 6602SOL    HW220706   6.268   1.401   1.423
 6603SOL     OW20707   2.077   2.111   2.510
 6603SOL    HW120708   2.069   2.056   2.593
 6603SOL    HW220709   2.048   2.057   2.431
 6604SOL     OW20710   4.009   5.886   3.113
 6604SOL    HW120711   4.051   5.971   3.080
 6604SOL    HW220712   4.076   5.811   3.106
 6605SOL     OW20713   6.003   6.499   0.007
 6605SOL    HW120714   5.971   6.580   0.057
 6605SOL    HW220715   5.994   6.515   6.935
 6606SOL     OW20716   6.393   1.409   2.661
 6606SOL    HW120717   6.329   1.469   2.613
 6606SOL    HW220718   6.478   1.402   2.608
 6607SOL     OW20719   1.127   2.074   3.371
 6607SOL    HW120720   1.081   2.006   3.314
 6607SOL    HW220721   1.137   2.039   3.464
 6608SOL     OW20722   5.664   3.897   4.878
 6608SOL    HW120723   5.704   3.989   4.882
 6608SOL    HW220724   5.599   3.893   4.803
 6609SOL     OW20725   5.626   1.092   0.004
 6609SOL    HW120726   5.645   1.171   0.063
 6609SOL    HW220727   5.596   1.125   6.941
 6610SOL     OW20728   2.927   0.841   0.422
 6610SOL    HW120729   2.958   0.846   0.517
 6610SOL    HW220730   3.005   0.819   0.363
 6611SOL     OW20731   5.339   3.133   2.923
 6611SOL    HW120732   5.275   3.128   3.000
 6611SOL    HW220733   5.432   3.117   2.956
 6612SOL     OW20734   1.108   5.853   6.153
 6612SOL    HW120735   1.059   5.767   6.166
 6612SOL    HW220736   1.055   5.912   6.093
 6613SOL     OW20737   5.334   4.951   1.230
 6613SOL    HW120738   5.372   5.025   1.284
 6613SOL    HW220739   5.371   4.864   1.262
 6614SOL     OW20740   4.877   5.305   5.910
 6614SOL    HW120741   4.815   5.375   5.877
 6614SOL    HW220742   4.895   5.319   6.008
 6615SOL     OW20743   0.852   4.452   5.516
 6615SOL    HW120744   0.876   4.356   5.533
 6615SOL    HW220745   0.921   4.511   5.559
 6616SOL     OW20746   4.785   0.654   4.588
 6616SOL    HW120747   4.885   0.648   4.585
 6616SOL    HW220748   4.756   0.745   4.558
 6617SOL     OW20749   4.644   6.938   5.293
 6617SOL    HW120750   4.581   6.900   5.361
 6617SOL    HW220751   4.695   7.014   5.333
 6618SOL     OW20752   0.944   5.024   1.218
 6618SOL    HW120753   0.977   4.994   1.308
 6618SOL    HW220754   0.886   5.105   1.229
 6619SOL     OW20755   6.503   6.341   1.764
 6619SOL    HW120756   6.517   6.289   1.848
 6619SOL    HW220757   6.421   6.308   1.717
 6620SOL     OW20758   3.984   3.178   5.770
 6620SOL    HW120759   4.065   3.173   5.828
 6620SOL    HW220760   3.916   3.113   5.802
 6621SOL     OW20761   2.677   3.569   0.275
 6621SOL    HW120762   2.684   3.504   0.200
 6621SOL    HW220763   2.603   3.634   0.258
 6622SOL     OW20764   6.295   6.621   0.507
 6622SOL    HW120765   6.213   6.581   0.466
 6622SOL    HW220766   6.321   6.704   0.457
 6623SOL     OW20767   3.323   3.677   2.308
 6623SOL    HW120768   3.325   3.730   2.223
 6623SOL    HW220769   3.378   3.594   2.297
 6624SOL     OW20770   4.571   5.364   3.764
 6624SOL    HW120771   4.503   5.437   3.769
 6624SOL    HW220772   4.655   5.393   3.810
 6625SOL     OW20773   5.517   0.163   6.756
 6625SOL    HW120774   5.533   0.083   6.814
 6625SOL    HW220775   5.603   0.192   6.714
 6626SOL     OW20776   2.999   5.412   3.567
 6626SOL    HW120777   2.909   5.454   3.581
 6626SOL    HW220778   2.988   5.322   3.525
 6627SOL     OW20779   2.054   6.241   1.655
 6627SOL    HW120780   2.025   6.281   1.742
 6627SOL    HW220781   2.147   6.206   1.664
 6628SOL     OW20782   3.953   6.294   3.428
 6628SOL    HW120783   3.989   6.387   3.430
 6628SOL    HW220784   3.934   6.263   3.522
 6629SOL     OW20785   3.662   3.650   0.467
 6629SOL    HW120786   3.730   3.700   0.414
 6629SOL    HW220787   3.657   3.555   0.434
 6630SOL     OW20788   2.786   1.978   5.947
 6630SOL    HW120789   2.859   1.910   5.955
 6630SOL    HW220790   2.823   2.063   5.909
 6631SOL     OW20791   3.906   0.563   1.917
 6631SOL    HW120792   3.867   0.623   1.988
 6631SOL    HW220793   3.849   0.481   1.908
 6632SOL     OW20794   6.578   2.790   2.439
 6632SOL    HW120795   6.661   2.839   2.414
 6632SOL    HW220796   6.499   2.851   2.428
 6633SOL     OW20797   0.358   0.210   1.185
 6633SOL    HW120798   0.303   0.245   1.261
 6633SOL    HW220799   0.453   0.239   1.196
 6634SOL     OW20800   6.968   2.797   5.743
 6634SOL    HW120801   6.928   2.799   5.835
 6634SOL    HW220802   0.031   2.842   5.744
 6635SOL     OW20803   4.330   4.757   2.953
 6635SOL    HW120804   4.380   4.832   2.910
 6635SOL    HW220805   4.339   4.674   2.897
 6636SOL     OW20806   1.519   2.723   3.686
 6636SOL    HW120807   1.558   2.771   3.764
 6636SOL    HW220808   1.582   2.652   3.655
 6637SOL     OW20809   6.626   1.303   1.529
 6637SOL    HW120810   6.676   1.245   1.594
 6637SOL    HW220811   6.667   1.296   1.439
 6638SOL     OW20812   2.485   6.512   6.073
 6638SOL    HW120813   2.407   6.469   6.026
 6638SOL    HW220814   2.559   6.446   6.081
 6639SOL     OW20815   5.285   5.579   6.717
 6639SOL    HW120816   5.313   5.669   6.752
 6639SOL    HW220817   5.284   5.513   6.793
 6640SOL     OW20818   5.658   2.789   3.914
 6640SOL    HW120819   5.684   2.700   3.952
 6640SOL    HW220820   5.687   2.794   3.819
 6641SOL     OW20821   2.204   4.505   6.845
 6641SOL    HW120822   2.154   4.563   6.909
 6641SOL    HW220823   2.144   4.433   6.811
 6642SOL     OW20824   6.933   6.857   0.298
 6642SOL    HW120825   6.856   6.902   0.254
 6642SOL    HW220826   6.943   6.891   0.392
 6643SOL     OW20827   4.480   6.097   0.044
 6643SOL    HW120828   4.488   6.003   0.009
 6643SOL    HW220829   4.398   6.104   0.100
 6644SOL     OW20830   2.327   4.515   2.145
 6644SOL    HW120831   2.301   4.468   2.061
 6644SOL    HW220832   2.422   4.546   2.138
 6645SOL     OW20833   6.723   4.703   4.953
 6645SOL    HW120834   6.814   4.700   4.911
 6645SOL    HW220835   6.658   4.743   4.889
 6646SOL     OW20836   1.723   6.314   3.567
 6646SOL    HW120837   1.793   6.262   3.519
 6646SOL    HW220838   1.742   6.412   3.557
 6647SOL     OW20839   4.226   1.919   2.424
 6647SOL    HW120840   4.155   1.988   2.410
 6647SOL    HW220841   4.198   1.833   2.381
 6648SOL     OW20842   4.628   5.963   1.981
 6648SOL    HW120843   4.563   6.004   2.044
 6648SOL    HW220844   4.696   5.910   2.032
 6649SOL     OW20845   3.709   2.124   6.415
 6649SOL    HW120846   3.636   2.062   6.387
 6649SOL    HW220847   3.669   2.211   6.445
 6650SOL     OW20848   2.906   2.199   3.111
 6650SOL    HW120849   2.958   2.220   3.193
 6650SOL    HW220850   2.810   2.224   3.125
 6651SOL     OW20851   1.340   2.892   0.079
 6651SOL    HW120852   1.439   2.909   0.079
 6651SOL    HW220853   1.319   2.816   0.018
 6652SOL     OW20854   0.617   5.806   3.167
 6652SOL    HW120855   0.685   5.860   3.217
 6652SOL    HW220856   0.580   5.736   3.228
 6653SOL     OW20857   3.324   3.435   3.367
 6653SOL    HW120858   3.386   3.386   3.307
 6653SOL    HW220859   3.300   3.523   3.327
 6654SOL     OW20860   2.105   3.289   1.810
 6654SOL    HW120861   2.048   3.360   1.770
 6654SOL    HW220862   2.178   3.331   1.864
 6655SOL     OW20863   2.295   0.267   1.005
 6655SOL    HW120864   2.262   0.294   1.095
 6655SOL    HW220865   2.274   0.339   0.939
 6656SOL     OW20866   6.523   2.176   1.521
 6656SOL    HW120867   6.620   2.156   1.507
 6656SOL    HW220868   6.505   2.272   1.502
 6657SOL     OW20869   3.109   5.016   5.970
 6657SOL    HW120870   3.203   4.982   5.970
 6657SOL    HW220871   3.107   5.111   6.002
 6658SOL     OW20872   5.288   0.236   5.555
 6658SOL    HW120873   5.204   0.215   5.604
 6658SOL    HW220874   5.343   0.153   5.545
 6659SOL     OW20875   1.460   3.197   6.790
 6659SOL    HW120876   1.394   3.233   6.857
 6659SOL    HW220877   1.437   3.103   6.768
 6660SOL     OW20878   0.451   0.186   2.768
 6660SOL    HW120879   0.457   0.285   2.779
 6660SOL    HW220880   0.532   0.154   2.718
 6661SOL     OW20881   0.228   5.825   3.308
 6661SOL    HW120882   0.197   5.877   3.229
 6661SOL    HW220883   0.247   5.731   3.280
 6662SOL     OW20884   1.073   3.728   6.091
 6662SOL    HW120885   1.047   3.760   6.001
 6662SOL    HW220886   0.992   3.711   6.147
 6663SOL     OW20887   0.395   5.170   2.218
 6663SOL    HW120888   0.475   5.127   2.176
 6663SOL    HW220889   0.362   5.113   2.293
 6664SOL     OW20890   0.557   2.028   3.134
 6664SOL    HW120891   0.498   2.094   3.180
 6664SOL    HW220892   0.637   2.074   3.097
 6665SOL     OW20893   2.845   6.665   2.364
 6665SOL    HW120894   2.899   6.693   2.443
 6665SOL    HW220895   2.819   6.568   2.373
 6666SOL     OW20896   6.164   6.920   0.534
 6666SOL    HW120897   6.138   7.013   0.505
 6666SOL    HW220898   6.205   6.924   0.625
 6667SOL     OW20899   6.695   5.036   4.244
 6667SOL    HW120900   6.745   5.120   4.267
 6667SOL    HW220901   6.734   4.959   4.294
 6668SOL     OW20902   0.279   6.276   1.412
 6668SOL    HW120903   0.241   6.187   1.435
 6668SOL    HW220904   0.342   6.266   1.336
 6669SOL     OW20905   1.778   5.201   2.906
 6669SOL    HW120906   1.707   5.263   2.939
 6669SOL    HW220907   1.754   5.169   2.814
 6670SOL     OW20908   3.413   4.548   0.206
 6670SOL    HW120909   3.407   4.456   0.167
 6670SOL    HW220910   3.420   4.615   0.133
 6671SOL     OW20911   0.617   2.592   5.480
 6671SOL    HW120912   0.589   2.498   5.499
 6671SOL    HW220913   0.662   2.596   5.391
 6672SOL     OW20914   1.122   0.679   5.649
 6672SOL    HW120915   1.111   0.739   5.570
 6672SOL    HW220916   1.075   0.718   5.728
 6673SOL     OW20917   5.280   4.947   1.620
 6673SOL    HW120918   5.203   5.007   1.642
 6673SOL    HW220919   5.251   4.852   1.624
 6674SOL     OW20920   0.901   0.161   4.507
 6674SOL    HW120921   0.993   0.128   4.527
 6674SOL    HW220922   0.903   0.217   4.424
 6675SOL     OW20923   6.817   6.139   0.626
 6675SOL    HW120924   6.910   6.138   0.664
 6675SOL    HW220925   6.815   6.195   0.543
 6676SOL     OW20926   1.020   2.073   6.824
 6676SOL    HW120927   0.987   2.147   6.764
 6676SOL    HW220928   1.082   2.111   6.892
 6677SOL     OW20929   6.657   3.836   0.077
 6677SOL    HW120930   6.680   3.740   0.066
 6677SOL    HW220931   6.732   3.892   0.040
 6678SOL     OW20932   0.880   2.867   4.681
 6678SOL    HW120933   0.964   2.844   4.729
 6678SOL    HW220934   0.872   2.966   4.673
 6679SOL     OW20935   1.746   1.663   4.095
 6679SOL    HW120936   1.693   1.619   4.167
 6679SOL    HW220937   1.768   1.757   4.123
 6680SOL     OW20938   2.381   6.787   5.987
 6680SOL    HW120939   2.427   6.725   6.050
 6680SOL    HW220940   2.351   6.736   5.907
 6681SOL     OW20941   5.787   5.619   0.193
 6681SOL    HW120942   5.826   5.533   0.227
 6681SOL    HW220943   5.860   5.676   0.154
 6682SOL     OW20944   0.042   5.598   2.657
 6682SOL    HW120945   0.089   5.538   2.721
 6682SOL    HW220946   6.978   5.560   2.635
 6683SOL     OW20947   5.330   1.787   4.205
 6683SOL    HW120948   5.264   1.828   4.142
 6683SOL    HW220949   5.410   1.756   4.153
 6684SOL     OW20950   2.315   0.587   2.111
 6684SOL    HW120951   2.413   0.596   2.095
 6684SOL    HW220952   2.292   0.628   2.200
 6685SOL     OW20953   5.559   3.898   6.112
 6685SOL    HW120954   5.645   3.914   6.162
 6685SOL    HW220955   5.516   3.815   6.147
 6686SOL     OW20956   5.298   4.096   4.001
 6686SOL    HW120957   5.380   4.053   4.038
 6686SOL    HW220958   5.322   4.151   3.921
 6687SOL     OW20959   1.043   1.366   0.101
 6687SOL    HW120960   1.069   1.292   0.039
 6687SOL    HW220961   1.111   1.373   0.175
 6688SOL     OW20962   0.715   5.352   3.445
 6688SOL    HW120963   0.784   5.280   3.456
 6688SOL    HW220964   0.624   5.312   3.448
 6689SOL     OW20965   4.451   4.976   0.368
 6689SOL    HW120966   4.441   4.885   0.406
 6689SOL    HW220967   4.423   4.976   0.271
 6690SOL     OW20968   1.158   2.037   0.693
 6690SOL    HW120969   1.231   1.983   0.651
 6690SOL    HW220970   1.173   2.134   0.674
 6691SOL     OW20971   1.567   5.320   1.139
 6691SOL    HW120972   1.504   5.398   1.140
 6691SOL    HW220973   1.589   5.296   1.045
 6692SOL     OW20974   3.442   4.116   6.183
 6692SOL    HW120975   3.401   4.039   6.231
 6692SOL    HW220976   3.490   4.083   6.102
 6693SOL     OW20977   3.841   4.109   4.758
 6693SOL    HW120978   3.823   4.146   4.667
 6693SOL    HW220979   3.929   4.063   4.758
 6694SOL     OW20980   2.890   6.122   0.174
 6694SOL    HW120981   2.845   6.068   0.104
 6694SOL    HW220982   2.953   6.065   0.226
 6695SOL     OW20983   1.625   1.578   6.615
 6695SOL    HW120984   1.574   1.620   6.540
 6695SOL    HW220985   1.578   1.494   6.644
 6696SOL     OW20986   2.079   3.382   2.200
 6696SOL    HW120987   2.126   3.458   2.157
 6696SOL    HW220988   2.136   3.344   2.273
 6697SOL     OW20989   5.745   1.961   3.399
 6697SOL    HW120990   5.796   1.887   3.355
 6697SOL    HW220991   5.726   2.032   3.332
 6698SOL     OW20992   3.704   4.122   0.525
 6698SOL    HW120993   3.610   4.095   0.548
 6698SOL    HW220994   3.704   4.180   0.444
 6699SOL     OW20995   1.341   3.556   6.688
 6699SOL    HW120996   1.272   3.531   6.755
 6699SOL    HW220997   1.332   3.653   6.665
 6700SOL     OW20998   6.196   6.753   6.712
 6700SOL    HW120999   6.264   6.680   6.724
 6700SOL    HW221000   6.196   6.782   6.616
 6701SOL     OW21001   0.795   2.428   0.935
 6701SOL    HW121002   0.817   2.525   0.951
 6701SOL    HW221003   0.737   2.394   1.008
 6702SOL     OW21004   1.708   2.734   1.257
 6702SOL    HW121005   1.732   2.831   1.247
 6702SOL    HW221006   1.760   2.694   1.333
 6703SOL     OW21007   0.341   2.254   6.822
 6703SOL    HW121008   0.331   2.197   6.904
 6703SOL    HW221009   0.406   2.211   6.759
 6704SOL     OW21010   5.366   1.887   3.236
 6704SOL    HW121011   5.304   1.930   3.302
 6704SOL    HW221012   5.323   1.886   3.146
 6705SOL     OW21013   6.359   0.904   0.549
 6705SOL    HW121014   6.430   0.840   0.577
 6705SOL    HW221015   6.295   0.857   0.488
 6706SOL     OW21016   0.865   5.044   6.992
 6706SOL    HW121017   0.774   5.071   6.961
 6706SOL    HW221018   0.917   5.125   7.020
 6707SOL     OW21019   1.042   5.783   2.482
 6707SOL    HW121020   1.036   5.879   2.454
 6707SOL    HW221021   1.135   5.750   2.467
 6708SOL     OW21022   2.889   5.919   1.376
 6708SOL    HW121023   2.975   5.882   1.412
 6708SOL    HW221024   2.812   5.877   1.425
 6709SOL     OW21025   5.898   1.389   2.661
 6709SOL    HW121026   5.895   1.470   2.603
 6709SOL    HW221027   5.943   1.411   2.747
 6710SOL     OW21028   2.196   1.972   1.237
 6710SOL    HW121029   2.230   1.895   1.184
 6710SOL    HW221030   2.203   1.952   1.335
 6711SOL     OW21031   4.181   3.482   0.575
 6711SOL    HW121032   4.255   3.514   0.634
 6711SOL    HW221033   4.212   3.402   0.524
 6712SOL     OW21034   3.291   6.285   1.253
 6712SOL    HW121035   3.331   6.375   1.238
 6712SOL    HW221036   3.259   6.248   1.165
 6713SOL     OW21037   1.828   1.629   2.221
 6713SOL    HW121038   1.867   1.580   2.300
 6713SOL    HW221039   1.804   1.722   2.247
 6714SOL     OW21040   6.919   0.385   3.339
 6714SOL    HW121041   6.893   0.468   3.289
 6714SOL    HW221042   6.961   0.411   3.426
 6715SOL     OW21043   0.131   1.672   1.026
 6715SOL    HW121044   0.046   1.723   1.012
 6715SOL    HW221045   0.124   1.619   1.110
 6716SOL     OW21046   2.772   5.410   0.049
 6716SOL    HW121047   2.704   5.407   7.003
 6716SOL    HW221048   2.758   5.492   0.105
 6717SOL     OW21049   3.824   1.562   6.498
 6717SOL    HW121050   3.730   1.597   6.498
 6717SOL    HW221051   3.888   1.635   6.474
 6718SOL     OW21052   3.367   6.793   6.905
 6718SOL    HW121053   3.323   6.771   6.992
 6718SOL    HW221054   3.411   6.883   6.912
 6719SOL     OW21055   0.595   0.396   5.480
 6719SOL    HW121056   0.498   0.378   5.496
 6719SOL    HW221057   0.605   0.452   5.398
 6720SOL     OW21058   1.757   4.523   1.746
 6720SOL    HW121059   1.673   4.576   1.759
 6720SOL    HW221060   1.809   4.562   1.670
 6721SOL     OW21061   6.175   6.300   3.173
 6721SOL    HW121062   6.153   6.392   3.204
 6721SOL    HW221063   6.215   6.248   3.249
 6722SOL     OW21064   4.883   4.455   6.733
 6722SOL    HW121065   4.834   4.441   6.647
 6722SOL    HW221066   4.981   4.447   6.717
 6723SOL     OW21067   4.354   0.571   3.053
 6723SOL    HW121068   4.361   0.619   3.140
 6723SOL    HW221069   4.338   0.473   3.069
 6724SOL     OW21070   3.200   4.864   5.443
 6724SOL    HW121071   3.220   4.829   5.534
 6724SOL    HW221072   3.129   4.935   5.449
 6725SOL     OW21073   0.279   5.100   1.937
 6725SOL    HW121074   0.353   5.103   2.005
 6725SOL    HW221075   0.208   5.165   1.962
 6726SOL     OW21076   2.521   2.459   1.861
 6726SOL    HW121077   2.452   2.400   1.818
 6726SOL    HW221078   2.475   2.531   1.913
 6727SOL     OW21079   3.882   3.716   0.330
 6727SOL    HW121080   3.901   3.812   0.350
 6727SOL    HW221081   3.889   3.699   0.232
 6728SOL     OW21082   4.708   1.595   4.190
 6728SOL    HW121083   4.637   1.587   4.120
 6728SOL    HW221084   4.668   1.576   4.280
 6729SOL     OW21085   5.666   6.210   2.974
 6729SOL    HW121086   5.695   6.256   2.890
 6729SOL    HW221087   5.666   6.276   3.050
 6730SOL     OW21088   1.186   0.256   1.529
 6730SOL    HW121089   1.240   0.295   1.604
 6730SOL    HW221090   1.113   0.320   1.504
 6731SOL     OW21091   2.222   4.358   1.931
 6731SOL    HW121092   2.268   4.271   1.946
 6731SOL    HW221093   2.124   4.348   1.950
 6732SOL     OW21094   1.847   4.739   0.845
 6732SOL    HW121095   1.775   4.761   0.911
 6732SOL    HW221096   1.905   4.819   0.830
 6733SOL     OW21097   5.912   5.766   4.772
 6733SOL    HW121098   5.837   5.761   4.838
 6733SOL    HW221099   5.955   5.675   4.764
 6734SOL     OW21100   2.859   3.638   5.248
 6734SOL    HW121101   2.867   3.737   5.248
 6734SOL    HW221102   2.769   3.611   5.283
 6735SOL     OW21103   6.865   5.408   6.562
 6735SOL    HW121104   6.916   5.356   6.631
 6735SOL    HW221105   6.829   5.345   6.492
 6736SOL     OW21106   2.145   3.724   2.849
 6736SOL    HW121107   2.240   3.737   2.821
 6736SOL    HW221108   2.127   3.781   2.929
 6737SOL     OW21109   2.051   0.387   1.493
 6737SOL    HW121110   2.118   0.352   1.427
 6737SOL    HW221111   2.064   0.341   1.581
 6738SOL     OW21112   4.083   1.436   1.717
 6738SOL    HW121113   4.147   1.424   1.792
 6738SOL    HW221114   4.028   1.518   1.732
 6739SOL     OW21115   4.716   0.598   4.895
 6739SOL    HW121116   4.767   0.523   4.936
 6739SOL    HW221117   4.733   0.600   4.796
 6740SOL     OW21118   6.158   3.256   5.219
 6740SOL    HW121119   6.074   3.203   5.207
 6740SOL    HW221120   6.180   3.302   5.133
 6741SOL     OW21121   6.912   6.897   5.584
 6741SOL    HW121122   6.995   6.842   5.592
 6741SOL    HW221123   6.922   6.979   5.641
 6742SOL     OW21124   6.239   5.963   4.999
 6742SOL    HW121125   6.272   5.877   5.037
 6742SOL    HW221126   6.139   5.965   5.003
 6743SOL     OW21127   5.108   2.605   0.761
 6743SOL    HW121128   5.158   2.645   0.838
 6743SOL    HW221129   5.011   2.603   0.782
 6744SOL     OW21130   5.239   5.369   5.127
 6744SOL    HW121131   5.307   5.409   5.066
 6744SOL    HW221132   5.229   5.427   5.208
 6745SOL     OW21133   0.797   3.678   3.024
 6745SOL    HW121134   0.861   3.604   3.003
 6745SOL    HW221135   0.739   3.652   3.101
 6746SOL     OW21136   0.058   0.860   0.979
 6746SOL    HW121137   0.081   0.950   0.943
 6746SOL    HW221138   0.121   0.791   0.943
 6747SOL     OW21139   5.107   6.721   6.988
 6747SOL    HW121140   5.190   6.748   0.011
 6747SOL    HW221141   5.111   6.624   6.967
 6748SOL     OW21142   0.395   6.367   1.721
 6748SOL    HW121143   0.461   6.291   1.723
 6748SOL    HW221144   0.406   6.419   1.636
 6749SOL     OW21145   3.629   5.871   0.957
 6749SOL    HW121146   3.689   5.884   0.878
 6749SOL    HW221147   3.543   5.831   0.927
 6750SOL     OW21148   2.373   3.168   5.457
 6750SOL    HW121149   2.364   3.263   5.427
 6750SOL    HW221150   2.402   3.111   5.379
 6751SOL     OW21151   3.238   2.025   5.845
 6751SOL    HW121152   3.222   2.110   5.894
 6751SOL    HW221153   3.163   2.007   5.782
 6752SOL     OW21154   6.295   1.957   0.680
 6752SOL    HW121155   6.395   1.953   0.685
 6752SOL    HW221156   6.258   1.865   0.690
 6753SOL     OW21157   5.620   1.361   6.081
 6753SOL    HW121158   5.642   1.288   6.016
 6753SOL    HW221159   5.599   1.445   6.032
 6754SOL     OW21160   4.772   1.460   0.029
 6754SOL    HW121161   4.853   1.494   7.007
 6754SOL    HW221162   4.690   1.481   7.002
 6755SOL     OW21163   5.352   1.634   3.353
 6755SOL    HW121164   5.350   1.723   3.307
 6755SOL    HW221165   5.392   1.644   3.444
 6756SOL     OW21166   4.966   4.402   3.672
 6756SOL    HW121167   4.947   4.383   3.768
 6756SOL    HW221168   4.885   4.441   3.629
 6757SOL     OW21169   5.885   4.825   1.705
 6757SOL    HW121170   5.797   4.803   1.747
 6757SOL    HW221171   5.876   4.823   1.605
 6758SOL     OW21172   6.022   1.415   2.911
 6758SOL    HW121173   6.116   1.382   2.907
 6758SOL    HW221174   5.977   1.381   2.994
 6759SOL     OW21175   1.236   4.373   3.495
 6759SOL    HW121176   1.158   4.420   3.537
 6759SOL    HW221177   1.317   4.431   3.502
 6760SOL     OW21178   0.653   4.117   5.528
 6760SOL    HW121179   0.607   4.073   5.605
 6760SOL    HW221180   0.669   4.049   5.456
 6761SOL     OW21181   6.188   3.489   6.487
 6761SOL    HW121182   6.161   3.504   6.392
 6761SOL    HW221183   6.282   3.455   6.490
 6762SOL     OW21184   6.105   4.329   3.353
 6762SOL    HW121185   6.066   4.262   3.416
 6762SOL    HW221186   6.033   4.361   3.291
 6763SOL     OW21187   6.649   6.521   5.079
 6763SOL    HW121188   6.552   6.497   5.074
 6763SOL    HW221189   6.692   6.502   4.990
 6764SOL     OW21190   1.737   3.259   6.885
 6764SOL    HW121191   1.809   3.222   6.826
 6764SOL    HW221192   1.647   3.233   6.849
 6765SOL     OW21193   5.043   5.091   2.543
 6765SOL    HW121194   4.956   5.128   2.513
 6765SOL    HW221195   5.111   5.164   2.547
 6766SOL     OW21196   1.654   1.880   5.638
 6766SOL    HW121197   1.651   1.962   5.695
 6766SOL    HW221198   1.577   1.882   5.574
 6767SOL     OW21199   0.825   2.743   5.855
 6767SOL    HW121200   0.790   2.804   5.785
 6767SOL    HW221201   0.861   2.797   5.931
 6768SOL     OW21202   6.987   1.272   5.695
 6768SOL    HW121203   6.901   1.288   5.744
 6768SOL    HW221204   0.030   1.337   5.727
 6769SOL     OW21205   0.878   2.469   6.949
 6769SOL    HW121206   0.910   2.424   0.006
 6769SOL    HW221207   0.948   2.532   6.915
 6770SOL     OW21208   6.722   1.273   4.756
 6770SOL    HW121209   6.729   1.360   4.708
 6770SOL    HW221210   6.677   1.287   4.844
 6771SOL     OW21211   5.307   1.881   2.269
 6771SOL    HW121212   5.385   1.859   2.210
 6771SOL    HW221213   5.321   1.841   2.360
 6772SOL     OW21214   1.231   0.748   1.599
 6772SOL    HW121215   1.204   0.810   1.525
 6772SOL    HW221216   1.305   0.791   1.652
 6773SOL     OW21217   1.331   0.101   1.907
 6773SOL    HW121218   1.297   0.128   1.997
 6773SOL    HW221219   1.354   0.183   1.854
 6774SOL     OW21220   3.468   1.473   5.917
 6774SOL    HW121221   3.404   1.479   5.993
 6774SOL    HW221222   3.489   1.377   5.899
 6775SOL     OW21223   1.504   3.089   4.786
 6775SOL    HW121224   1.473   3.106   4.880
 6775SOL    HW221225   1.504   2.991   4.768
 6776SOL     OW21226   2.903   3.653   3.673
 6776SOL    HW121227   2.894   3.614   3.581
 6776SOL    HW221228   2.966   3.731   3.669
 6777SOL     OW21229   0.803   6.996   6.205
 6777SOL    HW121230   0.884   6.971   6.150
 6777SOL    HW221231   0.740   6.919   6.208
 6778SOL     OW21232   6.491   6.096   2.389
 6778SOL    HW121233   6.493   6.007   2.435
 6778SOL    HW221234   6.576   6.109   2.337
 6779SOL     OW21235   4.405   4.580   6.710
 6779SOL    HW121236   4.446   4.498   6.669
 6779SOL    HW221237   4.451   4.601   6.796
 6780SOL     OW21238   3.882   0.599   3.021
 6780SOL    HW121239   3.921   0.536   3.088
 6780SOL    HW221240   3.950   0.618   2.950
 6781SOL     OW21241   6.498   3.235   3.246
 6781SOL    HW121242   6.562   3.296   3.198
 6781SOL    HW221243   6.546   3.152   3.274
 6782SOL     OW21244   0.569   1.478   3.552
 6782SOL    HW121245   0.542   1.574   3.548
 6782SOL    HW221246   0.494   1.424   3.590
 6783SOL     OW21247   0.678   6.142   6.030
 6783SOL    HW121248   0.707   6.208   6.099
 6783SOL    HW221249   0.741   6.146   5.952
 6784SOL     OW21250   1.687   4.534   0.642
 6784SOL    HW121251   1.756   4.573   0.582
 6784SOL    HW221252   1.698   4.570   0.735
 6785SOL     OW21253   5.480   4.560   2.407
 6785SOL    HW121254   5.515   4.474   2.370
 6785SOL    HW221255   5.381   4.553   2.420
 6786SOL     OW21256   6.310   1.841   5.590
 6786SOL    HW121257   6.318   1.838   5.490
 6786SOL    HW221258   6.401   1.838   5.631
 6787SOL     OW21259   3.103   1.242   0.658
 6787SOL    HW121260   3.016   1.247   0.610
 6787SOL    HW221261   3.088   1.255   0.756
 6788SOL     OW21262   0.704   4.086   1.458
 6788SOL    HW121263   0.630   4.125   1.513
 6788SOL    HW221264   0.691   3.987   1.450
 6789SOL     OW21265   5.651   3.980   2.493
 6789SOL    HW121266   5.734   3.928   2.472
 6789SOL    HW221267   5.617   4.024   2.410
 6790SOL     OW21268   0.853   5.886   0.934
 6790SOL    HW121269   0.836   5.924   0.844
 6790SOL    HW221270   0.952   5.884   0.952
 6791SOL     OW21271   2.927   6.322   4.096
 6791SOL    HW121272   2.963   6.409   4.130
 6791SOL    HW221273   2.871   6.339   4.015
 6792SOL     OW21274   3.393   6.160   6.426
 6792SOL    HW121275   3.368   6.155   6.523
 6792SOL    HW221276   3.478   6.110   6.410
 6793SOL     OW21277   2.894   4.014   6.574
 6793SOL    HW121278   2.885   4.084   6.645
 6793SOL    HW221279   2.837   3.935   6.597
 6794SOL     OW21280   5.308   2.551   4.329
 6794SOL    HW121281   5.359   2.521   4.410
 6794SOL    HW221282   5.366   2.609   4.273
 6795SOL     OW21283   0.494   0.612   1.485
 6795SOL    HW121284   0.431   0.613   1.563
 6795SOL    HW221285   0.546   0.697   1.483
 6796SOL     OW21286   6.529   2.586   2.617
 6796SOL    HW121287   6.532   2.522   2.540
 6796SOL    HW221288   6.536   2.680   2.582
 6797SOL     OW21289   1.922   3.334   1.196
 6797SOL    HW121290   1.893   3.424   1.230
 6797SOL    HW221291   1.895   3.263   1.261
 6798SOL     OW21292   5.111   1.052   2.166
 6798SOL    HW121293   5.036   1.066   2.230
 6798SOL    HW221294   5.075   1.022   2.078
 6799SOL     OW21295   5.974   0.011   2.884
 6799SOL    HW121296   5.972   6.972   2.808
 6799SOL    HW221297   5.885   0.055   2.893
 6800SOL     OW21298   6.877   3.152   2.396
 6800SOL    HW121299   6.821   3.103   2.462
 6800SOL    HW221300   6.821   3.221   2.350
 6801SOL     OW21301   1.665   5.191   5.640
 6801SOL    HW121302   1.572   5.193   5.676
 6801SOL    HW221303   1.702   5.284   5.637
 6802SOL     OW21304   2.689   4.855   1.916
 6802SOL    HW121305   2.761   4.898   1.862
 6802SOL    HW221306   2.721   4.766   1.949
 6803SOL     OW21307   5.315   5.367   6.922
 6803SOL    HW121308   5.299   5.298   6.992
 6803SOL    HW221309   5.401   5.415   6.942
 6804SOL     OW21310   3.099   5.357   1.847
 6804SOL    HW121311   3.163   5.341   1.772
 6804SOL    HW221312   3.111   5.451   1.881
 6805SOL     OW21313   0.816   4.409   3.696
 6805SOL    HW121314   0.870   4.453   3.624
 6805SOL    HW221315   0.725   4.452   3.700
 6806SOL     OW21316   5.693   3.644   2.546
 6806SOL    HW121317   5.790   3.634   2.524
 6806SOL    HW221318   5.678   3.630   2.644
 6807SOL     OW21319   3.232   4.019   2.322
 6807SOL    HW121320   3.195   4.057   2.406
 6807SOL    HW221321   3.157   4.003   2.257
 6808SOL     OW21322   3.297   0.076   2.838
 6808SOL    HW121323   3.344   0.021   2.908
 6808SOL    HW221324   3.265   0.015   2.765
 6809SOL     OW21325   5.686   2.337   0.812
 6809SOL    HW121326   5.708   2.344   0.714
 6809SOL    HW221327   5.711   2.245   0.844
 6810SOL     OW21328   2.569   0.454   4.529
 6810SOL    HW121329   2.614   0.365   4.530
 6810SOL    HW221330   2.508   0.461   4.608
 6811SOL     OW21331   6.594   0.953   1.133
 6811SOL    HW121332   6.690   0.925   1.136
 6811SOL    HW221333   6.553   0.922   1.047
 6812SOL     OW21334   3.332   4.475   5.409
 6812SOL    HW121335   3.262   4.536   5.373
 6812SOL    HW221336   3.290   4.407   5.469
 6813SOL     OW21337   0.343   4.126   2.027
 6813SOL    HW121338   0.414   4.055   2.030
 6813SOL    HW221339   0.270   4.103   2.092
 6814SOL     OW21340   4.877   1.563   1.858
 6814SOL    HW121341   4.917   1.570   1.766
 6814SOL    HW221342   4.934   1.612   1.923
 6815SOL     OW21343   0.700   6.050   6.671
 6815SOL    HW121344   0.639   6.106   6.615
 6815SOL    HW221345   0.703   6.087   6.764
 6816SOL     OW21346   6.434   0.307   3.806
 6816SOL    HW121347   6.488   0.359   3.740
 6816SOL    HW221348   6.361   0.365   3.842
 6817SOL     OW21349   5.362   1.131   1.841
 6817SOL    HW121350   5.459   1.110   1.834
 6817SOL    HW221351   5.315   1.060   1.894
 6818SOL     OW21352   1.245   0.813   5.198
 6818SOL    HW121353   1.230   0.731   5.141
 6818SOL    HW221354   1.165   0.828   5.256
 6819SOL     OW21355   5.053   4.091   1.195
 6819SOL    HW121356   5.012   4.017   1.247
 6819SOL    HW221357   5.153   4.082   1.198
 6820SOL     OW21358   2.622   4.444   1.404
 6820SOL    HW121359   2.605   4.533   1.446
 6820SOL    HW221360   2.686   4.455   1.328
 6821SOL     OW21361   3.225   2.977   6.034
 6821SOL    HW121362   3.125   2.982   6.023
 6821SOL    HW221363   3.247   2.946   6.126
 6822SOL     OW21364   6.059   3.641   5.510
 6822SOL    HW121365   5.995   3.568   5.489
 6822SOL    HW221366   6.011   3.715   5.557
 6823SOL     OW21367   0.477   2.851   5.760
 6823SOL    HW121368   0.509   2.756   5.768
 6823SOL    HW221369   0.513   2.904   5.838
 6824SOL     OW21370   1.367   0.685   4.174
 6824SOL    HW121371   1.396   0.731   4.090
 6824SOL    HW221372   1.447   0.644   4.218
 6825SOL     OW21373   4.375   4.560   1.327
 6825SOL    HW121374   4.466   4.542   1.364
 6825SOL    HW221375   4.350   4.487   1.263
 6826SOL     OW21376   5.321   0.546   3.698
 6826SOL    HW121377   5.404   0.500   3.728
 6826SOL    HW221378   5.345   0.627   3.644
 6827SOL     OW21379   4.785   5.915   5.758
 6827SOL    HW121380   4.849   5.848   5.721
 6827SOL    HW221381   4.800   5.925   5.856
 6828SOL     OW21382   2.962   2.168   2.553
 6828SOL    HW121383   2.912   2.183   2.468
 6828SOL    HW221384   2.977   2.256   2.598
 6829SOL     OW21385   5.351   5.858   4.160
 6829SOL    HW121386   5.329   5.853   4.062
 6829SOL    HW221387   5.364   5.954   4.186
 6830SOL     OW21388   3.785   5.939   2.313
 6830SOL    HW121389   3.745   5.996   2.384
 6830SOL    HW221390   3.719   5.871   2.283
 6831SOL     OW21391   1.544   1.080   6.673
 6831SOL    HW121392   1.497   1.061   6.759
 6831SOL    HW221393   1.564   0.994   6.626
 6832SOL     OW21394   2.806   3.199   0.254
 6832SOL    HW121395   2.755   3.113   0.264
 6832SOL    HW221396   2.869   3.210   0.331
 6833SOL     OW21397   4.660   4.658   0.094
 6833SOL    HW121398   4.586   4.706   0.047
 6833SOL    HW221399   4.623   4.581   0.146
 6834SOL     OW21400   5.892   5.640   5.140
 6834SOL    HW121401   5.927   5.625   5.233
 6834SOL    HW221402   5.922   5.729   5.107
 6835SOL     OW21403   3.388   0.316   3.269
 6835SOL    HW121404   3.365   0.408   3.300
 6835SOL    HW221405   3.331   0.249   3.316
 6836SOL     OW21406   0.003   4.486   0.072
 6836SOL    HW121407   0.060   4.557   0.032
 6836SOL    HW221408   0.012   4.402   0.019
 6837SOL     OW21409   6.253   0.979   2.131
 6837SOL    HW121410   6.155   0.994   2.138
 6837SOL    HW221411   6.299   1.065   2.108
 6838SOL     OW21412   2.927   4.029   5.997
 6838SOL    HW121413   2.876   4.061   5.918
 6838SOL    HW221414   2.994   4.099   6.024
 6839SOL     OW21415   6.065   2.800   5.771
 6839SOL    HW121416   6.136   2.773   5.705
 6839SOL    HW221417   5.983   2.746   5.755
 6840SOL     OW21418   3.214   6.274   4.424
 6840SOL    HW121419   3.218   6.306   4.330
 6840SOL    HW221420   3.139   6.319   4.472
 6841SOL     OW21421   4.972   6.958   0.669
 6841SOL    HW121422   4.911   0.009   0.656
 6841SOL    HW221423   5.005   6.956   0.763
 6842SOL     OW21424   0.261   3.718   3.364
 6842SOL    HW121425   0.238   3.754   3.454
 6842SOL    HW221426   0.328   3.777   3.320
 6843SOL     OW21427   4.734   2.785   2.238
 6843SOL    HW121428   4.748   2.836   2.324
 6843SOL    HW221429   4.726   2.850   2.163
 6844SOL     OW21430   4.026   0.099   4.523
 6844SOL    HW121431   4.071   0.185   4.498
 6844SOL    HW221432   3.986   0.107   4.614
 6845SOL     OW21433   4.306   4.039   0.277
 6845SOL    HW121434   4.352   3.952   0.260
 6845SOL    HW221435   4.337   4.076   0.365
 6846SOL     OW21436   4.096   3.717   3.244
 6846SOL    HW121437   4.108   3.621   3.219
 6846SOL    HW221438   4.090   3.726   3.343
 6847SOL     OW21439   6.430   3.240   2.327
 6847SOL    HW121440   6.379   3.273   2.248
 6847SOL    HW221441   6.528   3.243   2.308
 6848SOL     OW21442   0.528   5.873   4.192
 6848SOL    HW121443   0.458   5.932   4.151
 6848SOL    HW221444   0.574   5.820   4.120
 6849SOL     OW21445   3.189   6.944   4.947
 6849SOL    HW121446   3.234   0.007   4.941
 6849SOL    HW221447   3.133   6.940   5.029
 6850SOL     OW21448   5.683   3.912   1.601
 6850SOL    HW121449   5.744   3.987   1.629
 6850SOL    HW221450   5.602   3.951   1.557
 6851SOL     OW21451   1.416   5.785   5.448
 6851SOL    HW121452   1.492   5.848   5.434
 6851SOL    HW221453   1.371   5.806   5.535
 6852SOL     OW21454   6.486   5.138   2.205
 6852SOL    HW121455   6.515   5.212   2.265
 6852SOL    HW221456   6.434   5.071   2.258
 6853SOL     OW21457   6.528   4.434   4.811
 6853SOL    HW121458   6.545   4.339   4.837
 6853SOL    HW221459   6.530   4.491   4.893
 6854SOL     OW21460   6.208   1.617   6.440
 6854SOL    HW121461   6.282   1.680   6.420
 6854SOL    HW221462   6.120   1.660   6.419
 6855SOL     OW21463   3.066   6.402   2.070
 6855SOL    HW121464   3.164   6.404   2.051
 6855SOL    HW221465   3.024   6.486   2.035
 6856SOL     OW21466   0.152   4.855   5.910
 6856SOL    HW121467   0.223   4.893   5.969
 6856SOL    HW221468   0.191   4.839   5.819
 6857SOL     OW21469   4.385   1.509   6.502
 6857SOL    HW121470   4.376   1.512   6.601
 6857SOL    HW221471   4.481   1.515   6.476
 6858SOL     OW21472   3.734   3.070   6.539
 6858SOL    HW121473   3.736   3.079   6.639
 6858SOL    HW221474   3.798   3.134   6.498
 6859SOL     OW21475   3.194   0.559   0.500
 6859SOL    HW121476   3.263   0.489   0.517
 6859SOL    HW221477   3.232   0.649   0.520
 6860SOL     OW21478   4.195   3.917   6.677
 6860SOL    HW121479   4.223   3.857   6.753
 6860SOL    HW221480   4.134   3.988   6.711
 6861SOL     OW21481   5.204   4.133   0.805
 6861SOL    HW121482   5.128   4.198   0.819
 6861SOL    HW221483   5.291   4.182   0.810
 6862SOL     OW21484   2.772   5.493   4.350
 6862SOL    HW121485   2.748   5.402   4.385
 6862SOL    HW221486   2.692   5.534   4.306
 6863SOL     OW21487   1.078   3.022   3.517
 6863SOL    HW121488   1.041   3.111   3.544
 6863SOL    HW221489   1.166   3.007   3.563
 6864SOL     OW21490   4.551   5.423   6.489
 6864SOL    HW121491   4.559   5.431   6.390
 6864SOL    HW221492   4.637   5.448   6.532
 6865SOL     OW21493   0.032   3.462   4.750
 6865SOL    HW121494   6.974   3.494   4.794
 6865SOL    HW221495   0.109   3.519   4.780
 6866SOL     OW21496   0.798   3.403   2.332
 6866SOL    HW121497   0.771   3.496   2.358
 6866SOL    HW221498   0.726   3.339   2.356
 6867SOL     OW21499   2.141   5.383   2.976
 6867SOL    HW121500   2.239   5.364   2.974
 6867SOL    HW221501   2.122   5.452   3.046
 6868SOL     OW21502   2.051   5.561   4.695
 6868SOL    HW121503   2.108   5.487   4.659
 6868SOL    HW221504   1.992   5.525   4.767
 6869SOL     OW21505   6.734   3.622   5.146
 6869SOL    HW121506   6.820   3.636   5.196
 6869SOL    HW221507   6.715   3.524   5.140
 6870SOL     OW21508   5.739   3.426   2.359
 6870SOL    HW121509   5.818   3.456   2.412
 6870SOL    HW221510   5.748   3.457   2.265
 6871SOL     OW21511   4.919   6.261   2.115
 6871SOL    HW121512   4.901   6.204   2.034
 6871SOL    HW221513   4.833   6.286   2.159
 6872SOL     OW21514   3.520   3.742   0.728
 6872SOL    HW121515   3.478   3.658   0.764
 6872SOL    HW221516   3.586   3.718   0.657
 6873SOL     OW21517   5.602   4.528   5.071
 6873SOL    HW121518   5.522   4.540   5.011
 6873SOL    HW221519   5.597   4.439   5.116
 6874SOL     OW21520   1.388   2.196   5.600
 6874SOL    HW121521   1.483   2.197   5.568
 6874SOL    HW221522   1.366   2.285   5.640
 6875SOL     OW21523   3.855   1.811   4.138
 6875SOL    HW121524   3.917   1.763   4.077
 6875SOL    HW221525   3.887   1.800   4.233
 6876SOL     OW21526   3.886   6.133   4.143
 6876SOL    HW121527   3.873   6.155   4.046
 6876SOL    HW221528   3.832   6.052   4.165
 6877SOL     OW21529   1.763   3.989   6.226
 6877SOL    HW121530   1.783   4.047   6.147
 6877SOL    HW221531   1.774   4.042   6.310
 6878SOL     OW21532   1.549   2.167   4.509
 6878SOL    HW121533   1.615   2.125   4.571
 6878SOL    HW221534   1.479   2.215   4.563
 6879SOL     OW21535   0.336   1.227   5.701
 6879SOL    HW121536   0.407   1.233   5.630
 6879SOL    HW221537   0.313   1.131   5.717
 6880SOL     OW21538   2.060   3.539   4.429
 6880SOL    HW121539   2.110   3.461   4.391
 6880SOL    HW221540   2.115   3.622   4.420
 6881SOL     OW21541   5.561   5.783   1.672
 6881SOL    HW121542   5.575   5.687   1.697
 6881SOL    HW221543   5.474   5.792   1.623
 6882SOL     OW21544   2.638   6.195   5.352
 6882SOL    HW121545   2.559   6.155   5.401
 6882SOL    HW221546   2.715   6.202   5.414
 6883SOL     OW21547   3.300   6.019   1.581
 6883SOL    HW121548   3.355   6.103   1.591
 6883SOL    HW221549   3.203   6.043   1.576
 6884SOL     OW21550   2.407   5.338   2.882
 6884SOL    HW121551   2.485   5.400   2.888
 6884SOL    HW221552   2.363   5.347   2.793
 6885SOL     OW21553   4.205   5.646   4.797
 6885SOL    HW121554   4.289   5.692   4.828
 6885SOL    HW221555   4.162   5.601   4.875
 6886SOL     OW21556   5.253   1.554   2.682
 6886SOL    HW121557   5.303   1.499   2.615
 6886SOL    HW221558   5.156   1.556   2.658
 6887SOL     OW21559   5.128   0.740   5.546
 6887SOL    HW121560   5.164   0.795   5.470
 6887SOL    HW221561   5.135   0.643   5.523
 6888SOL     OW21562   6.531   0.008   4.953
 6888SOL    HW121563   6.447   0.062   4.952
 6888SOL    HW221564   6.592   0.043   5.024
 6889SOL     OW21565   1.534   4.313   6.015
 6889SOL    HW121566   1.505   4.319   5.920
 6889SOL    HW221567   1.496   4.389   6.067
 6890SOL     OW21568   1.860   0.275   0.926
 6890SOL    HW121569   1.957   0.253   0.924
 6890SOL    HW221570   1.818   0.236   1.007
 6891SOL     OW21571   3.547   5.248   5.177
 6891SOL    HW121572   3.626   5.208   5.131
 6891SOL    HW221573   3.517   5.187   5.251
 6892SOL     OW21574   3.237   1.794   4.783
 6892SOL    HW121575   3.210   1.792   4.879
 6892SOL    HW221576   3.322   1.742   4.772
 6893SOL     OW21577   5.838   0.603   1.529
 6893SOL    HW121578   5.884   0.638   1.611
 6893SOL    HW221579   5.902   0.547   1.477
 6894SOL     OW21580   6.017   4.823   6.665
 6894SOL    HW121581   6.022   4.918   6.635
 6894SOL    HW221582   6.097   4.773   6.630
 6895SOL     OW21583   4.333   5.439   6.662
 6895SOL    HW121584   4.312   5.531   6.693
 6895SOL    HW221585   4.384   5.444   6.576
 6896SOL     OW21586   4.250   0.754   2.890
 6896SOL    HW121587   4.295   0.692   2.954
 6896SOL    HW221588   4.313   0.774   2.814
 6897SOL     OW21589   3.494   1.173   0.906
 6897SOL    HW121590   3.435   1.239   0.953
 6897SOL    HW221591   3.454   1.151   0.817
 6898SOL     OW21592   3.707   1.539   2.718
 6898SOL    HW121593   3.773   1.534   2.643
 6898SOL    HW221594   3.733   1.473   2.789
 6899SOL     OW21595   5.749   6.335   6.285
 6899SOL    HW121596   5.651   6.330   6.264
 6899SOL    HW221597   5.785   6.243   6.300
 6900SOL     OW21598   4.025   1.748   6.460
 6900SOL    HW121599   4.066   1.663   6.428
 6900SOL    HW221600   4.033   1.753   6.560
 6901SOL     OW21601   1.270   1.098   0.513
 6901SOL    HW121602   1.297   1.008   0.545
 6901SOL    HW221603   1.255   1.158   0.592
 6902SOL     OW21604   6.575   5.519   2.049
 6902SOL    HW121605   6.527   5.607   2.048
 6902SOL    HW221606   6.671   5.534   2.072
 6903SOL     OW21607   4.412   4.352   0.501
 6903SOL    HW121608   4.377   4.379   0.591
 6903SOL    HW221609   4.450   4.260   0.506
 6904SOL     OW21610   0.810   1.798   2.909
 6904SOL    HW121611   0.779   1.782   3.002
 6904SOL    HW221612   0.900   1.842   2.911
 6905SOL     OW21613   3.969   5.235   1.393
 6905SOL    HW121614   4.037   5.258   1.324
 6905SOL    HW221615   3.972   5.303   1.466
 6906SOL     OW21616   5.999   6.174   3.520
 6906SOL    HW121617   5.962   6.239   3.454
 6906SOL    HW221618   5.946   6.177   3.605
 6907SOL     OW21619   3.714   0.576   1.075
 6907SOL    HW121620   3.672   0.645   1.016
 6907SOL    HW221621   3.667   0.489   1.062
 6908SOL     OW21622   5.810   0.322   6.973
 6908SOL    HW121623   5.748   0.399   6.967
 6908SOL    HW221624   5.790   0.269   0.030
 6909SOL     OW21625   3.081   3.008   6.909
 6909SOL    HW121626   3.086   2.956   6.824
 6909SOL    HW221627   3.033   2.954   6.979
 6910SOL     OW21628   5.986   0.423   1.376
 6910SOL    HW121629   6.005   0.372   1.461
 6910SOL    HW221630   5.903   0.387   1.334
 6911SOL     OW21631   4.115   0.696   4.656
 6911SOL    HW121632   4.039   0.664   4.712
 6911SOL    HW221633   4.176   0.619   4.636
 6912SOL     OW21634   4.344   4.491   1.765
 6912SOL    HW121635   4.380   4.408   1.806
 6912SOL    HW221636   4.372   4.570   1.820
 6913SOL     OW21637   4.528   5.748   5.898
 6913SOL    HW121638   4.579   5.807   5.962
 6913SOL    HW221639   4.430   5.756   5.917
 6914SOL     OW21640   6.391   4.970   6.660
 6914SOL    HW121641   6.472   4.920   6.690
 6914SOL    HW221642   6.312   4.944   6.715
 6915SOL     OW21643   1.190   5.355   0.629
 6915SOL    HW121644   1.246   5.432   0.598
 6915SOL    HW221645   1.250   5.284   0.667
 6916SOL     OW21646   6.154   0.408   5.717
 6916SOL    HW121647   6.248   0.393   5.745
 6916SOL    HW221648   6.109   0.320   5.702
 6917SOL     OW21649   4.018   0.242   6.838
 6917SOL    HW121650   4.080   0.248   6.760
 6917SOL    HW221651   3.960   0.161   6.829
 6918SOL     OW21652   2.189   2.954   3.661
 6918SOL    HW121653   2.179   3.043   3.707
 6918SOL    HW221654   2.209   2.969   3.564
 6919SOL     OW21655   0.716   6.653   3.506
 6919SOL    HW121656   0.700   6.663   3.605
 6919SOL    HW221657   0.661   6.577   3.471
 6920SOL     OW21658   5.075   6.101   4.636
 6920SOL    HW121659   5.077   6.174   4.568
 6920SOL    HW221660   5.124   6.130   4.718
 6921SOL     OW21661   1.429   6.303   3.454
 6921SOL    HW121662   1.501   6.320   3.521
 6921SOL    HW221663   1.456   6.340   3.365
 6922SOL     OW21664   1.904   6.367   0.514
 6922SOL    HW121665   1.897   6.467   0.521
 6922SOL    HW221666   1.980   6.335   0.569
 6923SOL     OW21667   4.826   6.322   4.202
 6923SOL    HW121668   4.831   6.416   4.234
 6923SOL    HW221669   4.837   6.319   4.103
 6924SOL     OW21670   6.654   5.946   1.679
 6924SOL    HW121671   6.556   5.969   1.674
 6924SOL    HW221672   6.663   5.850   1.706
 6925SOL     OW21673   5.803   5.542   2.705
 6925SOL    HW121674   5.708   5.515   2.686
 6925SOL    HW221675   5.819   5.540   2.804
 6926SOL     OW21676   3.235   3.989   5.225
 6926SOL    HW121677   3.220   3.973   5.322
 6926SOL    HW221678   3.147   3.988   5.177
 6927SOL     OW21679   4.015   2.935   0.721
 6927SOL    HW121680   3.917   2.956   0.715
 6927SOL    HW221681   4.031   2.842   0.687
 6928SOL     OW21682   6.650   0.423   6.195
 6928SOL    HW121683   6.607   0.514   6.194
 6928SOL    HW221684   6.637   0.381   6.285
 6929SOL     OW21685   2.938   4.717   1.043
 6929SOL    HW121686   2.877   4.795   1.059
 6929SOL    HW221687   2.930   4.687   0.948
 6930SOL     OW21688   1.000   0.870   2.990
 6930SOL    HW121689   0.994   0.770   2.979
 6930SOL    HW221690   0.986   0.894   3.086
 6931SOL     OW21691   2.091   0.076   0.793
 6931SOL    HW121692   1.994   0.053   0.784
 6931SOL    HW221693   2.136   0.012   0.856
 6932SOL     OW21694   2.822   2.766   0.339
 6932SOL    HW121695   2.763   2.711   0.280
 6932SOL    HW221696   2.912   2.723   0.345
 6933SOL     OW21697   2.826   6.141   5.905
 6933SOL    HW121698   2.919   6.106   5.922
 6933SOL    HW221699   2.780   6.081   5.840
 6934SOL     OW21700   5.558   4.859   6.288
 6934SOL    HW121701   5.574   4.921   6.365
 6934SOL    HW221702   5.619   4.882   6.213
 6935SOL     OW21703   4.349   5.846   2.927
 6935SOL    HW121704   4.341   5.916   2.999
 6935SOL    HW221705   4.279   5.776   2.941
 6936SOL     OW21706   0.403   4.635   0.766
 6936SOL    HW121707   0.388   4.731   0.743
 6936SOL    HW221708   0.428   4.627   0.863
 6937SOL     OW21709   4.269   6.486   5.747
 6937SOL    HW121710   4.258   6.580   5.714
 6937SOL    HW221711   4.213   6.473   5.828
 6938SOL     OW21712   5.667   2.593   4.957
 6938SOL    HW121713   5.586   2.628   5.004
 6938SOL    HW221714   5.699   2.511   5.003
 6939SOL     OW21715   7.026   4.868   2.003
 6939SOL    HW121716   6.984   4.897   1.917
 6939SOL    HW221717   6.956   4.828   2.062
 6940SOL     OW21718   4.276   0.900   4.733
 6940SOL    HW121719   4.356   0.889   4.673
 6940SOL    HW221720   4.204   0.837   4.704
 6941SOL     OW21721   3.773   3.186   4.234
 6941SOL    HW121722   3.745   3.096   4.201
 6941SOL    HW221723   3.868   3.203   4.210
 6942SOL     OW21724   6.867   1.499   6.929
 6942SOL    HW121725   6.947   1.489   6.871
 6942SOL    HW221726   6.894   1.535   7.019
 6943SOL     OW21727   6.565   6.208   0.214
 6943SOL    HW121728   6.478   6.183   0.170
 6943SOL    HW221729   6.637   6.147   0.180
 6944SOL     OW21730   1.233   6.280   6.315
 6944SOL    HW121731   1.220   6.373   6.281
 6944SOL    HW221732   1.172   6.264   6.393
 6945SOL     OW21733   4.358   2.186   5.464
 6945SOL    HW121734   4.378   2.161   5.369
 6945SOL    HW221735   4.415   2.132   5.525
 6946SOL     OW21736   5.697   3.452   3.451
 6946SOL    HW121737   5.750   3.382   3.498
 6946SOL    HW221738   5.602   3.421   3.441
 6947SOL     OW21739   3.411   0.096   2.218
 6947SOL    HW121740   3.356   0.139   2.146
 6947SOL    HW221741   3.364   0.014   2.250
 6948SOL     OW21742   3.844   1.969   4.981
 6948SOL    HW121743   3.796   1.886   5.010
 6948SOL    HW221744   3.882   1.955   4.890
 6949SOL     OW21745   5.049   1.232   2.643
 6949SOL    HW121746   5.095   1.219   2.555
 6949SOL    HW221747   4.998   1.149   2.666
 6950SOL     OW21748   2.834   1.570   3.859
 6950SOL    HW121749   2.735   1.553   3.854
 6950SOL    HW221750   2.870   1.581   3.766
 6951SOL     OW21751   4.820   5.340   5.053
 6951SOL    HW121752   4.860   5.268   5.110
 6951SOL    HW221753   4.803   5.305   4.961
 6952SOL     OW21754   6.973   5.005   5.329
 6952SOL    HW121755   6.966   5.088   5.273
 6952SOL    HW221756   6.949   5.027   5.424
 6953SOL     OW21757   5.562   2.172   5.204
 6953SOL    HW121758   5.639   2.138   5.258
 6953SOL    HW221759   5.526   2.255   5.248
 6954SOL     OW21760   0.972   4.660   2.657
 6954SOL    HW121761   0.886   4.611   2.643
 6954SOL    HW221762   0.993   4.714   2.575
 6955SOL     OW21763   6.938   6.556   2.918
 6955SOL    HW121764   6.921   6.509   2.831
 6955SOL    HW221765   0.008   6.545   2.943
 6956SOL     OW21766   2.898   4.606   0.789
 6956SOL    HW121767   2.804   4.578   0.805
 6956SOL    HW221768   2.947   4.532   0.742
 6957SOL     OW21769   0.886   3.830   0.233
 6957SOL    HW121770   0.899   3.920   0.192
 6957SOL    HW221771   0.964   3.771   0.210
 6958SOL     OW21772   2.065   3.991   6.711
 6958SOL    HW121773   2.026   4.008   6.621
 6958SOL    HW221774   1.998   4.014   6.782
 6959SOL     OW21775   3.746   1.469   3.570
 6959SOL    HW121776   3.828   1.417   3.543
 6959SOL    HW221777   3.667   1.409   3.569
 6960SOL     OW21778   0.326   4.681   0.385
 6960SOL    HW121779   0.412   4.709   0.427
 6960SOL    HW221780   0.338   4.592   0.341
 6961SOL     OW21781   6.938   1.736   2.980
 6961SOL    HW121782   6.866   1.684   3.026
 6961SOL    HW221783   6.910   1.758   2.886
 6962SOL     OW21784   3.338   3.516   0.752
 6962SOL    HW121785   3.255   3.462   0.768
 6962SOL    HW221786   3.394   3.471   0.682
 6963SOL     OW21787   6.161   5.987   2.272
 6963SOL    HW121788   6.188   6.074   2.229
 6963SOL    HW221789   6.094   5.941   2.213
 6964SOL     OW21790   3.838   6.142   5.208
 6964SOL    HW121791   3.761   6.085   5.179
 6964SOL    HW221792   3.905   6.147   5.134
 6965SOL     OW21793   6.099   2.038   5.530
 6965SOL    HW121794   6.164   1.970   5.563
 6965SOL    HW221795   6.020   1.992   5.489
 6966SOL     OW21796   4.724   2.758   4.146
 6966SOL    HW121797   4.769   2.703   4.216
 6966SOL    HW221798   4.700   2.847   4.184
 6967SOL     OW21799   2.105   2.542   6.251
 6967SOL    HW121800   2.122   2.641   6.250
 6967SOL    HW221801   2.152   2.500   6.173
 6968SOL     OW21802   4.059   0.460   3.174
 6968SOL    HW121803   4.025   0.450   3.267
 6968SOL    HW221804   4.132   0.394   3.158
 6969SOL     OW21805   2.862   2.477   1.172
 6969SOL    HW121806   2.826   2.401   1.119
 6969SOL    HW221807   2.962   2.472   1.174
 6970SOL     OW21808   4.432   3.967   0.809
 6970SOL    HW121809   4.456   3.906   0.885
 6970SOL    HW221810   4.384   4.047   0.845
 6971SOL     OW21811   6.000   1.049   2.124
 6971SOL    HW121812   6.043   1.099   2.048
 6971SOL    HW221813   5.901   1.050   2.113
 6972SOL     OW21814   5.510   5.007   4.735
 6972SOL    HW121815   5.480   5.079   4.798
 6972SOL    HW221816   5.479   4.918   4.769
 6973SOL     OW21817   1.558   4.183   3.144
 6973SOL    HW121818   1.461   4.160   3.157
 6973SOL    HW221819   1.571   4.217   3.051
 6974SOL     OW21820   3.312   4.142   5.016
 6974SOL    HW121821   3.294   4.077   5.090
 6974SOL    HW221822   3.273   4.231   5.039
 6975SOL     OW21823   3.211   0.850   5.969
 6975SOL    HW121824   3.238   0.847   6.065
 6975SOL    HW221825   3.212   0.945   5.937
 6976SOL     OW21826   1.562   6.185   0.758
 6976SOL    HW121827   1.640   6.145   0.710
 6976SOL    HW221828   1.535   6.126   0.834
 6977SOL     OW21829   4.672   2.710   2.975
 6977SOL    HW121830   4.628   2.623   2.999
 6977SOL    HW221831   4.688   2.764   3.058
 6978SOL     OW21832   5.415   1.440   3.076
 6978SOL    HW121833   5.379   1.516   3.021
 6978SOL    HW221834   5.343   1.407   3.138
 6979SOL     OW21835   0.638   4.895   3.505
 6979SOL    HW121836   0.559   4.916   3.447
 6979SOL    HW221837   0.608   4.885   3.600
 6980SOL     OW21838   3.894   1.572   4.452
 6980SOL    HW121839   3.963   1.607   4.389
 6980SOL    HW221840   3.803   1.599   4.421
 6981SOL     OW21841   3.431   4.476   6.730
 6981SOL    HW121842   3.353   4.537   6.744
 6981SOL    HW221843   3.491   4.480   6.810
 6982SOL     OW21844   0.521   6.817   4.372
 6982SOL    HW121845   0.595   6.829   4.439
 6982SOL    HW221846   0.559   6.825   4.280
 6983SOL     OW21847   6.677   0.324   3.456
 6983SOL    HW121848   6.765   0.367   3.436
 6983SOL    HW221849   6.687   0.259   3.531
 6984SOL     OW21850   2.631   0.967   5.388
 6984SOL    HW121851   2.687   0.909   5.329
 6984SOL    HW221852   2.654   0.950   5.484
 6985SOL     OW21853   5.326   6.504   3.056
 6985SOL    HW121854   5.424   6.489   3.042
 6985SOL    HW221855   5.297   6.458   3.140
 6986SOL     OW21856   1.870   0.086   5.181
 6986SOL    HW121857   1.830   0.177   5.187
 6986SOL    HW221858   1.830   0.036   5.105
 6987SOL     OW21859   6.517   3.739   6.523
 6987SOL    HW121860   6.450   3.686   6.575
 6987SOL    HW221861   6.545   3.687   6.442
 6988SOL     OW21862   5.384   1.076   5.585
 6988SOL    HW121863   5.481   1.057   5.570
 6988SOL    HW221864   5.364   1.171   5.561
 6989SOL     OW21865   1.648   3.153   3.404
 6989SOL    HW121866   1.688   3.172   3.493
 6989SOL    HW221867   1.666   3.058   3.378
 6990SOL     OW21868   4.043   3.243   0.858
 6990SOL    HW121869   4.085   3.176   0.797
 6990SOL    HW221870   3.956   3.206   0.892
 6991SOL     OW21871   4.380   4.624   5.485
 6991SOL    HW121872   4.377   4.715   5.525
 6991SOL    HW221873   4.301   4.571   5.516
 6992SOL     OW21874   5.748   6.528   4.935
 6992SOL    HW121875   5.650   6.527   4.954
 6992SOL    HW221876   5.796   6.474   5.004
 6993SOL     OW21877   0.492   6.097   3.348
 6993SOL    HW121878   0.406   6.102   3.296
 6993SOL    HW221879   0.569   6.105   3.284
 6994SOL     OW21880   1.500   3.182   0.142
 6994SOL    HW121881   1.568   3.255   0.151
 6994SOL    HW221882   1.421   3.216   0.091
 6995SOL     OW21883   1.076   4.593   3.682
 6995SOL    HW121884   1.003   4.606   3.749
 6995SOL    HW221885   1.165   4.609   3.726
 6996SOL     OW21886   2.375   6.979   6.204
 6996SOL    HW121887   2.285   7.014   6.179
 6996SOL    HW221888   2.378   6.880   6.188
 6997SOL     OW21889   4.911   6.817   4.215
 6997SOL    HW121890   4.849   6.832   4.291
 6997SOL    HW221891   4.982   6.887   4.214
 6998SOL     OW21892   1.986   2.473   2.816
 6998SOL    HW121893   1.928   2.419   2.877
 6998SOL    HW221894   2.008   2.560   2.859
 6999SOL     OW21895   5.147   1.830   6.921
 6999SOL    HW121896   5.060   1.817   6.969
 6999SOL    HW221897   5.139   1.797   6.827
 7000SOL     OW21898   6.557   6.799   0.937
 7000SOL    HW121899   6.586   6.863   0.866
 7000SOL    HW221900   6.557   6.845   1.025
 7001SOL     OW21901   2.551   1.884   5.790
 7001SOL    HW121902   2.637   1.912   5.833
 7001SOL    HW221903   2.525   1.794   5.823
 7002SOL     OW21904   1.909   4.834   2.364
 7002SOL    HW121905   1.945   4.829   2.271
 7002SOL    HW221906   1.832   4.772   2.374
 7003SOL     OW21907   1.474   6.654   6.043
 7003SOL    HW121908   1.547   6.679   6.108
 7003SOL    HW221909   1.514   6.608   5.964
 7004SOL     OW21910   1.370   4.144   0.210
 7004SOL    HW121911   1.383   4.146   0.309
 7004SOL    HW221912   1.320   4.060   0.184
 7005SOL     OW21913   6.000   6.736   6.189
 7005SOL    HW121914   5.918   6.684   6.212
 7005SOL    HW221915   6.075   6.673   6.169
 7006SOL     OW21916   4.926   5.476   4.355
 7006SOL    HW121917   4.940   5.377   4.351
 7006SOL    HW221918   5.009   5.520   4.389
 7007SOL     OW21919   4.512   4.884   2.362
 7007SOL    HW121920   4.523   4.829   2.445
 7007SOL    HW221921   4.432   4.852   2.311
 7008SOL     OW21922   1.279   4.317   4.563
 7008SOL    HW121923   1.212   4.251   4.597
 7008SOL    HW221924   1.359   4.268   4.527
 7009SOL     OW21925   0.429   4.244   2.503
 7009SOL    HW121926   0.480   4.272   2.421
 7009SOL    HW221927   0.468   4.288   2.583
 7010SOL     OW21928   4.388   4.775   6.529
 7010SOL    HW121929   4.401   4.867   6.568
 7010SOL    HW221930   4.405   4.706   6.600
 7011SOL     OW21931   1.351   1.307   5.790
 7011SOL    HW121932   1.439   1.293   5.745
 7011SOL    HW221933   1.344   1.247   5.870
 7012SOL     OW21934   1.523   1.548   1.565
 7012SOL    HW121935   1.424   1.557   1.571
 7012SOL    HW221936   1.556   1.588   1.480
 7013SOL     OW21937   6.985   1.462   1.667
 7013SOL    HW121938   6.982   1.362   1.667
 7013SOL    HW221939   6.931   1.497   1.590
 7014SOL     OW21940   2.026   4.871   0.573
 7014SOL    HW121941   2.124   4.860   0.590
 7014SOL    HW221942   1.998   4.963   0.601
 7015SOL     OW21943   5.903   2.010   2.439
 7015SOL    HW121944   5.846   2.086   2.408
 7015SOL    HW221945   5.995   2.019   2.401
 7016SOL     OW21946   4.010   4.380   1.347
 7016SOL    HW121947   3.929   4.322   1.349
 7016SOL    HW221948   3.983   4.475   1.329
 7017SOL     OW21949   4.741   2.024   4.680
 7017SOL    HW121950   4.689   2.012   4.595
 7017SOL    HW221951   4.837   2.041   4.658
 7018SOL     OW21952   0.378   4.130   3.331
 7018SOL    HW121953   0.367   4.104   3.427
 7018SOL    HW221954   0.311   4.201   3.308
 7019SOL     OW21955   1.686   5.870   1.066
 7019SOL    HW121956   1.666   5.945   1.129
 7019SOL    HW221957   1.703   5.787   1.118
 7020SOL     OW21958   0.178   6.144   6.078
 7020SOL    HW121959   0.146   6.236   6.058
 7020SOL    HW221960   0.216   6.103   5.995
 7021SOL     OW21961   3.724   6.694   5.514
 7021SOL    HW121962   3.809   6.666   5.559
 7021SOL    HW221963   3.660   6.727   5.583
 7022SOL     OW21964   4.802   5.369   6.712
 7022SOL    HW121965   4.778   5.336   6.803
 7022SOL    HW221966   4.745   5.449   6.689
 7023SOL     OW21967   5.694   3.914   2.781
 7023SOL    HW121968   5.643   3.916   2.696
 7023SOL    HW221969   5.701   3.820   2.814
 7024SOL     OW21970   0.326   5.944   1.522
 7024SOL    HW121971   0.352   5.856   1.481
 7024SOL    HW221972   0.228   5.943   1.541
 7025SOL     OW21973   2.299   0.324   6.816
 7025SOL    HW121974   2.375   0.383   6.787
 7025SOL    HW221975   2.259   0.360   6.900
 7026SOL     OW21976   3.289   1.397   0.987
 7026SOL    HW121977   3.361   1.446   1.036
 7026SOL    HW221978   3.258   1.453   0.909
 7027SOL     OW21979   4.778   6.580   4.237
 7027SOL    HW121980   4.690   6.594   4.283
 7027SOL    HW221981   4.767   6.589   4.138
 7028SOL     OW21982   2.909   0.305   4.342
 7028SOL    HW121983   2.954   0.225   4.380
 7028SOL    HW221984   2.924   0.384   4.401
 7029SOL     OW21985   4.082   1.389   4.793
 7029SOL    HW121986   4.107   1.311   4.738
 7029SOL    HW221987   4.071   1.470   4.735
 7030SOL     OW21988   2.089   3.496   3.700
 7030SOL    HW121989   1.991   3.476   3.705
 7030SOL    HW221990   2.103   3.595   3.705
 7031SOL     OW21991   1.565   0.570   4.625
 7031SOL    HW121992   1.539   0.561   4.721
 7031SOL    HW221993   1.502   0.516   4.569
 7032SOL     OW21994   6.087   1.963   3.558
 7032SOL    HW121995   6.069   2.062   3.556
 7032SOL    HW221996   6.001   1.915   3.573
 7033SOL     OW21997   0.179   0.191   4.574
 7033SOL    HW121998   0.088   0.177   4.612
 7033SOL    HW221999   0.241   0.120   4.607
 7034SOL     OW22000   0.262   5.516   2.795
 7034SOL    HW122001   0.289   5.527   2.699
 7034SOL    HW222002   0.344   5.504   2.851
 7035SOL     OW22003   6.719   4.989   2.215
 7035SOL    HW122004   6.805   5.015   2.258
 7035SOL    HW222005   6.647   5.054   2.242
 7036SOL     OW22006   6.759   4.710   0.641
 7036SOL    HW122007   6.816   4.633   0.669
 7036SOL    HW222008   6.815   4.793   0.638
 7037SOL     OW22009   0.809   0.040   6.779
 7037SOL    HW122010   0.876   0.043   6.853
 7037SOL    HW222011   0.852   0.006   6.696
 7038SOL     OW22012   2.177   3.103   3.994
 7038SOL    HW122013   2.179   3.017   4.046
 7038SOL    HW222014   2.250   3.102   3.926
 7039SOL     OW22015   3.549   2.294   5.954
 7039SOL    HW122016   3.578   2.330   6.043
 7039SOL    HW222017   3.489   2.360   5.909
 7040SOL     OW22018   5.716   2.765   6.757
 7040SOL    HW122019   5.696   2.859   6.786
 7040SOL    HW222020   5.786   2.726   6.817
 7041SOL     OW22021   2.965   1.282   3.154
 7041SOL    HW122022   2.918   1.303   3.068
 7041SOL    HW222023   2.968   1.364   3.211
 7042SOL     OW22024   1.646   0.415   6.395
 7042SOL    HW122025   1.719   0.350   6.415
 7042SOL    HW222026   1.560   0.382   6.435
 7043SOL     OW22027   1.072   2.856   2.638
 7043SOL    HW122028   1.150   2.880   2.696
 7043SOL    HW222029   0.988   2.857   2.693
 7044SOL     OW22030   5.126   5.927   1.953
 7044SOL    HW122031   5.118   5.827   1.962
 7044SOL    HW222032   5.041   5.969   1.983
 7045SOL     OW22033   6.572   4.508   0.570
 7045SOL    HW122034   6.640   4.577   0.598
 7045SOL    HW222035   6.588   4.424   0.622
 7046SOL     OW22036   2.565   1.328   4.075
 7046SOL    HW122037   2.545   1.388   4.153
 7046SOL    HW222038   2.661   1.299   4.080
 7047SOL     OW22039   1.516   1.192   2.551
 7047SOL    HW122040   1.472   1.137   2.621
 7047SOL    HW222041   1.526   1.138   2.467
 7048SOL     OW22042   6.889   5.729   0.691
 7048SOL    HW122043   6.871   5.805   0.754
 7048SOL    HW222044   6.803   5.687   0.664
 7049SOL     OW22045   1.780   0.682   6.831
 7049SOL    HW122046   1.876   0.657   6.818
 7049SOL    HW222047   1.728   0.657   6.749
 7050SOL     OW22048   3.698   3.838   4.614
 7050SOL    HW122049   3.660   3.862   4.703
 7050SOL    HW222050   3.772   3.772   4.625
 7051SOL     OW22051   0.186   6.552   2.970
 7051SOL    HW122052   0.249   6.619   2.931
 7051SOL    HW222053   0.188   6.558   3.070
 7052SOL     OW22054   0.037   0.753   4.095
 7052SOL    HW122055   0.117   0.791   4.142
 7052SOL    HW222056   6.985   0.813   4.110
 7053SOL     OW22057   6.697   4.418   5.826
 7053SOL    HW122058   6.707   4.391   5.731
 7053SOL    HW222059   6.657   4.509   5.831
 7054SOL     OW22060   6.348   0.937   1.628
 7054SOL    HW122061   6.344   0.909   1.532
 7054SOL    HW222062   6.441   0.923   1.662
 7055SOL     OW22063   4.106   1.138   4.685
 7055SOL    HW122064   4.163   1.061   4.713
 7055SOL    HW222065   4.016   1.105   4.658
 7056SOL     OW22066   4.358   5.552   3.756
 7056SOL    HW122067   4.339   5.508   3.668
 7056SOL    HW222068   4.273   5.589   3.794
 7057SOL     OW22069   0.567   6.406   3.438
 7057SOL    HW122070   0.546   6.394   3.341
 7057SOL    HW222071   0.540   6.324   3.488
 7058SOL     OW22072   0.597   4.233   5.123
 7058SOL    HW122073   0.668   4.262   5.187
 7058SOL    HW222074   0.571   4.310   5.065
 7059SOL     OW22075   2.294   0.388   2.769
 7059SOL    HW122076   2.323   0.295   2.794
 7059SOL    HW222077   2.350   0.420   2.693
 7060SOL     OW22078   2.965   0.007   1.367
 7060SOL    HW122079   2.929   0.080   1.426
 7060SOL    HW222080   2.892   6.998   1.309
 7061SOL     OW22081   0.125   1.206   3.489
 7061SOL    HW122082   0.213   1.255   3.494
 7061SOL    HW222083   0.138   1.121   3.440
 7062SOL     OW22084   6.695   1.004   5.558
 7062SOL    HW122085   6.602   1.039   5.574
 7062SOL    HW222086   6.728   0.959   5.641
 7063SOL     OW22087   2.277   0.078   2.120
 7063SOL    HW122088   2.337   7.025   2.108
 7063SOL    HW222089   2.293   0.142   2.045
 7064SOL     OW22090   4.191   2.031   0.829
 7064SOL    HW122091   4.211   1.972   0.751
 7064SOL    HW222092   4.114   2.091   0.806
 7065SOL     OW22093   3.772   3.628   2.168
 7065SOL    HW122094   3.766   3.709   2.226
 7065SOL    HW222095   3.746   3.547   2.221
 7066SOL     OW22096   2.884   5.810   1.100
 7066SOL    HW122097   2.877   5.827   1.198
 7066SOL    HW222098   2.805   5.758   1.069
 7067SOL     OW22099   0.214   3.873   4.412
 7067SOL    HW122100   0.205   3.773   4.410
 7067SOL    HW222101   0.131   3.914   4.373
 7068SOL     OW22102   1.222   0.589   2.690
 7068SOL    HW122103   1.149   0.619   2.752
 7068SOL    HW222104   1.203   0.622   2.598
 7069SOL     OW22105   1.804   4.636   5.462
 7069SOL    HW122106   1.862   4.558   5.485
 7069SOL    HW222107   1.796   4.643   5.362
 7070SOL     OW22108   5.299   5.511   3.993
 7070SOL    HW122109   5.261   5.498   4.085
 7070SOL    HW222110   5.239   5.570   3.940
 7071SOL     OW22111   1.191   6.963   4.934
 7071SOL    HW122112   1.099   6.980   4.898
 7071SOL    HW222113   1.198   7.001   5.026
 7072SOL     OW22114   6.987   6.381   6.674
 7072SOL    HW122115   6.939   6.462   6.707
 7072SOL    HW222116   6.961   6.362   6.579
 7073SOL     OW22117   1.512   1.848   6.824
 7073SOL    HW122118   1.463   1.826   6.740
 7073SOL    HW222119   1.609   1.826   6.813
 7074SOL     OW22120   2.656   1.188   0.673
 7074SOL    HW122121   2.647   1.119   0.602
 7074SOL    HW222122   2.728   1.253   0.648
 7075SOL     OW22123   1.105   5.855   2.752
 7075SOL    HW122124   1.188   5.802   2.735
 7075SOL    HW222125   1.092   5.922   2.679
 7076SOL     OW22126   3.048   2.405   6.306
 7076SOL    HW122127   3.146   2.425   6.311
 7076SOL    HW222128   3.016   2.373   6.395
 7077SOL     OW22129   1.918   5.217   5.950
 7077SOL    HW122130   1.899   5.314   5.938
 7077SOL    HW222131   1.934   5.198   6.047
 7078SOL     OW22132   6.650   0.839   2.582
 7078SOL    HW122133   6.677   0.776   2.655
 7078SOL    HW222134   6.628   0.787   2.500
 7079SOL     OW22135   4.985   5.740   5.640
 7079SOL    HW122136   5.072   5.739   5.690
 7079SOL    HW222137   5.001   5.774   5.547
 7080SOL     OW22138   5.726   6.897   4.287
 7080SOL    HW122139   5.735   6.985   4.240
 7080SOL    HW222140   5.816   6.854   4.294
 7081SOL     OW22141   4.009   1.087   5.481
 7081SOL    HW122142   4.030   1.176   5.440
 7081SOL    HW222143   4.023   1.092   5.580
 7082SOL     OW22144   4.663   1.636   6.269
 7082SOL    HW122145   4.731   1.605   6.203
 7082SOL    HW222146   4.680   1.593   6.358
 7083SOL     OW22147   3.189   6.850   5.881
 7083SOL    HW122148   3.204   6.947   5.862
 7083SOL    HW222149   3.188   6.835   5.980
 7084SOL     OW22150   6.910   6.302   0.439
 7084SOL    HW122151   6.954   6.264   0.358
 7084SOL    HW222152   6.975   6.361   0.487
 7085SOL     OW22153   3.381   2.079   0.844
 7085SOL    HW122154   3.330   1.998   0.873
 7085SOL    HW222155   3.439   2.111   0.919
 7086SOL     OW22156   0.302   1.064   6.233
 7086SOL    HW122157   0.301   1.048   6.332
 7086SOL    HW222158   0.224   1.121   6.208
 7087SOL     OW22159   2.287   2.677   5.120
 7087SOL    HW122160   2.363   2.619   5.149
 7087SOL    HW222161   2.208   2.619   5.099
 7088SOL     OW22162   0.778   1.893   5.982
 7088SOL    HW122163   0.872   1.858   5.986
 7088SOL    HW222164   0.767   1.949   5.900
 7089SOL     OW22165   2.239   1.202   1.116
 7089SOL    HW122166   2.303   1.216   1.191
 7089SOL    HW222167   2.288   1.208   1.029
 7090SOL     OW22168   2.628   2.463   4.894
 7090SOL    HW122169   2.711   2.407   4.890
 7090SOL    HW222170   2.643   2.542   4.953
 7091SOL     OW22171   6.918   6.624   0.756
 7091SOL    HW122172   6.841   6.575   0.798
 7091SOL    HW222173   6.975   6.559   0.707
 7092SOL     OW22174   2.806   3.110   6.920
 7092SOL    HW122175   2.889   3.160   6.897
 7092SOL    HW222176   2.828   3.036   6.984
 7093SOL     OW22177   4.175   3.169   5.950
 7093SOL    HW122178   4.196   3.077   5.982
 7093SOL    HW222179   4.122   3.217   6.020
 7094SOL     OW22180   6.527   0.666   6.144
 7094SOL    HW122181   6.497   0.682   6.238
 7094SOL    HW222182   6.577   0.746   6.111
 7095SOL     OW22183   0.399   4.205   6.697
 7095SOL    HW122184   0.337   4.150   6.754
 7095SOL    HW222185   0.374   4.301   6.704
 7096SOL     OW22186   4.974   0.894   2.881
 7096SOL    HW122187   4.893   0.921   2.933
 7096SOL    HW222188   5.053   0.945   2.914
 7097SOL     OW22189   1.611   0.862   1.924
 7097SOL    HW122190   1.613   0.842   1.826
 7097SOL    HW222191   1.704   0.876   1.957
 7098SOL     OW22192   1.621   0.063   6.009
 7098SOL    HW122193   1.679   0.112   5.945
 7098SOL    HW222194   1.581   7.010   5.963
 7099SOL     OW22195   0.536   1.082   6.104
 7099SOL    HW122196   0.586   1.061   6.187
 7099SOL    HW222197   0.444   1.113   6.127
 7100SOL     OW22198   5.482   2.004   0.805
 7100SOL    HW122199   5.558   1.965   0.858
 7100SOL    HW222200   5.430   2.066   0.864
 7101SOL     OW22201   1.673   0.646   4.235
 7101SOL    HW122202   1.741   0.699   4.185
 7101SOL    HW222203   1.688   0.549   4.219
 7102SOL     OW22204   4.921   3.099   1.017
 7102SOL    HW122205   4.913   3.198   1.000
 7102SOL    HW222206   4.920   3.051   0.929
 7103SOL     OW22207   2.590   6.648   6.510
 7103SOL    HW122208   2.670   6.593   6.534
 7103SOL    HW222209   2.539   6.672   6.592
 7104SOL     OW22210   0.137   2.089   1.684
 7104SOL    HW122211   0.236   2.085   1.678
 7104SOL    HW222212   0.101   1.997   1.703
 7105SOL     OW22213   2.434   4.208   5.337
 7105SOL    HW122214   2.507   4.244   5.395
 7105SOL    HW222215   2.468   4.130   5.285
 7106SOL     OW22216   3.309   2.537   5.311
 7106SOL    HW122217   3.369   2.586   5.248
 7106SOL    HW222218   3.252   2.473   5.259
 7107SOL     OW22219   2.175   0.721   6.888
 7107SOL    HW122220   2.256   0.727   6.947
 7107SOL    HW222221   2.121   0.805   6.898
 7108SOL     OW22222   4.424   6.821   2.479
 7108SOL    HW122223   4.365   6.745   2.505
 7108SOL    HW222224   4.509   6.786   2.441
 7109SOL     OW22225   3.777   6.340   6.285
 7109SOL    HW122226   3.710   6.266   6.289
 7109SOL    HW222227   3.864   6.309   6.323
 7110SOL     OW22228   3.201   5.255   3.196
 7110SOL    HW122229   3.268   5.181   3.202
 7110SOL    HW222230   3.136   5.235   3.123
 7111SOL     OW22231   1.284   2.178   3.956
 7111SOL    HW122232   1.337   2.099   3.926
 7111SOL    HW222233   1.186   2.157   3.950
 7112SOL     OW22234   1.521   6.612   2.425
 7112SOL    HW122235   1.549   6.520   2.401
 7112SOL    HW222236   1.563   6.639   2.511
 7113SOL     OW22237   3.320   3.829   4.958
 7113SOL    HW122238   3.328   3.927   4.945
 7113SOL    HW222239   3.242   3.794   4.907
 7114SOL     OW22240   4.050   0.139   0.812
 7114SOL    HW122241   4.093   0.218   0.768
 7114SOL    HW222242   4.121   0.076   0.844
 7115SOL     OW22243   4.298   1.601   1.486
 7115SOL    HW122244   4.305   1.678   1.421
 7115SOL    HW222245   4.202   1.583   1.506
 7116SOL     OW22246   6.549   3.997   2.973
 7116SOL    HW122247   6.510   3.911   3.006
 7116SOL    HW222248   6.564   4.059   3.050
 7117SOL     OW22249   6.725   6.793   2.216
 7117SOL    HW122250   6.796   6.799   2.146
 7117SOL    HW222251   6.647   6.743   2.179
 7118SOL     OW22252   6.398   2.962   2.366
 7118SOL    HW122253   6.379   2.926   2.274
 7118SOL    HW222254   6.381   3.060   2.367
 7119SOL     OW22255   7.026   2.217   2.877
 7119SOL    HW122256   0.027   2.128   2.913
 7119SOL    HW222257   6.938   2.209   2.830
 7120SOL     OW22258   4.793   6.621   3.094
 7120SOL    HW122259   4.877   6.644   3.046
 7120SOL    HW222260   4.790   6.670   3.182
 7121SOL     OW22261   3.591   6.568   2.199
 7121SOL    HW122262   3.675   6.616   2.174
 7121SOL    HW222263   3.554   6.520   2.120
 7122SOL     OW22264   6.632   6.950   6.741
 7122SOL    HW122265   6.686   6.909   6.666
 7122SOL    HW222266   6.672   0.011   6.767
 7123SOL     OW22267   2.541   5.443   0.350
 7123SOL    HW122268   2.460   5.414   0.299
 7123SOL    HW222269   2.601   5.495   0.289
 7124SOL     OW22270   0.806   5.417   1.553
 7124SOL    HW122271   0.818   5.483   1.480
 7124SOL    HW222272   0.801   5.465   1.641
 7125SOL     OW22273   6.953   6.488   2.626
 7125SOL    HW122274   6.928   6.561   2.562
 7125SOL    HW222275   0.024   6.495   2.649
 7126SOL     OW22276   1.293   4.562   0.284
 7126SOL    HW122277   1.341   4.501   0.346
 7126SOL    HW222278   1.194   4.552   0.297
 7127SOL     OW22279   3.246   0.381   4.410
 7127SOL    HW122280   3.258   0.347   4.317
 7127SOL    HW222281   3.158   0.429   4.417
 7128SOL     OW22282   3.147   4.606   1.603
 7128SOL    HW122283   3.111   4.521   1.642
 7128SOL    HW222284   3.153   4.596   1.503
 7129SOL     OW22285   2.665   1.635   1.430
 7129SOL    HW122286   2.610   1.718   1.422
 7129SOL    HW222287   2.608   1.559   1.459
 7130SOL     OW22288   2.650   6.465   2.021
 7130SOL    HW122289   2.650   6.408   1.939
 7130SOL    HW222290   2.693   6.415   2.097
 7131SOL     OW22291   2.902   1.233   3.771
 7131SOL    HW122292   2.825   1.241   3.709
 7131SOL    HW222293   2.871   1.200   3.860
 7132SOL     OW22294   3.396   3.981   3.437
 7132SOL    HW122295   3.465   3.959   3.367
 7132SOL    HW222296   3.308   3.995   3.393
 7133SOL     OW22297   5.315   4.710   2.160
 7133SOL    HW122298   5.308   4.621   2.205
 7133SOL    HW222299   5.366   4.701   2.075
 7134SOL     OW22300   5.409   4.583   3.289
 7134SOL    HW122301   5.454   4.666   3.321
 7134SOL    HW222302   5.379   4.529   3.367
 7135SOL     OW22303   1.211   2.118   5.356
 7135SOL    HW122304   1.204   2.213   5.324
 7135SOL    HW222305   1.253   2.117   5.446
 7136SOL     OW22306   2.338   2.038   6.580
 7136SOL    HW122307   2.431   2.059   6.610
 7136SOL    HW222308   2.292   1.983   6.650
 7137SOL     OW22309   3.835   1.507   4.949
 7137SOL    HW122310   3.780   1.429   4.921
 7137SOL    HW222311   3.914   1.516   4.888
 7138SOL     OW22312   2.325   3.946   6.654
 7138SOL    HW122313   2.226   3.959   6.665
 7138SOL    HW222314   2.353   3.979   6.564
 7139SOL     OW22315   3.135   2.036   0.121
 7139SOL    HW122316   3.167   2.083   0.203
 7139SOL    HW222317   3.035   2.032   0.121
 7140SOL     OW22318   6.232   3.731   5.320
 7140SOL    HW122319   6.177   3.688   5.392
 7140SOL    HW222320   6.329   3.720   5.341
 7141SOL     OW22321   1.834   6.969   1.025
 7141SOL    HW122322   1.926   6.930   1.019
 7141SOL    HW222323   1.767   6.898   1.003
 7142SOL     OW22324   4.153   7.011   3.973
 7142SOL    HW122325   4.064   0.029   3.961
 7142SOL    HW222326   4.180   6.965   3.889
 7143SOL     OW22327   1.947   3.050   3.810
 7143SOL    HW122328   1.968   3.086   3.900
 7143SOL    HW222329   1.948   2.950   3.813
 7144SOL     OW22330   1.137   3.305   3.569
 7144SOL    HW122331   1.212   3.287   3.632
 7144SOL    HW222332   1.171   3.303   3.475
 7145SOL     OW22333   4.403   6.599   6.247
 7145SOL    HW122334   4.426   6.697   6.244
 7145SOL    HW222335   4.469   6.551   6.305
 7146SOL     OW22336   3.092   4.704   1.281
 7146SOL    HW122337   3.045   4.756   1.352
 7146SOL    HW222338   3.035   4.700   1.199
 7147SOL     OW22339   0.698   0.888   3.913
 7147SOL    HW122340   0.717   0.907   4.009
 7147SOL    HW222341   0.719   0.793   3.893
 7148SOL     OW22342   0.652   1.909   0.548
 7148SOL    HW122343   0.683   1.893   0.642
 7148SOL    HW222344   0.731   1.920   0.488
 7149SOL     OW22345   6.687   0.729   3.747
 7149SOL    HW122346   6.773   0.756   3.704
 7149SOL    HW222347   6.612   0.743   3.682
 7150SOL     OW22348   5.619   4.142   0.051
 7150SOL    HW122349   5.588   4.208   7.009
 7150SOL    HW222350   5.624   4.186   0.141
 7151SOL     OW22351   1.736   6.074   1.308
 7151SOL    HW122352   1.641   6.104   1.303
 7151SOL    HW222353   1.759   6.050   1.402
 7152SOL     OW22354   1.601   2.391   3.936
 7152SOL    HW122355   1.523   2.449   3.915
 7152SOL    HW222356   1.656   2.434   4.008
 7153SOL     OW22357   3.416   1.652   3.115
 7153SOL    HW122358   3.461   1.703   3.188
 7153SOL    HW222359   3.485   1.602   3.062
 7154SOL     OW22360   4.645   6.222   4.388
 7154SOL    HW122361   4.695   6.260   4.310
 7154SOL    HW222362   4.599   6.138   4.361
 7155SOL     OW22363   2.060   0.493   2.724
 7155SOL    HW122364   1.983   0.431   2.707
 7155SOL    HW222365   2.143   0.440   2.742
 7156SOL     OW22366   1.131   5.732   4.763
 7156SOL    HW122367   1.211   5.723   4.822
 7156SOL    HW222368   1.056   5.676   4.801
 7157SOL     OW22369   5.432   4.280   1.121
 7157SOL    HW122370   5.407   4.347   1.192
 7157SOL    HW222371   5.436   4.326   1.032
 7158SOL     OW22372   4.969   0.110   4.463
 7158SOL    HW122373   5.065   0.100   4.489
 7158SOL    HW222374   4.963   0.142   4.369
 7159SOL     OW22375   1.153   5.218   0.152
 7159SOL    HW122376   1.247   5.194   0.174
 7159SOL    HW222377   1.100   5.228   0.236
 7160SOL     OW22378   6.380   0.816   2.348
 7160SOL    HW122379   6.311   0.832   2.419
 7160SOL    HW222380   6.346   0.849   2.260
 7161SOL     OW22381   3.503   4.059   4.178
 7161SOL    HW122382   3.597   4.032   4.159
 7161SOL    HW222383   3.498   4.106   4.266
 7162SOL     OW22384   2.813   4.888   3.576
 7162SOL    HW122385   2.746   4.815   3.591
 7162SOL    HW222386   2.849   4.919   3.664
 7163SOL     OW22387   2.637   6.555   3.238
 7163SOL    HW122388   2.614   6.549   3.335
 7163SOL    HW222389   2.716   6.616   3.226
 7164SOL     OW22390   2.711   2.040   3.534
 7164SOL    HW122391   2.763   1.969   3.487
 7164SOL    HW222392   2.620   2.005   3.557
 7165SOL     OW22393   5.105   6.934   2.193
 7165SOL    HW122394   5.078   6.861   2.131
 7165SOL    HW222395   5.026   6.991   2.215
 7166SOL     OW22396   5.034   5.067   1.645
 7166SOL    HW122397   5.011   5.164   1.646
 7166SOL    HW222398   4.977   5.020   1.578
 7167SOL     OW22399   5.194   3.057   5.624
 7167SOL    HW122400   5.257   3.123   5.665
 7167SOL    HW222401   5.103   3.097   5.615
 7168SOL     OW22402   0.763   1.862   4.954
 7168SOL    HW122403   0.673   1.895   4.925
 7168SOL    HW222404   0.834   1.900   4.896
 7169SOL     OW22405   1.660   2.905   6.766
 7169SOL    HW122406   1.672   2.823   6.822
 7169SOL    HW222407   1.737   2.967   6.782
 7170SOL     OW22408   6.295   5.193   4.006
 7170SOL    HW122409   6.322   5.290   4.006
 7170SOL    HW222410   6.293   5.160   4.101
 7171SOL     OW22411   4.309   2.516   5.900
 7171SOL    HW122412   4.245   2.507   5.976
 7171SOL    HW222413   4.379   2.445   5.907
 7172SOL     OW22414   1.025   6.824   0.954
 7172SOL    HW122415   1.096   6.764   0.991
 7172SOL    HW222416   0.936   6.798   0.991
 7173SOL     OW22417   6.386   6.425   5.402
 7173SOL    HW122418   6.418   6.342   5.449
 7173SOL    HW222419   6.326   6.477   5.463
 7174SOL     OW22420   0.625   5.435   0.035
 7174SOL    HW122421   0.582   5.397   6.980
 7174SOL    HW222422   0.641   5.533   0.022
 7175SOL     OW22423   6.239   2.745   5.312
 7175SOL    HW122424   6.336   2.766   5.305
 7175SOL    HW222425   6.187   2.814   5.261
 7176SOL     OW22426   6.573   3.595   1.427
 7176SOL    HW122427   6.576   3.509   1.376
 7176SOL    HW222428   6.481   3.634   1.421
 7177SOL     OW22429   0.827   5.609   2.582
 7177SOL    HW122430   0.899   5.544   2.607
 7177SOL    HW222431   0.867   5.681   2.524
 7178SOL     OW22432   0.018   2.021   6.327
 7178SOL    HW122433   0.039   1.930   6.291
 7178SOL    HW222434   7.016   2.013   6.422
 7179SOL     OW22435   2.131   4.378   6.229
 7179SOL    HW122436   2.208   4.434   6.198
 7179SOL    HW222437   2.048   4.406   6.180
 7180SOL     OW22438   0.962   0.002   3.047
 7180SOL    HW122439   0.955   7.026   3.146
 7180SOL    HW222440   1.055   7.001   3.020
 7181SOL     OW22441   5.695   6.820   2.827
 7181SOL    HW122442   5.623   6.793   2.764
 7181SOL    HW222443   5.661   6.816   2.921
 7182SOL     OW22444   3.503   3.597   5.713
 7182SOL    HW122445   3.523   3.533   5.787
 7182SOL    HW222446   3.432   3.559   5.654
 7183SOL     OW22447   1.341   4.726   3.102
 7183SOL    HW122448   1.299   4.641   3.133
 7183SOL    HW222449   1.417   4.750   3.161
 7184SOL     OW22450   2.703   6.186   2.721
 7184SOL    HW122451   2.775   6.182   2.652
 7184SOL    HW222452   2.622   6.231   2.683
 7185SOL     OW22453   4.164   2.325   6.730
 7185SOL    HW122454   4.231   2.298   6.661
 7185SOL    HW222455   4.206   2.389   6.794
 7186SOL     OW22456   0.338   0.027   4.033
 7186SOL    HW122457   0.318   0.124   4.019
 7186SOL    HW222458   0.279   7.018   4.105
 7187SOL     OW22459   2.165   5.501   1.371
 7187SOL    HW122460   2.086   5.499   1.432
 7187SOL    HW222461   2.170   5.415   1.321
 7188SOL     OW22462   4.964   0.352   1.535
 7188SOL    HW122463   4.941   0.270   1.482
 7188SOL    HW222464   4.898   0.424   1.515
 7189SOL     OW22465   0.053   0.311   4.900
 7189SOL    HW122466   0.120   0.379   4.929
 7189SOL    HW222467   0.017   0.336   4.810
 7190SOL     OW22468   4.661   4.873   3.251
 7190SOL    HW122469   4.659   4.954   3.310
 7190SOL    HW222470   4.575   4.867   3.200
 7191SOL     OW22471   0.694   2.865   1.752
 7191SOL    HW122472   0.676   2.932   1.824
 7191SOL    HW222473   0.767   2.898   1.693
 7192SOL     OW22474   4.232   5.615   6.409
 7192SOL    HW122475   4.265   5.709   6.415
 7192SOL    HW222476   4.137   5.611   6.441
 7193SOL     OW22477   5.632   1.750   3.580
 7193SOL    HW122478   5.699   1.791   3.642
 7193SOL    HW222479   5.629   1.803   3.495
 7194SOL     OW22480   3.356   1.206   1.373
 7194SOL    HW122481   3.438   1.224   1.318
 7194SOL    HW222482   3.277   1.248   1.329
 7195SOL     OW22483   0.335   6.153   1.943
 7195SOL    HW122484   0.257   6.095   1.967
 7195SOL    HW222485   0.358   6.212   2.021
 7196SOL     OW22486   3.694   2.635   1.702
 7196SOL    HW122487   3.754   2.555   1.704
 7196SOL    HW222488   3.618   2.619   1.640
 7197SOL     OW22489   1.165   1.863   4.457
 7197SOL    HW122490   1.212   1.927   4.396
 7197SOL    HW222491   1.191   1.769   4.433
 7198SOL     OW22492   0.568   6.488   6.323
 7198SOL    HW122493   0.524   6.410   6.367
 7198SOL    HW222494   0.627   6.534   6.389
 7199SOL     OW22495   5.671   6.745   3.121
 7199SOL    HW122496   5.587   6.772   3.168
 7199SOL    HW222497   5.739   6.818   3.129
 7200SOL     OW22498   1.723   1.983   1.873
 7200SOL    HW122499   1.757   1.889   1.869
 7200SOL    HW222500   1.764   2.030   1.950
 7201SOL     OW22501   2.234   5.171   3.254
 7201SOL    HW122502   2.197   5.121   3.176
 7201SOL    HW222503   2.159   5.199   3.314
 7202SOL     OW22504   3.467   0.222   5.487
 7202SOL    HW122505   3.419   0.287   5.546
 7202SOL    HW222506   3.540   0.177   5.540
 7203SOL     OW22507   5.792   0.296   6.695
 7203SOL    HW122508   5.772   0.313   6.791
 7203SOL    HW222509   5.890   0.277   6.684
 7204SOL     OW22510   6.316   1.792   2.568
 7204SOL    HW122511   6.385   1.863   2.557
 7204SOL    HW222512   6.263   1.783   2.484
 7205SOL     OW22513   1.691   4.886   1.657
 7205SOL    HW122514   1.626   4.911   1.729
 7205SOL    HW222515   1.661   4.802   1.613
 7206SOL     OW22516   5.479   1.537   1.609
 7206SOL    HW122517   5.420   1.479   1.665
 7206SOL    HW222518   5.542   1.587   1.669
 7207SOL     OW22519   3.936   6.658   2.277
 7207SOL    HW122520   3.950   6.752   2.246
 7207SOL    HW222521   4.000   6.597   2.229
 7208SOL     OW22522   3.066   0.150   4.603
 7208SOL    HW122523   3.073   0.244   4.639
 7208SOL    HW222524   3.030   0.090   4.674
 7209SOL     OW22525   4.118   3.488   4.628
 7209SOL    HW122526   4.118   3.483   4.728
 7209SOL    HW222527   4.050   3.555   4.598
 7210SOL     OW22528   4.720   0.686   4.116
 7210SOL    HW122529   4.799   0.746   4.109
 7210SOL    HW222530   4.748   0.591   4.101
 7211SOL     OW22531   1.640   4.882   2.605
 7211SOL    HW122532   1.727   4.879   2.654
 7211SOL    HW222533   1.597   4.792   2.609
 7212SOL     OW22534   4.996   6.782   3.658
 7212SOL    HW122535   5.039   6.768   3.748
 7212SOL    HW222536   4.996   6.879   3.636
 7213SOL     OW22537   5.727   6.803   5.467
 7213SOL    HW122538   5.691   6.744   5.395
 7213SOL    HW222539   5.771   6.748   5.537
 7214SOL     OW22540   0.397   5.124   5.319
 7214SOL    HW122541   0.477   5.098   5.373
 7214SOL    HW222542   0.354   5.205   5.359
 7215SOL     OW22543   0.666   3.293   2.898
 7215SOL    HW122544   0.631   3.323   2.809
 7215SOL    HW222545   0.723   3.213   2.885
 7216SOL     OW22546   2.271   1.614   1.601
 7216SOL    HW122547   2.328   1.673   1.658
 7216SOL    HW222548   2.195   1.579   1.655
 7217SOL     OW22549   1.359   3.253   2.052
 7217SOL    HW122550   1.334   3.298   2.137
 7217SOL    HW222551   1.315   3.163   2.048
 7218SOL     OW22552   6.666   2.152   5.803
 7218SOL    HW122553   6.714   2.154   5.891
 7218SOL    HW222554   6.717   2.206   5.736
 7219SOL     OW22555   3.607   0.343   1.206
 7219SOL    HW122556   3.644   0.255   1.176
 7219SOL    HW222557   3.507   0.337   1.211
 7220SOL     OW22558   0.240   0.959   3.384
 7220SOL    HW122559   0.194   0.875   3.356
 7220SOL    HW222560   0.330   0.937   3.422
 7221SOL     OW22561   5.771   4.982   5.456
 7221SOL    HW122562   5.756   5.030   5.543
 7221SOL    HW222563   5.867   4.992   5.429
 7222SOL     OW22564   6.101   6.494   3.356
 7222SOL    HW122565   6.175   6.558   3.378
 7222SOL    HW222566   6.036   6.538   3.296
 7223SOL     OW22567   4.387   1.101   5.161
 7223SOL    HW122568   4.428   1.057   5.081
 7223SOL    HW222569   4.294   1.130   5.139
 7224SOL     OW22570   5.359   1.017   4.743
 7224SOL    HW122571   5.382   0.958   4.666
 7224SOL    HW222572   5.323   1.104   4.709
 7225SOL     OW22573   2.256   0.459   0.825
 7225SOL    HW122574   2.185   0.455   0.755
 7225SOL    HW222575   2.297   0.551   0.826
 7226SOL     OW22576   5.611   6.818   6.412
 7226SOL    HW122577   5.613   6.881   6.334
 7226SOL    HW222578   5.684   6.842   6.476
 7227SOL     OW22579   0.029   2.273   6.250
 7227SOL    HW122580   6.995   2.321   6.315
 7227SOL    HW222581   0.022   2.174   6.266
 7228SOL     OW22582   2.254   0.917   2.879
 7228SOL    HW122583   2.160   0.885   2.883
 7228SOL    HW222584   2.292   0.921   2.971
 7229SOL     OW22585   0.188   0.246   3.681
 7229SOL    HW122586   0.227   0.284   3.765
 7229SOL    HW222587   0.261   0.210   3.624
 7230SOL     OW22588   6.282   5.402   1.683
 7230SOL    HW122589   6.287   5.499   1.706
 7230SOL    HW222590   6.282   5.391   1.584
 7231SOL     OW22591   5.893   1.038   6.539
 7231SOL    HW122592   5.923   0.990   6.457
 7231SOL    HW222593   5.971   1.081   6.583
 7232SOL     OW22594   3.761   4.161   0.806
 7232SOL    HW122595   3.760   4.125   0.713
 7232SOL    HW222596   3.838   4.122   0.857
 7233SOL     OW22597   0.520   2.336   6.045
 7233SOL    HW122598   0.562   2.332   5.954
 7233SOL    HW222599   0.590   2.361   6.113
 7234SOL     OW22600   5.293   1.626   2.928
 7234SOL    HW122601   5.231   1.698   2.961
 7234SOL    HW222602   5.257   1.590   2.842
 7235SOL     OW22603   6.123   3.075   4.515
 7235SOL    HW122604   6.049   3.113   4.460
 7235SOL    HW222605   6.210   3.115   4.487
 7236SOL     OW22606   2.216   1.413   3.377
 7236SOL    HW122607   2.236   1.489   3.316
 7236SOL    HW222608   2.211   1.328   3.323
 7237SOL     OW22609   6.031   5.318   5.105
 7237SOL    HW122610   6.025   5.317   5.205
 7237SOL    HW222611   5.955   5.265   5.067
 7238SOL     OW22612   1.126   1.022   1.674
 7238SOL    HW122613   1.125   1.112   1.718
 7238SOL    HW222614   1.062   1.021   1.598
 7239SOL     OW22615   4.573   1.133   2.304
 7239SOL    HW122616   4.619   1.134   2.215
 7239SOL    HW222617   4.626   1.188   2.369
 7240SOL     OW22618   3.056   3.274   1.505
 7240SOL    HW122619   3.081   3.195   1.449
 7240SOL    HW222620   3.134   3.335   1.513
 7241SOL     OW22621   5.080   6.825   4.658
 7241SOL    HW122622   5.174   6.850   4.634
 7241SOL    HW222623   5.076   6.728   4.681
 7242SOL     OW22624   5.640   4.864   0.682
 7242SOL    HW122625   5.590   4.816   0.754
 7242SOL    HW222626   5.606   4.835   0.593
 7243SOL     OW22627   0.643   5.739   0.469
 7243SOL    HW122628   0.574   5.673   0.497
 7243SOL    HW222629   0.706   5.695   0.405
 7244SOL     OW22630   5.993   1.929   0.825
 7244SOL    HW122631   5.971   2.020   0.791
 7244SOL    HW222632   6.048   1.937   0.909
 7245SOL     OW22633   6.638   1.786   4.351
 7245SOL    HW122634   6.736   1.797   4.332
 7245SOL    HW222635   6.616   1.832   4.437
 7246SOL     OW22636   1.530   5.373   5.298
 7246SOL    HW122637   1.553   5.288   5.252
 7246SOL    HW222638   1.607   5.436   5.291
 7247SOL     OW22639   3.998   5.618   3.368
 7247SOL    HW122640   3.992   5.535   3.425
 7247SOL    HW222641   3.908   5.661   3.363
 7248SOL     OW22642   3.129   0.826   4.659
 7248SOL    HW122643   3.045   0.834   4.605
 7248SOL    HW222644   3.110   0.778   4.744
 7249SOL     OW22645   5.242   4.030   5.868
 7249SOL    HW122646   5.231   4.086   5.787
 7249SOL    HW222647   5.290   4.082   5.939
 7250SOL     OW22648   3.145   3.382   0.449
 7250SOL    HW122649   3.160   3.469   0.404
 7250SOL    HW222650   3.166   3.307   0.386
 7251SOL     OW22651   5.620   1.244   4.716
 7251SOL    HW122652   5.654   1.174   4.779
 7251SOL    HW222653   5.537   1.286   4.754
 7252SOL     OW22654   4.247   3.769   5.212
 7252SOL    HW122655   4.333   3.726   5.238
 7252SOL    HW222656   4.214   3.729   5.126
 7253SOL     OW22657   5.319   4.868   0.939
 7253SOL    HW122658   5.258   4.920   0.881
 7253SOL    HW222659   5.337   4.918   1.024
 7254SOL     OW22660   5.491   6.670   5.315
 7254SOL    HW122661   5.463   6.626   5.230
 7254SOL    HW222662   5.526   6.601   5.379
 7255SOL     OW22663   4.048   3.535   2.154
 7255SOL    HW122664   4.064   3.594   2.233
 7255SOL    HW222665   3.951   3.538   2.129
 7256SOL     OW22666   3.864   4.838   3.849
 7256SOL    HW122667   3.888   4.933   3.827
 7256SOL    HW222668   3.765   4.826   3.841
 7257SOL     OW22669   6.219   3.996   3.080
 7257SOL    HW122670   6.225   4.080   3.026
 7257SOL    HW222671   6.139   3.944   3.050
 7258SOL     OW22672   2.327   0.591   5.770
 7258SOL    HW122673   2.341   0.572   5.867
 7258SOL    HW222674   2.341   0.506   5.718
 7259SOL     OW22675   2.412   5.262   6.288
 7259SOL    HW122676   2.351   5.233   6.214
 7259SOL    HW222677   2.505   5.229   6.269
 7260SOL     OW22678   4.693   1.528   2.656
 7260SOL    HW122679   4.659   1.585   2.582
 7260SOL    HW222680   4.727   1.586   2.730
 7261SOL     OW22681   1.658   4.727   1.097
 7261SOL    HW122682   1.594   4.765   1.164
 7261SOL    HW222683   1.656   4.627   1.100
 7262SOL     OW22684   5.972   0.982   5.515
 7262SOL    HW122685   5.992   1.048   5.588
 7262SOL    HW222686   6.048   0.979   5.451
 7263SOL     OW22687   5.352   6.051   1.785
 7263SOL    HW122688   5.408   6.101   1.852
 7263SOL    HW222689   5.272   6.012   1.831
 7264SOL     OW22690   1.618   6.992   4.701
 7264SOL    HW122691   1.559   6.939   4.640
 7264SOL    HW222692   1.563   0.003   4.776
 7265SOL     OW22693   4.301   3.403   6.173
 7265SOL    HW122694   4.345   3.339   6.236
 7265SOL    HW222695   4.348   3.399   6.084
 7266SOL     OW22696   3.933   1.720   2.019
 7266SOL    HW122697   3.972   1.810   2.041
 7266SOL    HW222698   3.914   1.715   1.921
 7267SOL     OW22699   6.529   3.095   4.738
 7267SOL    HW122700   6.608   3.106   4.798
 7267SOL    HW222701   6.467   3.173   4.750
 7268SOL     OW22702   3.751   0.565   0.190
 7268SOL    HW122703   3.727   0.491   0.127
 7268SOL    HW222704   3.839   0.545   0.233
 7269SOL     OW22705   1.113   7.018   1.723
 7269SOL    HW122706   1.123   0.008   1.625
 7269SOL    HW222707   1.179   0.048   1.773
 7270SOL     OW22708   3.159   1.455   2.264
 7270SOL    HW122709   3.090   1.407   2.319
 7270SOL    HW222710   3.123   1.544   2.236
 7271SOL     OW22711   6.321   5.151   3.657
 7271SOL    HW122712   6.249   5.171   3.589
 7271SOL    HW222713   6.312   5.056   3.688
 7272SOL     OW22714   6.755   1.932   1.019
 7272SOL    HW122715   6.673   1.889   1.057
 7272SOL    HW222716   6.729   2.016   0.971
 7273SOL     OW22717   5.342   5.754   5.400
 7273SOL    HW122718   5.379   5.742   5.308
 7273SOL    HW222719   5.406   5.807   5.455
 7274SOL     OW22720   6.076   4.771   4.018
 7274SOL    HW122721   6.035   4.717   3.945
 7274SOL    HW222722   6.089   4.865   3.987
 7275SOL     OW22723   5.256   6.344   1.425
 7275SOL    HW122724   5.166   6.370   1.460
 7275SOL    HW222725   5.325   6.409   1.457
 7276SOL     OW22726   2.926   2.192   3.927
 7276SOL    HW122727   3.021   2.210   3.953
 7276SOL    HW222728   2.865   2.248   3.982
 7277SOL     OW22729   6.060   1.284   3.949
 7277SOL    HW122730   6.074   1.295   4.047
 7277SOL    HW222731   5.971   1.321   3.923
 7278SOL     OW22732   2.600   2.095   4.009
 7278SOL    HW122733   2.687   2.131   4.043
 7278SOL    HW222734   2.532   2.169   4.005
 7279SOL     OW22735   4.039   3.694   1.246
 7279SOL    HW122736   3.981   3.613   1.245
 7279SOL    HW222737   4.097   3.693   1.327
 7280SOL     OW22738   6.567   1.981   5.617
 7280SOL    HW122739   6.557   2.048   5.544
 7280SOL    HW222740   6.587   2.028   5.703
 7281SOL     OW22741   3.952   6.406   2.144
 7281SOL    HW122742   3.978   6.310   2.145
 7281SOL    HW222743   3.865   6.417   2.097
 7282SOL     OW22744   0.064   3.507   1.507
 7282SOL    HW122745   0.006   3.562   1.447
 7282SOL    HW222746   0.139   3.563   1.543
 7283SOL     OW22747   3.719   6.075   2.782
 7283SOL    HW122748   3.731   6.148   2.849
 7283SOL    HW222749   3.742   5.987   2.823
 7284SOL     OW22750   0.681   1.114   2.804
 7284SOL    HW122751   0.737   1.033   2.823
 7284SOL    HW222752   0.729   1.196   2.835
 7285SOL     OW22753   5.103   2.937   2.251
 7285SOL    HW122754   5.139   3.004   2.186
 7285SOL    HW222755   5.178   2.903   2.309
 7286SOL     OW22756   6.301   1.431   3.899
 7286SOL    HW122757   6.323   1.498   3.828
 7286SOL    HW222758   6.202   1.412   3.898
 7287SOL     OW22759   3.570   0.794   3.688
 7287SOL    HW122760   3.538   0.770   3.779
 7287SOL    HW222761   3.519   0.873   3.654
 7288SOL     OW22762   3.685   1.659   2.117
 7288SOL    HW122763   3.632   1.689   2.037
 7288SOL    HW222764   3.782   1.674   2.099
 7289SOL     OW22765   6.062   2.640   2.470
 7289SOL    HW122766   6.086   2.737   2.464
 7289SOL    HW222767   6.117   2.597   2.541
 7290SOL     OW22768   4.008   1.630   4.684
 7290SOL    HW122769   3.981   1.724   4.704
 7290SOL    HW222770   3.972   1.604   4.595
 7291SOL     OW22771   1.715   1.349   0.615
 7291SOL    HW122772   1.625   1.348   0.658
 7291SOL    HW222773   1.705   1.363   0.516
 7292SOL     OW22774   3.081   0.769   2.860
 7292SOL    HW122775   3.137   0.778   2.942
 7292SOL    HW222776   3.097   0.846   2.799
 7293SOL     OW22777   6.492   1.223   3.917
 7293SOL    HW122778   6.419   1.289   3.898
 7293SOL    HW222779   6.451   1.138   3.953
 7294SOL     OW22780   3.883   0.270   2.766
 7294SOL    HW122781   3.861   0.366   2.748
 7294SOL    HW222782   3.869   0.217   2.683
 7295SOL     OW22783   5.258   3.780   1.125
 7295SOL    HW122784   5.179   3.771   1.065
 7295SOL    HW222785   5.241   3.734   1.211
 7296SOL     OW22786   3.688   6.193   1.959
 7296SOL    HW122787   3.756   6.225   1.892
 7296SOL    HW222788   3.688   6.093   1.961
 7297SOL     OW22789   4.011   6.708   0.208
 7297SOL    HW122790   3.999   6.617   0.167
 7297SOL    HW222791   3.980   6.706   0.303
 7298SOL     OW22792   4.321   5.494   1.383
 7298SOL    HW122793   4.265   5.433   1.328
 7298SOL    HW222794   4.302   5.589   1.358
 7299SOL     OW22795   0.318   3.693   5.647
 7299SOL    HW122796   0.294   3.786   5.674
 7299SOL    HW222797   0.315   3.686   5.547
 7300SOL     OW22798   0.796   4.370   2.484
 7300SOL    HW122799   0.782   4.430   2.405
 7300SOL    HW222800   0.720   4.380   2.548
 7301SOL     OW22801   4.410   2.127   6.793
 7301SOL    HW122802   4.437   2.206   6.848
 7301SOL    HW222803   4.417   2.150   6.696
 7302SOL     OW22804   5.176   2.367   6.795
 7302SOL    HW122805   5.201   2.453   6.751
 7302SOL    HW222806   5.170   2.380   6.894
 7303SOL     OW22807   2.826   1.976   1.631
 7303SOL    HW122808   2.889   2.021   1.567
 7303SOL    HW222809   2.747   2.035   1.646
 7304SOL     OW22810   2.130   6.330   0.611
 7304SOL    HW122811   2.201   6.364   0.549
 7304SOL    HW222812   2.168   6.323   0.703
 7305SOL     OW22813   6.270   0.338   6.300
 7305SOL    HW122814   6.313   0.345   6.210
 7305SOL    HW222815   6.271   0.428   6.345
 7306SOL     OW22816   1.189   3.225   1.393
 7306SOL    HW122817   1.240   3.257   1.473
 7306SOL    HW222818   1.091   3.223   1.415
 7307SOL     OW22819   2.927   0.709   2.086
 7307SOL    HW122820   2.994   0.747   2.149
 7307SOL    HW222821   2.971   0.690   1.998
 7308SOL     OW22822   3.607   1.250   3.447
 7308SOL    HW122823   3.670   1.231   3.373
 7308SOL    HW222824   3.565   1.165   3.478
 7309SOL     OW22825   2.155   5.545   3.812
 7309SOL    HW122826   2.248   5.574   3.788
 7309SOL    HW222827   2.092   5.621   3.795
 7310SOL     OW22828   2.456   2.918   0.223
 7310SOL    HW122829   2.497   2.912   0.132
 7310SOL    HW222830   2.372   2.972   0.218
 7311SOL     OW22831   0.112   6.325   5.854
 7311SOL    HW122832   0.049   6.301   5.780
 7311SOL    HW222833   0.114   6.424   5.867
 7312SOL     OW22834   6.284   2.199   4.754
 7312SOL    HW122835   6.274   2.134   4.830
 7312SOL    HW222836   6.221   2.175   4.681
 7313SOL     OW22837   3.287   1.030   2.666
 7313SOL    HW122838   3.336   1.103   2.618
 7313SOL    HW222839   3.343   0.947   2.667
 7314SOL     OW22840   2.181   5.016   5.576
 7314SOL    HW122841   2.135   4.974   5.654
 7314SOL    HW222842   2.280   5.013   5.590
 7315SOL     OW22843   3.080   4.937   2.441
 7315SOL    HW122844   3.067   4.970   2.347
 7315SOL    HW222845   3.160   4.980   2.481
 7316SOL     OW22846   3.717   1.445   1.724
 7316SOL    HW122847   3.701   1.348   1.710
 7316SOL    HW222848   3.633   1.496   1.707
 7317SOL     OW22849   4.730   1.940   0.845
 7317SOL    HW122850   4.763   1.948   0.750
 7317SOL    HW222851   4.784   1.871   0.893
 7318SOL     OW22852   5.095   0.018   0.884
 7318SOL    HW122853   5.186   0.053   0.863
 7318SOL    HW222854   5.081   0.020   0.983
 7319SOL     OW22855   5.386   6.185   6.681
 7319SOL    HW122856   5.287   6.197   6.689
 7319SOL    HW222857   5.428   6.271   6.651
 7320SOL     OW22858   0.246   2.713   0.288
 7320SOL    HW122859   0.327   2.661   0.261
 7320SOL    HW222860   0.267   2.811   0.288
 7321SOL     OW22861   2.176   2.202   6.007
 7321SOL    HW122862   2.194   2.210   5.909
 7321SOL    HW222863   2.254   2.238   6.058
 7322SOL     OW22864   1.337   2.531   3.918
 7322SOL    HW122865   1.318   2.433   3.907
 7322SOL    HW222866   1.322   2.556   4.014
 7323SOL     OW22867   1.238   2.336   0.699
 7323SOL    HW122868   1.181   2.405   0.655
 7323SOL    HW222869   1.227   2.341   0.798
 7324SOL     OW22870   5.053   4.075   4.234
 7324SOL    HW122871   5.114   4.110   4.305
 7324SOL    HW222872   4.964   4.054   4.274
 7325SOL     OW22873   3.786   1.653   6.118
 7325SOL    HW122874   3.771   1.644   6.020
 7325SOL    HW222875   3.773   1.749   6.145
 7326SOL     OW22876   3.938   6.737   0.465
 7326SOL    HW122877   3.949   6.836   0.467
 7326SOL    HW222878   3.854   6.711   0.514
 7327SOL     OW22879   1.935   4.421   3.501
 7327SOL    HW122880   1.926   4.381   3.410
 7327SOL    HW222881   2.013   4.483   3.503
 7328SOL     OW22882   4.737   5.099   6.102
 7328SOL    HW122883   4.805   5.143   6.160
 7328SOL    HW222884   4.768   5.101   6.007
 7329SOL     OW22885   2.571   3.674   0.961
 7329SOL    HW122886   2.618   3.687   1.048
 7329SOL    HW222887   2.621   3.607   0.906
 7330SOL     OW22888   2.676   3.202   0.900
 7330SOL    HW122889   2.653   3.109   0.928
 7330SOL    HW222890   2.776   3.210   0.890
 7331SOL     OW22891   5.103   2.205   2.561
 7331SOL    HW122892   5.093   2.130   2.626
 7331SOL    HW222893   5.117   2.291   2.611
 7332SOL     OW22894   2.771   6.545   5.378
 7332SOL    HW122895   2.725   6.631   5.403
 7332SOL    HW222896   2.811   6.504   5.460
 7333SOL     OW22897   6.470   0.601   1.140
 7333SOL    HW122898   6.463   0.513   1.094
 7333SOL    HW222899   6.448   0.591   1.236
 7334SOL     OW22900   1.538   4.466   4.810
 7334SOL    HW122901   1.590   4.421   4.883
 7334SOL    HW222902   1.458   4.410   4.787
 7335SOL     OW22903   1.118   3.601   2.464
 7335SOL    HW122904   1.045   3.652   2.511
 7335SOL    HW222905   1.141   3.647   2.379
 7336SOL     OW22906   2.493   6.975   1.173
 7336SOL    HW122907   2.481   6.891   1.226
 7336SOL    HW222908   2.587   6.978   1.138
 7337SOL     OW22909   3.394   1.606   3.667
 7337SOL    HW122910   3.298   1.628   3.684
 7337SOL    HW222911   3.402   1.560   3.579
 7338SOL     OW22912   4.950   3.971   0.972
 7338SOL    HW122913   4.974   4.019   1.056
 7338SOL    HW222914   5.019   3.902   0.952
 7339SOL     OW22915   0.469   6.080   4.790
 7339SOL    HW122916   0.517   6.077   4.702
 7339SOL    HW222917   0.499   6.003   4.847
 7340SOL     OW22918   2.697   5.973   6.957
 7340SOL    HW122919   2.687   6.070   6.936
 7340SOL    HW222920   2.619   5.943   7.011
 7341SOL     OW22921   6.370   5.438   4.090
 7341SOL    HW122922   6.397   5.463   4.183
 7341SOL    HW222923   6.416   5.498   4.025
 7342SOL     OW22924   0.982   5.147   0.962
 7342SOL    HW122925   0.980   5.086   1.041
 7342SOL    HW222926   1.068   5.134   0.912
 7343SOL     OW22927   6.388   2.781   3.146
 7343SOL    HW122928   6.348   2.765   3.056
 7343SOL    HW222929   6.384   2.697   3.200
 7344SOL     OW22930   2.202   1.155   6.630
 7344SOL    HW122931   2.264   1.191   6.700
 7344SOL    HW222932   2.209   1.211   6.548
 7345SOL     OW22933   2.374   6.377   6.873
 7345SOL    HW122934   2.359   6.342   6.781
 7345SOL    HW222935   2.302   6.443   6.896
 7346SOL     OW22936   3.820   4.813   2.387
 7346SOL    HW122937   3.886   4.812   2.462
 7346SOL    HW222938   3.731   4.783   2.421
 7347SOL     OW22939   6.550   2.919   2.813
 7347SOL    HW122940   6.476   2.960   2.760
 7347SOL    HW222941   6.562   2.970   2.899
 7348SOL     OW22942   6.527   1.243   5.777
 7348SOL    HW122943   6.446   1.269   5.830
 7348SOL    HW222944   6.610   1.272   5.825
 7349SOL     OW22945   3.508   1.503   1.095
 7349SOL    HW122946   3.522   1.468   1.187
 7349SOL    HW222947   3.568   1.581   1.079
 7350SOL     OW22948   2.193   1.191   3.201
 7350SOL    HW122949   2.276   1.187   3.145
 7350SOL    HW222950   2.184   1.107   3.254
 7351SOL     OW22951   4.375   4.409   0.773
 7351SOL    HW122952   4.414   4.465   0.846
 7351SOL    HW222953   4.278   4.432   0.762
 7352SOL     OW22954   6.596   0.561   3.129
 7352SOL    HW122955   6.512   0.570   3.076
 7352SOL    HW222956   6.614   0.465   3.147
 7353SOL     OW22957   5.428   1.375   4.853
 7353SOL    HW122958   5.369   1.451   4.825
 7353SOL    HW222959   5.476   1.400   4.937
 7354SOL     OW22960   6.044   4.407   4.578
 7354SOL    HW122961   6.013   4.496   4.612
 7354SOL    HW222962   6.137   4.389   4.612
 7355SOL     OW22963   0.919   5.623   1.027
 7355SOL    HW122964   0.827   5.584   1.022
 7355SOL    HW222965   0.918   5.715   0.987
 7356SOL     OW22966   0.098   2.244   5.864
 7356SOL    HW122967   0.136   2.288   5.945
 7356SOL    HW222968   0.162   2.253   5.788
 7357SOL     OW22969   0.691   1.686   0.012
 7357SOL    HW122970   0.680   1.609   0.075
 7357SOL    HW222971   0.677   1.653   6.944
 7358SOL     OW22972   3.282   0.993   3.946
 7358SOL    HW122973   3.308   1.065   3.882
 7358SOL    HW222974   3.327   1.009   4.034
 7359SOL     OW22975   3.549   2.924   3.246
 7359SOL    HW122976   3.577   2.872   3.166
 7359SOL    HW222977   3.454   2.902   3.268
 7360SOL     OW22978   0.171   4.349   6.291
 7360SOL    HW122979   0.213   4.440   6.285
 7360SOL    HW222980   0.073   4.358   6.307
 7361SOL     OW22981   4.518   6.768   1.613
 7361SOL    HW122982   4.577   6.802   1.687
 7361SOL    HW222983   4.537   6.820   1.530
 7362SOL     OW22984   1.817   6.462   6.235
 7362SOL    HW122985   1.830   6.498   6.143
 7362SOL    HW222986   1.745   6.514   6.281
 7363SOL     OW22987   4.776   2.898   6.804
 7363SOL    HW122988   4.719   2.954   6.865
 7363SOL    HW222989   4.812   2.956   6.731
 7364SOL     OW22990   4.454   0.582   1.400
 7364SOL    HW122991   4.378   0.614   1.458
 7364SOL    HW222992   4.496   0.502   1.442
 7365SOL     OW22993   4.093   0.660   1.753
 7365SOL    HW122994   4.015   0.646   1.814
 7365SOL    HW222995   4.129   0.571   1.724
 7366SOL     OW22996   0.980   6.782   0.121
 7366SOL    HW122997   1.048   6.728   0.073
 7366SOL    HW222998   1.002   6.784   0.219
 7367SOL     OW22999   4.639   2.714   0.171
 7367SOL    HW123000   4.718   2.768   0.201
 7367SOL    HW223001   4.561   2.774   0.155
 7368SOL     OW23002   3.211   3.024   3.608
 7368SOL    HW123003   3.289   2.994   3.663
 7368SOL    HW223004   3.134   3.046   3.669
 7369SOL     OW23005   5.006   1.505   6.185
 7369SOL    HW123006   5.077   1.510   6.255
 7369SOL    HW223007   4.924   1.460   6.222
 7370SOL     OW23008   1.268   5.480   0.893
 7370SOL    HW123009   1.275   5.572   0.854
 7370SOL    HW223010   1.180   5.470   0.939
 7371SOL     OW23011   1.842   4.838   4.347
 7371SOL    HW123012   1.934   4.868   4.371
 7371SOL    HW223013   1.816   4.876   4.259
 7372SOL     OW23014   2.979   0.083   5.349
 7372SOL    HW123015   3.068   0.125   5.329
 7372SOL    HW223016   2.948   0.112   5.439
 7373SOL     OW23017   3.699   0.041   0.647
 7373SOL    HW123018   3.708   6.976   0.688
 7373SOL    HW223019   3.741   0.108   0.708
 7374SOL     OW23020   2.039   3.519   6.608
 7374SOL    HW123021   2.043   3.455   6.685
 7374SOL    HW223022   2.122   3.575   6.607
 7375SOL     OW23023   2.592   6.395   3.028
 7375SOL    HW123024   2.586   6.457   3.107
 7375SOL    HW223025   2.665   6.328   3.044
 7376SOL     OW23026   3.293   3.986   6.559
 7376SOL    HW123027   3.343   4.056   6.610
 7376SOL    HW223028   3.330   3.896   6.582
 7377SOL     OW23029   5.822   5.723   1.903
 7377SOL    HW123030   5.749   5.791   1.899
 7377SOL    HW223031   5.827   5.675   1.816
 7378SOL     OW23032   0.110   2.597   5.830
 7378SOL    HW123033   0.029   2.538   5.827
 7378SOL    HW223034   0.097   2.667   5.900
 7379SOL     OW23035   4.045   1.012   1.224
 7379SOL    HW123036   4.123   0.949   1.229
 7379SOL    HW223037   3.964   0.963   1.193
 7380SOL     OW23038   6.614   2.682   5.544
 7380SOL    HW123039   6.713   2.667   5.534
 7380SOL    HW223040   6.595   2.780   5.536
 7381SOL     OW23041   4.777   2.317   0.520
 7381SOL    HW123042   4.693   2.266   0.533
 7381SOL    HW223043   4.758   2.403   0.472
 7382SOL     OW23044   1.391   5.694   3.906
 7382SOL    HW123045   1.389   5.790   3.932
 7382SOL    HW223046   1.395   5.686   3.806
 7383SOL     OW23047   0.945   5.003   3.058
 7383SOL    HW123048   0.851   5.027   3.083
 7383SOL    HW223049   1.002   5.004   3.141
 7384SOL     OW23050   6.343   1.784   1.533
 7384SOL    HW123051   6.327   1.773   1.631
 7384SOL    HW223052   6.376   1.698   1.495
 7385SOL     OW23053   4.999   0.772   1.506
 7385SOL    HW123054   5.048   0.748   1.590
 7385SOL    HW223055   5.065   0.793   1.434
 7386SOL     OW23056   0.227   2.381   6.080
 7386SOL    HW123057   0.323   2.365   6.102
 7386SOL    HW223058   0.169   2.337   6.149
 7387SOL     OW23059   5.527   6.618   4.037
 7387SOL    HW123060   5.608   6.651   3.988
 7387SOL    HW223061   5.522   6.662   4.127
 7388SOL     OW23062   5.640   4.240   4.786
 7388SOL    HW123063   5.560   4.208   4.837
 7388SOL    HW223064   5.622   4.332   4.751
 7389SOL     OW23065   0.537   3.760   4.627
 7389SOL    HW123066   0.526   3.780   4.530
 7389SOL    HW223067   0.521   3.663   4.643
 7390SOL     OW23068   3.269   0.314   6.440
 7390SOL    HW123069   3.169   0.323   6.439
 7390SOL    HW223070   3.303   0.325   6.533
 7391SOL     OW23071   6.947   5.049   0.393
 7391SOL    HW123072   6.954   4.980   0.465
 7391SOL    HW223073   0.013   5.076   0.364
 7392SOL     OW23074   2.136   4.612   2.685
 7392SOL    HW123075   2.117   4.704   2.653
 7392SOL    HW223076   2.131   4.608   2.785
 7393SOL     OW23077   0.631   3.715   6.932
 7393SOL    HW123078   0.637   3.773   7.013
 7393SOL    HW223079   0.648   3.770   6.850
 7394SOL     OW23080   2.476   2.794   6.260
 7394SOL    HW123081   2.491   2.703   6.221
 7394SOL    HW223082   2.515   2.863   6.199
 7395SOL     OW23083   2.129   0.096   6.734
 7395SOL    HW123084   2.178   0.014   6.703
 7395SOL    HW223085   2.192   0.174   6.737
 7396SOL     OW23086   6.999   0.045   1.847
 7396SOL    HW123087   6.948   0.055   1.762
 7396SOL    HW223088   6.971   0.116   1.912
 7397SOL     OW23089   6.458   4.272   4.332
 7397SOL    HW123090   6.394   4.202   4.365
 7397SOL    HW223091   6.408   4.357   4.314
 7398SOL     OW23092   4.768   7.008   2.401
 7398SOL    HW123093   4.779   0.030   2.487
 7398SOL    HW223094   4.793   0.041   2.325
 7399SOL     OW23095   5.478   4.694   4.643
 7399SOL    HW123096   5.430   4.608   4.662
 7399SOL    HW223097   5.455   4.725   4.551
 7400SOL     OW23098   2.473   3.702   0.425
 7400SOL    HW123099   2.425   3.615   0.436
 7400SOL    HW223100   2.484   3.746   0.515
 7401SOL     OW23101   6.039   1.903   4.807
 7401SOL    HW123102   5.973   1.880   4.878
 7401SOL    HW223103   6.131   1.906   4.847
 7402SOL     OW23104   2.810   6.158   4.468
 7402SOL    HW123105   2.713   6.155   4.442
 7402SOL    HW223106   2.817   6.145   4.567
 7403SOL     OW23107   2.752   2.723   1.049
 7403SOL    HW123108   2.709   2.804   1.090
 7403SOL    HW223109   2.767   2.654   1.120
 7404SOL     OW23110   1.115   1.979   2.501
 7404SOL    HW123111   1.212   2.003   2.510
 7404SOL    HW223112   1.068   2.049   2.447
 7405SOL     OW23113   4.193   4.880   6.335
 7405SOL    HW123114   4.263   4.833   6.389
 7405SOL    HW223115   4.237   4.928   6.259
 7406SOL     OW23116   0.637   6.424   2.044
 7406SOL    HW123117   0.721   6.379   2.076
 7406SOL    HW223118   0.654   6.466   1.955
 7407SOL     OW23119   2.817   0.522   6.110
 7407SOL    HW123120   2.810   0.622   6.101
 7407SOL    HW223121   2.749   0.479   6.052
 7408SOL     OW23122   0.757   3.733   5.024
 7408SOL    HW123123   0.711   3.819   4.999
 7408SOL    HW223124   0.812   3.747   5.106
 7409SOL     OW23125   2.439   6.795   5.332
 7409SOL    HW123126   2.513   6.847   5.374
 7409SOL    HW223127   2.468   6.761   5.243
 7410SOL     OW23128   5.041   5.239   6.798
 7410SOL    HW123129   4.959   5.276   6.754
 7410SOL    HW223130   5.069   5.155   6.751
 7411SOL     OW23131   5.136   4.938   6.004
 7411SOL    HW123132   5.039   4.917   6.009
 7411SOL    HW223133   5.172   4.955   6.096
 7412SOL     OW23134   1.524   0.808   6.556
 7412SOL    HW123135   1.453   0.826   6.488
 7412SOL    HW223136   1.511   0.716   6.594
 7413SOL     OW23137   6.926   3.592   4.085
 7413SOL    HW123138   6.961   3.668   4.030
 7413SOL    HW223139   6.905   3.514   4.025
 7414SOL     OW23140   0.560   4.982   2.446
 7414SOL    HW123141   0.631   4.934   2.395
 7414SOL    HW223142   0.603   5.034   2.520
 7415SOL     OW23143   3.134   1.760   3.649
 7415SOL    HW123144   3.201   1.812   3.597
 7415SOL    HW223145   3.132   1.794   3.743
 7416SOL     OW23146   6.232   0.189   3.461
 7416SOL    HW123147   6.146   0.170   3.413
 7416SOL    HW223148   6.227   0.278   3.506
 7417SOL     OW23149   0.945   5.302   0.720
 7417SOL    HW123150   0.948   5.260   0.810
 7417SOL    HW223151   1.039   5.314   0.686
 7418SOL     OW23152   0.697   3.681   0.501
 7418SOL    HW123153   0.772   3.628   0.462
 7418SOL    HW223154   0.731   3.771   0.530
 7419SOL     OW23155   5.780   2.015   5.536
 7419SOL    HW123156   5.815   2.082   5.470
 7419SOL    HW223157   5.813   1.924   5.510
 7420SOL     OW23158   6.610   5.873   2.489
 7420SOL    HW123159   6.617   5.911   2.581
 7420SOL    HW223160   6.702   5.849   2.456
 7421SOL     OW23161   4.224   1.964   1.117
 7421SOL    HW123162   4.163   2.020   1.173
 7421SOL    HW223163   4.179   1.942   1.030
 7422SOL     OW23164   0.844   2.170   0.850
 7422SOL    HW123165   0.850   2.255   0.903
 7422SOL    HW223166   0.924   2.163   0.790
 7423SOL     OW23167   2.443   4.482   6.944
 7423SOL    HW123168   2.464   4.579   6.936
 7423SOL    HW223169   2.345   4.467   6.927
 7424SOL     OW23170   5.491   0.208   4.888
 7424SOL    HW123171   5.561   0.276   4.912
 7424SOL    HW223172   5.493   0.192   4.789
 7425SOL     OW23173   3.874   0.599   4.803
 7425SOL    HW123174   3.876   0.520   4.864
 7425SOL    HW223175   3.832   0.676   4.851
 7426SOL     OW23176   0.386   1.495   0.122
 7426SOL    HW123177   0.373   1.580   0.172
 7426SOL    HW223178   0.450   1.436   0.171
 7427SOL     OW23179   5.053   5.946   5.144
 7427SOL    HW123180   5.118   5.886   5.096
 7427SOL    HW223181   4.982   5.975   5.081
 7428SOL     OW23182   3.605   1.117   5.561
 7428SOL    HW123183   3.641   1.198   5.515
 7428SOL    HW223184   3.506   1.123   5.569
 7429SOL     OW23185   6.530   6.456   3.862
 7429SOL    HW123186   6.569   6.468   3.771
 7429SOL    HW223187   6.535   6.543   3.912
 7430SOL     OW23188   0.725   4.411   4.614
 7430SOL    HW123189   0.792   4.395   4.542
 7430SOL    HW223190   0.684   4.324   4.642
 7431SOL     OW23191   0.501   4.008   2.391
 7431SOL    HW123192   0.596   4.020   2.419
 7431SOL    HW223193   0.447   4.085   2.425
 7432SOL     OW23194   1.462   6.727   4.870
 7432SOL    HW123195   1.454   6.779   4.956
 7432SOL    HW223196   1.474   6.631   4.891
 7433SOL     OW23197   6.939   6.264   1.172
 7433SOL    HW123198   6.962   6.264   1.269
 7433SOL    HW223199   6.958   6.355   1.133
 7434SOL     OW23200   4.113   6.905   6.904
 7434SOL    HW123201   4.020   6.905   6.941
 7434SOL    HW223202   4.112   6.870   6.811
 7435SOL     OW23203   1.286   6.113   0.084
 7435SOL    HW123204   1.363   6.112   0.020
 7435SOL    HW223205   1.215   6.050   0.051
 7436SOL     OW23206   4.281   3.360   0.297
 7436SOL    HW123207   4.278   3.452   0.258
 7436SOL    HW223208   4.317   3.296   0.229
 7437SOL     OW23209   0.339   6.048   5.577
 7437SOL    HW123210   0.365   5.964   5.625
 7437SOL    HW223211   0.323   6.027   5.480
 7438SOL     OW23212   5.583   3.751   1.419
 7438SOL    HW123213   5.491   3.781   1.444
 7438SOL    HW223214   5.650   3.795   1.480
 7439SOL     OW23215   0.807   6.336   3.685
 7439SOL    HW123216   0.784   6.422   3.732
 7439SOL    HW223217   0.869   6.355   3.609
 7440SOL     OW23218   0.537   1.791   3.517
 7440SOL    HW123219   0.595   1.869   3.540
 7440SOL    HW223220   0.458   1.823   3.465
 7441SOL     OW23221   6.239   0.107   3.783
 7441SOL    HW123222   6.294   0.191   3.789
 7441SOL    HW223223   6.220   0.088   3.687
 7442SOL     OW23224   1.688   0.591   6.184
 7442SOL    HW123225   1.768   0.647   6.209
 7442SOL    HW223226   1.667   0.527   6.258
 7443SOL     OW23227   6.906   1.646   1.847
 7443SOL    HW123228   6.955   1.583   1.787
 7443SOL    HW223229   6.971   1.708   1.891
 7444SOL     OW23230   0.641   2.287   5.271
 7444SOL    HW123231   0.657   2.196   5.308
 7444SOL    HW223232   0.576   2.336   5.329
 7445SOL     OW23233   5.833   2.934   1.827
 7445SOL    HW123234   5.833   2.840   1.862
 7445SOL    HW223235   5.896   2.990   1.881
 7446SOL     OW23236   6.269   3.316   2.798
 7446SOL    HW123237   6.309   3.326   2.706
 7446SOL    HW223238   6.320   3.372   2.862
 7447SOL     OW23239   0.033   4.117   6.538
 7447SOL    HW123240   0.041   4.043   6.472
 7447SOL    HW223241   6.964   4.125   6.567
 7448SOL     OW23242   0.317   6.544   6.159
 7448SOL    HW123243   0.397   6.529   6.217
 7448SOL    HW223244   0.346   6.551   6.064
 7449SOL     OW23245   4.274   0.376   1.211
 7449SOL    HW123246   4.322   0.402   1.295
 7449SOL    HW223247   4.230   0.457   1.172
 7450SOL     OW23248   3.679   0.357   1.906
 7450SOL    HW123249   3.644   0.442   1.946
 7450SOL    HW223250   3.666   0.359   1.807
 7451SOL     OW23251   1.595   0.613   2.222
 7451SOL    HW123252   1.563   0.520   2.238
 7451SOL    HW223253   1.533   0.659   2.157
 7452SOL     OW23254   1.708   6.753   3.425
 7452SOL    HW123255   1.645   6.822   3.388
 7452SOL    HW223256   1.799   6.767   3.386
 7453SOL     OW23257   5.996   5.281   5.386
 7453SOL    HW123258   5.960   5.315   5.472
 7453SOL    HW223259   6.006   5.182   5.390
 7454SOL     OW23260   0.801   3.046   6.729
 7454SOL    HW123261   0.703   3.063   6.745
 7454SOL    HW223262   0.831   2.968   6.783
 7455SOL     OW23263   4.995   1.107   0.851
 7455SOL    HW123264   5.045   1.184   0.890
 7455SOL    HW223265   4.993   1.117   0.751
 7456SOL     OW23266   0.983   3.382   5.407
 7456SOL    HW123267   1.080   3.362   5.392
 7456SOL    HW223268   0.928   3.334   5.339
 7457SOL     OW23269   6.328   6.690   5.959
 7457SOL    HW123270   6.414   6.729   5.926
 7457SOL    HW223271   6.257   6.700   5.890
 7458SOL     OW23272   2.206   0.305   1.287
 7458SOL    HW123273   2.276   0.375   1.303
 7458SOL    HW223274   2.237   0.217   1.323
 7459SOL     OW23275   4.581   0.093   4.669
 7459SOL    HW123276   4.484   0.081   4.649
 7459SOL    HW223277   4.632   0.106   4.584
 7460SOL     OW23278   1.092   5.737   6.864
 7460SOL    HW123279   1.141   5.680   6.798
 7460SOL    HW223280   1.139   5.735   6.952
 7461SOL     OW23281   4.267   1.254   4.071
 7461SOL    HW123282   4.324   1.230   3.993
 7461SOL    HW223283   4.205   1.179   4.092
 7462SOL     OW23284   1.987   0.873   2.889
 7462SOL    HW123285   1.920   0.832   2.827
 7462SOL    HW223286   1.952   0.959   2.925
 7463SOL     OW23287   3.719   3.974   1.971
 7463SOL    HW123288   3.786   3.978   2.045
 7463SOL    HW223289   3.692   3.879   1.957
 7464SOL     OW23290   4.847   0.068   0.359
 7464SOL    HW123291   4.805   7.005   0.378
 7464SOL    HW223292   4.784   0.140   0.387
 7465SOL     OW23293   3.515   0.645   2.485
 7465SOL    HW123294   3.517   0.740   2.453
 7465SOL    HW223295   3.569   0.589   2.422
 7466SOL     OW23296   6.387   0.457   6.837
 7466SOL    HW123297   6.302   0.407   6.853
 7466SOL    HW223298   6.380   0.511   6.753
 7467SOL     OW23299   5.058   1.532   0.847
 7467SOL    HW123300   5.073   1.463   0.918
 7467SOL    HW223301   4.961   1.531   0.820
 7468SOL     OW23302   6.291   3.873   4.255
 7468SOL    HW123303   6.386   3.893   4.279
 7468SOL    HW223304   6.238   3.860   4.339
 7469SOL     OW23305   5.687   1.132   2.166
 7469SOL    HW123306   5.620   1.076   2.215
 7469SOL    HW223307   5.667   1.228   2.180
 7470SOL     OW23308   0.204   3.576   2.473
 7470SOL    HW123309   0.167   3.549   2.562
 7470SOL    HW223310   0.268   3.652   2.485
 7471SOL     OW23311   5.940   4.775   5.792
 7471SOL    HW123312   5.973   4.865   5.823
 7471SOL    HW223313   5.943   4.711   5.868
 7472SOL     OW23314   4.030   5.081   3.063
 7472SOL    HW123315   3.943   5.032   3.055
 7472SOL    HW223316   4.060   5.109   2.972
 7473SOL     OW23317   0.584   3.346   5.106
 7473SOL    HW123318   0.505   3.384   5.153
 7473SOL    HW223319   0.562   3.254   5.074
 7474SOL     OW23320   3.262   1.844   2.980
 7474SOL    HW123321   3.287   1.759   3.025
 7474SOL    HW223322   3.243   1.914   3.049
 7475SOL     OW23323   4.133   1.473   6.412
 7475SOL    HW123324   4.223   1.494   6.451
 7475SOL    HW223325   4.134   1.381   6.374
 7476SOL     OW23326   2.797   0.341   4.792
 7476SOL    HW123327   2.769   0.420   4.847
 7476SOL    HW223328   2.716   0.292   4.760
 7477SOL     OW23329   5.044   4.052   3.903
 7477SOL    HW123330   5.128   4.092   3.940
 7477SOL    HW223331   4.966   4.107   3.933
 7478SOL     OW23332   1.365   4.344   1.525
 7478SOL    HW123333   1.292   4.364   1.460
 7478SOL    HW223334   1.452   4.339   1.477
 7479SOL     OW23335   4.041   0.748   5.457
 7479SOL    HW123336   4.112   0.816   5.437
 7479SOL    HW223337   4.084   0.661   5.480
 7480SOL     OW23338   6.316   5.371   0.838
 7480SOL    HW123339   6.339   5.278   0.868
 7480SOL    HW223340   6.248   5.366   0.765
 7481SOL     OW23341   6.353   6.235   0.473
 7481SOL    HW123342   6.345   6.146   0.517
 7481SOL    HW223343   6.450   6.258   0.461
 7482SOL     OW23344   5.251   6.870   4.107
 7482SOL    HW123345   5.333   6.886   4.052
 7482SOL    HW223346   5.271   6.801   4.177
 7483SOL     OW23347   3.080   0.175   6.009
 7483SOL    HW123348   3.025   0.094   5.988
 7483SOL    HW223349   3.175   0.158   5.985
 7484SOL     OW23350   3.682   0.460   2.327
 7484SOL    HW123351   3.664   0.482   2.231
 7484SOL    HW223352   3.631   0.378   2.353
 7485SOL     OW23353   1.109   0.056   5.194
 7485SOL    HW123354   1.153   0.144   5.210
 7485SOL    HW223355   1.086   0.014   5.282
 7486SOL     OW23356   1.032   1.493   5.060
 7486SOL    HW123357   0.957   1.520   5.000
 7486SOL    HW223358   1.081   1.416   5.018
 7487SOL     OW23359   3.931   5.577   3.053
 7487SOL    HW123360   3.884   5.522   2.984
 7487SOL    HW223361   3.930   5.528   3.141
 7488SOL     OW23362   3.660   0.873   5.624
 7488SOL    HW123363   3.752   0.867   5.662
 7488SOL    HW223364   3.641   0.968   5.599
 7489SOL     OW23365   6.605   4.108   3.202
 7489SOL    HW123366   6.563   4.088   3.291
 7489SOL    HW223367   6.611   4.207   3.190
 7490SOL     OW23368   5.768   1.082   3.329
 7490SOL    HW123369   5.728   1.061   3.240
 7490SOL    HW223370   5.865   1.058   3.328
 7491SOL     OW23371   0.268   6.583   7.008
 7491SOL    HW123372   0.169   6.591   7.010
 7491SOL    HW223373   0.309   6.674   7.006
 7492SOL     OW23374   1.991   2.325   3.651
 7492SOL    HW123375   2.090   2.310   3.648
 7492SOL    HW223376   1.965   2.389   3.578
 7493SOL     OW23377   5.116   4.899   6.801
 7493SOL    HW123378   5.040   4.835   6.797
 7493SOL    HW223379   5.198   4.852   6.832
 7494SOL     OW23380   5.344   1.983   1.240
 7494SOL    HW123381   5.352   1.910   1.307
 7494SOL    HW223382   5.298   1.950   1.158
 7495SOL     OW23383   0.635   1.699   2.531
 7495SOL    HW123384   0.654   1.775   2.593
 7495SOL    HW223385   0.682   1.714   2.444
 7496SOL     OW23386   0.308   5.308   6.139
 7496SOL    HW123387   0.407   5.296   6.136
 7496SOL    HW223388   0.282   5.344   6.229
 7497SOL     OW23389   1.738   5.103   2.397
 7497SOL    HW123390   1.804   5.147   2.337
 7497SOL    HW223391   1.757   5.005   2.402
 7498SOL     OW23392   5.475   2.078   4.533
 7498SOL    HW123393   5.443   1.990   4.497
 7498SOL    HW223394   5.533   2.062   4.612
 7499SOL     OW23395   4.096   4.740   3.734
 7499SOL    HW123396   4.092   4.783   3.644
 7499SOL    HW223397   4.004   4.732   3.772
 7500SOL     OW23398   4.758   4.007   1.845
 7500SOL    HW123399   4.755   3.974   1.939
 7500SOL    HW223400   4.689   4.078   1.832
 7501SOL     OW23401   0.312   4.701   3.747
 7501SOL    HW123402   0.284   4.614   3.789
 7501SOL    HW223403   0.327   4.687   3.649
 7502SOL     OW23404   1.963   2.129   4.551
 7502SOL    HW123405   1.940   2.163   4.642
 7502SOL    HW223406   1.901   2.055   4.527
 7503SOL     OW23407   2.036   2.894   6.500
 7503SOL    HW123408   2.090   2.855   6.425
 7503SOL    HW223409   1.946   2.852   6.501
 7504SOL     OW23410   3.980   5.385   3.655
 7504SOL    HW123411   4.027   5.349   3.574
 7504SOL    HW223412   3.882   5.366   3.648
 7505SOL     OW23413   1.767   1.960   4.240
 7505SOL    HW123414   1.717   2.035   4.282
 7505SOL    HW223415   1.805   1.989   4.152
 7506SOL     OW23416   3.334   1.410   3.858
 7506SOL    HW123417   3.367   1.499   3.827
 7506SOL    HW223418   3.353   1.341   3.788
 7507SOL     OW23419   1.435   6.147   5.718
 7507SOL    HW123420   1.501   6.144   5.643
 7507SOL    HW223421   1.477   6.112   5.802
 7508SOL     OW23422   4.896   5.634   4.128
 7508SOL    HW123423   4.823   5.702   4.137
 7508SOL    HW223424   4.884   5.564   4.198
 7509SOL     OW23425   4.059   3.693   6.454
 7509SOL    HW123426   4.128   3.765   6.455
 7509SOL    HW223427   4.038   3.669   6.359
 7510SOL     OW23428   3.074   3.641   4.736
 7510SOL    HW123429   3.011   3.627   4.812
 7510SOL    HW223430   3.157   3.587   4.750
 7511SOL     OW23431   1.070   0.560   2.249
 7511SOL    HW123432   0.986   0.574   2.196
 7511SOL    HW223433   1.120   0.482   2.211
 7512SOL     OW23434   2.330   2.937   1.710
 7512SOL    HW123435   2.289   2.925   1.619
 7512SOL    HW223436   2.422   2.976   1.700
 7513SOL     OW23437   1.305   3.160   6.475
 7513SOL    HW123438   1.335   3.108   6.555
 7513SOL    HW223439   1.321   3.257   6.490
 7514SOL     OW23440   2.900   5.691   3.245
 7514SOL    HW123441   2.861   5.774   3.205
 7514SOL    HW223442   2.989   5.712   3.286
 7515SOL     OW23443   0.308   5.074   2.611
 7515SOL    HW123444   0.316   5.004   2.540
 7515SOL    HW223445   0.396   5.120   2.622
 7516SOL     OW23446   1.138   1.933   2.199
 7516SOL    HW123447   1.170   1.862   2.263
 7516SOL    HW223448   1.148   1.901   2.105
 7517SOL     OW23449   0.262   5.082   1.244
 7517SOL    HW123450   0.318   5.162   1.222
 7517SOL    HW223451   0.178   5.083   1.190
 7518SOL     OW23452   4.996   5.054   3.813
 7518SOL    HW123453   5.083   5.024   3.773
 7518SOL    HW223454   4.925   4.988   3.790
 7519SOL     OW23455   1.249   6.798   4.047
 7519SOL    HW123456   1.317   6.725   4.044
 7519SOL    HW223457   1.166   6.769   4.001
 7520SOL     OW23458   2.488   0.083   3.873
 7520SOL    HW123459   2.451   0.089   3.966
 7520SOL    HW223460   2.543   7.026   3.864
 7521SOL     OW23461   4.645   3.362   5.586
 7521SOL    HW123462   4.662   3.365   5.488
 7521SOL    HW223463   4.577   3.292   5.606
 7522SOL     OW23464   1.865   0.309   2.687
 7522SOL    HW123465   1.795   0.366   2.644
 7522SOL    HW223466   1.822   0.250   2.755
 7523SOL     OW23467   5.968   6.936   6.742
 7523SOL    HW123468   6.061   6.907   6.761
 7523SOL    HW223469   5.960   0.009   6.755
 7524SOL     OW23470   6.232   0.874   4.533
 7524SOL    HW123471   6.258   0.778   4.529
 7524SOL    HW223472   6.256   0.911   4.623
 7525SOL     OW23473   1.069   6.222   0.511
 7525SOL    HW123474   1.118   6.155   0.455
 7525SOL    HW223475   0.998   6.176   0.564
 7526SOL     OW23476   3.862   3.327   5.080
 7526SOL    HW123477   3.789   3.361   5.021
 7526SOL    HW223478   3.848   3.360   5.173
 7527SOL     OW23479   4.809   5.835   2.120
 7527SOL    HW123480   4.898   5.789   2.121
 7527SOL    HW223481   4.809   5.909   2.187
 7528SOL     OW23482   5.816   3.272   6.249
 7528SOL    HW123483   5.863   3.224   6.323
 7528SOL    HW223484   5.761   3.347   6.287
 7529SOL     OW23485   3.081   0.382   4.762
 7529SOL    HW123486   3.103   0.452   4.830
 7529SOL    HW223487   2.982   0.371   4.756
 7530SOL     OW23488   6.872   2.970   3.641
 7530SOL    HW123489   6.791   3.007   3.687
 7530SOL    HW223490   6.844   2.925   3.556
 7531SOL     OW23491   2.518   1.524   4.657
 7531SOL    HW123492   2.444   1.514   4.591
 7531SOL    HW223493   2.606   1.509   4.612
 7532SOL     OW23494   4.635   4.616   2.226
 7532SOL    HW123495   4.697   4.656   2.293
 7532SOL    HW223496   4.593   4.534   2.264
 7533SOL     OW23497   3.462   0.648   4.692
 7533SOL    HW123498   3.482   0.577   4.624
 7533SOL    HW223499   3.422   0.606   4.773
 7534SOL     OW23500   5.521   6.730   4.277
 7534SOL    HW123501   5.593   6.799   4.280
 7534SOL    HW223502   5.436   6.769   4.313
 7535SOL     OW23503   3.654   4.425   0.390
 7535SOL    HW123504   3.591   4.350   0.372
 7535SOL    HW223505   3.606   4.512   0.383
 7536SOL     OW23506   3.803   6.165   4.508
 7536SOL    HW123507   3.735   6.221   4.556
 7536SOL    HW223508   3.779   6.068   4.517
 7537SOL     OW23509   2.223   4.596   5.570
 7537SOL    HW123510   2.229   4.657   5.649
 7537SOL    HW223511   2.178   4.644   5.495
 7538SOL     OW23512   3.239   3.012   3.015
 7538SOL    HW123513   3.242   2.999   3.114
 7538SOL    HW223514   3.177   3.088   2.994
 7539SOL     OW23515   1.714   2.401   4.676
 7539SOL    HW123516   1.803   2.445   4.677
 7539SOL    HW223517   1.655   2.444   4.744
 7540SOL     OW23518   2.079   0.949   6.982
 7540SOL    HW123519   2.017   0.989   0.023
 7540SOL    HW223520   2.092   1.014   6.907
 7541SOL     OW23521   6.778   2.268   5.611
 7541SOL    HW123522   6.875   2.272   5.588
 7541SOL    HW223523   6.723   2.300   5.534
 7542SOL     OW23524   1.872   0.287   6.114
 7542SOL    HW123525   1.865   0.251   6.021
 7542SOL    HW223526   1.785   0.331   6.139
 7543SOL     OW23527   3.662   3.087   6.815
 7543SOL    HW123528   3.588   3.019   6.820
 7543SOL    HW223529   3.656   3.148   6.894
 7544SOL     OW23530   1.257   2.360   2.454
 7544SOL    HW123531   1.251   2.448   2.408
 7544SOL    HW223532   1.165   2.322   2.466
 7545SOL     OW23533   5.007   0.506   3.105
 7545SOL    HW123534   5.005   0.541   3.011
 7545SOL    HW223535   5.074   0.557   3.158
 7546SOL     OW23536   5.126   6.623   6.023
 7546SOL    HW123537   5.026   6.629   6.016
 7546SOL    HW223538   5.150   6.589   6.114
 7547SOL     OW23539   3.097   6.899   0.401
 7547SOL    HW123540   3.194   6.915   0.423
 7547SOL    HW223541   3.078   6.801   0.403
 7548SOL     OW23542   1.132   3.320   1.128
 7548SOL    HW123543   1.158   3.272   1.212
 7548SOL    HW223544   1.112   3.253   1.057
 7549SOL     OW23545   5.724   2.297   1.887
 7549SOL    HW123546   5.642   2.310   1.942
 7549SOL    HW223547   5.700   2.251   1.802
 7550SOL     OW23548   1.210   4.899   1.569
 7550SOL    HW123549   1.190   4.816   1.622
 7550SOL    HW223550   1.141   4.910   1.498
 7551SOL     OW23551   4.896   4.143   6.491
 7551SOL    HW123552   4.934   4.072   6.432
 7551SOL    HW223553   4.969   4.184   6.545
 7552SOL     OW23554   3.389   5.441   4.072
 7552SOL    HW123555   3.412   5.458   3.976
 7552SOL    HW223556   3.363   5.345   4.083
 7553SOL     OW23557   4.374   3.927   5.630
 7553SOL    HW123558   4.326   4.008   5.664
 7553SOL    HW223559   4.360   3.918   5.531
 7554SOL     OW23560   6.633   1.239   1.195
 7554SOL    HW123561   6.587   1.150   1.189
 7554SOL    HW223562   6.726   1.230   1.160
 7555SOL     OW23563   1.590   5.799   5.738
 7555SOL    HW123564   1.620   5.754   5.654
 7555SOL    HW223565   1.499   5.838   5.725
 7556SOL     OW23566   6.903   3.384   3.905
 7556SOL    HW123567   6.957   3.381   3.821
 7556SOL    HW223568   6.843   3.304   3.909
 7557SOL     OW23569   3.666   3.346   0.665
 7557SOL    HW123570   3.694   3.370   0.758
 7557SOL    HW223571   3.744   3.355   0.603
 7558SOL     OW23572   1.474   2.278   3.033
 7558SOL    HW123573   1.463   2.251   2.937
 7558SOL    HW223574   1.384   2.278   3.077
 7559SOL     OW23575   1.107   4.363   0.066
 7559SOL    HW123576   1.143   4.343   0.158
 7559SOL    HW223577   1.008   4.372   0.071
 7560SOL     OW23578   4.517   0.232   5.242
 7560SOL    HW123579   4.487   0.201   5.151
 7560SOL    HW223580   4.490   0.327   5.256
 7561SOL     OW23581   6.980   3.294   0.032
 7561SOL    HW123582   6.955   3.198   0.032
 7561SOL    HW223583   0.005   3.315   6.975
 7562SOL     OW23584   4.620   6.699   5.145
 7562SOL    HW123585   4.624   6.798   5.162
 7562SOL    HW223586   4.631   6.651   5.232
 7563SOL     OW23587   2.715   1.405   3.052
 7563SOL    HW123588   2.746   1.495   3.021
 7563SOL    HW223589   2.689   1.349   2.974
 7564SOL     OW23590   4.688   6.468   3.876
 7564SOL    HW123591   4.770   6.413   3.892
 7564SOL    HW223592   4.708   6.564   3.900
 7565SOL     OW23593   4.801   4.904   0.032
 7565SOL    HW123594   4.778   4.885   6.963
 7565SOL    HW223595   4.757   4.836   0.091
 7566SOL     OW23596   2.044   6.061   5.034
 7566SOL    HW123597   1.961   6.105   4.999
 7566SOL    HW223598   2.043   6.061   5.133
 7567SOL     OW23599   2.508   3.048   0.607
 7567SOL    HW123600   2.423   2.998   0.594
 7567SOL    HW223601   2.578   3.011   0.545
 7568SOL     OW23602   4.351   4.564   2.757
 7568SOL    HW123603   4.260   4.540   2.721
 7568SOL    HW223604   4.419   4.503   2.717
 7569SOL     OW23605   3.927   0.125   1.081
 7569SOL    HW123606   3.960   0.125   0.986
 7569SOL    HW223607   4.006   0.134   1.143
 7570SOL     OW23608   5.785   5.490   4.704
 7570SOL    HW123609   5.749   5.401   4.675
 7570SOL    HW223610   5.769   5.501   4.802
 7571SOL     OW23611   5.452   4.038   1.466
 7571SOL    HW123612   5.385   4.050   1.539
 7571SOL    HW223613   5.406   4.037   1.378
 7572SOL     OW23614   0.650   1.059   3.696
 7572SOL    HW123615   0.677   0.988   3.762
 7572SOL    HW223616   0.691   1.146   3.722
 7573SOL     OW23617   3.057   5.458   5.326
 7573SOL    HW123618   2.961   5.431   5.338
 7573SOL    HW223619   3.104   5.388   5.273
 7574SOL     OW23620   5.100   6.158   2.269
 7574SOL    HW123621   5.038   6.196   2.200
 7574SOL    HW223622   5.095   6.214   2.352
 7575SOL     OW23623   4.903   2.819   4.756
 7575SOL    HW123624   4.841   2.814   4.834
 7575SOL    HW223625   4.937   2.728   4.735
 7576SOL     OW23626   6.756   3.413   2.065
 7576SOL    HW123627   6.723   3.403   2.159
 7576SOL    HW223628   6.761   3.323   2.022
 7577SOL     OW23629   4.502   0.704   4.998
 7577SOL    HW123630   4.586   0.659   4.969
 7577SOL    HW223631   4.500   0.797   4.963
 7578SOL     OW23632   2.907   5.133   4.344
 7578SOL    HW123633   2.825   5.089   4.307
 7578SOL    HW223634   2.920   5.105   4.439
 7579SOL     OW23635   4.629   2.468   3.973
 7579SOL    HW123636   4.574   2.489   4.054
 7579SOL    HW223637   4.677   2.551   3.943
 7580SOL     OW23638   2.086   3.632   2.542
 7580SOL    HW123639   2.044   3.563   2.601
 7580SOL    HW223640   2.162   3.675   2.591
 7581SOL     OW23641   5.631   0.834   1.496
 7581SOL    HW123642   5.703   0.780   1.453
 7581SOL    HW223643   5.636   0.928   1.462
 7582SOL     OW23644   2.915   1.768   0.875
 7582SOL    HW123645   2.911   1.810   0.966
 7582SOL    HW223646   2.946   1.836   0.808
 7583SOL     OW23647   6.719   3.909   2.771
 7583SOL    HW123648   6.651   3.964   2.819
 7583SOL    HW223649   6.811   3.938   2.798
 7584SOL     OW23650   1.851   1.955   1.138
 7584SOL    HW123651   1.792   1.895   1.084
 7584SOL    HW223652   1.935   1.906   1.162
 7585SOL     OW23653   1.918   4.989   6.464
 7585SOL    HW123654   1.986   5.059   6.485
 7585SOL    HW223655   1.949   4.901   6.501
 7586SOL     OW23656   2.261   1.180   1.933
 7586SOL    HW123657   2.210   1.215   2.012
 7586SOL    HW223658   2.319   1.252   1.896
 7587SOL     OW23659   1.886   0.751   5.745
 7587SOL    HW123660   1.896   0.816   5.821
 7587SOL    HW223661   1.820   0.787   5.679
 7588SOL     OW23662   1.188   4.135   1.433
 7588SOL    HW123663   1.258   4.154   1.501
 7588SOL    HW223664   1.100   4.118   1.479
 7589SOL     OW23665   5.518   6.396   6.566
 7589SOL    HW123666   5.503   6.358   6.475
 7589SOL    HW223667   5.617   6.402   6.583
 7590SOL     OW23668   1.555   0.196   6.714
 7590SOL    HW123669   1.475   0.170   6.661
 7590SOL    HW223670   1.548   0.158   6.806
 7591SOL     OW23671   6.649   5.461   0.032
 7591SOL    HW123672   6.743   5.459   0.064
 7591SOL    HW223673   6.645   5.426   6.964
 7592SOL     OW23674   4.882   5.332   6.198
 7592SOL    HW123675   4.788   5.361   6.179
 7592SOL    HW223676   4.913   5.373   6.284
 7593SOL     OW23677   6.280   3.852   0.484
 7593SOL    HW123678   6.376   3.849   0.513
 7593SOL    HW223679   6.238   3.762   0.496
 7594SOL     OW23680   0.989   6.401   3.442
 7594SOL    HW123681   1.022   6.466   3.374
 7594SOL    HW223682   0.890   6.389   3.432
 7595SOL     OW23683   6.477   2.085   7.014
 7595SOL    HW123684   6.502   2.050   6.923
 7595SOL    HW223685   6.441   2.010   0.043
 7596SOL     OW23686   4.974   4.399   1.781
 7596SOL    HW123687   5.002   4.343   1.860
 7596SOL    HW223688   4.875   4.392   1.769
 7597SOL     OW23689   2.633   5.788   1.797
 7597SOL    HW123690   2.572   5.860   1.764
 7597SOL    HW223691   2.670   5.814   1.886
 7598SOL     OW23692   6.768   0.356   2.709
 7598SOL    HW123693   6.760   0.304   2.624
 7598SOL    HW223694   6.746   0.296   2.786
 7599SOL     OW23695   6.366   2.835   2.126
 7599SOL    HW123696   6.394   2.740   2.110
 7599SOL    HW223697   6.308   2.866   2.051
 7600SOL     OW23698   2.293   1.735   2.038
 7600SOL    HW123699   2.367   1.780   2.089
 7600SOL    HW223700   2.229   1.693   2.101
 7601SOL     OW23701   1.517   0.315   5.244
 7601SOL    HW123702   1.519   0.295   5.342
 7601SOL    HW223703   1.424   0.303   5.209
 7602SOL     OW23704   2.150   3.280   5.291
 7602SOL    HW123705   2.244   3.312   5.299
 7602SOL    HW223706   2.149   3.185   5.262
 7603SOL     OW23707   0.329   1.217   2.004
 7603SOL    HW123708   0.311   1.148   2.075
 7603SOL    HW223709   0.242   1.256   1.973
 7604SOL     OW23710   4.931   5.875   6.694
 7604SOL    HW123711   4.859   5.916   6.749
 7604SOL    HW223712   4.970   5.944   6.633
 7605SOL     OW23713   5.673   3.961   5.713
 7605SOL    HW123714   5.674   3.895   5.788
 7605SOL    HW223715   5.684   3.913   5.626
 7606SOL     OW23716   6.039   1.681   2.924
 7606SOL    HW123717   6.111   1.673   2.993
 7606SOL    HW223718   6.013   1.590   2.892
 7607SOL     OW23719   5.224   7.001   6.013
 7607SOL    HW123720   5.242   6.972   6.107
 7607SOL    HW223721   5.307   6.988   5.958
 7608SOL     OW23722   3.992   3.062   3.477
 7608SOL    HW123723   3.943   3.010   3.408
 7608SOL    HW223724   3.989   3.013   3.564
 7609SOL     OW23725   1.755   2.765   4.438
 7609SOL    HW123726   1.674   2.823   4.447
 7609SOL    HW223727   1.810   2.772   4.521
 7610SOL     OW23728   5.625   1.120   1.812
 7610SOL    HW123729   5.618   1.172   1.726
 7610SOL    HW223730   5.711   1.069   1.813
 7611SOL     OW23731   1.968   1.576   1.390
 7611SOL    HW123732   1.887   1.537   1.347
 7611SOL    HW223733   1.943   1.617   1.477
 7612SOL     OW23734   4.247   1.495   2.773
 7612SOL    HW123735   4.162   1.445   2.762
 7612SOL    HW223736   4.229   1.582   2.819
 7613SOL     OW23737   5.370   1.007   3.226
 7613SOL    HW123738   5.316   0.999   3.142
 7613SOL    HW223739   5.309   1.030   3.303
 7614SOL     OW23740   3.840   1.100   0.116
 7614SOL    HW123741   3.856   1.198   0.132
 7614SOL    HW223742   3.795   1.060   0.195
 7615SOL     OW23743   3.904   4.683   5.990
 7615SOL    HW123744   3.827   4.627   5.960
 7615SOL    HW223745   3.989   4.643   5.956
 7616SOL     OW23746   6.725   4.912   3.596
 7616SOL    HW123747   6.805   4.855   3.613
 7616SOL    HW223748   6.733   4.998   3.646
 7617SOL     OW23749   3.441   5.981   2.361
 7617SOL    HW123750   3.451   5.889   2.324
 7617SOL    HW223751   3.503   5.993   2.438
 7618SOL     OW23752   1.757   2.474   1.071
 7618SOL    HW123753   1.819   2.395   1.068
 7618SOL    HW223754   1.681   2.453   1.133
 7619SOL     OW23755   5.792   3.195   5.584
 7619SOL    HW123756   5.884   3.231   5.600
 7619SOL    HW223757   5.739   3.200   5.669
 7620SOL     OW23758   2.641   6.323   1.420
 7620SOL    HW123759   2.716   6.384   1.393
 7620SOL    HW223760   2.650   6.301   1.517
 7621SOL     OW23761   2.538   1.899   1.113
 7621SOL    HW123762   2.593   1.972   1.154
 7621SOL    HW223763   2.574   1.876   1.023
 7622SOL     OW23764   5.179   1.914   0.977
 7622SOL    HW123765   5.212   1.854   0.904
 7622SOL    HW223766   5.080   1.926   0.970
 7623SOL     OW23767   5.460   7.011   5.246
 7623SOL    HW123768   5.429   6.925   5.205
 7623SOL    HW223769   5.546   0.013   5.203
 7624SOL     OW23770   6.589   0.935   4.316
 7624SOL    HW123771   6.621   0.848   4.355
 7624SOL    HW223772   6.629   0.947   4.226
 7625SOL     OW23773   4.187   6.490   0.394
 7625SOL    HW123774   4.207   6.587   0.383
 7625SOL    HW223775   4.134   6.477   0.479
 7626SOL     OW23776   2.394   4.353   4.550
 7626SOL    HW123777   2.476   4.336   4.604
 7626SOL    HW223778   2.324   4.286   4.573
 7627SOL     OW23779   6.972   1.600   0.136
 7627SOL    HW123780   6.912   1.575   0.213
 7627SOL    HW223781   0.041   1.587   0.163
 7628SOL     OW23782   3.971   1.886   0.989
 7628SOL    HW123783   3.874   1.880   0.966
 7628SOL    HW223784   4.021   1.812   0.943
 7629SOL     OW23785   6.157   5.580   3.175
 7629SOL    HW123786   6.075   5.591   3.118
 7629SOL    HW223787   6.133   5.600   3.270
 7630SOL     OW23788   6.834   1.136   2.340
 7630SOL    HW123789   6.804   1.136   2.435
 7630SOL    HW223790   6.846   1.230   2.308
 7631SOL     OW23791   1.285   1.482   3.418
 7631SOL    HW123792   1.315   1.389   3.439
 7631SOL    HW223793   1.310   1.543   3.493
 7632SOL     OW23794   4.595   1.048   6.170
 7632SOL    HW123795   4.665   1.054   6.241
 7632SOL    HW223796   4.610   1.120   6.102
 7633SOL     OW23797   5.502   4.941   6.711
 7633SOL    HW123798   5.522   4.992   6.627
 7633SOL    HW223799   5.458   4.854   6.688
 7634SOL     OW23800   0.898   2.115   1.901
 7634SOL    HW123801   0.987   2.153   1.927
 7634SOL    HW223802   0.837   2.190   1.874
 7635SOL     OW23803   2.726   5.095   5.768
 7635SOL    HW123804   2.797   5.145   5.719
 7635SOL    HW223805   2.738   5.110   5.867
 7636SOL     OW23806   1.754   0.621   3.511
 7636SOL    HW123807   1.775   0.541   3.567
 7636SOL    HW223808   1.825   0.632   3.441
 7637SOL     OW23809   2.357   6.265   3.974
 7637SOL    HW123810   2.437   6.308   3.932
 7637SOL    HW223811   2.364   6.272   4.073
 7638SOL     OW23812   4.146   4.270   1.656
 7638SOL    HW123813   4.238   4.237   1.636
 7638SOL    HW223814   4.145   4.370   1.656
 7639SOL     OW23815   0.109   2.535   4.577
 7639SOL    HW123816   0.054   2.459   4.545
 7639SOL    HW223817   0.143   2.516   4.669
 7640SOL     OW23818   2.216   3.230   5.878
 7640SOL    HW123819   2.295   3.274   5.919
 7640SOL    HW223820   2.224   3.233   5.778
 7641SOL     OW23821   6.470   2.827   3.527
 7641SOL    HW123822   6.383   2.817   3.479
 7641SOL    HW223823   6.454   2.830   3.625
 7642SOL     OW23824   2.255   1.361   2.837
 7642SOL    HW123825   2.274   1.386   2.932
 7642SOL    HW223826   2.304   1.276   2.814
 7643SOL     OW23827   5.706   3.021   3.303
 7643SOL    HW123828   5.792   3.059   3.338
 7643SOL    HW223829   5.688   3.059   3.212
 7644SOL     OW23830   6.697   4.133   3.647
 7644SOL    HW123831   6.636   4.072   3.597
 7644SOL    HW223832   6.683   4.227   3.615
 7645SOL     OW23833   4.459   2.920   0.162
 7645SOL    HW123834   4.472   2.917   0.261
 7645SOL    HW223835   4.371   2.963   0.141
 7646SOL     OW23836   0.766   1.318   1.303
 7646SOL    HW123837   0.668   1.335   1.312
 7646SOL    HW223838   0.808   1.319   1.394
 7647SOL     OW23839   2.209   5.349   1.011
 7647SOL    HW123840   2.197   5.385   0.918
 7647SOL    HW223841   2.295   5.298   1.016
 7648SOL     OW23842   3.816   0.228   3.739
 7648SOL    HW123843   3.820   0.315   3.788
 7648SOL    HW223844   3.727   0.219   3.695
 7649SOL     OW23845   2.901   1.558   1.999
 7649SOL    HW123846   2.953   1.604   2.071
 7649SOL    HW223847   2.940   1.580   1.910
 7650SOL     OW23848   6.115   4.339   1.134
 7650SOL    HW123849   6.157   4.419   1.091
 7650SOL    HW223850   6.175   4.259   1.120
 7651SOL     OW23851   3.950   2.030   6.517
 7651SOL    HW123852   3.980   1.938   6.492
 7651SOL    HW223853   3.870   2.055   6.463
 7652SOL     OW23854   1.539   3.254   2.970
 7652SOL    HW123855   1.441   3.260   2.950
 7652SOL    HW223856   1.554   3.265   3.069
 7653SOL     OW23857   3.833   1.811   1.509
 7653SOL    HW123858   3.867   1.797   1.415
 7653SOL    HW223859   3.853   1.904   1.538
 7654SOL     OW23860   4.871   3.626   4.167
 7654SOL    HW123861   4.881   3.680   4.250
 7654SOL    HW223862   4.943   3.650   4.102
 7655SOL     OW23863   4.619   6.210   5.349
 7655SOL    HW123864   4.531   6.177   5.315
 7655SOL    HW223865   4.651   6.149   5.422
 7656SOL     OW23866   1.033   6.320   4.406
 7656SOL    HW123867   1.032   6.344   4.309
 7656SOL    HW223868   1.127   6.300   4.434
 7657SOL     OW23869   4.512   1.505   4.404
 7657SOL    HW123870   4.468   1.441   4.467
 7657SOL    HW223871   4.447   1.577   4.378
 7658SOL     OW23872   4.119   0.233   6.591
 7658SOL    HW123873   4.204   0.207   6.546
 7658SOL    HW223874   4.055   0.269   6.523
 7659SOL     OW23875   5.491   6.760   0.520
 7659SOL    HW123876   5.417   6.697   0.496
 7659SOL    HW223877   5.573   6.738   0.467
 7660SOL     OW23878   6.046   4.355   4.276
 7660SOL    HW123879   5.995   4.430   4.234
 7660SOL    HW223880   6.063   4.376   4.372
 7661SOL     OW23881   5.349   3.217   4.028
 7661SOL    HW123882   5.428   3.162   4.055
 7661SOL    HW223883   5.316   3.188   3.939
 7662SOL     OW23884   6.612   5.655   2.715
 7662SOL    HW123885   6.601   5.614   2.806
 7662SOL    HW223886   6.579   5.749   2.717
 7663SOL     OW23887   6.305   5.610   6.977
 7663SOL    HW123888   6.208   5.590   6.970
 7663SOL    HW223889   6.318   5.700   7.021
 7664SOL     OW23890   2.836   5.911   4.852
 7664SOL    HW123891   2.861   5.825   4.896
 7664SOL    HW223892   2.737   5.916   4.842
 7665SOL     OW23893   2.542   5.575   4.194
 7665SOL    HW123894   2.505   5.492   4.152
 7665SOL    HW223895   2.550   5.647   4.126
 7666SOL     OW23896   2.032   1.312   0.863
 7666SOL    HW123897   2.124   1.273   0.857
 7666SOL    HW223898   2.000   1.335   0.771
 7667SOL     OW23899   4.619   6.059   6.620
 7667SOL    HW123900   4.601   6.135   6.683
 7667SOL    HW223901   4.644   6.096   6.530
 7668SOL     OW23902   2.580   4.047   1.633
 7668SOL    HW123903   2.533   4.126   1.672
 7668SOL    HW223904   2.673   4.074   1.605
 7669SOL     OW23905   4.727   6.458   5.013
 7669SOL    HW123906   4.742   6.544   5.063
 7669SOL    HW223907   4.629   6.441   5.005
 7670SOL     OW23908   1.598   5.265   0.562
 7670SOL    HW123909   1.612   5.283   0.464
 7670SOL    HW223910   1.687   5.258   0.607
 7671SOL     OW23911   5.712   2.551   4.665
 7671SOL    HW123912   5.789   2.489   4.652
 7671SOL    HW223913   5.689   2.555   4.762
 7672SOL     OW23914   6.237   0.200   2.232
 7672SOL    HW123915   6.210   0.287   2.191
 7672SOL    HW223916   6.331   0.206   2.266
 7673SOL     OW23917   0.163   4.241   7.005
 7673SOL    HW123918   0.148   4.181   6.927
 7673SOL    HW223919   0.161   4.188   0.064
 7674SOL     OW23920   6.723   1.408   5.324
 7674SOL    HW123921   6.723   1.351   5.406
 7674SOL    HW223922   6.654   1.374   5.260
 7675SOL     OW23923   4.821   6.943   3.169
 7675SOL    HW123924   4.911   6.952   3.128
 7675SOL    HW223925   4.829   6.906   3.262
 7676SOL     OW23926   1.400   0.268   1.372
 7676SOL    HW123927   1.323   0.234   1.426
 7676SOL    HW223928   1.385   0.364   1.349
 7677SOL     OW23929   1.658   2.176   2.731
 7677SOL    HW123930   1.709   2.128   2.803
 7677SOL    HW223931   1.594   2.240   2.774
 7678SOL     OW23932   5.379   6.395   6.109
 7678SOL    HW123933   5.397   6.377   6.013
 7678SOL    HW223934   5.404   6.489   6.131
 7679SOL     OW23935   1.461   5.085   5.428
 7679SOL    HW123936   1.416   4.996   5.440
 7679SOL    HW223937   1.527   5.099   5.502
 7680SOL     OW23938   4.734   1.748   6.734
 7680SOL    HW123939   4.652   1.801   6.711
 7680SOL    HW223940   4.814   1.809   6.736
 7681SOL     OW23941   2.410   2.223   6.168
 7681SOL    HW123942   2.474   2.255   6.238
 7681SOL    HW223943   2.440   2.257   6.079
 7682SOL     OW23944   2.603   0.197   1.358
 7682SOL    HW123945   2.682   0.194   1.419
 7682SOL    HW223946   2.530   0.139   1.395
 7683SOL     OW23947   5.957   1.843   2.734
 7683SOL    HW123948   5.992   1.930   2.769
 7683SOL    HW223949   5.981   1.769   2.797
 7684SOL     OW23950   4.319   2.109   6.191
 7684SOL    HW123951   4.248   2.157   6.141
 7684SOL    HW223952   4.297   2.011   6.195
 7685SOL     OW23953   4.335   3.566   0.787
 7685SOL    HW123954   4.411   3.628   0.807
 7685SOL    HW223955   4.293   3.536   0.873
 7686SOL     OW23956   3.258   0.713   4.008
 7686SOL    HW123957   3.190   0.700   4.081
 7686SOL    HW223958   3.257   0.808   3.978
 7687SOL     OW23959   4.273   4.504   5.871
 7687SOL    HW123960   4.327   4.454   5.938
 7687SOL    HW223961   4.329   4.575   5.829
 7688SOL     OW23962   6.723   0.178   3.692
 7688SOL    HW123963   6.680   0.134   3.771
 7688SOL    HW223964   6.819   0.151   3.687
 7689SOL     OW23965   3.737   0.256   4.855
 7689SOL    HW123966   3.792   0.331   4.891
 7689SOL    HW223967   3.792   0.174   4.848
 7690SOL     OW23968   0.744   5.222   2.762
 7690SOL    HW123969   0.821   5.159   2.774
 7690SOL    HW223970   0.742   5.287   2.838
 7691SOL     OW23971   5.597   4.331   5.532
 7691SOL    HW123972   5.561   4.239   5.548
 7691SOL    HW223973   5.682   4.342   5.585
 7692SOL     OW23974   1.912   6.310   1.415
 7692SOL    HW123975   1.904   6.246   1.339
 7692SOL    HW223976   1.978   6.275   1.482
 7693SOL     OW23977   5.192   0.932   0.524
 7693SOL    HW123978   5.135   1.014   0.533
 7693SOL    HW223979   5.288   0.956   0.539
 7694SOL     OW23980   6.387   4.557   4.259
 7694SOL    HW123981   6.291   4.570   4.286
 7694SOL    HW223982   6.412   4.626   4.192
 7695SOL     OW23983   3.743   0.214   6.093
 7695SOL    HW123984   3.764   0.308   6.121
 7695SOL    HW223985   3.705   0.164   6.171
 7696SOL     OW23986   1.074   3.921   5.607
 7696SOL    HW123987   1.097   3.924   5.704
 7696SOL    HW223988   1.048   3.828   5.581
 7697SOL     OW23989   4.026   1.959   2.032
 7697SOL    HW123990   4.116   1.990   2.060
 7697SOL    HW223991   3.977   2.035   1.988
 7698SOL     OW23992   0.570   3.235   6.095
 7698SOL    HW123993   0.637   3.164   6.115
 7698SOL    HW223994   0.579   3.264   6.000
 7699SOL     OW23995   2.525   4.508   0.400
 7699SOL    HW123996   2.509   4.416   0.367
 7699SOL    HW223997   2.446   4.540   0.452
 7700SOL     OW23998   5.905   6.847   5.125
 7700SOL    HW123999   5.823   6.813   5.079
 7700SOL    HW224000   5.883   6.871   5.219
 7701SOL     OW24001   6.226   2.354   5.055
 7701SOL    HW124002   6.241   2.270   5.107
 7701SOL    HW224003   6.182   2.423   5.113
 7702SOL     OW24004   2.724   6.011   5.694
 7702SOL    HW124005   2.645   5.986   5.638
 7702SOL    HW224006   2.801   5.950   5.670
 7703SOL     OW24007   1.043   1.804   6.017
 7703SOL    HW124008   1.119   1.805   5.952
 7703SOL    HW224009   1.072   1.760   6.102
 7704SOL     OW24010   3.320   4.387   0.704
 7704SOL    HW124011   3.330   4.346   0.613
 7704SOL    HW224012   3.334   4.318   0.774
 7705SOL     OW24013   3.536   4.776   5.375
 7705SOL    HW124014   3.615   4.762   5.434
 7705SOL    HW224015   3.470   4.701   5.389
 7706SOL     OW24016   6.466   0.569   5.036
 7706SOL    HW124017   6.400   0.495   5.050
 7706SOL    HW224018   6.512   0.588   5.122
 7707SOL     OW24019   0.023   5.459   6.222
 7707SOL    HW124020   0.060   5.491   6.309
 7707SOL    HW224021   0.098   5.445   6.157
 7708SOL     OW24022   5.057   0.598   4.596
 7708SOL    HW124023   5.091   0.537   4.667
 7708SOL    HW224024   5.044   0.547   4.511
 7709SOL     OW24025   3.587   2.064   1.749
 7709SOL    HW124026   3.619   2.113   1.667
 7709SOL    HW224027   3.590   2.126   1.827
 7710SOL     OW24028   2.580   2.513   6.158
 7710SOL    HW124029   2.645   2.476   6.092
 7710SOL    HW224030   2.591   2.466   6.245
 7711SOL     OW24031   5.225   6.570   5.521
 7711SOL    HW124032   5.221   6.602   5.615
 7711SOL    HW224033   5.172   6.486   5.511
 7712SOL     OW24034   5.164   5.074   0.830
 7712SOL    HW124035   5.079   5.111   0.869
 7712SOL    HW224036   5.151   5.057   0.733
 7713SOL     OW24037   1.084   5.018   6.473
 7713SOL    HW124038   1.060   5.003   6.377
 7713SOL    HW224039   1.070   4.933   6.525
 7714SOL     OW24040   5.754   3.940   4.235
 7714SOL    HW124041   5.815   4.010   4.270
 7714SOL    HW224042   5.673   3.933   4.292
 7715SOL     OW24043   4.735   2.156   1.369
 7715SOL    HW124044   4.788   2.092   1.313
 7715SOL    HW224045   4.655   2.109   1.406
 7716SOL     OW24046   4.787   2.709   3.886
 7716SOL    HW124047   4.834   2.789   3.851
 7716SOL    HW224048   4.744   2.730   3.974
 7717SOL     OW24049   3.183   0.555   6.650
 7717SOL    HW124050   3.214   0.486   6.716
 7717SOL    HW224051   3.146   0.510   6.569
 7718SOL     OW24052   3.127   6.186   3.870
 7718SOL    HW124053   3.045   6.201   3.815
 7718SOL    HW224054   3.110   6.113   3.936
 7719SOL     OW24055   6.128   2.487   5.294
 7719SOL    HW124056   6.137   2.584   5.316
 7719SOL    HW224057   6.136   2.433   5.378
 7720SOL     OW24058   5.472   6.184   1.574
 7720SOL    HW124059   5.405   6.244   1.531
 7720SOL    HW224060   5.426   6.123   1.638
 7721SOL     OW24061   1.429   4.385   2.849
 7721SOL    HW124062   1.405   4.297   2.808
 7721SOL    HW224063   1.371   4.402   2.928
 7722SOL     OW24064   1.016   6.393   4.120
 7722SOL    HW124065   1.059   6.324   4.062
 7722SOL    HW224066   0.916   6.388   4.110
 7723SOL     OW24067   6.535   2.664   0.653
 7723SOL    HW124068   6.460   2.654   0.717
 7723SOL    HW224069   6.551   2.762   0.635
 7724SOL     OW24070   1.679   5.346   0.312
 7724SOL    HW124071   1.627   5.379   0.233
 7724SOL    HW224072   1.742   5.417   0.343
 7725SOL     OW24073   5.323   3.790   4.580
 7725SOL    HW124074   5.340   3.695   4.604
 7725SOL    HW224075   5.263   3.794   4.500
 7726SOL     OW24076   5.895   3.955   3.582
 7726SOL    HW124077   5.830   3.975   3.510
 7726SOL    HW224078   5.905   3.855   3.591
 7727SOL     OW24079   5.989   3.089   1.996
 7727SOL    HW124080   5.960   3.049   2.083
 7727SOL    HW224081   5.936   3.171   1.977
 7728SOL     OW24082   2.348   2.130   2.414
 7728SOL    HW124083   2.347   2.150   2.316
 7728SOL    HW224084   2.254   2.130   2.448
 7729SOL     OW24085   5.174   2.770   0.990
 7729SOL    HW124086   5.266   2.798   0.961
 7729SOL    HW224087   5.141   2.832   1.061
 7730SOL     OW24088   4.964   0.052   1.974
 7730SOL    HW124089   4.920   6.994   2.006
 7730SOL    HW224090   4.956   0.058   1.874
 7731SOL     OW24091   0.052   1.344   5.080
 7731SOL    HW124092   0.095   1.307   5.162
 7731SOL    HW224093   7.004   1.405   5.106
 7732SOL     OW24094   4.490   4.892   0.735
 7732SOL    HW124095   4.442   4.852   0.657
 7732SOL    HW224096   4.537   4.819   0.785
 7733SOL     OW24097   2.816   6.637   0.572
 7733SOL    HW124098   2.728   6.679   0.552
 7733SOL    HW224099   2.812   6.539   0.556
 7734SOL     OW24100   1.550   1.822   3.044
 7734SOL    HW124101   1.483   1.813   3.119
 7734SOL    HW224102   1.620   1.751   3.054
 7735SOL     OW24103   5.145   3.888   0.707
 7735SOL    HW124104   5.157   3.984   0.732
 7735SOL    HW224105   5.064   3.851   0.751
 7736SOL     OW24106   5.704   4.220   6.271
 7736SOL    HW124107   5.677   4.256   6.182
 7736SOL    HW224108   5.731   4.296   6.330
 7737SOL     OW24109   4.885   2.188   1.026
 7737SOL    HW124110   4.799   2.197   0.975
 7737SOL    HW224111   4.948   2.261   1.000
 7738SOL     OW24112   2.200   4.665   0.291
 7738SOL    HW124113   2.252   4.671   0.205
 7738SOL    HW224114   2.258   4.626   0.362
 7739SOL     OW24115   5.786   3.282   1.935
 7739SOL    HW124116   5.774   3.277   1.835
 7739SOL    HW224117   5.859   3.347   1.957
 7740SOL     OW24118   0.433   6.500   3.757
 7740SOL    HW124119   0.432   6.512   3.658
 7740SOL    HW224120   0.397   6.410   3.781
 7741SOL     OW24121   3.235   5.933   4.541
 7741SOL    HW124122   3.152   5.889   4.575
 7741SOL    HW224123   3.219   5.968   4.449
 7742SOL     OW24124   6.559   1.030   4.587
 7742SOL    HW124125   6.619   1.102   4.621
 7742SOL    HW224126   6.591   0.998   4.498
 7743SOL     OW24127   4.864   3.086   2.972
 7743SOL    HW124128   4.900   3.170   2.932
 7743SOL    HW224129   4.864   3.093   3.072
 7744SOL     OW24130   0.590   0.240   5.032
 7744SOL    HW124131   0.611   0.264   4.938
 7744SOL    HW224132   0.671   0.203   5.077
 7745SOL     OW24133   4.659   3.344   5.285
 7745SOL    HW124134   4.659   3.434   5.243
 7745SOL    HW224135   4.564   3.316   5.305
 7746SOL     OW24136   1.621   0.577   0.018
 7746SOL    HW124137   1.679   0.612   6.970
 7746SOL    HW224138   1.621   0.477   0.015
 7747SOL     OW24139   5.443   5.430   1.496
 7747SOL    HW124140   5.443   5.344   1.446
 7747SOL    HW224141   5.475   5.504   1.436
 7748SOL     OW24142   2.666   3.832   6.655
 7748SOL    HW124143   2.594   3.899   6.674
 7748SOL    HW224144   2.642   3.745   6.698
 7749SOL     OW24145   5.415   4.164   6.491
 7749SOL    HW124146   5.366   4.246   6.464
 7749SOL    HW224147   5.364   4.117   6.563
 7750SOL     OW24148   5.854   4.811   2.745
 7750SOL    HW124149   5.838   4.906   2.772
 7750SOL    HW224150   5.776   4.778   2.691
 7751SOL     OW24151   0.314   2.423   1.403
 7751SOL    HW124152   0.376   2.429   1.482
 7751SOL    HW224153   0.353   2.476   1.327
 7752SOL     OW24154   4.167   1.238   3.324
 7752SOL    HW124155   4.212   1.307   3.380
 7752SOL    HW224156   4.167   1.268   3.229
 7753SOL     OW24157   3.363   1.947   5.166
 7753SOL    HW124158   3.404   1.988   5.248
 7753SOL    HW224159   3.365   2.013   5.091
 7754SOL     OW24160   5.520   5.514   2.044
 7754SOL    HW124161   5.464   5.461   2.108
 7754SOL    HW224162   5.481   5.605   2.033
 7755SOL     OW24163   0.676   4.860   4.655
 7755SOL    HW124164   0.713   4.898   4.570
 7755SOL    HW224165   0.592   4.810   4.635
 7756SOL     OW24166   2.373   4.825   2.348
 7756SOL    HW124167   2.466   4.789   2.358
 7756SOL    HW224168   2.357   4.851   2.253
 7757SOL     OW24169   0.009   4.338   1.588
 7757SOL    HW124170   0.048   4.354   1.498
 7757SOL    HW224171   0.037   4.248   1.621
 7758SOL     OW24172   1.308   2.524   4.768
 7758SOL    HW124173   1.317   2.425   4.776
 7758SOL    HW224174   1.353   2.555   4.684
 7759SOL     OW24175   3.607   1.182   1.727
 7759SOL    HW124176   3.670   1.113   1.761
 7759SOL    HW224177   3.555   1.145   1.650
 7760SOL     OW24178   4.824   3.181   0.261
 7760SOL    HW124179   4.912   3.218   0.292
 7760SOL    HW224180   4.776   3.140   0.339
 7761SOL     OW24181   4.952   5.161   2.835
 7761SOL    HW124182   4.993   5.170   2.744
 7761SOL    HW224183   4.887   5.086   2.835
 7762SOL     OW24184   5.197   1.861   1.645
 7762SOL    HW124185   5.233   1.836   1.555
 7762SOL    HW224186   5.111   1.910   1.634
 7763SOL     OW24187   2.437   0.161   4.127
 7763SOL    HW124188   2.496   0.241   4.132
 7763SOL    HW224189   2.438   0.112   4.214
 7764SOL     OW24190   3.089   4.209   5.833
 7764SOL    HW124191   3.000   4.237   5.796
 7764SOL    HW224192   3.123   4.280   5.894
 7765SOL     OW24193   5.569   3.884   4.428
 7765SOL    HW124194   5.546   3.981   4.429
 7765SOL    HW224195   5.490   3.831   4.456
 7766SOL     OW24196   6.749   3.225   6.537
 7766SOL    HW124197   6.803   3.142   6.520
 7766SOL    HW224198   6.653   3.208   6.513
 7767SOL     OW24199   4.184   0.435   3.798
 7767SOL    HW124200   4.234   0.355   3.765
 7767SOL    HW224201   4.214   0.457   3.890
 7768SOL     OW24202   3.888   5.667   4.039
 7768SOL    HW124203   3.831   5.587   4.020
 7768SOL    HW224204   3.949   5.684   3.961
 7769SOL     OW24205   3.713   2.960   6.223
 7769SOL    HW124206   3.676   3.003   6.141
 7769SOL    HW224207   3.655   2.982   6.301
 7770SOL     OW24208   1.304   3.303   4.166
 7770SOL    HW124209   1.256   3.223   4.129
 7770SOL    HW224210   1.399   3.279   4.185
 7771SOL     OW24211   1.460   4.051   6.390
 7771SOL    HW124212   1.525   3.975   6.399
 7771SOL    HW224213   1.419   4.048   6.298
 7772SOL     OW24214   5.517   6.115   1.980
 7772SOL    HW124215   5.477   6.043   2.036
 7772SOL    HW224216   5.536   6.195   2.037
 7773SOL     OW24217   2.162   6.413   6.667
 7773SOL    HW124218   2.066   6.385   6.658
 7773SOL    HW224219   2.196   6.442   6.577
 7774SOL     OW24220   4.995   1.571   2.859
 7774SOL    HW124221   4.920   1.637   2.861
 7774SOL    HW224222   5.017   1.548   2.764
 7775SOL     OW24223   2.996   1.684   1.291
 7775SOL    HW124224   2.979   1.701   1.388
 7775SOL    HW224225   2.973   1.589   1.269
 7776SOL     OW24226   2.904   0.959   4.560
 7776SOL    HW124227   2.923   0.991   4.653
 7776SOL    HW224228   2.806   0.967   4.541
 7777SOL     OW24229   6.120   5.625   3.452
 7777SOL    HW124230   6.106   5.723   3.465
 7777SOL    HW224231   6.039   5.575   3.482
 7778SOL     OW24232   1.071   4.530   2.873
 7778SOL    HW124233   1.139   4.567   2.937
 7778SOL    HW224234   1.048   4.600   2.806
 7779SOL     OW24235   3.777   6.452   1.534
 7779SOL    HW124236   3.845   6.418   1.469
 7779SOL    HW224237   3.820   6.520   1.594
 7780SOL     OW24238   6.359   5.901   4.492
 7780SOL    HW124239   6.446   5.946   4.473
 7780SOL    HW224240   6.306   5.956   4.556
 7781SOL     OW24241   1.995   3.156   1.014
 7781SOL    HW124242   1.974   3.218   1.090
 7781SOL    HW224243   1.918   3.094   0.999
 7782SOL     OW24244   5.863   3.604   4.750
 7782SOL    HW124245   5.827   3.629   4.660
 7782SOL    HW224246   5.955   3.565   4.739
 7783SOL     OW24247   2.209   6.589   3.970
 7783SOL    HW124248   2.130   6.564   3.914
 7783SOL    HW224249   2.276   6.514   3.969
 7784SOL     OW24250   1.507   2.008   1.677
 7784SOL    HW124251   1.495   2.080   1.746
 7784SOL    HW224252   1.549   1.928   1.719
 7785SOL     OW24253   6.623   5.867   2.974
 7785SOL    HW124254   6.535   5.829   2.943
 7785SOL    HW224255   6.609   5.918   3.058
 7786SOL     OW24256   4.491   1.194   6.460
 7786SOL    HW124257   4.392   1.189   6.472
 7786SOL    HW224258   4.533   1.109   6.493
 7787SOL     OW24259   2.323   2.556   1.620
 7787SOL    HW124260   2.341   2.606   1.535
 7787SOL    HW224261   2.361   2.464   1.612
 7788SOL     OW24262   0.842   3.998   1.929
 7788SOL    HW124263   0.844   3.961   2.022
 7788SOL    HW224264   0.892   3.937   1.867
 7789SOL     OW24265   3.534   1.266   6.182
 7789SOL    HW124266   3.447   1.271   6.232
 7789SOL    HW224267   3.593   1.342   6.210
 7790SOL     OW24268   3.918   5.089   3.770
 7790SOL    HW124269   4.013   5.109   3.748
 7790SOL    HW224270   3.858   5.152   3.722
 7791SOL     OW24271   2.715   5.569   2.473
 7791SOL    HW124272   2.637   5.521   2.434
 7791SOL    HW224273   2.700   5.668   2.467
 7792SOL     OW24274   1.220   1.500   2.831
 7792SOL    HW124275   1.224   1.440   2.751
 7792SOL    HW224276   1.273   1.583   2.813
 7793SOL     OW24277   4.700   1.191   0.726
 7793SOL    HW124278   4.608   1.188   0.764
 7793SOL    HW224279   4.761   1.132   0.780
 7794SOL     OW24280   1.244   0.246   2.988
 7794SOL    HW124281   1.297   0.330   3.001
 7794SOL    HW224282   1.168   0.265   2.925
 7795SOL     OW24283   3.721   4.343   1.073
 7795SOL    HW124284   3.684   4.430   1.107
 7795SOL    HW224285   3.820   4.343   1.083
 7796SOL     OW24286   3.242   1.042   0.221
 7796SOL    HW124287   3.209   1.117   0.279
 7796SOL    HW224288   3.300   1.080   0.148
 7797SOL     OW24289   1.343   5.731   2.728
 7797SOL    HW124290   1.429   5.763   2.768
 7797SOL    HW224291   1.361   5.654   2.667
 7798SOL     OW24292   1.964   3.464   0.726
 7798SOL    HW124293   1.944   3.473   0.628
 7798SOL    HW224294   2.028   3.388   0.740
 7799SOL     OW24295   3.370   6.268   3.790
 7799SOL    HW124296   3.392   6.212   3.710
 7799SOL    HW224297   3.284   6.238   3.830
 7800SOL     OW24298   1.817   0.637   2.343
 7800SOL    HW124299   1.833   0.731   2.372
 7800SOL    HW224300   1.731   0.632   2.291
 7801SOL     OW24301   1.197   2.356   0.964
 7801SOL    HW124302   1.195   2.270   1.015
 7801SOL    HW224303   1.134   2.421   1.008
 7802SOL     OW24304   6.368   4.386   4.009
 7802SOL    HW124305   6.379   4.435   4.096
 7802SOL    HW224306   6.339   4.450   3.938
 7803SOL     OW24307   3.080   2.603   5.736
 7803SOL    HW124308   3.024   2.686   5.731
 7803SOL    HW224309   3.173   2.624   5.703
 7804SOL     OW24310   2.955   1.745   5.925
 7804SOL    HW124311   3.054   1.736   5.918
 7804SOL    HW224312   2.913   1.654   5.922
 7805SOL     OW24313   5.689   3.077   6.499
 7805SOL    HW124314   5.662   3.060   6.594
 7805SOL    HW224315   5.786   3.100   6.495
 7806SOL     OW24316   6.158   1.622   5.676
 7806SOL    HW124317   6.189   1.694   5.615
 7806SOL    HW224318   6.064   1.641   5.705
 7807SOL     OW24319   2.087   5.743   5.318
 7807SOL    HW124320   2.035   5.792   5.249
 7807SOL    HW224321   2.035   5.740   5.404
 7808SOL     OW24322   6.223   3.662   3.754
 7808SOL    HW124323   6.270   3.682   3.840
 7808SOL    HW224324   6.184   3.746   3.717
 7809SOL     OW24325   4.767   6.060   2.296
 7809SOL    HW124326   4.806   6.150   2.315
 7809SOL    HW224327   4.694   6.041   2.362
 7810SOL     OW24328   2.196   6.664   5.346
 7810SOL    HW124329   2.171   6.686   5.441
 7810SOL    HW224330   2.281   6.711   5.323
 7811SOL     OW24331   0.996   6.283   2.477
 7811SOL    HW124332   0.952   6.336   2.404
 7811SOL    HW224333   0.954   6.306   2.565
 7812SOL     OW24334   2.983   1.010   5.620
 7812SOL    HW124335   2.902   1.061   5.648
 7812SOL    HW224336   3.048   1.072   5.576
 7813SOL     OW24337   5.592   0.879   0.919
 7813SOL    HW124338   5.581   0.964   0.868
 7813SOL    HW224339   5.524   0.873   0.991
 7814SOL     OW24340   6.159   2.554   2.237
 7814SOL    HW124341   6.134   2.535   2.331
 7814SOL    HW224342   6.184   2.651   2.227
 7815SOL     OW24343   4.891   5.608   3.634
 7815SOL    HW124344   4.885   5.695   3.587
 7815SOL    HW224345   4.830   5.542   3.590
 7816SOL     OW24346   0.968   1.394   5.311
 7816SOL    HW124347   1.014   1.432   5.231
 7816SOL    HW224348   0.879   1.358   5.284
 7817SOL     OW24349   4.315   1.579   6.841
 7817SOL    HW124350   4.331   1.675   6.866
 7817SOL    HW224351   4.270   1.532   6.917
 7818SOL     OW24352   6.047   1.030   3.314
 7818SOL    HW124353   6.100   0.973   3.251
 7818SOL    HW224354   6.090   1.120   3.320
 7819SOL     OW24355   1.382   3.135   5.039
 7819SOL    HW124356   1.427   3.090   5.117
 7819SOL    HW224357   1.390   3.234   5.049
 7820SOL     OW24358   1.303   1.290   5.341
 7820SOL    HW124359   1.396   1.320   5.321
 7820SOL    HW224360   1.254   1.361   5.391
 7821SOL     OW24361   3.783   5.867   6.704
 7821SOL    HW124362   3.753   5.801   6.772
 7821SOL    HW224363   3.876   5.898   6.726
 7822SOL     OW24364   0.280   1.639   4.718
 7822SOL    HW124365   0.187   1.674   4.703
 7822SOL    HW224366   0.275   1.550   4.763
 7823SOL     OW24367   2.832   3.097   5.755
 7823SOL    HW124368   2.771   3.093   5.676
 7823SOL    HW224369   2.779   3.104   5.839
 7824SOL     OW24370   5.577   3.640   2.857
 7824SOL    HW124371   5.481   3.640   2.830
 7824SOL    HW224372   5.584   3.616   2.954
 7825SOL     OW24373   3.355   3.644   2.844
 7825SOL    HW124374   3.302   3.713   2.893
 7825SOL    HW224375   3.315   3.630   2.753
 7826SOL     OW24376   6.706   0.002   0.174
 7826SOL    HW124377   6.709   0.071   0.246
 7826SOL    HW224378   6.612   7.018   0.141
 7827SOL     OW24379   4.462   3.341   0.538
 7827SOL    HW124380   4.407   3.349   0.454
 7827SOL    HW224381   4.504   3.430   0.558
 7828SOL     OW24382   1.212   5.891   1.107
 7828SOL    HW124383   1.134   5.862   1.162
 7828SOL    HW224384   1.182   5.914   1.015
 7829SOL     OW24385   3.414   3.852   3.668
 7829SOL    HW124386   3.465   3.914   3.728
 7829SOL    HW224387   3.375   3.904   3.592
 7830SOL     OW24388   5.953   3.976   6.683
 7830SOL    HW124389   6.000   3.933   6.760
 7830SOL    HW224390   5.968   4.075   6.686
 7831SOL     OW24391   1.467   2.792   0.525
 7831SOL    HW124392   1.371   2.820   0.538
 7831SOL    HW224393   1.527   2.867   0.552
 7832SOL     OW24394   3.372   2.757   5.637
 7832SOL    HW124395   3.458   2.719   5.605
 7832SOL    HW224396   3.333   2.816   5.566
 7833SOL     OW24397   6.493   6.461   1.485
 7833SOL    HW124398   6.557   6.431   1.556
 7833SOL    HW224399   6.543   6.504   1.410
 7834SOL     OW24400   6.146   0.635   1.425
 7834SOL    HW124401   6.096   0.554   1.393
 7834SOL    HW224402   6.244   0.620   1.413
 7835SOL     OW24403   2.190   2.242   4.187
 7835SOL    HW124404   2.252   2.271   4.259
 7835SOL    HW224405   2.106   2.297   4.191
 7836SOL     OW24406   2.045   0.577   0.246
 7836SOL    HW124407   1.945   0.577   0.248
 7836SOL    HW224408   2.078   0.668   0.222
 7837SOL     OW24409   5.144   6.710   2.587
 7837SOL    HW124410   5.101   6.638   2.532
 7837SOL    HW224411   5.179   6.672   2.672
 7838SOL     OW24412   4.315   6.402   4.364
 7838SOL    HW124413   4.244   6.407   4.435
 7838SOL    HW224414   4.362   6.314   4.371
 7839SOL     OW24415   0.187   4.923   3.506
 7839SOL    HW124416   0.132   4.873   3.573
 7839SOL    HW224417   0.209   5.014   3.542
 7840SOL     OW24418   4.822   3.220   6.323
 7840SOL    HW124419   4.798   3.273   6.241
 7840SOL    HW224420   4.896   3.157   6.300
 7841SOL     OW24421   1.168   1.684   6.520
 7841SOL    HW124422   1.088   1.739   6.547
 7841SOL    HW224423   1.173   1.602   6.577
 7842SOL     OW24424   2.992   6.919   2.090
 7842SOL    HW124425   3.087   6.945   2.106
 7842SOL    HW224426   2.935   7.001   2.085
 7843SOL     OW24427   0.499   2.728   2.072
 7843SOL    HW124428   0.414   2.678   2.054
 7843SOL    HW224429   0.576   2.665   2.065
 7844SOL     OW24430   3.750   1.460   3.919
 7844SOL    HW124431   3.791   1.434   4.007
 7844SOL    HW224432   3.720   1.377   3.872
 7845SOL     OW24433   1.122   1.193   3.792
 7845SOL    HW124434   1.116   1.119   3.860
 7845SOL    HW224435   1.066   1.170   3.713
 7846SOL     OW24436   4.327   0.057   2.366
 7846SOL    HW124437   4.340   6.987   2.392
 7846SOL    HW224438   4.229   0.078   2.367
 7847SOL     OW24439   0.432   0.137   6.846
 7847SOL    HW124440   0.421   0.083   6.762
 7847SOL    HW224441   0.465   0.079   6.919
 7848SOL     OW24442   3.980   4.334   1.059
 7848SOL    HW124443   3.995   4.258   0.997
 7848SOL    HW224444   4.067   4.359   1.103
 7849SOL     OW24445   5.324   4.164   4.630
 7849SOL    HW124446   5.328   4.088   4.695
 7849SOL    HW224447   5.334   4.250   4.679
 7850SOL     OW24448   0.899   2.147   4.960
 7850SOL    HW124449   0.985   2.128   4.912
 7850SOL    HW224450   0.823   2.117   4.903
 7851SOL     OW24451   4.484   6.624   1.171
 7851SOL    HW124452   4.430   6.581   1.243
 7851SOL    HW224453   4.573   6.579   1.165
 7852SOL     OW24454   2.334   6.356   0.429
 7852SOL    HW124455   2.414   6.305   0.460
 7852SOL    HW224456   2.343   6.377   0.332
 7853SOL     OW24457   2.128   2.521   0.674
 7853SOL    HW124458   2.060   2.455   0.645
 7853SOL    HW224459   2.090   2.614   0.666
 7854SOL     OW24460   3.233   4.110   3.671
 7854SOL    HW124461   3.325   4.112   3.631
 7854SOL    HW224462   3.236   4.145   3.764
 7855SOL     OW24463   3.680   0.055   5.083
 7855SOL    HW124464   3.743   7.008   5.057
 7855SOL    HW224465   3.719   0.109   5.158
 7856SOL     OW24466   2.961   3.472   6.980
 7856SOL    HW124467   2.952   3.403   6.908
 7856SOL    HW224468   3.034   3.444   0.017
 7857SOL     OW24469   0.734   3.388   5.497
 7857SOL    HW124470   0.689   3.298   5.493
 7857SOL    HW224471   0.832   3.377   5.478
 7858SOL     OW24472   6.116   3.585   2.886
 7858SOL    HW124473   6.087   3.497   2.848
 7858SOL    HW224474   6.176   3.631   2.821
 7859SOL     OW24475   0.853   6.112   0.312
 7859SOL    HW124476   0.840   6.100   0.214
 7859SOL    HW224477   0.766   6.097   0.359
 7860SOL     OW24478   4.437   6.758   2.106
 7860SOL    HW124479   4.450   6.857   2.101
 7860SOL    HW224480   4.340   6.736   2.096
 7861SOL     OW24481   5.474   3.470   0.556
 7861SOL    HW124482   5.511   3.562   0.566
 7861SOL    HW224483   5.390   3.473   0.502
 7862SOL     OW24484   2.954   4.768   1.733
 7862SOL    HW124485   2.928   4.701   1.802
 7862SOL    HW224486   3.030   4.733   1.679
 7863SOL     OW24487   5.413   5.737   2.323
 7863SOL    HW124488   5.331   5.779   2.363
 7863SOL    HW224489   5.392   5.643   2.295
 7864SOL     OW24490   0.918   5.911   4.223
 7864SOL    HW124491   0.913   5.828   4.278
 7864SOL    HW224492   0.846   5.974   4.250
 7865SOL     OW24493   4.132   0.779   3.278
 7865SOL    HW124494   4.226   0.756   3.302
 7865SOL    HW224495   4.098   0.714   3.209
 7866SOL     OW24496   2.088   2.523   5.030
 7866SOL    HW124497   1.990   2.539   5.034
 7866SOL    HW224498   2.108   2.428   5.054
 7867SOL     OW24499   5.840   3.974   2.125
 7867SOL    HW124500   5.872   3.883   2.097
 7867SOL    HW224501   5.849   3.984   2.224
 7868SOL     OW24502   5.333   6.627   1.128
 7868SOL    HW124503   5.407   6.622   1.196
 7868SOL    HW224504   5.323   6.721   1.098
 7869SOL     OW24505   6.571   1.615   4.109
 7869SOL    HW124506   6.472   1.612   4.091
 7869SOL    HW224507   6.588   1.666   4.193
 7870SOL     OW24508   6.468   6.792   3.257
 7870SOL    HW124509   6.525   6.829   3.183
 7870SOL    HW224510   6.510   6.815   3.345
 7871SOL     OW24511   6.005   3.135   4.105
 7871SOL    HW124512   5.932   3.069   4.090
 7871SOL    HW224513   6.000   3.170   4.199
 7872SOL     OW24514   6.901   3.916   4.603
 7872SOL    HW124515   6.823   3.871   4.560
 7872SOL    HW224516   6.982   3.859   4.593
 7873SOL     OW24517   0.200   5.724   4.723
 7873SOL    HW124518   0.295   5.705   4.745
 7873SOL    HW224519   0.162   5.648   4.670
 7874SOL     OW24520   6.147   0.640   0.705
 7874SOL    HW124521   6.123   0.728   0.746
 7874SOL    HW224522   6.094   0.627   0.621
 7875SOL     OW24523   5.068   3.308   0.860
 7875SOL    HW124524   5.122   3.375   0.809
 7875SOL    HW224525   5.091   3.216   0.828
 7876SOL     OW24526   0.270   0.810   5.210
 7876SOL    HW124527   0.229   0.744   5.273
 7876SOL    HW224528   0.207   0.887   5.198
 7877SOL     OW24529   6.392   2.680   2.894
 7877SOL    HW124530   6.454   2.751   2.862
 7877SOL    HW224531   6.407   2.596   2.841
 7878SOL     OW24532   4.511   3.961   1.463
 7878SOL    HW124533   4.453   3.900   1.409
 7878SOL    HW224534   4.454   4.010   1.530
 7879SOL     OW24535   6.328   0.957   5.083
 7879SOL    HW124536   6.423   0.931   5.063
 7879SOL    HW224537   6.298   0.912   5.167
 7880SOL     OW24538   1.906   6.609   6.034
 7880SOL    HW124539   1.958   6.531   6.001
 7880SOL    HW224540   1.967   6.673   6.080
 7881SOL     OW24541   0.588   4.964   3.991
 7881SOL    HW124542   0.529   4.991   4.067
 7881SOL    HW224543   0.675   5.014   3.997
 7882SOL     OW24544   1.874   4.694   1.537
 7882SOL    HW124545   1.835   4.745   1.460
 7882SOL    HW224546   1.939   4.752   1.586
 7883SOL     OW24547   3.795   1.934   3.062
 7883SOL    HW124548   3.848   1.851   3.079
 7883SOL    HW224549   3.765   1.935   2.966
 7884SOL     OW24550   0.503   3.535   4.265
 7884SOL    HW124551   0.567   3.609   4.288
 7884SOL    HW224552   0.428   3.572   4.211
 7885SOL     OW24553   5.960   5.168   2.231
 7885SOL    HW124554   5.949   5.129   2.139
 7885SOL    HW224555   6.006   5.256   2.225
 7886SOL     OW24556   4.837   3.998   2.434
 7886SOL    HW124557   4.911   3.960   2.378
 7886SOL    HW224558   4.798   4.077   2.387
 7887SOL     OW24559   0.889   3.026   1.631
 7887SOL    HW124560   0.941   2.956   1.679
 7887SOL    HW224561   0.876   3.105   1.691
 7888SOL     OW24562   6.645   0.682   5.230
 7888SOL    HW124563   6.742   0.659   5.244
 7888SOL    HW224564   6.638   0.760   5.168
 7889SOL     OW24565   5.744   5.470   0.650
 7889SOL    HW124566   5.816   5.489   0.584
 7889SOL    HW224567   5.764   5.518   0.735
 7890SOL     OW24568   2.378   2.745   3.622
 7890SOL    HW124569   2.303   2.811   3.634
 7890SOL    HW224570   2.415   2.721   3.712
 7891SOL     OW24571   6.422   1.610   4.418
 7891SOL    HW124572   6.366   1.689   4.444
 7891SOL    HW224573   6.505   1.642   4.373
 7892SOL     OW24574   0.646   2.001   5.405
 7892SOL    HW124575   0.711   1.996   5.329
 7892SOL    HW224576   0.602   1.912   5.417
 7893SOL     OW24577   6.376   6.848   0.354
 7893SOL    HW124578   6.454   6.863   0.414
 7893SOL    HW224579   6.292   6.877   0.400
 7894SOL     OW24580   2.883   0.972   0.092
 7894SOL    HW124581   2.937   0.916   0.154
 7894SOL    HW224582   2.902   0.945   7.024
 7895SOL     OW24583   6.441   5.887   2.754
 7895SOL    HW124584   6.486   5.975   2.740
 7895SOL    HW224585   6.413   5.849   2.666
 7896SOL     OW24586   2.469   1.409   0.483
 7896SOL    HW124587   2.514   1.407   0.393
 7896SOL    HW224588   2.529   1.453   0.549
 7897SOL     OW24589   3.522   2.489   0.571
 7897SOL    HW124590   3.447   2.539   0.615
 7897SOL    HW224591   3.607   2.540   0.583
 7898SOL     OW24592   5.054   6.723   3.043
 7898SOL    HW124593   5.078   6.810   3.087
 7898SOL    HW224594   5.071   6.648   3.107
 7899SOL     OW24595   5.996   4.321   3.815
 7899SOL    HW124596   6.069   4.295   3.878
 7899SOL    HW224597   5.925   4.251   3.816
 7900SOL     OW24598   0.424   3.492   0.411
 7900SOL    HW124599   0.512   3.535   0.431
 7900SOL    HW224600   0.354   3.529   0.473
 7901SOL     OW24601   0.223   2.133   0.049
 7901SOL    HW124602   0.242   2.193   0.127
 7901SOL    HW224603   0.124   2.121   0.041
 7902SOL     OW24604   1.994   6.393   1.886
 7902SOL    HW124605   1.981   6.476   1.831
 7902SOL    HW224606   2.090   6.385   1.912
 7903SOL     OW24607   2.787   2.144   5.247
 7903SOL    HW124608   2.770   2.178   5.154
 7903SOL    HW224609   2.763   2.215   5.313
 7904SOL     OW24610   4.552   2.475   3.003
 7904SOL    HW124611   4.517   2.403   3.064
 7904SOL    HW224612   4.536   2.448   2.908
 7905SOL     OW24613   6.139   2.244   1.437
 7905SOL    HW124614   6.160   2.147   1.448
 7905SOL    HW224615   6.040   2.255   1.428
 7906SOL     OW24616   0.977   4.812   6.634
 7906SOL    HW124617   0.887   4.771   6.646
 7906SOL    HW224618   1.018   4.829   6.723
 7907SOL     OW24619   5.798   6.356   2.729
 7907SOL    HW124620   5.714   6.409   2.719
 7907SOL    HW224621   5.839   6.340   2.640
 7908SOL     OW24622   1.704   6.916   6.490
 7908SOL    HW124623   1.758   6.998   6.509
 7908SOL    HW224624   1.750   6.837   6.530
 7909SOL     OW24625   6.514   4.125   1.582
 7909SOL    HW124626   6.564   4.073   1.513
 7909SOL    HW224627   6.527   4.082   1.672
 7910SOL     OW24628   0.942   4.125   6.123
 7910SOL    HW124629   0.955   4.194   6.194
 7910SOL    HW224630   0.855   4.077   6.139
 7911SOL     OW24631   5.996   4.208   6.098
 7911SOL    HW124632   6.009   4.213   6.197
 7911SOL    HW224633   6.084   4.222   6.052
 7912SOL     OW24634   5.741   5.617   0.884
 7912SOL    HW124635   5.738   5.712   0.915
 7912SOL    HW224636   5.797   5.563   0.948
 7913SOL     OW24637   1.540   5.026   6.542
 7913SOL    HW124638   1.441   5.012   6.542
 7913SOL    HW224639   1.568   5.064   6.454
 7914SOL     OW24640   0.702   6.933   4.842
 7914SOL    HW124641   0.639   6.907   4.915
 7914SOL    HW224642   0.656   6.998   4.781
 7915SOL     OW24643   2.849   4.736   2.576
 7915SOL    HW124644   2.839   4.741   2.675
 7915SOL    HW224645   2.925   4.794   2.547
 7916SOL     OW24646   1.099   0.321   3.981
 7916SOL    HW124647   1.187   0.283   3.951
 7916SOL    HW224648   1.025   0.265   3.946
 7917SOL     OW24649   4.654   1.435   1.969
 7917SOL    HW124650   4.678   1.339   1.985
 7917SOL    HW224651   4.737   1.487   1.947
 7918SOL     OW24652   2.356   2.514   3.477
 7918SOL    HW124653   2.371   2.525   3.379
 7918SOL    HW224654   2.382   2.598   3.524
 7919SOL     OW24655   1.118   6.680   4.923
 7919SOL    HW124656   1.052   6.727   4.982
 7919SOL    HW224657   1.202   6.734   4.917
 7920SOL     OW24658   4.911   0.341   0.976
 7920SOL    HW124659   4.847   0.359   1.051
 7920SOL    HW224660   4.861   0.341   0.890
 7921SOL     OW24661   5.225   2.358   0.702
 7921SOL    HW124662   5.139   2.310   0.690
 7921SOL    HW224663   5.207   2.452   0.733
 7922SOL     OW24664   2.597   0.351   2.153
 7922SOL    HW124665   2.629   0.432   2.102
 7922SOL    HW224666   2.525   0.306   2.101
 7923SOL     OW24667   4.103   1.464   6.936
 7923SOL    HW124668   4.094   1.402   6.858
 7923SOL    HW224669   4.018   1.466   6.988
 7924SOL     OW24670   5.859   6.067   0.055
 7924SOL    HW124671   5.895   5.997   7.020
 7924SOL    HW224672   5.925   6.142   0.063
 7925SOL     OW24673   1.584   5.318   6.617
 7925SOL    HW124674   1.509   5.286   6.676
 7925SOL    HW224675   1.549   5.331   6.524
 7926SOL     OW24676   4.997   5.619   6.733
 7926SOL    HW124677   5.003   5.718   6.721
 7926SOL    HW224678   5.089   5.582   6.751
 7927SOL     OW24679   4.469   0.126   3.272
 7927SOL    HW124680   4.539   0.190   3.240
 7927SOL    HW224681   4.433   0.158   3.360
 7928SOL     OW24682   6.159   2.217   3.278
 7928SOL    HW124683   6.216   2.234   3.358
 7928SOL    HW224684   6.189   2.132   3.234
 7929SOL     OW24685   4.133   3.919   5.835
 7929SOL    HW124686   4.149   4.008   5.877
 7929SOL    HW224687   4.206   3.857   5.859
 7930SOL     OW24688   4.148   6.653   6.339
 7930SOL    HW124689   4.248   6.657   6.348
 7930SOL    HW224690   4.122   6.563   6.303
 7931SOL     OW24691   3.885   1.651   1.737
 7931SOL    HW124692   3.861   1.710   1.659
 7931SOL    HW224693   3.811   1.586   1.753
 7932SOL     OW24694   1.159   3.816   1.453
 7932SOL    HW124695   1.226   3.797   1.525
 7932SOL    HW224696   1.133   3.913   1.456
 7933SOL     OW24697   0.909   1.640   0.304
 7933SOL    HW124698   0.950   1.706   0.241
 7933SOL    HW224699   0.815   1.621   0.275
 7934SOL     OW24700   1.080   5.388   1.075
 7934SOL    HW124701   1.026   5.471   1.085
 7934SOL    HW224702   1.021   5.314   1.043
 7935SOL     OW24703   6.306   3.019   3.218
 7935SOL    HW124704   6.352   3.074   3.149
 7935SOL    HW224705   6.335   2.923   3.208
 7936SOL     OW24706   2.473   5.462   3.560
 7936SOL    HW124707   2.469   5.483   3.463
 7936SOL    HW224708   2.443   5.368   3.575
 7937SOL     OW24709   4.066   1.043   0.913
 7937SOL    HW124710   4.035   1.030   1.007
 7937SOL    HW224711   4.163   1.018   0.906
 7938SOL     OW24712   2.995   6.851   3.424
 7938SOL    HW124713   3.064   6.812   3.362
 7938SOL    HW224714   3.041   6.893   3.502
 7939SOL     OW24715   0.887   0.948   2.768
 7939SOL    HW124716   0.918   0.918   2.858
 7939SOL    HW224717   0.913   1.044   2.754
 7940SOL     OW24718   6.061   1.544   4.262
 7940SOL    HW124719   6.006   1.614   4.216
 7940SOL    HW224720   6.008   1.503   4.336
 7941SOL     OW24721   3.343   0.073   1.222
 7941SOL    HW124722   3.269   0.114   1.275
 7941SOL    HW224723   3.425   0.066   1.280
 7942SOL     OW24724   1.498   4.423   0.446
 7942SOL    HW124725   1.524   4.326   0.445
 7942SOL    HW224726   1.578   4.479   0.463
 7943SOL     OW24727   1.329   5.872   5.699
 7943SOL    HW124728   1.244   5.819   5.689
 7943SOL    HW224729   1.306   5.968   5.718
 7944SOL     OW24730   1.063   2.080   1.370
 7944SOL    HW124731   1.006   2.142   1.315
 7944SOL    HW224732   1.075   1.994   1.321
 7945SOL     OW24733   6.438   4.206   2.828
 7945SOL    HW124734   6.375   4.252   2.890
 7945SOL    HW224735   6.464   4.117   2.867
 7946SOL     OW24736   4.101   1.752   6.726
 7946SOL    HW124737   4.166   1.677   6.741
 7946SOL    HW224738   4.076   1.792   6.814
 7947SOL     OW24739   6.828   3.400   6.222
 7947SOL    HW124740   6.803   3.374   6.129
 7947SOL    HW224741   6.916   3.448   6.220
 7948SOL     OW24742   1.914   5.543   1.821
 7948SOL    HW124743   1.889   5.609   1.891
 7948SOL    HW224744   1.978   5.476   1.859
 7949SOL     OW24745   2.677   5.612   5.527
 7949SOL    HW124746   2.687   5.566   5.615
 7949SOL    HW224747   2.690   5.710   5.539
 7950SOL     OW24748   6.381   4.496   5.651
 7950SOL    HW124749   6.422   4.415   5.609
 7950SOL    HW224750   6.452   4.566   5.664
 7951SOL     OW24751   4.146   6.244   2.450
 7951SOL    HW124752   4.150   6.280   2.543
 7951SOL    HW224753   4.204   6.300   2.390
 7952SOL     OW24754   6.340   4.060   5.290
 7952SOL    HW124755   6.255   4.035   5.244
 7952SOL    HW224756   6.416   4.007   5.250
 7953SOL     OW24757   1.619   6.572   0.538
 7953SOL    HW124758   1.679   6.515   0.593
 7953SOL    HW224759   1.660   6.587   0.448
 7954SOL     OW24760   3.646   3.837   6.785
 7954SOL    HW124761   3.549   3.856   6.769
 7954SOL    HW224762   3.667   3.744   6.756
 7955SOL     OW24763   1.338   0.843   6.392
 7955SOL    HW124764   1.270   0.808   6.457
 7955SOL    HW224765   1.367   0.768   6.331
 7956SOL     OW24766   0.609   6.455   0.447
 7956SOL    HW124767   0.574   6.523   0.382
 7956SOL    HW224768   0.695   6.417   0.413
 7957SOL     OW24769   4.916   2.021   5.940
 7957SOL    HW124770   4.943   1.966   5.861
 7957SOL    HW224771   4.980   2.005   6.015
 7958SOL     OW24772   4.905   2.511   6.837
 7958SOL    HW124773   4.997   2.535   6.807
 7958SOL    HW224774   4.910   2.439   6.907
 7959SOL     OW24775   5.275   2.437   0.400
 7959SOL    HW124776   5.236   2.345   0.405
 7959SOL    HW224777   5.366   2.433   0.359
 7960SOL     OW24778   0.915   1.478   5.579
 7960SOL    HW124779   0.926   1.463   5.481
 7960SOL    HW224780   0.949   1.399   5.629
 7961SOL     OW24781   6.194   6.338   0.282
 7961SOL    HW124782   6.249   6.314   0.362
 7961SOL    HW224783   6.126   6.407   0.306
 7962SOL     OW24784   5.910   0.061   5.396
 7962SOL    HW124785   5.981   0.043   5.464
 7962SOL    HW224786   5.820   0.060   5.440
 7963SOL     OW24787   6.273   6.169   3.431
 7963SOL    HW124788   6.330   6.250   3.442
 7963SOL    HW224789   6.185   6.183   3.475
 7964SOL     OW24790   6.071   3.980   1.582
 7964SOL    HW124791   6.104   4.043   1.652
 7964SOL    HW224792   5.972   3.985   1.576
 7965SOL     OW24793   4.897   2.319   6.444
 7965SOL    HW124794   4.846   2.402   6.467
 7965SOL    HW224795   4.950   2.334   6.361
 7966SOL     OW24796   5.514   4.042   5.138
 7966SOL    HW124797   5.447   3.994   5.195
 7966SOL    HW224798   5.466   4.094   5.067
 7967SOL     OW24799   1.222   4.817   0.239
 7967SOL    HW124800   1.123   4.802   0.234
 7967SOL    HW224801   1.268   4.730   0.258
 7968SOL     OW24802   1.457   3.049   4.276
 7968SOL    HW124803   1.517   3.024   4.200
 7968SOL    HW224804   1.362   3.029   4.252
 7969SOL     OW24805   3.448   4.982   6.774
 7969SOL    HW124806   3.377   4.958   6.708
 7969SOL    HW224807   3.533   4.935   6.750
 7970SOL     OW24808   6.275   3.068   4.071
 7970SOL    HW124809   6.289   3.066   3.972
 7970SOL    HW224810   6.182   3.098   4.091
 7971SOL     OW24811   2.760   1.331   6.590
 7971SOL    HW124812   2.670   1.319   6.547
 7971SOL    HW224813   2.753   1.400   6.662
 7972SOL     OW24814   3.316   3.831   4.533
 7972SOL    HW124815   3.341   3.817   4.438
 7972SOL    HW224816   3.313   3.743   4.580
 7973SOL     OW24817   6.107   4.731   1.821
 7973SOL    HW124818   6.169   4.789   1.768
 7973SOL    HW224819   6.013   4.761   1.805
 7974SOL     OW24820   0.122   2.804   5.061
 7974SOL    HW124821   0.109   2.759   5.149
 7974SOL    HW224822   0.201   2.865   5.066
 7975SOL     OW24823   5.170   0.372   1.065
 7975SOL    HW124824   5.178   0.277   1.096
 7975SOL    HW224825   5.075   0.390   1.037
 7976SOL     OW24826   0.839   0.550   0.706
 7976SOL    HW124827   0.797   0.583   0.621
 7976SOL    HW224828   0.848   0.626   0.771
 7977SOL     OW24829   5.528   5.642   3.187
 7977SOL    HW124830   5.545   5.543   3.193
 7977SOL    HW224831   5.526   5.669   3.090
 7978SOL     OW24832   0.473   4.199   1.588
 7978SOL    HW124833   0.437   4.264   1.521
 7978SOL    HW224834   0.463   4.237   1.680
 7979SOL     OW24835   2.517   1.955   5.358
 7979SOL    HW124836   2.494   1.878   5.298
 7979SOL    HW224837   2.577   2.018   5.309
 7980SOL     OW24838   3.753   5.323   1.126
 7980SOL    HW124839   3.825   5.383   1.161
 7980SOL    HW224840   3.767   5.307   1.029
 7981SOL     OW24841   1.650   3.599   3.811
 7981SOL    HW124842   1.630   3.683   3.759
 7981SOL    HW224843   1.692   3.623   3.899
 7982SOL     OW24844   6.843   0.872   5.773
 7982SOL    HW124845   6.861   0.776   5.752
 7982SOL    HW224846   6.909   0.905   5.841
 7983SOL     OW24847   4.524   0.787   2.088
 7983SOL    HW124848   4.612   0.796   2.042
 7983SOL    HW224849   4.462   0.859   2.057
 7984SOL     OW24850   0.182   2.820   2.875
 7984SOL    HW124851   0.222   2.900   2.919
 7984SOL    HW224852   0.082   2.826   2.880
 7985SOL     OW24853   3.239   2.908   5.434
 7985SOL    HW124854   3.169   2.843   5.405
 7985SOL    HW224855   3.294   2.936   5.356
 7986SOL     OW24856   3.922   1.165   4.007
 7986SOL    HW124857   3.834   1.131   3.974
 7986SOL    HW224858   3.926   1.157   4.107
 7987SOL     OW24859   0.891   3.309   6.808
 7987SOL    HW124860   0.862   3.225   6.762
 7987SOL    HW224861   0.814   3.347   6.860
 7988SOL     OW24862   6.946   1.035   1.460
 7988SOL    HW124863   6.853   1.013   1.432
 7988SOL    HW224864   6.997   1.071   1.382
 7989SOL     OW24865   0.228   4.128   1.083
 7989SOL    HW124866   0.316   4.116   1.128
 7989SOL    HW224867   0.157   4.143   1.152
 7990SOL     OW24868   5.078   5.566   4.960
 7990SOL    HW124869   5.097   5.474   4.994
 7990SOL    HW224870   5.020   5.560   4.878
 7991SOL     OW24871   6.064   0.809   4.924
 7991SOL    HW124872   6.062   0.902   4.887
 7991SOL    HW224873   6.158   0.775   4.923
 7992SOL     OW24874   2.074   6.583   0.264
 7992SOL    HW124875   2.004   6.555   0.198
 7992SOL    HW224876   2.162   6.544   0.238
 7993SOL     OW24877   6.161   5.906   0.425
 7993SOL    HW124878   6.250   5.944   0.448
 7993SOL    HW224879   6.089   5.956   0.474
 7994SOL     OW24880   6.591   0.373   4.085
 7994SOL    HW124881   6.551   0.464   4.101
 7994SOL    HW224882   6.655   0.378   4.008
 7995SOL     OW24883   0.926   5.524   1.327
 7995SOL    HW124884   0.922   5.580   1.245
 7995SOL    HW224885   1.010   5.468   1.326
 7996SOL     OW24886   2.378   0.434   3.264
 7996SOL    HW124887   2.369   0.515   3.323
 7996SOL    HW224888   2.474   0.416   3.247
 7997SOL     OW24889   2.167   2.174   5.699
 7997SOL    HW124890   2.102   2.137   5.632
 7997SOL    HW224891   2.210   2.256   5.662
 7998SOL     OW24892   2.361   1.097   0.561
 7998SOL    HW124893   2.412   1.015   0.537
 7998SOL    HW224894   2.388   1.172   0.500
 7999SOL     OW24895   0.871   0.018   3.832
 7999SOL    HW124896   0.872   0.055   3.925
 7999SOL    HW224897   0.875   0.093   3.767
 8000SOL     OW24898   4.206   5.634   0.982
 8000SOL    HW124899   4.301   5.606   0.998
 8000SOL    HW224900   4.197   5.732   1.000
 8001SOL     OW24901   4.608   4.466   1.445
 8001SOL    HW124902   4.565   4.376   1.443
 8001SOL    HW224903   4.652   4.480   1.533
 8002SOL     OW24904   0.719   6.965   4.549
 8002SOL    HW124905   0.770   6.882   4.573
 8002SOL    HW224906   0.783   0.010   4.521
 8003SOL     OW24907   3.104   5.506   2.341
 8003SOL    HW124908   3.124   5.412   2.313
 8003SOL    HW224909   3.055   5.505   2.428
 8004SOL     OW24910   1.311   3.596   4.130
 8004SOL    HW124911   1.252   3.663   4.177
 8004SOL    HW224912   1.278   3.504   4.149
 8005SOL     OW24913   1.740   0.918   3.277
 8005SOL    HW124914   1.810   0.975   3.233
 8005SOL    HW224915   1.690   0.973   3.344
 8006SOL     OW24916   4.032   5.239   5.610
 8006SOL    HW124917   3.932   5.247   5.604
 8006SOL    HW224918   4.061   5.265   5.702
 8007SOL     OW24919   6.950   0.396   1.157
 8007SOL    HW124920   0.012   0.430   1.190
 8007SOL    HW224921   6.882   0.469   1.162
 8008SOL     OW24922   4.838   4.841   0.337
 8008SOL    HW124923   4.853   4.751   0.296
 8008SOL    HW224924   4.903   4.906   0.299
 8009SOL     OW24925   6.183   1.091   0.675
 8009SOL    HW124926   6.103   1.076   0.618
 8009SOL    HW224927   6.255   1.026   0.651
 8010SOL     OW24928   3.059   0.405   5.723
 8010SOL    HW124929   3.024   0.416   5.630
 8010SOL    HW224930   3.070   0.308   5.744
 8011SOL     OW24931   3.887   2.132   2.777
 8011SOL    HW124932   3.909   2.146   2.680
 8011SOL    HW224933   3.789   2.119   2.787
 8012SOL     OW24934   6.245   1.130   4.454
 8012SOL    HW124935   6.217   1.037   4.478
 8012SOL    HW224936   6.326   1.156   4.506
 8013SOL     OW24937   3.545   0.892   3.160
 8013SOL    HW124938   3.513   0.946   3.082
 8013SOL    HW224939   3.476   0.824   3.185
 8014SOL     OW24940   2.563   2.394   2.943
 8014SOL    HW124941   2.628   2.336   2.893
 8014SOL    HW224942   2.532   2.468   2.883
 8015SOL     OW24943   3.769   0.605   4.563
 8015SOL    HW124944   3.792   0.520   4.516
 8015SOL    HW224945   3.801   0.601   4.657
 8016SOL     OW24946   3.564   2.605   5.532
 8016SOL    HW124947   3.507   2.523   5.536
 8016SOL    HW224948   3.560   2.645   5.440
 8017SOL     OW24949   6.189   5.946   1.228
 8017SOL    HW124950   6.230   5.863   1.265
 8017SOL    HW224951   6.120   5.981   1.292
 8018SOL     OW24952   3.557   2.989   0.124
 8018SOL    HW124953   3.566   3.085   0.098
 8018SOL    HW224954   3.642   2.942   0.106
 8019SOL     OW24955   2.501   3.291   0.342
 8019SOL    HW124956   2.537   3.384   0.350
 8019SOL    HW224957   2.566   3.226   0.383
 8020SOL     OW24958   0.533   0.373   5.741
 8020SOL    HW124959   0.462   0.438   5.767
 8020SOL    HW224960   0.575   0.401   5.655
 8021SOL     OW24961   0.916   3.247   0.366
 8021SOL    HW124962   1.015   3.259   0.365
 8021SOL    HW224963   0.885   3.234   0.460
 8022SOL     OW24964   4.324   0.151   1.780
 8022SOL    HW124965   4.269   0.068   1.791
 8022SOL    HW224966   4.283   0.226   1.832
 8023SOL     OW24967   4.287   5.962   1.551
 8023SOL    HW124968   4.325   5.890   1.610
 8023SOL    HW224969   4.356   6.032   1.536
 8024SOL     OW24970   2.525   0.913   0.244
 8024SOL    HW124971   2.493   0.823   0.274
 8024SOL    HW224972   2.596   0.946   0.306
 8025SOL     OW24973   1.189   6.121   1.881
 8025SOL    HW124974   1.160   6.064   1.804
 8025SOL    HW224975   1.288   6.133   1.879
 8026SOL     OW24976   0.925   6.005   6.493
 8026SOL    HW124977   0.925   5.905   6.500
 8026SOL    HW224978   0.859   6.042   6.558
 8027SOL     OW24979   3.749   0.180   6.575
 8027SOL    HW124980   3.708   0.089   6.576
 8027SOL    HW224981   3.719   0.231   6.656
 8028SOL     OW24982   4.153   5.751   5.503
 8028SOL    HW124983   4.205   5.837   5.506
 8028SOL    HW224984   4.214   5.676   5.479
 8029SOL     OW24985   0.929   0.386   1.520
 8029SOL    HW124986   0.878   0.315   1.569
 8029SOL    HW224987   0.934   0.362   1.423
 8030SOL     OW24988   0.821   4.569   1.261
 8030SOL    HW124989   0.853   4.589   1.354
 8030SOL    HW224990   0.799   4.472   1.253
 8031SOL     OW24991   6.748   0.215   2.442
 8031SOL    HW124992   6.847   0.205   2.452
 8031SOL    HW224993   6.706   0.124   2.439
 8032SOL     OW24994   7.006   2.467   0.794
 8032SOL    HW124995   6.976   2.562   0.783
 8032SOL    HW224996   0.006   2.451   0.889
 8033SOL     OW24997   4.191   4.160   1.352
 8033SOL    HW124998   4.228   4.157   1.444
 8033SOL    HW224999   4.138   4.244   1.339
 8034SOL     OW25000   0.090   0.012   5.811
 8034SOL    HW125001   0.160   7.023   5.741
 8034SOL    HW225002   0.131   7.025   5.902
 8035SOL     OW25003   6.248   0.500   3.873
 8035SOL    HW125004   6.218   0.592   3.850
 8035SOL    HW225005   6.184   0.459   3.938
 8036SOL     OW25006   4.820   3.073   4.359
 8036SOL    HW125007   4.827   3.059   4.260
 8036SOL    HW225008   4.810   3.171   4.378
 8037SOL     OW25009   2.523   1.156   6.179
 8037SOL    HW125010   2.468   1.075   6.160
 8037SOL    HW225011   2.463   1.235   6.191
 8038SOL     OW25012   6.613   5.847   2.041
 8038SOL    HW125013   6.604   5.796   1.955
 8038SOL    HW225014   6.539   5.914   2.047
 8039SOL     OW25015   1.467   2.587   5.163
 8039SOL    HW125016   1.433   2.657   5.225
 8039SOL    HW225017   1.538   2.534   5.209
 8040SOL     OW25018   0.818   6.187   5.800
 8040SOL    HW125019   0.905   6.137   5.801
 8040SOL    HW225020   0.757   6.145   5.732
 8041SOL     OW25021   3.205   1.435   3.436
 8041SOL    HW125022   3.162   1.519   3.403
 8041SOL    HW225023   3.303   1.438   3.419
 8042SOL     OW25024   4.039   4.424   5.791
 8042SOL    HW125025   4.132   4.443   5.822
 8042SOL    HW225026   3.979   4.412   5.871
 8043SOL     OW25027   5.183   5.514   0.187
 8043SOL    HW125028   5.136   5.472   0.108
 8043SOL    HW225029   5.269   5.466   0.203
 8044SOL     OW25030   2.171   2.867   1.457
 8044SOL    HW125031   2.259   2.866   1.409
 8044SOL    HW225032   2.125   2.780   1.443
 8045SOL     OW25033   6.492   3.389   4.725
 8045SOL    HW125034   6.566   3.404   4.659
 8045SOL    HW225035   6.499   3.457   4.798
 8046SOL     OW25036   6.909   4.845   1.174
 8046SOL    HW125037   6.916   4.776   1.103
 8046SOL    HW225038   6.886   4.802   1.261
 8047SOL     OW25039   2.461   6.051   6.742
 8047SOL    HW125040   2.545   6.084   6.784
 8047SOL    HW225041   2.423   6.123   6.683
 8048SOL     OW25042   3.811   2.190   5.486
 8048SOL    HW125043   3.803   2.114   5.421
 8048SOL    HW225044   3.720   2.229   5.502
 8049SOL     OW25045   1.495   1.598   0.089
 8049SOL    HW125046   1.490   1.612   0.188
 8049SOL    HW225047   1.588   1.617   0.058
 8050SOL     OW25048   0.487   4.864   6.101
 8050SOL    HW125049   0.412   4.931   6.097
 8050SOL    HW225050   0.507   4.830   6.009
 8051SOL     OW25051   4.685   6.804   3.688
 8051SOL    HW125052   4.762   6.761   3.643
 8051SOL    HW225053   4.707   6.900   3.708
 8052SOL     OW25054   3.078   1.701   2.552
 8052SOL    HW125055   3.169   1.728   2.522
 8052SOL    HW225056   3.028   1.782   2.585
 8053SOL     OW25057   1.737   2.672   6.870
 8053SOL    HW125058   1.682   2.591   6.853
 8053SOL    HW225059   1.762   2.676   6.967
 8054SOL     OW25060   4.874   3.272   4.947
 8054SOL    HW125061   4.853   3.367   4.973
 8054SOL    HW225062   4.898   3.268   4.850
 8055SOL     OW25063   6.349   0.523   6.549
 8055SOL    HW125064   6.268   0.502   6.604
 8055SOL    HW225065   6.334   0.608   6.498
 8056SOL     OW25066   1.956   1.298   3.850
 8056SOL    HW125067   2.034   1.357   3.871
 8056SOL    HW225068   1.988   1.204   3.836
 8057SOL     OW25069   3.050   2.103   2.152
 8057SOL    HW125070   3.005   2.181   2.108
 8057SOL    HW225071   2.985   2.027   2.159
 8058SOL     OW25072   3.848   6.265   1.752
 8058SOL    HW125073   3.924   6.201   1.746
 8058SOL    HW225074   3.789   6.254   1.671
 8059SOL     OW25075   2.750   2.686   5.916
 8059SOL    HW125076   2.654   2.691   5.889
 8059SOL    HW225077   2.808   2.683   5.835
 8060SOL     OW25078   6.421   0.816   5.699
 8060SOL    HW125079   6.445   0.902   5.653
 8060SOL    HW225080   6.440   0.739   5.638
 8061SOL     OW25081   6.882   0.495   2.508
 8061SOL    HW125082   6.960   0.554   2.532
 8061SOL    HW225083   6.846   0.453   2.591
 8062SOL     OW25084   4.427   5.188   5.304
 8062SOL    HW125085   4.408   5.162   5.209
 8062SOL    HW225086   4.460   5.282   5.308
 8063SOL     OW25087   2.800   4.801   2.845
 8063SOL    HW125088   2.781   4.774   2.940
 8063SOL    HW225089   2.731   4.866   2.814
 8064SOL     OW25090   6.829   1.463   0.664
 8064SOL    HW125091   6.899   1.481   0.733
 8064SOL    HW225092   6.757   1.532   0.669
 8065SOL     OW25093   4.385   6.538   6.593
 8065SOL    HW125094   4.295   6.501   6.616
 8065SOL    HW225095   4.435   6.558   6.677
 8066SOL     OW25096   0.538   6.874   6.307
 8066SOL    HW125097   0.500   6.785   6.331
 8066SOL    HW225098   0.484   6.946   6.351
 8067SOL     OW25099   5.880   1.136   4.260
 8067SOL    HW125100   5.950   1.116   4.329
 8067SOL    HW225101   5.804   1.185   4.302
 8068SOL     OW25102   6.551   3.215   1.768
 8068SOL    HW125103   6.635   3.240   1.816
 8068SOL    HW225104   6.559   3.121   1.733
 8069SOL     OW25105   1.597   3.211   2.483
 8069SOL    HW125106   1.618   3.124   2.439
 8069SOL    HW225107   1.621   3.286   2.422
 8070SOL     OW25108   4.986   4.361   0.821
 8070SOL    HW125109   5.010   4.451   0.858
 8070SOL    HW225110   4.954   4.372   0.727
 8071SOL     OW25111   2.859   0.119   6.280
 8071SOL    HW125112   2.870   0.090   6.185
 8071SOL    HW225113   2.913   0.061   6.340
 8072SOL     OW25114   2.315   2.065   4.734
 8072SOL    HW125115   2.315   2.164   4.723
 8072SOL    HW225116   2.407   2.035   4.759
 8073SOL     OW25117   4.518   0.122   6.920
 8073SOL    HW125118   4.567   0.184   6.981
 8073SOL    HW225119   4.432   0.094   6.963
 8074SOL     OW25120   6.949   0.563   6.668
 8074SOL    HW125121   6.907   0.600   6.585
 8074SOL    HW225122   6.977   0.468   6.653
 8075SOL     OW25123   0.648   6.922   0.727
 8075SOL    HW125124   0.576   6.991   0.728
 8075SOL    HW225125   0.662   6.889   0.633
 8076SOL     OW25126   0.042   6.435   0.633
 8076SOL    HW125127   0.132   6.462   0.601
 8076SOL    HW225128   0.041   6.336   0.652
 8077SOL     OW25129   5.490   4.667   0.835
 8077SOL    HW125130   5.432   4.730   0.886
 8077SOL    HW225131   5.546   4.614   0.900
 8078SOL     OW25132   6.771   0.591   1.257
 8078SOL    HW125133   6.804   0.590   1.352
 8078SOL    HW225134   6.672   0.604   1.257
 8079SOL     OW25135   0.901   0.897   6.434
 8079SOL    HW125136   0.863   0.858   6.518
 8079SOL    HW225137   1.000   0.908   6.443
 8080SOL     OW25138   1.191   3.623   3.447
 8080SOL    HW125139   1.249   3.673   3.383
 8080SOL    HW225140   1.219   3.527   3.450
 8081SOL     OW25141   6.819   6.854   5.172
 8081SOL    HW125142   6.779   6.763   5.158
 8081SOL    HW225143   6.831   6.900   5.084
 8082SOL     OW25144   3.689   2.035   4.154
 8082SOL    HW125145   3.723   1.941   4.153
 8082SOL    HW225146   3.602   2.040   4.105
 8083SOL     OW25147   6.601   1.990   4.560
 8083SOL    HW125148   6.640   1.989   4.652
 8083SOL    HW225149   6.649   2.057   4.504
 8084SOL     OW25150   3.895   1.531   5.466
 8084SOL    HW125151   3.954   1.493   5.394
 8084SOL    HW225152   3.820   1.581   5.424
 8085SOL     OW25153   2.079   6.127   4.420
 8085SOL    HW125154   1.991   6.113   4.374
 8085SOL    HW225155   2.069   6.201   4.487
 8086SOL     OW25156   6.865   1.833   2.741
 8086SOL    HW125157   6.803   1.758   2.717
 8086SOL    HW225158   6.847   1.911   2.681
 8087SOL     OW25159   6.954   0.975   6.385
 8087SOL    HW125160   6.868   1.012   6.352
 8087SOL    HW225161   0.001   1.041   6.369
 8088SOL     OW25162   6.974   0.231   5.439
 8088SOL    HW125163   6.947   0.147   5.392
 8088SOL    HW225164   0.019   0.278   5.387
 8089SOL     OW25165   6.072   1.953   0.073
 8089SOL    HW125166   6.068   1.947   7.000
 8089SOL    HW225167   6.168   1.955   0.102
 8090SOL     OW25168   4.343   2.468   5.484
 8090SOL    HW125169   4.291   2.450   5.568
 8090SOL    HW225170   4.433   2.426   5.491
 8091SOL     OW25171   0.948   4.117   4.176
 8091SOL    HW125172   1.046   4.119   4.197
 8091SOL    HW225173   0.934   4.067   4.090
 8092SOL     OW25174   4.841   1.073   5.848
 8092SOL    HW125175   4.848   1.032   5.939
 8092SOL    HW225176   4.817   1.003   5.781
 8093SOL     OW25177   3.294   6.096   3.309
 8093SOL    HW125178   3.333   6.175   3.260
 8093SOL    HW225179   3.244   6.039   3.244
 8094SOL     OW25180   1.799   3.732   4.009
 8094SOL    HW125181   1.813   3.804   4.076
 8094SOL    HW225182   1.861   3.656   4.029
 8095SOL     OW25183   1.541   4.732   5.045
 8095SOL    HW125184   1.527   4.819   5.092
 8095SOL    HW225185   1.568   4.749   4.950
 8096SOL     OW25186   1.116   4.718   0.623
 8096SOL    HW125187   1.188   4.651   0.635
 8096SOL    HW225188   1.156   4.809   0.613
 8097SOL     OW25189   4.871   6.292   0.326
 8097SOL    HW125190   4.783   6.271   0.283
 8097SOL    HW225191   4.919   6.206   0.346
 8098SOL     OW25192   2.447   5.976   5.131
 8098SOL    HW125193   2.366   6.023   5.096
 8098SOL    HW225194   2.503   6.040   5.183
 8099SOL     OW25195   1.798   4.178   2.446
 8099SOL    HW125196   1.854   4.107   2.403
 8099SOL    HW225197   1.857   4.248   2.485
 8100SOL     OW25198   6.600   0.387   6.466
 8100SOL    HW125199   6.528   0.405   6.532
 8100SOL    HW225200   6.686   0.369   6.514
 8101SOL     OW25201   2.944   5.499   1.040
 8101SOL    HW125202   2.853   5.470   1.013
 8101SOL    HW225203   2.988   5.426   1.093
 8102SOL     OW25204   0.607   3.947   4.115
 8102SOL    HW125205   0.700   3.974   4.090
 8102SOL    HW225206   0.571   3.883   4.046
 8103SOL     OW25207   3.719   0.704   1.420
 8103SOL    HW125208   3.818   0.689   1.428
 8103SOL    HW225209   3.674   0.619   1.395
 8104SOL     OW25210   2.306   5.175   0.172
 8104SOL    HW125211   2.387   5.117   0.170
 8104SOL    HW225212   2.234   5.135   0.116
 8105SOL     OW25213   6.830   6.593   3.503
 8105SOL    HW125214   6.825   6.690   3.479
 8105SOL    HW225215   6.926   6.566   3.509
 8106SOL     OW25216   2.503   6.707   6.258
 8106SOL    HW125217   2.530   6.692   6.353
 8106SOL    HW225218   2.481   6.619   6.215
 8107SOL     OW25219   1.559   6.204   6.695
 8107SOL    HW125220   1.505   6.194   6.611
 8107SOL    HW225221   1.638   6.143   6.691
 8108SOL     OW25222   1.099   1.149   6.946
 8108SOL    HW125223   1.139   1.138   6.855
 8108SOL    HW225224   1.006   1.113   6.946
 8109SOL     OW25225   6.435   2.810   1.771
 8109SOL    HW125226   6.365   2.873   1.806
 8109SOL    HW225227   6.526   2.844   1.794
 8110SOL     OW25228   4.012   4.705   0.982
 8110SOL    HW125229   4.022   4.666   1.073
 8110SOL    HW225230   4.031   4.804   0.986
 8111SOL     OW25231   6.674   1.296   2.729
 8111SOL    HW125232   6.603   1.313   2.660
 8111SOL    HW225233   6.630   1.278   2.817
 8112SOL     OW25234   1.703   4.567   6.596
 8112SOL    HW125235   1.714   4.655   6.550
 8112SOL    HW225236   1.662   4.501   6.532
 8113SOL     OW25237   5.433   4.481   5.888
 8113SOL    HW125238   5.367   4.480   5.812
 8113SOL    HW225239   5.495   4.559   5.876
 8114SOL     OW25240   1.743   3.659   2.734
 8114SOL    HW125241   1.800   3.587   2.695
 8114SOL    HW225242   1.757   3.744   2.683
 8115SOL     OW25243   2.442   1.435   6.111
 8115SOL    HW125244   2.415   1.429   6.015
 8115SOL    HW225245   2.524   1.492   6.119
 8116SOL     OW25246   3.864   3.168   1.654
 8116SOL    HW125247   3.897   3.139   1.564
 8116SOL    HW225248   3.941   3.199   1.709
 8117SOL     OW25249   2.811   6.600   4.290
 8117SOL    HW125250   2.723   6.556   4.273
 8117SOL    HW225251   2.854   6.624   4.203
 8118SOL     OW25252   6.476   2.650   6.820
 8118SOL    HW125253   6.418   2.579   6.780
 8118SOL    HW225254   6.425   2.700   6.890
 8119SOL     OW25255   5.656   6.665   6.943
 8119SOL    HW125256   5.710   6.599   6.892
 8119SOL    HW225257   5.571   6.622   6.975
 8120SOL     OW25258   1.831   6.678   2.101
 8120SOL    HW125259   1.855   6.639   2.190
 8120SOL    HW225260   1.913   6.714   2.057
 8121SOL     OW25261   0.989   2.911   2.391
 8121SOL    HW125262   0.997   2.901   2.490
 8121SOL    HW225263   0.984   2.821   2.348
 8122SOL     OW25264   0.289   5.174   1.503
 8122SOL    HW125265   0.378   5.217   1.489
 8122SOL    HW225266   0.264   5.121   1.422
 8123SOL     OW25267   6.610   1.634   6.914
 8123SOL    HW125268   6.694   1.579   6.914
 8123SOL    HW225269   6.633   1.729   6.938
 8124SOL     OW25270   5.653   5.743   4.879
 8124SOL    HW125271   5.570   5.735   4.935
 8124SOL    HW225272   5.628   5.737   4.782
 8125SOL     OW25273   1.667   5.608   2.224
 8125SOL    HW125274   1.573   5.623   2.253
 8125SOL    HW225275   1.682   5.511   2.208
 8126SOL     OW25276   3.725   5.856   4.460
 8126SOL    HW125277   3.804   5.795   4.462
 8126SOL    HW225278   3.702   5.882   4.554
 8127SOL     OW25279   3.280   2.194   6.497
 8127SOL    HW125280   3.234   2.209   6.410
 8127SOL    HW225281   3.216   2.151   6.562
 8128SOL     OW25282   3.451   2.750   1.148
 8128SOL    HW125283   3.429   2.836   1.194
 8128SOL    HW225284   3.431   2.673   1.209
 8129SOL     OW25285   0.671   2.449   2.367
 8129SOL    HW125286   0.669   2.438   2.466
 8129SOL    HW225287   0.720   2.372   2.326
 8130SOL     OW25288   0.674   5.688   0.025
 8130SOL    HW125289   0.671   5.728   6.960
 8130SOL    HW225290   0.636   5.753   0.091
 8131SOL     OW25291   1.940   2.950   6.900
 8131SOL    HW125292   1.941   3.042   6.861
 8131SOL    HW225293   2.011   2.895   6.856
 8132SOL     OW25294   0.329   0.996   5.000
 8132SOL    HW125295   0.267   0.998   5.079
 8132SOL    HW225296   0.398   0.926   5.014
 8133SOL     OW25297   3.673   4.779   0.572
 8133SOL    HW125298   3.734   4.768   0.651
 8133SOL    HW225299   3.604   4.707   0.574
 8134SOL     OW25300   5.507   1.929   5.876
 8134SOL    HW125301   5.514   1.887   5.786
 8134SOL    HW225302   5.565   1.881   5.941
 8135SOL     OW25303   2.670   6.725   2.150
 8135SOL    HW125304   2.641   6.642   2.102
 8135SOL    HW225305   2.749   6.704   2.208
 8136SOL     OW25306   5.140   4.277   1.972
 8136SOL    HW125307   5.137   4.180   1.996
 8136SOL    HW225308   5.232   4.301   1.944
 8137SOL     OW25309   4.286   1.926   5.919
 8137SOL    HW125310   4.276   1.996   5.847
 8137SOL    HW225311   4.356   1.860   5.891
 8138SOL     OW25312   5.230   1.015   2.543
 8138SOL    HW125313   5.284   1.031   2.626
 8138SOL    HW225314   5.291   0.998   2.466
 8139SOL     OW25315   0.380   2.223   3.302
 8139SOL    HW125316   0.330   2.157   3.358
 8139SOL    HW225317   0.396   2.306   3.356
 8140SOL     OW25318   4.627   2.234   3.536
 8140SOL    HW125319   4.611   2.137   3.518
 8140SOL    HW225320   4.548   2.286   3.505
 8141SOL     OW25321   5.360   4.371   4.275
 8141SOL    HW125322   5.387   4.329   4.188
 8141SOL    HW225323   5.281   4.322   4.312
 8142SOL     OW25324   0.566   6.076   6.386
 8142SOL    HW125325   0.581   5.979   6.400
 8142SOL    HW225326   0.469   6.092   6.364
 8143SOL     OW25327   6.374   3.089   5.791
 8143SOL    HW125328   6.325   3.046   5.715
 8143SOL    HW225329   6.399   3.182   5.764
 8144SOL     OW25330   5.264   0.150   0.141
 8144SOL    HW125331   5.169   0.145   0.111
 8144SOL    HW225332   5.313   0.218   0.085
 8145SOL     OW25333   5.087   6.071   2.744
 8145SOL    HW125334   5.009   6.033   2.793
 8145SOL    HW225335   5.132   6.139   2.801
 8146SOL     OW25336   3.701   1.087   4.384
 8146SOL    HW125337   3.618   1.138   4.406
 8146SOL    HW225338   3.705   1.004   4.439
 8147SOL     OW25339   4.785   0.877   3.361
 8147SOL    HW125340   4.872   0.843   3.396
 8147SOL    HW225341   4.735   0.803   3.317
 8148SOL     OW25342   5.688   4.513   3.554
 8148SOL    HW125343   5.660   4.471   3.640
 8148SOL    HW225344   5.788   4.515   3.549
 8149SOL     OW25345   3.760   4.956   2.990
 8149SOL    HW125346   3.686   4.905   2.947
 8149SOL    HW225347   3.727   5.045   3.019
 8150SOL     OW25348   0.618   5.522   1.210
 8150SOL    HW125349   0.631   5.484   1.119
 8150SOL    HW225350   0.702   5.509   1.263
 8151SOL     OW25351   0.758   1.600   4.960
 8151SOL    HW125352   0.763   1.700   4.959
 8151SOL    HW225353   0.743   1.567   4.866
 8152SOL     OW25354   1.453   0.466   2.753
 8152SOL    HW125355   1.376   0.521   2.721
 8152SOL    HW225356   1.474   0.395   2.685
 8153SOL     OW25357   1.698   6.658   0.281
 8153SOL    HW125358   1.788   6.661   0.324
 8153SOL    HW225359   1.673   6.750   0.250
 8154SOL     OW25360   2.334   6.842   3.494
 8154SOL    HW125361   2.293   6.801   3.575
 8154SOL    HW225362   2.308   6.789   3.413
 8155SOL     OW25363   3.317   3.561   4.208
 8155SOL    HW125364   3.357   3.640   4.253
 8155SOL    HW225365   3.314   3.577   4.109
 8156SOL     OW25366   0.124   0.417   5.672
 8156SOL    HW125367   0.086   0.339   5.721
 8156SOL    HW225368   0.148   0.390   5.579
 8157SOL     OW25369   6.238   2.399   6.576
 8157SOL    HW125370   6.208   2.494   6.564
 8157SOL    HW225371   6.334   2.398   6.604
 8158SOL     OW25372   1.996   5.426   2.519
 8158SOL    HW125373   2.017   5.435   2.422
 8158SOL    HW225374   1.905   5.461   2.537
 8159SOL     OW25375   0.661   5.003   1.534
 8159SOL    HW125376   0.582   4.943   1.533
 8159SOL    HW225377   0.633   5.097   1.516
 8160SOL     OW25378   4.788   1.640   2.259
 8160SOL    HW125379   4.765   1.718   2.200
 8160SOL    HW225380   4.872   1.598   2.227
 8161SOL     OW25381   4.535   2.114   1.593
 8161SOL    HW125382   4.446   2.103   1.547
 8161SOL    HW225383   4.536   2.060   1.677
 8162SOL     OW25384   6.111   0.652   1.703
 8162SOL    HW125385   6.130   0.670   1.606
 8162SOL    HW225386   6.143   0.729   1.758
 8163SOL     OW25387   1.674   3.247   4.662
 8163SOL    HW125388   1.683   3.297   4.748
 8163SOL    HW225389   1.610   3.171   4.674
 8164SOL     OW25390   4.913   2.605   2.955
 8164SOL    HW125391   4.821   2.646   2.956
 8164SOL    HW225392   4.927   2.554   3.040
 8165SOL     OW25393   2.442   4.842   1.116
 8165SOL    HW125394   2.408   4.900   1.191
 8165SOL    HW225395   2.540   4.826   1.129
 8166SOL     OW25396   3.345   6.568   1.229
 8166SOL    HW125397   3.259   6.617   1.212
 8166SOL    HW225398   3.413   6.633   1.264
 8167SOL     OW25399   5.479   3.536   3.816
 8167SOL    HW125400   5.416   3.587   3.875
 8167SOL    HW225401   5.433   3.455   3.781
 8168SOL     OW25402   3.313   1.761   2.424
 8168SOL    HW125403   3.324   1.853   2.386
 8168SOL    HW225404   3.391   1.704   2.398
 8169SOL     OW25405   5.295   4.219   5.363
 8169SOL    HW125406   5.282   4.281   5.441
 8169SOL    HW225407   5.328   4.131   5.395
 8170SOL     OW25408   1.413   4.917   4.372
 8170SOL    HW125409   1.358   4.876   4.299
 8170SOL    HW225410   1.464   4.846   4.420
 8171SOL     OW25411   1.768   1.329   6.090
 8171SOL    HW125412   1.833   1.379   6.148
 8171SOL    HW225413   1.735   1.248   6.138
 8172SOL     OW25414   6.961   6.257   1.444
 8172SOL    HW125415   0.001   6.259   1.519
 8172SOL    HW225416   6.895   6.183   1.460
 8173SOL     OW25417   5.751   2.438   6.778
 8173SOL    HW125418   5.808   2.377   6.723
 8173SOL    HW225419   5.809   2.508   6.821
 8174SOL     OW25420   5.383   6.768   2.101
 8174SOL    HW125421   5.420   6.858   2.120
 8174SOL    HW225422   5.452   6.698   2.119
 8175SOL     OW25423   1.588   2.547   4.864
 8175SOL    HW125424   1.585   2.638   4.822
 8175SOL    HW225425   1.510   2.537   4.926
 8176SOL     OW25426   4.223   5.219   3.188
 8176SOL    HW125427   4.145   5.190   3.132
 8176SOL    HW225428   4.277   5.287   3.137
 8177SOL     OW25429   0.950   7.018   5.709
 8177SOL    HW125430   0.977   0.074   5.759
 8177SOL    HW225431   0.919   6.949   5.773
 8178SOL     OW25432   2.039   6.813   6.151
 8178SOL    HW125433   2.094   6.843   6.073
 8178SOL    HW225434   2.017   6.891   6.208
 8179SOL     OW25435   3.176   0.407   7.020
 8179SOL    HW125436   3.146   0.491   6.975
 8179SOL    HW225437   3.181   0.422   0.092
 8180SOL     OW25438   4.736   4.732   5.811
 8180SOL    HW125439   4.663   4.669   5.788
 8180SOL    HW225440   4.763   4.783   5.729
 8181SOL     OW25441   2.599   2.027   2.480
 8181SOL    HW125442   2.657   2.090   2.428
 8181SOL    HW225443   2.504   2.055   2.473
 8182SOL     OW25444   5.451   2.559   5.812
 8182SOL    HW125445   5.449   2.640   5.753
 8182SOL    HW225446   5.358   2.535   5.839
 8183SOL     OW25447   1.992   2.772   3.604
 8183SOL    HW125448   1.936   2.746   3.682
 8183SOL    HW225449   2.059   2.841   3.632
 8184SOL     OW25450   5.713   6.125   4.950
 8184SOL    HW125451   5.696   6.213   4.995
 8184SOL    HW225452   5.703   6.136   4.851
 8185SOL     OW25453   1.759   2.006   2.908
 8185SOL    HW125454   1.682   1.958   2.949
 8185SOL    HW225455   1.815   1.941   2.857
 8186SOL     OW25456   4.137   4.127   6.309
 8186SOL    HW125457   4.057   4.114   6.368
 8186SOL    HW225458   4.110   4.176   6.226
 8187SOL     OW25459   1.874   0.930   5.955
 8187SOL    HW125460   1.917   0.986   6.025
 8187SOL    HW225461   1.805   0.983   5.907
 8188SOL     OW25462   5.643   3.245   2.800
 8188SOL    HW125463   5.592   3.238   2.714
 8188SOL    HW225464   5.720   3.308   2.788
 8189SOL     OW25465   6.991   5.027   2.756
 8189SOL    HW125466   6.957   4.962   2.688
 8189SOL    HW225467   6.925   5.035   2.830
 8190SOL     OW25468   5.754   3.551   2.119
 8190SOL    HW125469   5.690   3.527   2.045
 8190SOL    HW225470   5.813   3.625   2.087
 8191SOL     OW25471   0.083   5.334   1.946
 8191SOL    HW125472   0.118   5.328   1.852
 8191SOL    HW225473   7.024   5.284   1.953
 8192SOL     OW25474   1.495   3.477   0.475
 8192SOL    HW125475   1.450   3.495   0.387
 8192SOL    HW225476   1.426   3.477   0.547
 8193SOL     OW25477   3.699   0.275   5.286
 8193SOL    HW125478   3.724   0.364   5.323
 8193SOL    HW225479   3.652   0.222   5.356
 8194SOL     OW25480   1.849   0.161   1.805
 8194SOL    HW125481   1.948   0.148   1.803
 8194SOL    HW225482   1.803   0.074   1.790
 8195SOL     OW25483   5.102   1.299   1.017
 8195SOL    HW125484   5.085   1.213   1.065
 8195SOL    HW225485   5.138   1.366   1.082
 8196SOL     OW25486   1.970   0.236   6.918
 8196SOL    HW125487   2.027   0.198   6.845
 8196SOL    HW225488   2.020   0.310   6.964
 8197SOL     OW25489   0.678   6.902   1.011
 8197SOL    HW125490   0.613   6.966   1.052
 8197SOL    HW225491   0.683   6.917   0.913
 8198SOL     OW25492   3.340   0.544   2.902
 8198SOL    HW125493   3.290   0.603   2.965
 8198SOL    HW225494   3.438   0.548   2.922
 8199SOL     OW25495   5.823   4.938   0.352
 8199SOL    HW125496   5.813   5.038   0.354
 8199SOL    HW225497   5.740   4.895   0.387
 8200SOL     OW25498   4.130   3.462   1.880
 8200SOL    HW125499   4.115   3.467   1.979
 8200SOL    HW225500   4.048   3.495   1.832
 8201SOL     OW25501   6.495   0.677   4.786
 8201SOL    HW125502   6.480   0.638   4.876
 8201SOL    HW225503   6.449   0.766   4.780
 8202SOL     OW25504   1.782   3.952   4.167
 8202SOL    HW125505   1.855   4.013   4.135
 8202SOL    HW225506   1.783   3.949   4.267
 8203SOL     OW25507   6.049   4.170   0.353
 8203SOL    HW125508   6.009   4.103   0.291
 8203SOL    HW225509   6.090   4.244   0.301
 8204SOL     OW25510   3.517   0.269   0.837
 8204SOL    HW125511   3.502   0.224   0.749
 8204SOL    HW225512   3.615   0.273   0.857
 8205SOL     OW25513   5.198   5.462   3.088
 8205SOL    HW125514   5.098   5.452   3.097
 8205SOL    HW225515   5.222   5.559   3.092
 8206SOL     OW25516   4.330   1.619   4.231
 8206SOL    HW125517   4.252   1.562   4.207
 8206SOL    HW225518   4.354   1.676   4.153
 8207SOL     OW25519   3.148   5.654   6.706
 8207SOL    HW125520   3.153   5.747   6.670
 8207SOL    HW225521   3.141   5.657   6.806
 8208SOL     OW25522   1.477   5.669   0.184
 8208SOL    HW125523   1.544   5.654   0.112
 8208SOL    HW225524   1.507   5.743   0.244
 8209SOL     OW25525   1.576   5.726   4.812
 8209SOL    HW125526   1.487   5.754   4.848
 8209SOL    HW225527   1.592   5.770   4.724
 8210SOL     OW25528   2.289   1.874   0.289
 8210SOL    HW125529   2.275   1.950   0.226
 8210SOL    HW225530   2.203   1.850   0.333
 8211SOL     OW25531   3.777   3.886   4.014
 8211SOL    HW125532   3.719   3.816   4.056
 8211SOL    HW225533   3.821   3.940   4.086
 8212SOL     OW25534   4.357   5.327   0.015
 8212SOL    HW125535   4.278   5.284   0.059
 8212SOL    HW225536   4.332   5.419   7.010
 8213SOL     OW25537   4.677   4.314   1.740
 8213SOL    HW125538   4.604   4.283   1.801
 8213SOL    HW225539   4.672   4.414   1.731
 8214SOL     OW25540   3.759   5.423   2.906
 8214SOL    HW125541   3.684   5.485   2.882
 8214SOL    HW225542   3.727   5.355   2.971
 8215SOL     OW25543   2.663   6.180   6.265
 8215SOL    HW125544   2.675   6.207   6.360
 8215SOL    HW225545   2.633   6.085   6.261
 8216SOL     OW25546   5.312   5.780   1.512
 8216SOL    HW125547   5.244   5.729   1.564
 8216SOL    HW225548   5.288   5.877   1.511
 8217SOL     OW25549   3.444   6.542   3.840
 8217SOL    HW125550   3.496   6.568   3.759
 8217SOL    HW225551   3.407   6.450   3.827
 8218SOL     OW25552   2.293   6.436   5.017
 8218SOL    HW125553   2.272   6.346   4.978
 8218SOL    HW225554   2.387   6.460   4.996
 8219SOL     OW25555   4.036   3.109   2.463
 8219SOL    HW125556   4.064   3.172   2.391
 8219SOL    HW225557   3.978   3.038   2.423
 8220SOL     OW25558   3.653   4.262   5.589
 8220SOL    HW125559   3.701   4.209   5.659
 8220SOL    HW225560   3.649   4.209   5.504
 8221SOL     OW25561   6.333   3.734   4.029
 8221SOL    HW125562   6.408   3.774   3.977
 8221SOL    HW225563   6.319   3.786   4.114
 8222SOL     OW25564   5.896   2.636   6.888
 8222SOL    HW125565   5.891   2.716   6.948
 8222SOL    HW225566   5.937   2.559   6.936
 8223SOL     OW25567   1.899   6.460   5.478
 8223SOL    HW125568   1.869   6.509   5.396
 8223SOL    HW225569   1.912   6.364   5.457
 8224SOL     OW25570   5.145   1.216   6.505
 8224SOL    HW125571   5.229   1.228   6.558
 8224SOL    HW225572   5.073   1.177   6.563
 8225SOL     OW25573   5.635   3.276   0.198
 8225SOL    HW125574   5.658   3.315   0.288
 8225SOL    HW225575   5.627   3.177   0.206
 8226SOL     OW25576   4.000   1.063   6.366
 8226SOL    HW125577   3.919   1.045   6.312
 8226SOL    HW225578   4.074   1.096   6.307
 8227SOL     OW25579   4.566   2.615   3.335
 8227SOL    HW125580   4.552   2.555   3.257
 8227SOL    HW225581   4.637   2.682   3.314
 8228SOL     OW25582   2.964   0.193   5.041
 8228SOL    HW125583   2.892   0.192   5.110
 8228SOL    HW225584   2.923   0.196   4.950
 8229SOL     OW25585   4.650   4.480   0.974
 8229SOL    HW125586   4.638   4.388   0.938
 8229SOL    HW225587   4.694   4.475   1.064
 8230SOL     OW25588   6.035   1.245   5.629
 8230SOL    HW125589   6.116   1.279   5.582
 8230SOL    HW225590   6.041   1.267   5.726
 8231SOL     OW25591   2.915   1.113   2.085
 8231SOL    HW125592   2.836   1.058   2.057
 8231SOL    HW225593   2.980   1.120   2.009
 8232SOL     OW25594   3.783   6.248   2.980
 8232SOL    HW125595   3.732   6.174   3.023
 8232SOL    HW225596   3.854   6.281   3.042
 8233SOL     OW25597   1.950   1.118   6.434
 8233SOL    HW125598   1.911   1.036   6.476
 8233SOL    HW225599   2.033   1.144   6.484
 8234SOL     OW25600   0.910   2.857   0.594
 8234SOL    HW125601   0.823   2.885   0.553
 8234SOL    HW225602   0.954   2.788   0.536
 8235SOL     OW25603   0.888   0.756   1.278
 8235SOL    HW125604   0.958   0.810   1.230
 8235SOL    HW225605   0.926   0.666   1.300
 8236SOL     OW25606   0.380   6.921   1.851
 8236SOL    HW125607   0.356   6.943   1.757
 8236SOL    HW225608   0.397   6.822   1.859
 8237SOL     OW25609   3.748   4.861   5.238
 8237SOL    HW125610   3.655   4.867   5.274
 8237SOL    HW225611   3.808   4.821   5.307
 8238SOL     OW25612   0.233   5.695   0.513
 8238SOL    HW125613   0.157   5.630   0.519
 8238SOL    HW225614   0.320   5.645   0.525
 8239SOL     OW25615   3.211   1.745   5.886
 8239SOL    HW125616   3.247   1.832   5.853
 8239SOL    HW225617   3.275   1.671   5.865
 8240SOL     OW25618   3.660   3.491   4.964
 8240SOL    HW125619   3.660   3.469   4.867
 8240SOL    HW225620   3.697   3.583   4.977
 8241SOL     OW25621   1.296   3.662   5.412
 8241SOL    HW125622   1.258   3.628   5.498
 8241SOL    HW225623   1.257   3.752   5.391
 8242SOL     OW25624   0.216   2.807   2.597
 8242SOL    HW125625   0.267   2.881   2.552
 8242SOL    HW225626   0.246   2.800   2.692
 8243SOL     OW25627   1.479   6.639   3.732
 8243SOL    HW125628   1.528   6.718   3.768
 8243SOL    HW225629   1.382   6.647   3.755
 8244SOL     OW25630   6.679   1.003   3.520
 8244SOL    HW125631   6.614   0.929   3.538
 8244SOL    HW225632   6.682   1.065   3.597
 8245SOL     OW25633   4.791   2.891   2.784
 8245SOL    HW125634   4.726   2.833   2.833
 8245SOL    HW225635   4.811   2.972   2.838
 8246SOL     OW25636   1.788   4.553   6.857
 8246SOL    HW125637   1.776   4.582   6.762
 8246SOL    HW225638   1.699   4.544   6.901
 8247SOL     OW25639   2.652   5.111   3.631
 8247SOL    HW125640   2.707   5.162   3.697
 8247SOL    HW225641   2.705   5.033   3.596
 8248SOL     OW25642   0.002   5.382   2.879
 8248SOL    HW125643   0.032   5.469   2.918
 8248SOL    HW225644   6.946   5.397   2.824
 8249SOL     OW25645   3.205   1.467   6.573
 8249SOL    HW125646   3.257   1.386   6.599
 8249SOL    HW225647   3.264   1.530   6.522
 8250SOL     OW25648   1.473   2.089   0.111
 8250SOL    HW125649   1.560   2.104   0.064
 8250SOL    HW225650   1.440   1.996   0.091
 8251SOL     OW25651   1.058   2.082   6.141
 8251SOL    HW125652   1.141   2.128   6.110
 8251SOL    HW225653   1.063   1.985   6.118
 8252SOL     OW25654   0.815   2.253   6.494
 8252SOL    HW125655   0.812   2.153   6.496
 8252SOL    HW225656   0.891   2.285   6.550
 8253SOL     OW25657   5.803   5.199   6.188
 8253SOL    HW125658   5.813   5.165   6.281
 8253SOL    HW225659   5.792   5.122   6.125
 8254SOL     OW25660   6.363   5.897   0.022
 8254SOL    HW125661   6.364   5.953   0.104
 8254SOL    HW225662   6.324   5.948   6.972
 8255SOL     OW25663   1.023   0.230   5.505
 8255SOL    HW125664   1.073   0.245   5.591
 8255SOL    HW225665   1.034   0.135   5.476
 8256SOL     OW25666   1.259   6.170   4.212
 8256SOL    HW125667   1.209   6.184   4.127
 8256SOL    HW225668   1.357   6.168   4.193
 8257SOL     OW25669   4.951   3.701   3.260
 8257SOL    HW125670   4.998   3.778   3.216
 8257SOL    HW225671   4.910   3.731   3.346
 8258SOL     OW25672   0.623   3.076   3.690
 8258SOL    HW125673   0.712   3.085   3.734
 8258SOL    HW225674   0.579   2.992   3.722
 8259SOL     OW25675   5.805   2.007   4.446
 8259SOL    HW125676   5.764   1.981   4.359
 8259SOL    HW225677   5.737   2.054   4.502
 8260SOL     OW25678   5.034   2.639   0.118
 8260SOL    HW125679   5.003   2.715   0.061
 8260SOL    HW225680   5.134   2.643   0.126
 8261SOL     OW25681   6.320   1.328   2.909
 8261SOL    HW125682   6.372   1.346   2.825
 8261SOL    HW225683   6.301   1.230   2.916
 8262SOL     OW25684   5.135   3.587   1.977
 8262SOL    HW125685   5.175   3.670   1.937
 8262SOL    HW225686   5.201   3.513   1.975
 8263SOL     OW25687   6.785   1.974   6.219
 8263SOL    HW125688   6.780   2.025   6.133
 8263SOL    HW225689   6.858   2.011   6.276
 8264SOL     OW25690   3.119   0.958   1.587
 8264SOL    HW125691   3.112   1.024   1.513
 8264SOL    HW225692   3.037   0.901   1.589
 8265SOL     OW25693   4.325   5.497   0.483
 8265SOL    HW125694   4.326   5.593   0.511
 8265SOL    HW225695   4.380   5.486   0.399
 8266SOL     OW25696   3.463   1.482   3.433
 8266SOL    HW125697   3.512   1.395   3.425
 8266SOL    HW225698   3.487   1.540   3.355
 8267SOL     OW25699   1.870   2.452   3.369
 8267SOL    HW125700   1.839   2.389   3.298
 8267SOL    HW225701   1.969   2.466   3.360
 8268SOL     OW25702   3.156   4.410   6.922
 8268SOL    HW125703   3.211   4.482   6.879
 8268SOL    HW225704   3.067   4.405   6.878
 8269SOL     OW25705   6.621   2.114   5.286
 8269SOL    HW125706   6.610   2.197   5.232
 8269SOL    HW225707   6.665   2.044   5.230
 8270SOL     OW25708   4.194   4.778   0.383
 8270SOL    HW125709   4.101   4.783   0.419
 8270SOL    HW225710   4.218   4.682   0.364
 8271SOL     OW25711   3.229   6.594   5.795
 8271SOL    HW125712   3.319   6.550   5.788
 8271SOL    HW225713   3.241   6.688   5.829
 8272SOL     OW25714   0.135   0.469   2.133
 8272SOL    HW125715   0.090   0.539   2.078
 8272SOL    HW225716   0.066   0.406   2.170
 8273SOL     OW25717   3.604   0.169   6.325
 8273SOL    HW125718   3.530   0.119   6.281
 8273SOL    HW225719   3.595   0.161   6.425
 8274SOL     OW25720   5.229   6.125   5.240
 8274SOL    HW125721   5.180   6.213   5.241
 8274SOL    HW225722   5.172   6.056   5.197
 8275SOL     OW25723   4.900   1.120   4.901
 8275SOL    HW125724   4.903   1.177   4.818
 8275SOL    HW225725   4.871   1.028   4.877
 8276SOL     OW25726   5.652   2.773   0.329
 8276SOL    HW125727   5.567   2.756   0.378
 8276SOL    HW225728   5.690   2.686   0.297
 8277SOL     OW25729   1.137   6.206   1.547
 8277SOL    HW125730   1.087   6.176   1.466
 8277SOL    HW225731   1.114   6.302   1.567
 8278SOL     OW25732   1.773   0.150   1.178
 8278SOL    HW125733   1.688   0.120   1.222
 8278SOL    HW225734   1.812   0.075   1.126
 8279SOL     OW25735   4.954   5.624   5.983
 8279SOL    HW125736   4.985   5.685   6.056
 8279SOL    HW225737   5.032   5.572   5.947
 8280SOL     OW25738   5.434   4.522   6.661
 8280SOL    HW125739   5.461   4.582   6.736
 8280SOL    HW225740   5.400   4.435   6.698
 8281SOL     OW25741   2.907   5.482   6.105
 8281SOL    HW125742   2.940   5.485   6.011
 8281SOL    HW225743   2.955   5.409   6.154
 8282SOL     OW25744   3.737   2.756   0.997
 8282SOL    HW125745   3.826   2.734   1.035
 8282SOL    HW225746   3.667   2.697   1.037
 8283SOL     OW25747   0.656   0.461   3.113
 8283SOL    HW125748   0.643   0.365   3.089
 8283SOL    HW225749   0.609   0.480   3.199
 8284SOL     OW25750   5.172   1.946   1.988
 8284SOL    HW125751   5.214   1.941   1.898
 8284SOL    HW225752   5.241   1.968   2.057
 8285SOL     OW25753   0.531   4.443   0.370
 8285SOL    HW125754   0.546   4.345   0.376
 8285SOL    HW225755   0.581   4.489   0.444
 8286SOL     OW25756   6.237   2.278   0.026
 8286SOL    HW125757   6.306   2.326   6.998
 8286SOL    HW225758   6.227   2.184   7.019
 8287SOL     OW25759   1.505   1.235   2.911
 8287SOL    HW125760   1.542   1.181   2.986
 8287SOL    HW225761   1.479   1.325   2.944
 8288SOL     OW25762   2.080   0.270   2.186
 8288SOL    HW125763   2.007   0.218   2.229
 8288SOL    HW225764   2.148   0.207   2.149
 8289SOL     OW25765   5.634   6.997   0.300
 8289SOL    HW125766   5.544   6.994   0.344
 8289SOL    HW225767   5.673   6.905   0.299
 8290SOL     OW25768   4.742   2.496   2.269
 8290SOL    HW125769   4.829   2.461   2.234
 8290SOL    HW225770   4.741   2.595   2.261
 8291SOL     OW25771   4.832   6.011   6.315
 8291SOL    HW125772   4.867   5.964   6.234
 8291SOL    HW225773   4.903   6.011   6.387
 8292SOL     OW25774   0.200   2.853   5.582
 8292SOL    HW125775   0.242   2.833   5.671
 8292SOL    HW225776   0.266   2.902   5.525
 8293SOL     OW25777   3.027   5.200   4.085
 8293SOL    HW125778   3.031   5.300   4.089
 8293SOL    HW225779   3.025   5.164   4.178
 8294SOL     OW25780   6.064   3.681   5.854
 8294SOL    HW125781   6.032   3.731   5.935
 8294SOL    HW225782   6.055   3.740   5.774
 8295SOL     OW25783   4.719   4.970   2.706
 8295SOL    HW125784   4.739   4.877   2.736
 8295SOL    HW225785   4.731   4.977   2.607
 8296SOL     OW25786   4.034   0.412   2.519
 8296SOL    HW125787   4.128   0.444   2.529
 8296SOL    HW225788   3.974   0.490   2.503
 8297SOL     OW25789   5.527   4.322   1.654
 8297SOL    HW125790   5.551   4.262   1.578
 8297SOL    HW225791   5.562   4.414   1.637
 8298SOL     OW25792   6.709   6.544   0.901
 8298SOL    HW125793   6.667   6.454   0.888
 8298SOL    HW225794   6.639   6.614   0.913
 8299SOL     OW25795   1.275   3.323   7.015
 8299SOL    HW125796   1.225   3.381   6.950
 8299SOL    HW225797   1.212   3.260   0.033
 8300SOL     OW25798   5.965   5.125   4.708
 8300SOL    HW125799   6.062   5.127   4.732
 8300SOL    HW225800   5.926   5.037   4.735
 8301SOL     OW25801   6.795   5.929   0.123
 8301SOL    HW125802   6.853   5.931   0.204
 8301SOL    HW225803   6.738   5.847   0.125
 8302SOL     OW25804   3.980   6.587   5.595
 8302SOL    HW125805   4.007   6.501   5.640
 8302SOL    HW225806   4.033   6.662   5.633
 8303SOL     OW25807   1.261   4.821   4.150
 8303SOL    HW125808   1.244   4.730   4.111
 8303SOL    HW225809   1.192   4.840   4.220
 8304SOL     OW25810   6.514   2.799   3.953
 8304SOL    HW125811   6.461   2.867   3.902
 8304SOL    HW225812   6.464   2.712   3.954
 8305SOL     OW25813   4.419   0.288   5.842
 8305SOL    HW125814   4.421   0.374   5.790
 8305SOL    HW225815   4.463   0.216   5.789
 8306SOL     OW25816   6.202   0.614   4.226
 8306SOL    HW125817   6.130   0.551   4.197
 8306SOL    HW225818   6.286   0.593   4.177
 8307SOL     OW25819   1.146   4.119   3.557
 8307SOL    HW125820   1.178   4.202   3.511
 8307SOL    HW225821   1.139   4.136   3.655
 8308SOL     OW25822   1.399   5.142   0.241
 8308SOL    HW125823   1.441   5.092   0.316
 8308SOL    HW225824   1.464   5.209   0.205
 8309SOL     OW25825   6.459   5.350   3.125
 8309SOL    HW125826   6.363   5.328   3.143
 8309SOL    HW225827   6.491   5.416   3.193
 8310SOL     OW25828   2.504   6.519   2.759
 8310SOL    HW125829   2.447   6.601   2.764
 8310SOL    HW225830   2.543   6.500   2.849
 8311SOL     OW25831   4.427   6.086   2.160
 8311SOL    HW125832   4.462   6.059   2.249
 8311SOL    HW225833   4.328   6.071   2.157
 8312SOL     OW25834   6.479   1.514   0.862
 8312SOL    HW125835   6.444   1.430   0.820
 8312SOL    HW225836   6.540   1.490   0.937
 8313SOL     OW25837   5.494   2.985   6.330
 8313SOL    HW125838   5.492   2.889   6.304
 8313SOL    HW225839   5.560   2.998   6.404
 8314SOL     OW25840   4.287   6.001   3.685
 8314SOL    HW125841   4.215   5.943   3.648
 8314SOL    HW225842   4.352   5.945   3.737
 8315SOL     OW25843   3.252   2.803   6.441
 8315SOL    HW125844   3.276   2.837   6.350
 8315SOL    HW225845   3.178   2.736   6.432
 8316SOL     OW25846   1.384   1.871   5.441
 8316SOL    HW125847   1.303   1.884   5.383
 8316SOL    HW225848   1.355   1.829   5.528
 8317SOL     OW25849   1.331   2.245   4.654
 8317SOL    HW125850   1.263   2.296   4.602
 8317SOL    HW225851   1.289   2.162   4.691
 8318SOL     OW25852   4.285   6.956   6.074
 8318SOL    HW125853   4.306   6.980   5.979
 8318SOL    HW225854   4.205   7.007   6.104
 8319SOL     OW25855   2.156   5.629   6.891
 8319SOL    HW125856   2.238   5.573   6.897
 8319SOL    HW225857   2.121   5.629   6.797
 8320SOL     OW25858   3.849   3.920   5.347
 8320SOL    HW125859   3.827   3.822   5.356
 8320SOL    HW225860   3.911   3.946   5.421
 8321SOL     OW25861   0.340   0.246   0.901
 8321SOL    HW125862   0.356   0.196   0.986
 8321SOL    HW225863   0.313   0.340   0.923
 8322SOL     OW25864   1.121   0.466   0.667
 8322SOL    HW125865   1.034   0.512   0.651
 8322SOL    HW225866   1.195   0.534   0.666
 8323SOL     OW25867   5.352   4.747   6.839
 8323SOL    HW125868   5.304   4.670   6.882
 8323SOL    HW225869   5.419   4.784   6.903
 8324SOL     OW25870   5.387   6.604   6.691
 8324SOL    HW125871   5.403   6.610   6.790
 8324SOL    HW225872   5.456   6.544   6.650
 8325SOL     OW25873   1.497   6.258   4.941
 8325SOL    HW125874   1.470   6.352   4.962
 8325SOL    HW225875   1.460   6.197   5.012
 8326SOL     OW25876   2.179   2.741   6.964
 8326SOL    HW125877   2.198   2.828   7.008
 8326SOL    HW225878   2.222   2.667   7.015
 8327SOL     OW25879   0.698   6.385   5.118
 8327SOL    HW125880   0.644   6.313   5.161
 8327SOL    HW225881   0.793   6.355   5.110
 8328SOL     OW25882   1.149   6.329   1.150
 8328SOL    HW125883   1.077   6.367   1.092
 8328SOL    HW225884   1.215   6.279   1.092
 8329SOL     OW25885   1.522   2.778   5.615
 8329SOL    HW125886   1.461   2.740   5.546
 8329SOL    HW225887   1.613   2.737   5.606
 8330SOL     OW25888   2.584   6.690   0.395
 8330SOL    HW125889   2.635   6.632   0.331
 8330SOL    HW225890   2.542   6.766   0.344
 8331SOL     OW25891   2.315   2.501   6.043
 8331SOL    HW125892   2.365   2.519   6.127
 8331SOL    HW225893   2.376   2.458   5.976
 8332SOL     OW25894   5.906   4.098   1.380
 8332SOL    HW125895   5.967   4.174   1.402
 8332SOL    HW225896   5.812   4.131   1.375
 8333SOL     OW25897   2.529   4.068   6.761
 8333SOL    HW125898   2.444   4.025   6.730
 8333SOL    HW225899   2.552   4.144   6.700
 8334SOL     OW25900   3.462   2.259   5.247
 8334SOL    HW125901   3.369   2.273   5.211
 8334SOL    HW225902   3.526   2.255   5.171
 8335SOL     OW25903   5.143   4.743   5.818
 8335SOL    HW125904   5.068   4.679   5.807
 8335SOL    HW225905   5.132   4.793   5.904
 8336SOL     OW25906   1.513   3.369   3.269
 8336SOL    HW125907   1.534   3.466   3.278
 8336SOL    HW225908   1.587   3.315   3.309
 8337SOL     OW25909   0.002   1.322   4.642
 8337SOL    HW125910   7.007   1.411   4.682
 8337SOL    HW225911   6.977   1.310   4.557
 8338SOL     OW25912   2.694   5.692   0.920
 8338SOL    HW125913   2.649   5.781   0.915
 8338SOL    HW225914   2.627   5.620   0.902
 8339SOL     OW25915   6.177   0.414   1.828
 8339SOL    HW125916   6.274   0.388   1.826
 8339SOL    HW225917   6.167   0.508   1.796
 8340SOL     OW25918   5.939   2.381   6.600
 8340SOL    HW125919   6.026   2.364   6.555
 8340SOL    HW225920   5.881   2.439   6.542
 8341SOL     OW25921   3.967   0.786   0.893
 8341SOL    HW125922   3.937   0.766   0.986
 8341SOL    HW225923   3.978   0.885   0.881
 8342SOL     OW25924   3.687   0.830   0.190
 8342SOL    HW125925   3.623   0.868   0.123
 8342SOL    HW225926   3.705   0.734   0.168
 8343SOL     OW25927   6.113   4.945   2.887
 8343SOL    HW125928   6.038   4.896   2.843
 8343SOL    HW225929   6.129   4.907   2.978
 8344SOL     OW25930   2.472   4.958   5.773
 8344SOL    HW125931   2.534   5.029   5.742
 8344SOL    HW225932   2.439   4.905   5.694
 8345SOL     OW25933   5.979   0.481   4.131
 8345SOL    HW125934   5.915   0.544   4.087
 8345SOL    HW225935   5.928   0.422   4.194
 8346SOL     OW25936   5.640   3.659   4.213
 8346SOL    HW125937   5.690   3.741   4.240
 8346SOL    HW225938   5.576   3.682   4.139
 8347SOL     OW25939   1.563   1.515   6.009
 8347SOL    HW125940   1.623   1.438   6.031
 8347SOL    HW225941   1.482   1.512   6.067
 8348SOL     OW25942   3.115   5.641   1.937
 8348SOL    HW125943   3.186   5.696   1.982
 8348SOL    HW225944   3.032   5.641   1.994
 8349SOL     OW25945   4.774   6.505   1.620
 8349SOL    HW125946   4.682   6.466   1.625
 8349SOL    HW225947   4.798   6.546   1.708
 8350SOL     OW25948   1.140   7.015   0.465
 8350SOL    HW125949   1.068   0.033   0.518
 8350SOL    HW225950   1.221   0.046   0.464
 8351SOL     OW25951   6.997   2.883   2.623
 8351SOL    HW125952   6.964   2.882   2.717
 8351SOL    HW225953   0.059   2.837   2.617
 8352SOL     OW25954   2.679   6.652   6.830
 8352SOL    HW125955   2.733   6.703   6.763
 8352SOL    HW225956   2.731   6.572   6.860
 8353SOL     OW25957   0.851   6.279   2.148
 8353SOL    HW125958   0.890   6.191   2.175
 8353SOL    HW225959   0.900   6.352   2.196
 8354SOL     OW25960   4.439   1.585   3.279
 8354SOL    HW125961   4.489   1.546   3.202
 8354SOL    HW225962   4.430   1.684   3.267
 8355SOL     OW25963   2.839   5.076   6.034
 8355SOL    HW125964   2.926   5.043   5.997
 8355SOL    HW225965   2.856   5.144   6.105
 8356SOL     OW25966   2.812   4.133   1.147
 8356SOL    HW125967   2.744   4.107   1.216
 8356SOL    HW225968   2.902   4.102   1.177
 8357SOL     OW25969   4.327   0.192   4.534
 8357SOL    HW125970   4.372   0.163   4.449
 8357SOL    HW225971   4.263   0.266   4.514
 8358SOL     OW25972   0.515   0.897   5.273
 8358SOL    HW125973   0.425   0.861   5.249
 8358SOL    HW225974   0.570   0.907   5.190
 8359SOL     OW25975   4.151   2.466   5.674
 8359SOL    HW125976   4.092   2.387   5.688
 8359SOL    HW225977   4.204   2.483   5.758
 8360SOL     OW25978   3.876   6.988   1.428
 8360SOL    HW125979   3.956   7.026   1.475
 8360SOL    HW225980   3.904   6.909   1.373
 8361SOL     OW25981   4.538   1.547   0.203
 8361SOL    HW125982   4.511   1.483   0.131
 8361SOL    HW225983   4.540   1.501   0.291
 8362SOL     OW25984   0.005   3.083   1.332
 8362SOL    HW125985   0.077   3.097   1.401
 8362SOL    HW225986   0.047   3.080   1.241
 8363SOL     OW25987   1.397   2.623   1.396
 8363SOL    HW125988   1.347   2.700   1.356
 8363SOL    HW225989   1.465   2.590   1.331
 8364SOL     OW25990   0.520   2.385   4.168
 8364SOL    HW125991   0.585   2.380   4.093
 8364SOL    HW225992   0.446   2.320   4.152
 8365SOL     OW25993   1.355   2.254   1.446
 8365SOL    HW125994   1.283   2.323   1.452
 8365SOL    HW225995   1.349   2.206   1.359
 8366SOL     OW25996   5.169   5.331   1.873
 8366SOL    HW125997   5.248   5.291   1.920
 8366SOL    HW225998   5.086   5.280   1.897
 8367SOL     OW25999   1.984   4.408   3.872
 8367SOL    HW126000   2.062   4.364   3.827
 8367SOL    HW226001   1.974   4.501   3.838
 8368SOL     OW26002   6.142   5.229   5.788
 8368SOL    HW126003   6.099   5.149   5.831
 8368SOL    HW226004   6.213   5.199   5.725
 8369SOL     OW26005   1.736   6.750   6.982
 8369SOL    HW126006   1.789   6.798   0.026
 8369SOL    HW226007   1.702   6.664   7.019
 8370SOL     OW26008   3.058   2.899   0.686
 8370SOL    HW126009   3.018   2.972   0.631
 8370SOL    HW226010   3.044   2.918   0.783
 8371SOL     OW26011   3.132   3.925   6.782
 8371SOL    HW126012   3.139   3.953   6.686
 8371SOL    HW226013   3.046   3.875   6.795
 8372SOL     OW26014   1.439   6.204   1.592
 8372SOL    HW126015   1.498   6.284   1.599
 8372SOL    HW226016   1.351   6.231   1.554
 8373SOL     OW26017   6.826   0.927   4.151
 8373SOL    HW126018   6.891   0.961   4.219
 8373SOL    HW226019   6.847   0.966   4.061
 8374SOL     OW26020   0.789   1.378   3.730
 8374SOL    HW126021   0.725   1.425   3.670
 8374SOL    HW226022   0.880   1.418   3.720
 8375SOL     OW26023   1.555   2.430   5.410
 8375SOL    HW126024   1.592   2.351   5.459
 8375SOL    HW226025   1.491   2.478   5.470
 8376SOL     OW26026   1.266   2.010   3.621
 8376SOL    HW126027   1.329   2.074   3.577
 8376SOL    HW226028   1.306   1.978   3.707
 8377SOL     OW26029   4.016   5.488   0.096
 8377SOL    HW126030   3.973   5.577   0.112
 8377SOL    HW226031   3.957   5.432   0.039
 8378SOL     OW26032   4.376   5.801   4.539
 8378SOL    HW126033   4.338   5.740   4.608
 8378SOL    HW226034   4.408   5.885   4.583
 8379SOL     OW26035   6.018   2.149   1.726
 8379SOL    HW126036   5.995   2.238   1.688
 8379SOL    HW226037   5.990   2.077   1.662
 8380SOL     OW26038   0.733   6.025   1.554
 8380SOL    HW126039   0.677   6.035   1.636
 8380SOL    HW226040   0.747   5.928   1.535
 8381SOL     OW26041   1.130   1.722   2.640
 8381SOL    HW126042   1.141   1.816   2.607
 8381SOL    HW226043   1.039   1.689   2.615
 8382SOL     OW26044   0.951   0.265   2.023
 8382SOL    HW126045   0.915   0.203   1.953
 8382SOL    HW226046   1.019   0.326   1.982
 8383SOL     OW26047   3.128   6.895   6.180
 8383SOL    HW126048   3.118   6.822   6.247
 8383SOL    HW226049   3.169   6.975   6.224
 8384SOL     OW26050   0.388   3.739   2.789
 8384SOL    HW126051   0.472   3.778   2.826
 8384SOL    HW226052   0.383   3.758   2.691
 8385SOL     OW26053   4.269   2.324   2.261
 8385SOL    HW126054   4.355   2.375   2.266
 8385SOL    HW226055   4.221   2.347   2.177
 8386SOL     OW26056   1.978   5.489   1.555
 8386SOL    HW126057   1.934   5.529   1.636
 8386SOL    HW226058   2.041   5.417   1.584
 8387SOL     OW26059   1.017   1.542   3.697
 8387SOL    HW126060   1.081   1.518   3.770
 8387SOL    HW226061   1.003   1.641   3.697
 8388SOL     OW26062   3.702   5.065   1.211
 8388SOL    HW126063   3.727   5.157   1.183
 8388SOL    HW226064   3.784   5.013   1.233
 8389SOL     OW26065   0.877   3.192   4.019
 8389SOL    HW126066   0.806   3.253   4.053
 8389SOL    HW226067   0.957   3.245   3.991
 8390SOL     OW26068   3.018   0.402   6.458
 8390SOL    HW126069   3.023   0.426   6.362
 8390SOL    HW226070   2.984   0.480   6.511
 8391SOL     OW26071   5.310   6.092   0.655
 8391SOL    HW126072   5.349   6.117   0.566
 8391SOL    HW226073   5.271   6.000   0.650
 8392SOL     OW26074   4.997   6.224   6.937
 8392SOL    HW126075   5.002   6.318   6.971
 8392SOL    HW226076   4.984   6.161   7.014
 8393SOL     OW26077   0.654   4.665   2.582
 8393SOL    HW126078   0.556   4.676   2.596
 8393SOL    HW226079   0.677   4.689   2.487
 8394SOL     OW26080   1.597   1.453   2.634
 8394SOL    HW126081   1.573   1.488   2.724
 8394SOL    HW226082   1.553   1.364   2.620
 8395SOL     OW26083   1.228   6.392   5.532
 8395SOL    HW126084   1.136   6.357   5.546
 8395SOL    HW226085   1.248   6.464   5.598
 8396SOL     OW26086   4.330   2.413   1.790
 8396SOL    HW126087   4.427   2.397   1.807
 8396SOL    HW226088   4.289   2.332   1.748
 8397SOL     OW26089   2.199   5.344   3.971
 8397SOL    HW126090   2.139   5.354   4.051
 8397SOL    HW226091   2.167   5.404   3.898
 8398SOL     OW26092   5.867   1.332   0.385
 8398SOL    HW126093   5.816   1.260   0.338
 8398SOL    HW226094   5.836   1.421   0.354
 8399SOL     OW26095   5.397   5.815   6.898
 8399SOL    HW126096   5.457   5.742   6.930
 8399SOL    HW226097   5.450   5.881   6.845
 8400SOL     OW26098   6.603   6.648   4.256
 8400SOL    HW126099   6.629   6.559   4.294
 8400SOL    HW226100   6.503   6.656   4.257
 8401SOL     OW26101   2.804   4.002   5.524
 8401SOL    HW126102   2.886   3.974   5.573
 8401SOL    HW226103   2.729   3.939   5.546
 8402SOL     OW26104   4.477   0.640   5.452
 8402SOL    HW126105   4.512   0.600   5.367
 8402SOL    HW226106   4.511   0.733   5.462
 8403SOL     OW26107   0.765   2.942   5.285
 8403SOL    HW126108   0.756   2.951   5.185
 8403SOL    HW226109   0.749   2.846   5.311
 8404SOL     OW26110   4.296   5.077   5.072
 8404SOL    HW126111   4.310   5.085   4.973
 8404SOL    HW226112   4.251   4.990   5.091
 8405SOL     OW26113   1.818   2.591   4.999
 8405SOL    HW126114   1.765   2.554   4.923
 8405SOL    HW226115   1.856   2.680   4.973
 8406SOL     OW26116   5.368   3.517   1.683
 8406SOL    HW126117   5.273   3.490   1.699
 8406SOL    HW226118   5.422   3.438   1.654
 8407SOL     OW26119   4.841   3.712   2.954
 8407SOL    HW126120   4.862   3.806   2.927
 8407SOL    HW226121   4.871   3.696   3.048
 8408SOL     OW26122   4.922   4.465   4.264
 8408SOL    HW126123   4.995   4.401   4.240
 8408SOL    HW226124   4.837   4.415   4.277
 8409SOL     OW26125   0.549   2.014   3.832
 8409SOL    HW126126   0.548   1.921   3.795
 8409SOL    HW226127   0.457   2.052   3.826
 8410SOL     OW26128   2.341   6.153   2.486
 8410SOL    HW126129   2.315   6.213   2.562
 8410SOL    HW226130   2.420   6.192   2.439
 8411SOL     OW26131   2.066   3.173   3.155
 8411SOL    HW126132   2.085   3.254   3.210
 8411SOL    HW226133   1.980   3.186   3.105
 8412SOL     OW26134   6.527   2.255   2.733
 8412SOL    HW126135   6.524   2.347   2.774
 8412SOL    HW226136   6.433   2.224   2.715
 8413SOL     OW26137   2.532   4.706   1.538
 8413SOL    HW126138   2.566   4.796   1.567
 8413SOL    HW226139   2.436   4.714   1.511
 8414SOL     OW26140   5.810   6.843   3.422
 8414SOL    HW126141   5.843   6.845   3.328
 8414SOL    HW226142   5.876   6.796   3.480
 8415SOL     OW26143   6.729   4.137   1.897
 8415SOL    HW126144   6.633   4.111   1.898
 8415SOL    HW226145   6.764   4.132   1.804
 8416SOL     OW26146   4.568   4.391   2.368
 8416SOL    HW126147   4.594   4.391   2.465
 8416SOL    HW226148   4.613   4.315   2.322
 8417SOL     OW26149   2.089   6.107   6.491
 8417SOL    HW126150   2.144   6.167   6.432
 8417SOL    HW226151   2.081   6.017   6.448
 8418SOL     OW26152   6.314   5.467   2.429
 8418SOL    HW126153   6.297   5.393   2.363
 8418SOL    HW226154   6.370   5.538   2.386
 8419SOL     OW26155   5.051   0.018   4.088
 8419SOL    HW126156   5.080   0.112   4.101
 8419SOL    HW226157   5.131   6.986   4.072
 8420SOL     OW26158   3.988   2.249   5.681
 8420SOL    HW126159   3.916   2.241   5.613
 8420SOL    HW226160   4.005   2.160   5.723
 8421SOL     OW26161   0.012   0.503   0.794
 8421SOL    HW126162   0.042   0.415   0.757
 8421SOL    HW226163   0.041   0.511   0.890
 8422SOL     OW26164   4.365   0.168   1.516
 8422SOL    HW126165   4.370   0.181   1.615
 8422SOL    HW226166   4.439   0.220   1.473
 8423SOL     OW26167   1.936   3.476   1.682
 8423SOL    HW126168   1.844   3.489   1.718
 8423SOL    HW226169   1.933   3.469   1.582
 8424SOL     OW26170   2.692   2.262   1.889
 8424SOL    HW126171   2.781   2.282   1.930
 8424SOL    HW226172   2.647   2.347   1.863
 8425SOL     OW26173   6.217   4.673   6.620
 8425SOL    HW126174   6.300   4.658   6.567
 8425SOL    HW226175   6.226   4.629   6.709
 8426SOL     OW26176   3.462   3.337   2.585
 8426SOL    HW126177   3.551   3.294   2.599
 8426SOL    HW226178   3.466   3.432   2.614
 8427SOL     OW26179   2.000   2.659   6.751
 8427SOL    HW126180   1.904   2.673   6.776
 8427SOL    HW226181   2.057   2.669   6.832
 8428SOL     OW26182   6.437   4.325   1.240
 8428SOL    HW126183   6.384   4.277   1.170
 8428SOL    HW226184   6.531   4.290   1.241
 8429SOL     OW26185   1.808   6.940   3.075
 8429SOL    HW126186   1.776   7.009   3.140
 8429SOL    HW226187   1.735   6.874   3.058
 8430SOL     OW26188   5.330   4.161   3.119
 8430SOL    HW126189   5.422   4.198   3.109
 8430SOL    HW226190   5.305   4.111   3.036
 8431SOL     OW26191   2.842   3.493   1.997
 8431SOL    HW126192   2.820   3.455   1.907
 8431SOL    HW226193   2.762   3.487   2.056
 8432SOL     OW26194   5.059   6.478   0.087
 8432SOL    HW126195   5.067   6.571   0.122
 8432SOL    HW226196   5.031   6.417   0.161
 8433SOL     OW26197   0.561   1.999   4.117
 8433SOL    HW126198   0.643   1.957   4.156
 8433SOL    HW226199   0.556   1.978   4.020
 8434SOL     OW26200   5.423   6.013   6.349
 8434SOL    HW126201   5.495   5.962   6.397
 8434SOL    HW226202   5.347   5.952   6.329
 8435SOL     OW26203   4.862   2.283   2.043
 8435SOL    HW126204   4.920   2.326   2.112
 8435SOL    HW226205   4.766   2.293   2.070
 8436SOL     OW26206   3.019   4.400   1.705
 8436SOL    HW126207   2.942   4.381   1.643
 8436SOL    HW226208   2.984   4.446   1.787
 8437SOL     OW26209   0.029   1.528   0.819
 8437SOL    HW126210   0.068   1.459   0.758
 8437SOL    HW226211   0.102   1.567   0.876
 8438SOL     OW26212   2.226   5.828   0.911
 8438SOL    HW126213   2.217   5.887   0.830
 8438SOL    HW226214   2.141   5.829   0.963
 8439SOL     OW26215   6.006   0.520   2.256
 8439SOL    HW126216   6.097   0.511   2.296
 8439SOL    HW226217   6.014   0.560   2.164
 8440SOL     OW26218   0.603   2.763   4.385
 8440SOL    HW126219   0.561   2.839   4.434
 8440SOL    HW226220   0.577   2.767   4.289
 8441SOL     OW26221   4.554   5.597   2.371
 8441SOL    HW126222   4.500   5.576   2.453
 8441SOL    HW226223   4.649   5.617   2.398
 8442SOL     OW26224   1.991   2.817   0.649
 8442SOL    HW126225   1.923   2.821   0.723
 8442SOL    HW226226   2.020   2.910   0.626
 8443SOL     OW26227   0.637   1.917   1.896
 8443SOL    HW126228   0.691   1.846   1.943
 8443SOL    HW226229   0.696   1.966   1.833
 8444SOL     OW26230   4.386   1.248   2.869
 8444SOL    HW126231   4.342   1.314   2.808
 8444SOL    HW226232   4.483   1.271   2.878
 8445SOL     OW26233   4.481   5.208   2.053
 8445SOL    HW126234   4.476   5.307   2.070
 8445SOL    HW226235   4.465   5.191   1.956
 8446SOL     OW26236   6.775   3.807   3.040
 8446SOL    HW126237   6.709   3.854   2.981
 8446SOL    HW226238   6.865   3.848   3.028
 8447SOL     OW26239   4.415   3.273   1.144
 8447SOL    HW126240   4.484   3.224   1.091
 8447SOL    HW226241   4.377   3.213   1.215
 8448SOL     OW26242   1.753   3.377   5.840
 8448SOL    HW126243   1.803   3.332   5.767
 8448SOL    HW226244   1.806   3.371   5.925
 8449SOL     OW26245   0.939   1.516   4.375
 8449SOL    HW126246   0.968   1.555   4.463
 8449SOL    HW226247   0.996   1.554   4.302
 8450SOL     OW26248   1.803   5.275   1.229
 8450SOL    HW126249   1.706   5.268   1.208
 8450SOL    HW226250   1.834   5.369   1.212
 8451SOL     OW26251   3.935   2.614   0.281
 8451SOL    HW126252   3.995   2.533   0.276
 8451SOL    HW226253   3.962   2.669   0.360
 8452SOL     OW26254   0.467   5.359   1.782
 8452SOL    HW126255   0.510   5.411   1.856
 8452SOL    HW226256   0.369   5.347   1.803
 8453SOL     OW26257   6.358   5.730   5.080
 8453SOL    HW126258   6.351   5.636   5.048
 8453SOL    HW226259   6.455   5.754   5.093
 8454SOL     OW26260   2.225   6.834   4.500
 8454SOL    HW126261   2.130   6.863   4.514
 8454SOL    HW226262   2.240   6.815   4.403
 8455SOL     OW26263   6.006   2.491   0.897
 8455SOL    HW126264   6.039   2.578   0.932
 8455SOL    HW226265   5.980   2.501   0.801
 8456SOL     OW26266   5.121   5.426   3.485
 8456SOL    HW126267   5.161   5.354   3.541
 8456SOL    HW226268   5.023   5.433   3.505
 8457SOL     OW26269   6.387   6.047   6.380
 8457SOL    HW126270   6.353   5.977   6.317
 8457SOL    HW226271   6.431   6.002   6.458
 8458SOL     OW26272   1.666   2.184   1.145
 8458SOL    HW126273   1.686   2.159   1.240
 8458SOL    HW226274   1.752   2.201   1.097
 8459SOL     OW26275   2.385   5.804   3.079
 8459SOL    HW126276   2.319   5.797   3.154
 8459SOL    HW226277   2.471   5.842   3.114
 8460SOL     OW26278   3.837   1.322   1.086
 8460SOL    HW126279   3.762   1.284   1.142
 8460SOL    HW226280   3.924   1.286   1.119
 8461SOL     OW26281   5.099   4.341   3.060
 8461SOL    HW126282   5.027   4.342   3.129
 8461SOL    HW226283   5.172   4.278   3.089
 8462SOL     OW26284   2.054   4.035   0.906
 8462SOL    HW126285   2.089   4.125   0.880
 8462SOL    HW226286   2.100   3.965   0.852
 8463SOL     OW26287   6.389   0.512   0.484
 8463SOL    HW126288   6.432   0.533   0.396
 8463SOL    HW226289   6.451   0.456   0.539
 8464SOL     OW26290   6.417   3.966   6.625
 8464SOL    HW126291   6.413   3.977   6.724
 8464SOL    HW226292   6.472   3.885   6.603
 8465SOL     OW26293   4.720   3.646   0.835
 8465SOL    HW126294   4.730   3.548   0.856
 8465SOL    HW226295   4.735   3.699   0.919
 8466SOL     OW26296   0.719   1.251   5.303
 8466SOL    HW126297   0.664   1.283   5.381
 8466SOL    HW226298   0.664   1.256   5.220
 8467SOL     OW26299   3.251   1.301   0.358
 8467SOL    HW126300   3.345   1.336   0.355
 8467SOL    HW226301   3.215   1.310   0.451
 8468SOL     OW26302   5.547   3.880   0.335
 8468SOL    HW126303   5.457   3.907   0.370
 8468SOL    HW226304   5.539   3.859   0.238
 8469SOL     OW26305   3.890   3.400   5.361
 8469SOL    HW126306   3.977   3.355   5.340
 8469SOL    HW226307   3.862   3.377   5.454
 8470SOL     OW26308   1.522   5.332   1.553
 8470SOL    HW126309   1.622   5.338   1.562
 8470SOL    HW226310   1.487   5.260   1.612
 8471SOL     OW26311   4.162   1.971   4.520
 8471SOL    HW126312   4.140   2.063   4.553
 8471SOL    HW226313   4.133   1.904   4.589
 8472SOL     OW26314   5.940   1.594   6.708
 8472SOL    HW126315   5.866   1.634   6.761
 8472SOL    HW226316   5.932   1.494   6.709
 8473SOL     OW26317   5.071   5.158   5.813
 8473SOL    HW126318   5.081   5.074   5.866
 8473SOL    HW226319   5.000   5.215   5.854
 8474SOL     OW26320   3.199   4.128   4.769
 8474SOL    HW126321   3.242   4.124   4.859
 8474SOL    HW226322   3.114   4.075   4.770
 8475SOL     OW26323   6.834   1.678   3.304
 8475SOL    HW126324   6.756   1.681   3.366
 8475SOL    HW226325   6.834   1.591   3.255
 8476SOL     OW26326   5.784   1.451   1.591
 8476SOL    HW126327   5.728   1.368   1.592
 8476SOL    HW226328   5.730   1.528   1.625
 8477SOL     OW26329   5.666   0.345   1.874
 8477SOL    HW126330   5.654   0.439   1.841
 8477SOL    HW226331   5.708   0.347   1.964
 8478SOL     OW26332   0.606   6.701   5.423
 8478SOL    HW126333   0.519   6.668   5.459
 8478SOL    HW226334   0.642   6.772   5.482
 8479SOL     OW26335   0.640   3.118   0.576
 8479SOL    HW126336   0.626   3.064   0.659
 8479SOL    HW226337   0.556   3.169   0.555
 8480SOL     OW26338   3.692   4.440   0.777
 8480SOL    HW126339   3.723   4.488   0.858
 8480SOL    HW226340   3.719   4.344   0.781
 8481SOL     OW26341   3.930   2.180   3.082
 8481SOL    HW126342   3.884   2.096   3.108
 8481SOL    HW226343   3.909   2.202   2.987
 8482SOL     OW26344   4.350   0.985   6.294
 8482SOL    HW126345   4.369   0.947   6.385
 8482SOL    HW226346   4.437   1.010   6.251
 8483SOL     OW26347   3.918   5.043   3.477
 8483SOL    HW126348   3.868   5.007   3.556
 8483SOL    HW226349   3.983   4.974   3.445
 8484SOL     OW26350   5.957   5.932   5.062
 8484SOL    HW126351   5.890   5.950   4.990
 8484SOL    HW226352   5.911   5.931   5.151
 8485SOL     OW26353   4.204   1.221   6.201
 8485SOL    HW126354   4.246   1.312   6.199
 8485SOL    HW226355   4.274   1.153   6.223
 8486SOL     OW26356   5.951   2.671   4.910
 8486SOL    HW126357   5.982   2.749   4.964
 8486SOL    HW226358   5.854   2.654   4.928
 8487SOL     OW26359   6.446   2.036   6.036
 8487SOL    HW126360   6.513   2.082   6.094
 8487SOL    HW226361   6.354   2.064   6.064
 8488SOL     OW26362   4.610   4.632   2.932
 8488SOL    HW126363   4.677   4.651   2.860
 8488SOL    HW226364   4.604   4.533   2.946
 8489SOL     OW26365   6.183   2.226   1.930
 8489SOL    HW126366   6.271   2.263   1.900
 8489SOL    HW226367   6.130   2.197   1.850
 8490SOL     OW26368   2.962   6.593   7.014
 8490SOL    HW126369   2.963   6.541   0.073
 8490SOL    HW226370   3.038   6.658   7.012
 8491SOL     OW26371   2.819   5.599   2.048
 8491SOL    HW126372   2.774   5.676   2.092
 8491SOL    HW226373   2.818   5.520   2.109
 8492SOL     OW26374   6.555   6.005   4.325
 8492SOL    HW126375   6.565   5.953   4.240
 8492SOL    HW226376   6.510   6.092   4.306
 8493SOL     OW26377   4.774   1.351   5.970
 8493SOL    HW126378   4.773   1.323   6.066
 8493SOL    HW226379   4.802   1.274   5.912
 8494SOL     OW26380   6.864   3.710   2.530
 8494SOL    HW126381   6.839   3.641   2.461
 8494SOL    HW226382   6.798   3.707   2.604
 8495SOL     OW26383   5.911   5.608   6.373
 8495SOL    HW126384   5.886   5.651   6.286
 8495SOL    HW226385   6.004   5.571   6.366
 8496SOL     OW26386   5.267   2.704   2.989
 8496SOL    HW126387   5.190   2.768   2.986
 8496SOL    HW226388   5.351   2.752   2.964
 8497SOL     OW26389   0.069   0.173   2.825
 8497SOL    HW126390   0.071   0.235   2.903
 8497SOL    HW226391   7.008   0.125   2.822
 8498SOL     OW26392   4.798   6.676   3.992
 8498SOL    HW126393   4.848   6.709   3.913
 8498SOL    HW226394   4.807   6.742   4.067
 8499SOL     OW26395   6.229   6.923   5.696
 8499SOL    HW126396   6.200   7.009   5.740
 8499SOL    HW226397   6.310   6.940   5.641
 8500SOL     OW26398   1.358   0.671   6.729
 8500SOL    HW126399   1.444   0.702   6.769
 8500SOL    HW226400   1.324   0.592   6.780
 8501SOL     OW26401   2.270   1.257   6.380
 8501SOL    HW126402   2.265   1.224   6.286
 8501SOL    HW226403   2.246   1.354   6.383
 8502SOL     OW26404   6.148   3.610   6.744
 8502SOL    HW126405   6.102   3.679   6.801
 8502SOL    HW226406   6.145   3.638   6.648
 8503SOL     OW26407   5.273   2.846   5.110
 8503SOL    HW126408   5.229   2.874   5.024
 8503SOL    HW226409   5.226   2.890   5.187
 8504SOL     OW26410   0.922   0.048   2.466
 8504SOL    HW126411   0.909   0.137   2.509
 8504SOL    HW226412   0.947   0.061   2.370
 8505SOL     OW26413   5.380   2.613   2.278
 8505SOL    HW126414   5.368   2.575   2.370
 8505SOL    HW226415   5.443   2.555   2.226
 8506SOL     OW26416   1.037   6.585   6.248
 8506SOL    HW126417   0.959   6.534   6.212
 8506SOL    HW226418   1.008   6.636   6.329
 8507SOL     OW26419   3.541   5.485   5.344
 8507SOL    HW126420   3.618   5.514   5.402
 8507SOL    HW226421   3.563   5.398   5.301
 8508SOL     OW26422   2.482   0.982   6.818
 8508SOL    HW126423   2.454   1.077   6.816
 8508SOL    HW226424   2.581   0.976   6.806
 8509SOL     OW26425   5.140   1.985   2.748
 8509SOL    HW126426   5.144   1.922   2.671
 8509SOL    HW226427   5.232   2.003   2.781
 8510SOL     OW26428   0.709   2.109   4.756
 8510SOL    HW126429   0.749   2.172   4.690
 8510SOL    HW226430   0.639   2.156   4.810
 8511SOL     OW26431   5.852   1.740   3.277
 8511SOL    HW126432   5.916   1.677   3.321
 8511SOL    HW226433   5.879   1.755   3.183
 8512SOL     OW26434   2.482   6.514   5.557
 8512SOL    HW126435   2.486   6.482   5.462
 8512SOL    HW226436   2.513   6.441   5.618
 8513SOL     OW26437   5.020   6.054   6.501
 8513SOL    HW126438   5.056   6.124   6.563
 8513SOL    HW226439   5.089   6.032   6.432
 8514SOL     OW26440   3.708   5.456   3.955
 8514SOL    HW126441   3.611   5.477   3.965
 8514SOL    HW226442   3.736   5.393   4.028
 8515SOL     OW26443   6.351   2.286   1.228
 8515SOL    HW126444   6.297   2.247   1.302
 8515SOL    HW226445   6.290   2.312   1.153
 8516SOL     OW26446   6.764   2.157   2.338
 8516SOL    HW126447   6.791   2.108   2.255
 8516SOL    HW226448   6.735   2.249   2.313
 8517SOL     OW26449   1.650   3.912   6.513
 8517SOL    HW126450   1.571   3.867   6.556
 8517SOL    HW226451   1.734   3.865   6.541
 8518SOL     OW26452   2.745   6.074   0.423
 8518SOL    HW126453   2.781   6.084   0.330
 8518SOL    HW226454   2.817   6.091   0.489
 8519SOL     OW26455   2.693   6.100   3.900
 8519SOL    HW126456   2.779   6.048   3.900
 8519SOL    HW226457   2.677   6.139   3.809
 8520SOL     OW26458   3.784   6.182   6.948
 8520SOL    HW126459   3.859   6.191   6.882
 8520SOL    HW226460   3.713   6.249   6.928
 8521SOL     OW26461   1.790   0.403   1.673
 8521SOL    HW126462   1.759   0.382   1.580
 8521SOL    HW226463   1.804   0.318   1.724
 8522SOL     OW26464   2.558   6.948   4.543
 8522SOL    HW126465   2.535   6.942   4.445
 8522SOL    HW226466   2.483   6.908   4.596
 8523SOL     OW26467   1.641   6.453   6.673
 8523SOL    HW126468   1.571   6.497   6.617
 8523SOL    HW226469   1.623   6.354   6.677
 8524SOL     OW26470   1.424   1.404   6.449
 8524SOL    HW126471   1.522   1.393   6.437
 8524SOL    HW226472   1.379   1.314   6.445
 8525SOL     OW26473   5.592   3.896   3.648
 8525SOL    HW126474   5.602   3.846   3.734
 8525SOL    HW226475   5.673   3.883   3.592
 8526SOL     OW26476   2.133   3.759   2.244
 8526SOL    HW126477   2.180   3.710   2.171
 8526SOL    HW226478   2.140   3.707   2.329
 8527SOL     OW26479   4.477   0.771   4.285
 8527SOL    HW126480   4.543   0.704   4.251
 8527SOL    HW226481   4.470   0.846   4.219
 8528SOL     OW26482   5.728   1.626   6.869
 8528SOL    HW126483   5.661   1.596   6.801
 8528SOL    HW226484   5.751   1.550   6.929
 8529SOL     OW26485   6.773   5.791   5.724
 8529SOL    HW126486   6.702   5.812   5.657
 8529SOL    HW226487   6.740   5.723   5.789
 8530SOL     OW26488   2.072   4.874   6.032
 8530SOL    HW126489   2.105   4.920   5.949
 8530SOL    HW226490   2.079   4.937   6.109
 8531SOL     OW26491   4.126   4.641   1.915
 8531SOL    HW126492   4.120   4.542   1.900
 8531SOL    HW226493   4.042   4.684   1.885
 8532SOL     OW26494   1.539   4.041   1.002
 8532SOL    HW126495   1.533   4.046   1.102
 8532SOL    HW226496   1.630   4.072   0.973
 8533SOL     OW26497   4.120   6.303   5.563
 8533SOL    HW126498   4.180   6.360   5.619
 8533SOL    HW226499   4.132   6.327   5.467
 8534SOL     OW26500   1.873   2.695   1.798
 8534SOL    HW126501   1.889   2.751   1.880
 8534SOL    HW226502   1.956   2.647   1.773
 8535SOL     OW26503   0.311   3.417   5.116
 8535SOL    HW126504   0.240   3.404   5.186
 8535SOL    HW226505   0.276   3.383   5.028
 8536SOL     OW26506   5.826   1.338   5.494
 8536SOL    HW126507   5.908   1.303   5.539
 8536SOL    HW226508   5.830   1.317   5.397
 8537SOL     OW26509   4.625   6.744   2.757
 8537SOL    HW126510   4.549   6.757   2.820
 8537SOL    HW226511   4.631   6.823   2.696
 8538SOL     OW26512   5.251   0.506   5.441
 8538SOL    HW126513   5.265   0.422   5.493
 8538SOL    HW226514   5.338   0.535   5.401
 8539SOL     OW26515   0.517   2.899   2.683
 8539SOL    HW126516   0.541   2.841   2.762
 8539SOL    HW226517   0.594   2.904   2.621
 8540SOL     OW26518   4.129   6.795   6.634
 8540SOL    HW126519   4.205   6.761   6.579
 8540SOL    HW226520   4.060   6.722   6.645
 8541SOL     OW26521   2.968   6.488   5.211
 8541SOL    HW126522   2.887   6.505   5.267
 8541SOL    HW226523   2.949   6.514   5.117
 8542SOL     OW26524   1.497   4.954   5.177
 8542SOL    HW126525   1.480   5.012   5.257
 8542SOL    HW226526   1.425   4.970   5.109
 8543SOL     OW26527   2.974   2.480   5.527
 8543SOL    HW126528   3.008   2.523   5.610
 8543SOL    HW226529   3.031   2.402   5.503
 8544SOL     OW26530   5.137   4.684   5.232
 8544SOL    HW126531   5.233   4.710   5.228
 8544SOL    HW226532   5.081   4.753   5.186
 8545SOL     OW26533   2.047   6.754   6.446
 8545SOL    HW126534   1.979   6.707   6.503
 8545SOL    HW226535   2.015   6.757   6.351
 8546SOL     OW26536   4.459   1.490   3.856
 8546SOL    HW126537   4.466   1.411   3.795
 8546SOL    HW226538   4.543   1.544   3.851
 8547SOL     OW26539   5.622   6.191   5.860
 8547SOL    HW126540   5.585   6.207   5.768
 8547SOL    HW226541   5.679   6.269   5.887
 8548SOL     OW26542   1.261   4.420   4.265
 8548SOL    HW126543   1.232   4.442   4.359
 8548SOL    HW226544   1.225   4.488   4.202
 8549SOL     OW26545   1.803   0.733   3.858
 8549SOL    HW126546   1.822   0.642   3.895
 8549SOL    HW226547   1.799   0.799   3.932
 8550SOL     OW26548   7.011   4.562   6.131
 8550SOL    HW126549   6.997   4.654   6.168
 8550SOL    HW226550   7.011   4.566   6.031
 8551SOL     OW26551   3.845   1.030   4.765
 8551SOL    HW126552   3.778   1.024   4.692
 8551SOL    HW226553   3.855   0.940   4.809
 8552SOL     OW26554   3.481   1.610   1.650
 8552SOL    HW126555   3.383   1.591   1.656
 8552SOL    HW226556   3.499   1.671   1.573
 8553SOL     OW26557   4.818   3.894   0.734
 8553SOL    HW126558   4.851   3.918   0.825
 8553SOL    HW226559   4.778   3.803   0.735
 8554SOL     OW26560   1.633   0.552   6.637
 8554SOL    HW126561   1.641   0.478   6.703
 8554SOL    HW226562   1.674   0.524   6.550
 8555SOL     OW26563   3.644   2.045   3.235
 8555SOL    HW126564   3.699   2.020   3.155
 8555SOL    HW226565   3.699   2.038   3.318
 8556SOL     OW26566   0.576   5.366   5.526
 8556SOL    HW126567   0.608   5.272   5.517
 8556SOL    HW226568   0.480   5.366   5.553
 8557SOL     OW26569   6.689   1.088   6.199
 8557SOL    HW126570   6.626   1.154   6.239
 8557SOL    HW226571   6.638   1.025   6.141
 8558SOL     OW26572   3.202   5.907   3.938
 8558SOL    HW126573   3.154   5.879   4.022
 8558SOL    HW226574   3.299   5.888   3.948
 8559SOL     OW26575   1.858   3.479   2.323
 8559SOL    HW126576   1.935   3.418   2.301
 8559SOL    HW226577   1.855   3.495   2.421
 8560SOL     OW26578   3.497   4.051   1.201
 8560SOL    HW126579   3.473   4.122   1.267
 8560SOL    HW226580   3.417   3.993   1.184
 8561SOL     OW26581   3.264   0.778   3.085
 8561SOL    HW126582   3.333   0.831   3.035
 8561SOL    HW226583   3.239   0.825   3.169
 8562SOL     OW26584   5.561   2.239   0.001
 8562SOL    HW126585   5.493   2.206   0.066
 8562SOL    HW226586   5.527   2.226   6.934
 8563SOL     OW26587   2.359   5.292   2.550
 8563SOL    HW126588   2.440   5.315   2.497
 8563SOL    HW226589   2.315   5.375   2.583
 8564SOL     OW26590   3.736   6.112   0.461
 8564SOL    HW126591   3.640   6.095   0.438
 8564SOL    HW226592   3.784   6.151   0.383
 8565SOL     OW26593   1.334   4.620   0.991
 8565SOL    HW126594   1.306   4.601   1.085
 8565SOL    HW226595   1.270   4.686   0.951
 8566SOL     OW26596   3.221   0.881   3.537
 8566SOL    HW126597   3.251   0.786   3.543
 8566SOL    HW226598   3.157   0.900   3.611
 8567SOL     OW26599   1.587   2.483   2.103
 8567SOL    HW126600   1.638   2.414   2.050
 8567SOL    HW226601   1.648   2.557   2.130
 8568SOL     OW26602   6.208   0.886   5.857
 8568SOL    HW126603   6.151   0.814   5.898
 8568SOL    HW226604   6.240   0.857   5.768
 8569SOL     OW26605   5.028   1.922   0.273
 8569SOL    HW126606   5.006   2.019   0.278
 8569SOL    HW226607   5.010   1.888   0.181
 8570SOL     OW26608   2.176   1.867   2.637
 8570SOL    HW126609   2.193   1.790   2.699
 8570SOL    HW226610   2.239   1.863   2.560
 8571SOL     OW26611   1.572   0.701   3.149
 8571SOL    HW126612   1.649   0.680   3.209
 8571SOL    HW226613   1.565   0.800   3.137
 8572SOL     OW26614   2.873   3.902   6.222
 8572SOL    HW126615   2.886   3.920   6.124
 8572SOL    HW226616   2.946   3.946   6.274
 8573SOL     OW26617   1.981   6.064   6.178
 8573SOL    HW126618   2.016   6.007   6.252
 8573SOL    HW226619   1.884   6.084   6.194
 8574SOL     OW26620   5.033   1.042   5.497
 8574SOL    HW126621   5.114   1.038   5.439
 8574SOL    HW226622   5.061   1.063   5.591
 8575SOL     OW26623   3.283   6.312   4.124
 8575SOL    HW126624   3.223   6.280   4.051
 8575SOL    HW226625   3.337   6.236   4.159
 8576SOL     OW26626   1.609   4.492   4.312
 8576SOL    HW126627   1.514   4.461   4.312
 8576SOL    HW226628   1.649   4.477   4.221
 8577SOL     OW26629   1.744   0.550   0.294
 8577SOL    HW126630   1.683   0.586   0.223
 8577SOL    HW226631   1.737   0.607   0.375
 8578SOL     OW26632   1.363   6.918   6.003
 8578SOL    HW126633   1.411   6.835   5.978
 8578SOL    HW226634   1.319   6.905   6.092
 8579SOL     OW26635   3.174   0.091   2.510
 8579SOL    HW126636   3.194   0.183   2.543
 8579SOL    HW226637   3.149   0.095   2.413
 8580SOL     OW26638   1.951   0.771   1.965
 8580SOL    HW126639   1.972   0.740   1.873
 8580SOL    HW226640   1.949   0.693   2.027
 8581SOL     OW26641   4.080   3.780   1.941
 8581SOL    HW126642   4.057   3.706   2.003
 8581SOL    HW226643   4.052   3.868   1.980
 8582SOL     OW26644   4.063   5.314   5.877
 8582SOL    HW126645   4.036   5.410   5.885
 8582SOL    HW226646   3.991   5.256   5.915
 8583SOL     OW26647   3.269   6.554   2.972
 8583SOL    HW126648   3.272   6.498   2.889
 8583SOL    HW226649   3.183   6.606   2.974
 8584SOL     OW26650   6.493   1.771   4.889
 8584SOL    HW126651   6.587   1.805   4.888
 8584SOL    HW226652   6.472   1.727   4.802
 8585SOL     OW26653   5.192   3.034   2.674
 8585SOL    HW126654   5.238   3.049   2.761
 8585SOL    HW226655   5.102   2.994   2.691
 8586SOL     OW26656   6.098   5.854   5.466
 8586SOL    HW126657   6.027   5.812   5.521
 8586SOL    HW226658   6.130   5.789   5.397
 8587SOL     OW26659   6.642   1.177   6.615
 8587SOL    HW126660   6.572   1.149   6.681
 8587SOL    HW226661   6.633   1.275   6.597
 8588SOL     OW26662   1.848   0.809   5.283
 8588SOL    HW126663   1.829   0.736   5.348
 8588SOL    HW226664   1.946   0.825   5.279
 8589SOL     OW26665   5.590   3.019   0.217
 8589SOL    HW126666   5.606   2.927   0.250
 8589SOL    HW226667   5.518   3.017   0.147
 8590SOL     OW26668   0.832   1.990   3.581
 8590SOL    HW126669   0.813   2.071   3.525
 8590SOL    HW226670   0.926   1.994   3.615
 8591SOL     OW26671   6.944   4.225   5.462
 8591SOL    HW126672   6.932   4.181   5.373
 8591SOL    HW226673   6.976   4.319   5.448
 8592SOL     OW26674   6.967   1.955   4.405
 8592SOL    HW126675   6.905   2.025   4.440
 8592SOL    HW226676   6.929   1.914   4.323
 8593SOL     OW26677   6.018   0.994   6.972
 8593SOL    HW126678   6.037   1.086   7.006
 8593SOL    HW226679   5.924   0.968   6.994
 8594SOL     OW26680   6.001   4.233   6.366
 8594SOL    HW126681   5.941   4.162   6.402
 8594SOL    HW226682   6.089   4.229   6.412
 8595SOL     OW26683   5.177   5.768   3.082
 8595SOL    HW126684   5.081   5.793   3.087
 8595SOL    HW226685   5.229   5.823   3.148
 8596SOL     OW26686   0.836   2.501   4.857
 8596SOL    HW126687   0.757   2.493   4.795
 8596SOL    HW226688   0.808   2.479   4.950
 8597SOL     OW26689   5.858   2.560   6.416
 8597SOL    HW126690   5.819   2.569   6.325
 8597SOL    HW226691   5.876   2.651   6.454
 8598SOL     OW26692   0.084   0.410   5.281
 8598SOL    HW126693   0.160   0.465   5.317
 8598SOL    HW226694   0.117   0.356   5.204
 8599SOL     OW26695   6.124   3.931   5.182
 8599SOL    HW126696   6.044   3.913   5.126
 8599SOL    HW226697   6.152   3.847   5.228
 8600SOL     OW26698   4.679   2.691   1.939
 8600SOL    HW126699   4.775   2.662   1.934
 8600SOL    HW226700   4.674   2.780   1.985
 8601SOL     OW26701   6.285   6.071   3.042
 8601SOL    HW126702   6.270   6.162   3.080
 8601SOL    HW226703   6.371   6.070   2.991
 8602SOL     OW26704   1.794   7.012   5.431
 8602SOL    HW126705   1.756   0.074   5.461
 8602SOL    HW226706   1.867   0.002   5.365
 8603SOL     OW26707   0.293   0.645   6.557
 8603SOL    HW126708   0.222   0.627   6.489
 8603SOL    HW226709   0.383   0.639   6.513
 8604SOL     OW26710   2.190   5.428   5.939
 8604SOL    HW126711   2.145   5.365   5.875
 8604SOL    HW226712   2.189   5.520   5.901
 8605SOL     OW26713   0.015   4.895   3.773
 8605SOL    HW126714   0.027   4.994   3.785
 8605SOL    HW226715   0.046   4.847   3.855
 8606SOL     OW26716   1.502   0.968   6.951
 8606SOL    HW126717   1.601   0.984   6.948
 8606SOL    HW226718   1.480   0.904   7.025
 8607SOL     OW26719   2.862   3.370   1.363
 8607SOL    HW126720   2.896   3.431   1.292
 8607SOL    HW226721   2.933   3.354   1.431
 8608SOL     OW26722   1.840   5.828   2.356
 8608SOL    HW126723   1.853   5.748   2.414
 8608SOL    HW226724   1.784   5.804   2.277
 8609SOL     OW26725   4.859   1.895   4.347
 8609SOL    HW126726   4.768   1.913   4.384
 8609SOL    HW226727   4.926   1.955   4.393
 8610SOL     OW26728   7.018   6.066   2.766
 8610SOL    HW126729   6.960   5.987   2.789
 8610SOL    HW226730   0.086   6.035   2.751
 8611SOL     OW26731   1.811   1.251   5.213
 8611SOL    HW126732   1.872   1.203   5.277
 8611SOL    HW226733   1.844   1.344   5.200
 8612SOL     OW26734   3.319   3.118   4.692
 8612SOL    HW126735   3.327   3.025   4.657
 8612SOL    HW226736   3.270   3.176   4.626
 8613SOL     OW26737   3.826   3.076   3.012
 8613SOL    HW126738   3.851   3.049   2.919
 8613SOL    HW226739   3.881   3.154   3.040
 8614SOL     OW26740   0.718   2.540   3.604
 8614SOL    HW126741   0.809   2.581   3.605
 8614SOL    HW226742   0.685   2.533   3.510
 8615SOL     OW26743   3.240   1.957   5.428
 8615SOL    HW126744   3.194   1.988   5.345
 8615SOL    HW226745   3.335   1.987   5.427
 8616SOL     OW26746   5.884   4.136   4.787
 8616SOL    HW126747   5.947   4.207   4.816
 8616SOL    HW226748   5.792   4.175   4.775
 8617SOL     OW26749   1.336   6.720   3.020
 8617SOL    HW126750   1.352   6.630   3.060
 8617SOL    HW226751   1.299   6.708   2.927
 8618SOL     OW26752   5.760   4.336   0.848
 8618SOL    HW126753   5.802   4.353   0.758
 8618SOL    HW226754   5.695   4.260   0.840
 8619SOL     OW26755   5.447   5.798   0.587
 8619SOL    HW126756   5.351   5.822   0.599
 8619SOL    HW226757   5.465   5.780   0.491
 8620SOL     OW26758   2.205   6.963   3.969
 8620SOL    HW126759   2.146   6.883   3.955
 8620SOL    HW226760   2.285   6.937   4.022
 8621SOL     OW26761   5.851   3.387   1.675
 8621SOL    HW126762   5.855   3.486   1.662
 8621SOL    HW226763   5.781   3.348   1.615
 8622SOL     OW26764   0.490   5.561   2.929
 8622SOL    HW126765   0.569   5.539   2.986
 8622SOL    HW226766   0.521   5.610   2.848
 8623SOL     OW26767   1.841   2.301   3.898
 8623SOL    HW126768   1.871   2.335   3.809
 8623SOL    HW226769   1.741   2.299   3.902
 8624SOL     OW26770   3.469   3.772   5.213
 8624SOL    HW126771   3.530   3.850   5.211
 8624SOL    HW226772   3.411   3.772   5.131
 8625SOL     OW26773   4.394   2.859   5.798
 8625SOL    HW126774   4.296   2.869   5.780
 8625SOL    HW226775   4.428   2.778   5.751
 8626SOL     OW26776   4.496   1.933   1.800
 8626SOL    HW126777   4.516   2.001   1.871
 8626SOL    HW226778   4.580   1.885   1.774
 8627SOL     OW26779   2.000   0.539   2.134
 8627SOL    HW126780   2.056   0.456   2.136
 8627SOL    HW226781   1.981   0.569   2.227
 8628SOL     OW26782   0.733   6.882   0.447
 8628SOL    HW126783   0.822   6.836   0.453
 8628SOL    HW226784   0.682   6.845   0.369
 8629SOL     OW26785   0.558   0.147   4.595
 8629SOL    HW126786   0.614   0.066   4.578
 8629SOL    HW226787   0.479   0.121   4.651
 8630SOL     OW26788   5.057   2.846   2.876
 8630SOL    HW126789   4.978   2.901   2.848
 8630SOL    HW226790   5.028   2.752   2.894
 8631SOL     OW26791   2.344   5.952   6.102
 8631SOL    HW126792   2.309   6.010   6.176
 8631SOL    HW226793   2.428   5.907   6.132
 8632SOL     OW26794   5.849   5.818   4.099
 8632SOL    HW126795   5.887   5.738   4.053
 8632SOL    HW226796   5.781   5.861   4.039
 8633SOL     OW26797   5.777   3.662   5.204
 8633SOL    HW126798   5.802   3.716   5.123
 8633SOL    HW226799   5.854   3.605   5.231
 8634SOL     OW26800   5.076   4.233   6.681
 8634SOL    HW126801   5.167   4.274   6.679
 8634SOL    HW226802   5.084   4.138   6.713
 8635SOL     OW26803   5.333   2.646   0.191
 8635SOL    HW126804   5.429   2.623   0.176
 8635SOL    HW226805   5.301   2.600   0.274
 8636SOL     OW26806   4.471   6.157   1.737
 8636SOL    HW126807   4.554   6.102   1.749
 8636SOL    HW226808   4.445   6.197   1.824
 8637SOL     OW26809   1.956   1.889   6.576
 8637SOL    HW126810   1.923   1.973   6.619
 8637SOL    HW226811   1.915   1.880   6.485
 8638SOL     OW26812   4.912   3.236   3.791
 8638SOL    HW126813   4.931   3.305   3.861
 8638SOL    HW226814   4.896   3.282   3.703
 8639SOL     OW26815   3.191   3.766   0.294
 8639SOL    HW126816   3.268   3.825   0.320
 8639SOL    HW226817   3.222   3.696   0.230
 8640SOL     OW26818   3.886   2.288   0.478
 8640SOL    HW126819   3.880   2.205   0.423
 8640SOL    HW226820   3.914   2.365   0.421
 8641SOL     OW26821   3.790   5.300   2.479
 8641SOL    HW126822   3.886   5.274   2.482
 8641SOL    HW226823   3.733   5.220   2.502
 8642SOL     OW26824   1.575   5.825   2.777
 8642SOL    HW126825   1.657   5.773   2.753
 8642SOL    HW226826   1.590   5.922   2.758
 8643SOL     OW26827   3.616   6.744   1.211
 8643SOL    HW126828   3.636   6.798   1.292
 8643SOL    HW226829   3.673   6.777   1.135
 8644SOL     OW26830   6.261   2.764   6.138
 8644SOL    HW126831   6.296   2.809   6.056
 8644SOL    HW226832   6.170   2.726   6.119
 8645SOL     OW26833   5.648   5.967   2.824
 8645SOL    HW126834   5.639   6.039   2.893
 8645SOL    HW226835   5.744   5.958   2.797
 8646SOL     OW26836   6.887   2.623   5.540
 8646SOL    HW126837   6.910   2.697   5.603
 8646SOL    HW226838   6.947   2.545   5.558
 8647SOL     OW26839   1.811   5.167   1.640
 8647SOL    HW126840   1.761   5.082   1.659
 8647SOL    HW226841   1.849   5.163   1.547
 8648SOL     OW26842   4.764   5.189   0.490
 8648SOL    HW126843   4.689   5.237   0.536
 8648SOL    HW226844   4.754   5.091   0.505
 8649SOL     OW26845   5.154   1.374   0.403
 8649SOL    HW126846   5.134   1.455   0.457
 8649SOL    HW226847   5.108   1.380   0.315
 8650SOL     OW26848   1.908   6.997   5.722
 8650SOL    HW126849   1.952   6.986   5.632
 8650SOL    HW226850   1.979   7.014   5.791
 8651SOL     OW26851   3.859   2.078   1.594
 8651SOL    HW126852   3.854   2.088   1.694
 8651SOL    HW226853   3.796   2.142   1.551
 8652SOL     OW26854   0.526   2.996   3.427
 8652SOL    HW126855   0.510   3.082   3.379
 8652SOL    HW226856   0.569   3.014   3.516
 8653SOL     OW26857   5.600   1.320   6.504
 8653SOL    HW126858   5.575   1.386   6.574
 8653SOL    HW226859   5.683   1.351   6.457
 8654SOL     OW26860   0.157   4.252   3.072
 8654SOL    HW126861   0.225   4.306   3.122
 8654SOL    HW226862   0.196   4.223   2.984
 8655SOL     OW26863   0.981   0.176   4.967
 8655SOL    HW126864   0.935   0.111   4.906
 8655SOL    HW226865   1.002   0.130   5.054
 8656SOL     OW26866   4.726   6.463   0.754
 8656SOL    HW126867   4.665   6.537   0.783
 8656SOL    HW226868   4.810   6.501   0.717
 8657SOL     OW26869   3.027   2.181   2.872
 8657SOL    HW126870   3.123   2.199   2.893
 8657SOL    HW226871   2.971   2.202   2.953
 8658SOL     OW26872   5.845   4.907   1.436
 8658SOL    HW126873   5.857   5.001   1.466
 8658SOL    HW226874   5.916   4.884   1.369
 8659SOL     OW26875   3.837   0.869   2.370
 8659SOL    HW126876   3.897   0.916   2.434
 8659SOL    HW226877   3.751   0.919   2.361
 8660SOL     OW26878   0.445   4.303   1.852
 8660SOL    HW126879   0.450   4.382   1.913
 8660SOL    HW226880   0.410   4.224   1.903
 8661SOL     OW26881   7.002   3.576   2.068
 8661SOL    HW126882   6.934   3.519   2.021
 8661SOL    HW226883   6.985   3.672   2.047
 8662SOL     OW26884   1.327   2.521   2.742
 8662SOL    HW126885   1.261   2.560   2.678
 8662SOL    HW226886   1.420   2.546   2.713
 8663SOL     OW26887   3.779   5.036   2.667
 8663SOL    HW126888   3.850   4.965   2.667
 8663SOL    HW226889   3.800   5.104   2.737
 8664SOL     OW26890   4.001   6.448   3.719
 8664SOL    HW126891   4.074   6.407   3.775
 8664SOL    HW226892   4.042   6.496   3.642
 8665SOL     OW26893   5.007   3.962   6.720
 8665SOL    HW126894   4.927   3.998   6.673
 8665SOL    HW226895   4.979   3.890   6.783
 8666SOL     OW26896   4.651   0.649   3.021
 8666SOL    HW126897   4.696   0.568   2.984
 8666SOL    HW226898   4.552   0.635   3.020
 8667SOL     OW26899   4.976   2.646   2.411
 8667SOL    HW126900   5.024   2.695   2.338
 8667SOL    HW226901   4.909   2.706   2.454
 8668SOL     OW26902   4.911   2.367   4.695
 8668SOL    HW126903   4.950   2.281   4.663
 8668SOL    HW226904   4.813   2.355   4.710
 8669SOL     OW26905   6.733   6.223   6.254
 8669SOL    HW126906   6.644   6.221   6.299
 8669SOL    HW226907   6.721   6.202   6.157
 8670SOL     OW26908   6.413   5.021   5.428
 8670SOL    HW126909   6.346   5.038   5.356
 8670SOL    HW226910   6.464   4.937   5.407
 8671SOL     OW26911   0.048   3.094   3.169
 8671SOL    HW126912   0.029   3.103   3.071
 8671SOL    HW226913   6.991   3.068   3.217
 8672SOL     OW26914   0.047   1.766   2.517
 8672SOL    HW126915   6.993   1.707   2.522
 8672SOL    HW226916   0.030   1.851   2.567
 8673SOL     OW26917   1.193   1.804   1.297
 8673SOL    HW126918   1.258   1.842   1.363
 8673SOL    HW226919   1.216   1.838   1.206
 8674SOL     OW26920   6.974   4.023   2.904
 8674SOL    HW126921   0.038   3.981   2.907
 8674SOL    HW226922   6.970   4.099   2.968
 8675SOL     OW26923   4.268   2.255   4.836
 8675SOL    HW126924   4.345   2.193   4.848
 8675SOL    HW226925   4.272   2.328   4.904
 8676SOL     OW26926   4.889   1.821   1.447
 8676SOL    HW126927   4.902   1.896   1.511
 8676SOL    HW226928   4.878   1.857   1.354
 8677SOL     OW26929   2.549   0.006   5.958
 8677SOL    HW126930   2.556   6.947   5.905
 8677SOL    HW226931   2.485   7.018   6.033
 8678SOL     OW26932   2.706   2.058   0.736
 8678SOL    HW126933   2.675   1.982   0.679
 8678SOL    HW226934   2.627   2.099   0.783
 8679SOL     OW26935   1.172   1.495   6.705
 8679SOL    HW126936   1.235   1.426   6.669
 8679SOL    HW226937   1.206   1.527   6.794
 8680SOL     OW26938   0.198   0.240   0.477
 8680SOL    HW126939   0.117   0.284   0.439
 8680SOL    HW226940   0.273   0.245   0.411
 8681SOL     OW26941   5.015   4.750   1.434
 8681SOL    HW126942   5.106   4.710   1.428
 8681SOL    HW226943   4.971   4.722   1.519
 8682SOL     OW26944   2.598   1.057   2.652
 8682SOL    HW126945   2.577   1.040   2.556
 8682SOL    HW226946   2.697   1.045   2.667
 8683SOL     OW26947   2.473   4.503   4.304
 8683SOL    HW126948   2.448   4.454   4.388
 8683SOL    HW226949   2.456   4.444   4.225
 8684SOL     OW26950   2.680   4.597   3.335
 8684SOL    HW126951   2.598   4.542   3.323
 8684SOL    HW226952   2.697   4.611   3.432
 8685SOL     OW26953   4.960   3.000   4.567
 8685SOL    HW126954   4.927   2.928   4.628
 8685SOL    HW226955   4.895   3.014   4.493
 8686SOL     OW26956   1.530   5.490   3.211
 8686SOL    HW126957   1.562   5.583   3.194
 8686SOL    HW226958   1.604   5.435   3.248
 8687SOL     OW26959   5.820   4.645   5.194
 8687SOL    HW126960   5.871   4.598   5.266
 8687SOL    HW226961   5.775   4.578   5.135
 8688SOL     OW26962   1.667   4.038   5.110
 8688SOL    HW126963   1.676   3.944   5.077
 8688SOL    HW226964   1.700   4.043   5.205
 8689SOL     OW26965   4.212   3.425   0.977
 8689SOL    HW126966   4.271   3.364   1.030
 8689SOL    HW226967   4.149   3.370   0.922
 8690SOL     OW26968   1.381   1.482   2.465
 8690SOL    HW126969   1.450   1.512   2.399
 8690SOL    HW226970   1.420   1.481   2.557
 8691SOL     OW26971   3.305   2.437   6.271
 8691SOL    HW126972   3.383   2.374   6.269
 8691SOL    HW226973   3.321   2.512   6.206
 8692SOL     OW26974   5.118   3.244   4.177
 8692SOL    HW126975   5.216   3.262   4.165
 8692SOL    HW226976   5.105   3.148   4.200
 8693SOL     OW26977   6.704   6.698   5.570
 8693SOL    HW126978   6.782   6.728   5.626
 8693SOL    HW226979   6.713   6.734   5.477
 8694SOL     OW26980   4.926   3.282   5.621
 8694SOL    HW126981   4.844   3.325   5.584
 8694SOL    HW226982   4.901   3.203   5.677
 8695SOL     OW26983   3.293   5.163   0.784
 8695SOL    HW126984   3.266   5.070   0.809
 8695SOL    HW226985   3.246   5.228   0.844
 8696SOL     OW26986   2.565   5.615   6.048
 8696SOL    HW126987   2.606   5.527   6.069
 8696SOL    HW226988   2.563   5.671   6.130
 8697SOL     OW26989   0.904   3.786   5.258
 8697SOL    HW126990   0.944   3.739   5.336
 8697SOL    HW226991   0.978   3.827   5.203
 8698SOL     OW26992   4.386   4.609   6.325
 8698SOL    HW126993   4.416   4.527   6.374
 8698SOL    HW226994   4.407   4.690   6.380
 8699SOL     OW26995   1.930   2.371   0.621
 8699SOL    HW126996   1.861   2.416   0.677
 8699SOL    HW226997   1.894   2.356   0.528
 8700SOL     OW26998   0.898   1.478   4.708
 8700SOL    HW126999   0.942   1.561   4.675
 8700SOL    HW227000   0.801   1.480   4.686
 8701SOL     OW27001   1.570   3.431   6.623
 8701SOL    HW127002   1.489   3.490   6.629
 8701SOL    HW227003   1.551   3.343   6.665
 8702SOL     OW27004   5.844   4.384   1.171
 8702SOL    HW127005   5.932   4.366   1.127
 8702SOL    HW227006   5.786   4.302   1.165
 8703SOL     OW27007   2.686   5.682   1.438
 8703SOL    HW127008   2.606   5.653   1.385
 8703SOL    HW227009   2.738   5.602   1.467
 8704SOL     OW27010   0.231   1.421   4.882
 8704SOL    HW127011   0.265   1.337   4.839
 8704SOL    HW227012   0.167   1.398   4.955
 8705SOL     OW27013   3.690   2.137   0.068
 8705SOL    HW127014   3.683   2.190   7.010
 8705SOL    HW227015   3.638   2.052   0.059
 8706SOL     OW27016   4.789   2.283   6.723
 8706SOL    HW127017   4.795   2.251   6.628
 8706SOL    HW227018   4.854   2.358   6.736
 8707SOL     OW27019   1.643   1.194   4.293
 8707SOL    HW127020   1.606   1.109   4.333
 8707SOL    HW227021   1.694   1.172   4.210
 8708SOL     OW27022   5.952   2.192   0.836
 8708SOL    HW127023   5.950   2.290   0.816
 8708SOL    HW227024   5.978   2.178   0.932
 8709SOL     OW27025   6.407   6.243   4.271
 8709SOL    HW127026   6.363   6.300   4.201
 8709SOL    HW227027   6.336   6.197   4.325
 8710SOL     OW27028   2.004   1.838   3.432
 8710SOL    HW127029   1.967   1.816   3.522
 8710SOL    HW227030   2.097   1.801   3.425
 8711SOL     OW27031   1.550   1.366   1.938
 8711SOL    HW127032   1.497   1.312   2.004
 8711SOL    HW227033   1.503   1.364   1.849
 8712SOL     OW27034   0.947   4.500   4.164
 8712SOL    HW127035   0.944   4.416   4.109
 8712SOL    HW227036   0.853   4.530   4.185
 8713SOL     OW27037   0.679   3.573   1.914
 8713SOL    HW127038   0.697   3.555   2.011
 8713SOL    HW227039   0.580   3.585   1.901
 8714SOL     OW27040   6.014   4.487   6.622
 8714SOL    HW127041   5.944   4.482   6.551
 8714SOL    HW227042   6.061   4.575   6.618
 8715SOL     OW27043   2.031   4.979   1.612
 8715SOL    HW127044   1.959   5.020   1.556
 8715SOL    HW227045   2.002   4.980   1.708
 8716SOL     OW27046   6.434   0.371   1.894
 8716SOL    HW127047   6.417   0.276   1.918
 8716SOL    HW227048   6.445   0.380   1.795
 8717SOL     OW27049   3.379   2.518   0.332
 8717SOL    HW127050   3.430   2.504   0.417
 8717SOL    HW227051   3.388   2.613   0.303
 8718SOL     OW27052   2.869   5.215   6.551
 8718SOL    HW127053   2.827   5.306   6.554
 8718SOL    HW227054   2.965   5.222   6.576
 8719SOL     OW27055   3.186   1.554   5.040
 8719SOL    HW127056   3.279   1.531   5.012
 8719SOL    HW227057   3.171   1.652   5.030
 8720SOL     OW27058   1.211   5.784   4.494
 8720SOL    HW127059   1.164   5.745   4.573
 8720SOL    HW227060   1.282   5.721   4.463
 8721SOL     OW27061   1.218   6.652   0.758
 8721SOL    HW127062   1.262   6.562   0.769
 8721SOL    HW227063   1.282   6.715   0.714
 8722SOL     OW27064   2.987   0.878   0.677
 8722SOL    HW127065   2.921   0.861   0.750
 8722SOL    HW227066   3.079   0.888   0.717
 8723SOL     OW27067   4.191   6.513   2.035
 8723SOL    HW127068   4.211   6.462   1.951
 8723SOL    HW227069   4.103   6.483   2.072
 8724SOL     OW27070   3.442   1.516   5.025
 8724SOL    HW127071   3.455   1.565   5.111
 8724SOL    HW227072   3.530   1.510   4.977
 8725SOL     OW27073   6.650   0.257   3.189
 8725SOL    HW127074   6.550   0.254   3.198
 8725SOL    HW227075   6.690   0.283   3.277
 8726SOL     OW27076   6.309   0.428   0.799
 8726SOL    HW127077   6.281   0.521   0.773
 8726SOL    HW227078   6.316   0.371   0.717
 8727SOL     OW27079   5.207   5.815   0.095
 8727SOL    HW127080   5.125   5.758   0.090
 8727SOL    HW227081   5.270   5.790   0.021
 8728SOL     OW27082   6.303   6.857   4.536
 8728SOL    HW127083   6.216   6.830   4.577
 8728SOL    HW227084   6.377   6.802   4.575
 8729SOL     OW27085   5.490   5.871   5.927
 8729SOL    HW127086   5.477   5.789   5.983
 8729SOL    HW227087   5.507   5.950   5.986
 8730SOL     OW27088   4.126   4.535   1.559
 8730SOL    HW127089   4.224   4.540   1.575
 8730SOL    HW227090   4.109   4.498   1.467
 8731SOL     OW27091   0.092   1.877   4.029
 8731SOL    HW127092   0.163   1.849   4.093
 8731SOL    HW227093   0.048   1.961   4.061
 8732SOL     OW27094   5.045   6.111   5.898
 8732SOL    HW127095   5.085   6.102   5.807
 8732SOL    HW227096   4.963   6.169   5.892
 8733SOL     OW27097   6.520   4.702   2.372
 8733SOL    HW127098   6.485   4.676   2.282
 8733SOL    HW227099   6.443   4.712   2.435
 8734SOL     OW27100   1.315   4.554   0.655
 8734SOL    HW127101   1.335   4.543   0.752
 8734SOL    HW227102   1.392   4.520   0.600
 8735SOL     OW27103   1.233   2.962   5.833
 8735SOL    HW127104   1.217   3.060   5.837
 8735SOL    HW227105   1.224   2.923   5.925
 8736SOL     OW27106   1.755   5.720   3.311
 8736SOL    HW127107   1.662   5.756   3.311
 8736SOL    HW227108   1.807   5.760   3.236
 8737SOL     OW27109   0.266   5.859   6.832
 8737SOL    HW127110   0.169   5.837   6.840
 8737SOL    HW227111   0.292   5.861   6.736
 8738SOL     OW27112   2.048   2.475   2.214
 8738SOL    HW127113   2.079   2.437   2.126
 8738SOL    HW227114   2.128   2.497   2.270
 8739SOL     OW27115   5.681   4.677   3.821
 8739SOL    HW127116   5.689   4.729   3.906
 8739SOL    HW227117   5.668   4.580   3.842
 8740SOL     OW27118   3.339   1.895   3.467
 8740SOL    HW127119   3.322   1.992   3.487
 8740SOL    HW227120   3.425   1.867   3.510
 8741SOL     OW27121   1.237   1.625   2.269
 8741SOL    HW127122   1.160   1.590   2.217
 8741SOL    HW227123   1.267   1.557   2.335
 8742SOL     OW27124   2.754   2.568   1.757
 8742SOL    HW127125   2.670   2.558   1.811
 8742SOL    HW227126   2.830   2.524   1.804
 8743SOL     OW27127   0.850   3.338   0.651
 8743SOL    HW127128   0.761   3.291   0.656
 8743SOL    HW227129   0.853   3.412   0.718
 8744SOL     OW27130   3.618   4.018   5.961
 8744SOL    HW127131   3.662   3.976   6.041
 8744SOL    HW227132   3.565   3.949   5.912
 8745SOL     OW27133   5.800   1.585   6.170
 8745SOL    HW127134   5.832   1.609   6.261
 8745SOL    HW227135   5.799   1.486   6.159
 8746SOL     OW27136   3.953   4.912   5.014
 8746SOL    HW127137   4.044   4.877   4.994
 8746SOL    HW227138   3.922   4.875   5.101
 8747SOL     OW27139   1.134   0.684   2.475
 8747SOL    HW127140   1.123   0.638   2.388
 8747SOL    HW227141   1.087   0.772   2.473
 8748SOL     OW27142   5.503   1.742   4.707
 8748SOL    HW127143   5.437   1.681   4.750
 8748SOL    HW227144   5.467   1.774   4.619
 8749SOL     OW27145   2.706   1.102   4.286
 8749SOL    HW127146   2.684   1.048   4.368
 8749SOL    HW227147   2.781   1.164   4.306
 8750SOL     OW27148   4.197   3.679   1.457
 8750SOL    HW127149   4.170   3.713   1.547
 8750SOL    HW227150   4.281   3.624   1.465
 8751SOL     OW27151   2.382   6.945   0.281
 8751SOL    HW127152   2.340   6.900   0.360
 8751SOL    HW227153   2.450   7.011   0.313
 8752SOL     OW27154   0.115   3.046   5.841
 8752SOL    HW127155   0.164   3.133   5.844
 8752SOL    HW227156   0.143   2.988   5.917
 8753SOL     OW27157   2.215   1.692   0.660
 8753SOL    HW127158   2.116   1.708   0.662
 8753SOL    HW227159   2.232   1.593   0.657
 8754SOL     OW27160   0.982   5.496   6.582
 8754SOL    HW127161   1.032   5.566   6.634
 8754SOL    HW227162   0.997   5.407   6.624
 8755SOL     OW27163   0.228   2.656   1.957
 8755SOL    HW127164   0.227   2.580   1.893
 8755SOL    HW227165   0.177   2.733   1.919
 8756SOL     OW27166   1.531   1.625   2.254
 8756SOL    HW127167   1.589   1.605   2.175
 8756SOL    HW227168   1.492   1.717   2.244
 8757SOL     OW27169   5.430   6.204   5.449
 8757SOL    HW127170   5.358   6.166   5.508
 8757SOL    HW227171   5.392   6.220   5.358
 8758SOL     OW27172   4.056   5.743   5.783
 8758SOL    HW127173   4.092   5.733   5.690
 8758SOL    HW227174   3.962   5.778   5.779
 8759SOL     OW27175   6.107   1.206   1.918
 8759SOL    HW127176   6.174   1.230   1.848
 8759SOL    HW227177   6.067   1.290   1.956
 8760SOL     OW27178   2.479   2.423   4.035
 8760SOL    HW127179   2.415   2.407   4.110
 8760SOL    HW227180   2.443   2.384   3.951
 8761SOL     OW27181   4.649   2.151   2.870
 8761SOL    HW127182   4.724   2.125   2.810
 8761SOL    HW227183   4.606   2.235   2.836
 8762SOL     OW27184   4.012   6.031   2.754
 8762SOL    HW127185   3.918   6.060   2.734
 8762SOL    HW227186   4.039   5.958   2.691
 8763SOL     OW27187   6.957   1.589   5.584
 8763SOL    HW127188   7.016   1.524   5.632
 8763SOL    HW227189   6.993   1.604   5.492
 8764SOL     OW27190   3.517   5.072   6.066
 8764SOL    HW127191   3.441   5.010   6.048
 8764SOL    HW227192   3.594   5.048   6.007
 8765SOL     OW27193   3.802   6.725   3.742
 8765SOL    HW127194   3.778   6.816   3.775
 8765SOL    HW227195   3.871   6.685   3.803
 8766SOL     OW27196   5.273   6.747   4.988
 8766SOL    HW127197   5.179   6.722   4.963
 8766SOL    HW227198   5.295   6.837   4.951
 8767SOL     OW27199   1.624   1.572   3.552
 8767SOL    HW127200   1.583   1.535   3.636
 8767SOL    HW227201   1.642   1.497   3.489
 8768SOL     OW27202   6.597   1.546   0.327
 8768SOL    HW127203   6.528   1.475   0.314
 8768SOL    HW227204   6.679   1.505   0.367
 8769SOL     OW27205   6.074   0.086   6.355
 8769SOL    HW127206   6.109   0.000   6.317
 8769SOL    HW227207   6.139   0.159   6.336
 8770SOL     OW27208   4.896   2.169   0.262
 8770SOL    HW127209   4.894   2.235   0.337
 8770SOL    HW227210   4.807   2.122   0.257
 8771SOL     OW27211   0.705   2.863   6.297
 8771SOL    HW127212   0.730   2.932   6.366
 8771SOL    HW227213   0.612   2.830   6.315
 8772SOL     OW27214   0.288   0.304   3.956
 8772SOL    HW127215   0.218   0.367   3.990
 8772SOL    HW227216   0.366   0.355   3.920
 8773SOL     OW27217   0.279   1.599   3.290
 8773SOL    HW127218   0.326   1.513   3.311
 8773SOL    HW227219   0.238   1.593   3.199
 8774SOL     OW27220   0.955   1.851   6.672
 8774SOL    HW127221   0.931   1.768   6.723
 8774SOL    HW227222   0.931   1.931   6.726
 8775SOL     OW27223   5.367   2.401   2.943
 8775SOL    HW127224   5.288   2.342   2.927
 8775SOL    HW227225   5.336   2.493   2.967
 8776SOL     OW27226   4.875   2.794   1.143
 8776SOL    HW127227   4.834   2.882   1.165
 8776SOL    HW227228   4.912   2.753   1.226
 8777SOL     OW27229   6.703   2.489   3.644
 8777SOL    HW127230   6.782   2.446   3.688
 8777SOL    HW227231   6.619   2.447   3.677
 8778SOL     OW27232   3.230   3.600   6.899
 8778SOL    HW127233   3.165   3.673   6.923
 8778SOL    HW227234   3.207   3.517   6.950
 8779SOL     OW27235   3.921   5.296   2.736
 8779SOL    HW127236   3.893   5.332   2.647
 8779SOL    HW227237   3.850   5.317   2.804
 8780SOL     OW27238   1.163   4.142   3.845
 8780SOL    HW127239   1.236   4.112   3.906
 8780SOL    HW227240   1.079   4.093   3.867
 8781SOL     OW27241   2.426   0.726   1.133
 8781SOL    HW127242   2.508   0.676   1.109
 8781SOL    HW227243   2.357   0.715   1.062
 8782SOL     OW27244   6.218   2.386   1.030
 8782SOL    HW127245   6.129   2.414   0.994
 8782SOL    HW227246   6.289   2.445   0.991
 8783SOL     OW27247   4.868   4.250   4.858
 8783SOL    HW127248   4.773   4.274   4.840
 8783SOL    HW227249   4.881   4.232   4.956
 8784SOL     OW27250   4.570   0.911   6.912
 8784SOL    HW127251   4.488   0.966   6.927
 8784SOL    HW227252   4.557   0.820   6.951
 8785SOL     OW27253   6.873   5.510   5.791
 8785SOL    HW127254   6.917   5.441   5.735
 8785SOL    HW227255   6.930   5.592   5.794
 8786SOL     OW27256   5.561   1.659   2.851
 8786SOL    HW127257   5.584   1.585   2.789
 8786SOL    HW227258   5.469   1.645   2.888
 8787SOL     OW27259   3.521   5.554   1.363
 8787SOL    HW127260   3.477   5.467   1.341
 8787SOL    HW227261   3.501   5.578   1.458
 8788SOL     OW27262   0.445   6.144   4.167
 8788SOL    HW127263   0.406   6.153   4.259
 8788SOL    HW227264   0.392   6.199   4.103
 8789SOL     OW27265   1.412   2.524   6.302
 8789SOL    HW127266   1.382   2.607   6.255
 8789SOL    HW227267   1.511   2.521   6.306
 8790SOL     OW27268   4.514   2.631   4.995
 8790SOL    HW127269   4.420   2.599   4.977
 8790SOL    HW227270   4.578   2.555   4.980
 8791SOL     OW27271   3.953   6.268   4.746
 8791SOL    HW127272   3.893   6.207   4.693
 8791SOL    HW227273   3.977   6.223   4.832
 8792SOL     OW27274   5.669   5.307   1.897
 8792SOL    HW127275   5.637   5.232   1.956
 8792SOL    HW227276   5.652   5.394   1.942
 8793SOL     OW27277   6.716   6.132   5.617
 8793SOL    HW127278   6.812   6.123   5.642
 8793SOL    HW227279   6.694   6.228   5.600
 8794SOL     OW27280   0.223   1.672   2.728
 8794SOL    HW127281   0.190   1.694   2.637
 8794SOL    HW227282   0.323   1.666   2.728
 8795SOL     OW27283   1.165   6.252   6.790
 8795SOL    HW127284   1.080   6.290   6.826
 8795SOL    HW227285   1.172   6.156   6.816
 8796SOL     OW27286   5.874   3.767   4.974
 8796SOL    HW127287   5.881   3.700   4.900
 8796SOL    HW227288   5.796   3.828   4.956
 8797SOL     OW27289   5.003   5.941   4.267
 8797SOL    HW127290   5.061   5.879   4.322
 8797SOL    HW227291   5.053   6.025   4.249
 8798SOL     OW27292   2.326   6.435   5.291
 8798SOL    HW127293   2.325   6.423   5.192
 8798SOL    HW227294   2.289   6.525   5.314
 8799SOL     OW27295   1.420   5.866   1.825
 8799SOL    HW127296   1.338   5.877   1.770
 8799SOL    HW227297   1.493   5.827   1.769
 8800SOL     OW27298   6.552   5.978   4.037
 8800SOL    HW127299   6.501   6.054   3.998
 8800SOL    HW227300   6.490   5.901   4.054
 8801SOL     OW27301   5.553   3.563   5.884
 8801SOL    HW127302   5.645   3.561   5.845
 8801SOL    HW227303   5.527   3.657   5.904
 8802SOL     OW27304   1.654   5.889   6.189
 8802SOL    HW127305   1.557   5.868   6.205
 8802SOL    HW227306   1.675   5.980   6.225
 8803SOL     OW27307   5.837   5.904   5.322
 8803SOL    HW127308   5.908   5.961   5.362
 8803SOL    HW227309   5.831   5.818   5.372
 8804SOL     OW27310   1.168   6.137   2.174
 8804SOL    HW127311   1.157   6.092   2.086
 8804SOL    HW227312   1.256   6.111   2.214
 8805SOL     OW27313   5.313   4.952   3.355
 8805SOL    HW127314   5.223   4.915   3.378
 8805SOL    HW227315   5.305   5.048   3.330
 8806SOL     OW27316   1.153   0.457   1.952
 8806SOL    HW127317   1.149   0.552   1.920
 8806SOL    HW227318   1.228   0.446   2.016
 8807SOL     OW27319   5.514   2.499   0.928
 8807SOL    HW127320   5.452   2.455   0.993
 8807SOL    HW227321   5.558   2.429   0.872
 8808SOL     OW27322   2.236   2.102   0.148
 8808SOL    HW127323   2.186   2.180   0.187
 8808SOL    HW227324   2.228   2.104   0.048
 8809SOL     OW27325   6.688   3.341   3.086
 8809SOL    HW127326   6.759   3.283   3.046
 8809SOL    HW227327   6.730   3.420   3.130
 8810SOL     OW27328   0.312   1.915   5.298
 8810SOL    HW127329   0.289   1.872   5.385
 8810SOL    HW227330   0.314   2.014   5.309
 8811SOL     OW27331   4.186   4.774   2.481
 8811SOL    HW127332   4.242   4.691   2.470
 8811SOL    HW227333   4.202   4.835   2.404
 8812SOL     OW27334   5.209   1.087   0.015
 8812SOL    HW127335   5.146   1.029   6.990
 8812SOL    HW227336   5.160   1.133   0.089
 8813SOL     OW27337   2.125   3.255   2.444
 8813SOL    HW127338   2.036   3.219   2.416
 8813SOL    HW227339   2.121   3.284   2.540
 8814SOL     OW27340   5.482   6.575   5.001
 8814SOL    HW127341   5.451   6.480   5.011
 8814SOL    HW227342   5.402   6.635   4.989
 8815SOL     OW27343   5.128   0.906   1.250
 8815SOL    HW127344   5.126   1.006   1.252
 8815SOL    HW227345   5.050   0.873   1.197
 8816SOL     OW27346   0.374   6.869   3.839
 8816SOL    HW127347   0.358   6.918   3.925
 8816SOL    HW227348   0.472   6.870   3.818
 8817SOL     OW27349   1.237   2.651   3.230
 8817SOL    HW127350   1.290   2.607   3.302
 8817SOL    HW227351   1.158   2.697   3.271
 8818SOL     OW27352   0.959   6.661   5.622
 8818SOL    HW127353   0.980   6.648   5.719
 8818SOL    HW227354   0.923   6.576   5.584
 8819SOL     OW27355   4.792   5.701   6.215
 8819SOL    HW127356   4.749   5.651   6.139
 8819SOL    HW227357   4.723   5.755   6.263
 8820SOL     OW27358   4.189   6.931   5.477
 8820SOL    HW127359   4.202   0.004   5.477
 8820SOL    HW227360   4.114   6.907   5.415
 8821SOL     OW27361   0.793   4.960   6.111
 8821SOL    HW127362   0.786   5.032   6.042
 8821SOL    HW227363   0.708   4.956   6.163
 8822SOL     OW27364   6.400   0.287   4.830
 8822SOL    HW127365   6.351   0.349   4.891
 8822SOL    HW227366   6.342   0.207   4.811
 8823SOL     OW27367   4.129   1.752   2.820
 8823SOL    HW127368   4.163   1.843   2.847
 8823SOL    HW227369   4.038   1.738   2.859
 8824SOL     OW27370   1.519   0.316   3.249
 8824SOL    HW127371   1.502   0.402   3.202
 8824SOL    HW227372   1.454   0.247   3.217
 8825SOL     OW27373   0.438   0.051   0.139
 8825SOL    HW127374   0.386   7.022   0.204
 8825SOL    HW227375   0.528   0.010   0.124
 8826SOL     OW27376   0.179   4.077   0.227
 8826SOL    HW127377   0.193   3.988   0.184
 8826SOL    HW227378   0.219   4.076   0.319
 8827SOL     OW27379   4.540   6.943   3.099
 8827SOL    HW127380   4.534   7.004   3.177
 8827SOL    HW227381   4.631   6.902   3.094
 8828SOL     OW27382   5.000   2.398   6.216
 8828SOL    HW127383   4.904   2.400   6.188
 8828SOL    HW227384   5.057   2.387   6.135
 8829SOL     OW27385   6.814   0.890   2.900
 8829SOL    HW127386   6.831   0.960   2.830
 8829SOL    HW227387   6.793   0.803   2.855
 8830SOL     OW27388   3.051   0.920   3.793
 8830SOL    HW127389   3.119   0.952   3.859
 8830SOL    HW227390   2.983   0.864   3.839
 8831SOL     OW27391   0.022   3.511   2.683
 8831SOL    HW127392   0.005   3.413   2.687
 8831SOL    HW227393   6.967   3.557   2.647
 8832SOL     OW27394   5.279   0.621   5.876
 8832SOL    HW127395   5.186   0.585   5.878
 8832SOL    HW227396   5.278   0.715   5.845
 8833SOL     OW27397   5.304   2.541   1.122
 8833SOL    HW127398   5.266   2.605   1.055
 8833SOL    HW227399   5.346   2.591   1.197
 8834SOL     OW27400   5.595   4.629   6.444
 8834SOL    HW127401   5.543   4.602   6.525
 8834SOL    HW227402   5.541   4.695   6.391
 8835SOL     OW27403   6.905   0.849   5.157
 8835SOL    HW127404   6.900   0.846   5.057
 8835SOL    HW227405   6.921   0.756   5.192
 8836SOL     OW27406   4.079   1.271   1.197
 8836SOL    HW127407   4.081   1.172   1.189
 8836SOL    HW227408   4.111   1.298   1.288
 8837SOL     OW27409   4.472   6.350   0.642
 8837SOL    HW127410   4.465   6.360   0.542
 8837SOL    HW227411   4.563   6.377   0.672
 8838SOL     OW27412   1.941   3.483   3.395
 8838SOL    HW127413   1.869   3.467   3.463
 8838SOL    HW227414   2.025   3.438   3.424
 8839SOL     OW27415   4.758   5.363   1.488
 8839SOL    HW127416   4.758   5.356   1.587
 8839SOL    HW227417   4.821   5.296   1.449
 8840SOL     OW27418   6.679   1.031   0.610
 8840SOL    HW127419   6.670   0.932   0.611
 8840SOL    HW227420   6.622   1.071   0.683
 8841SOL     OW27421   3.378   1.182   0.647
 8841SOL    HW127422   3.278   1.191   0.641
 8841SOL    HW227423   3.403   1.086   0.638
 8842SOL     OW27424   3.508   3.153   4.039
 8842SOL    HW127425   3.529   3.227   4.102
 8842SOL    HW227426   3.449   3.186   3.966
 8843SOL     OW27427   2.829   5.457   5.063
 8843SOL    HW127428   2.760   5.529   5.068
 8843SOL    HW227429   2.812   5.389   5.135
 8844SOL     OW27430   3.407   2.901   6.226
 8844SOL    HW127431   3.461   2.817   6.228
 8844SOL    HW227432   3.448   2.965   6.161
 8845SOL     OW27433   0.651   3.244   1.920
 8845SOL    HW127434   0.689   3.162   1.963
 8845SOL    HW227435   0.634   3.314   1.990
 8846SOL     OW27436   5.884   4.703   4.382
 8846SOL    HW127437   5.794   4.665   4.365
 8846SOL    HW227438   5.875   4.796   4.417
 8847SOL     OW27439   1.021   2.140   3.908
 8847SOL    HW127440   0.996   2.175   3.998
 8847SOL    HW227441   0.999   2.208   3.838
 8848SOL     OW27442   6.322   1.323   0.722
 8848SOL    HW127443   6.277   1.235   0.705
 8848SOL    HW227444   6.289   1.391   0.656
 8849SOL     OW27445   3.541   5.520   4.288
 8849SOL    HW127446   3.499   5.488   4.203
 8849SOL    HW227447   3.484   5.590   4.330
 8850SOL     OW27448   2.492   1.230   1.274
 8850SOL    HW127449   2.498   1.318   1.228
 8850SOL    HW227450   2.569   1.173   1.248
 8851SOL     OW27451   0.005   5.303   2.556
 8851SOL    HW127452   6.949   5.248   2.539
 8851SOL    HW227453   0.047   5.327   2.468
 8852SOL     OW27454   5.456   2.947   4.589
 8852SOL    HW127455   5.375   2.945   4.531
 8852SOL    HW227456   5.454   2.870   4.652
 8853SOL     OW27457   4.921   2.100   5.478
 8853SOL    HW127458   4.878   2.014   5.504
 8853SOL    HW227459   5.007   2.111   5.528
 8854SOL     OW27460   1.560   0.885   6.015
 8854SOL    HW127461   1.609   0.955   6.069
 8854SOL    HW227462   1.621   0.808   5.999
 8855SOL     OW27463   6.417   4.960   6.395
 8855SOL    HW127464   6.517   4.959   6.397
 8855SOL    HW227465   6.383   4.992   6.483
 8856SOL     OW27466   5.262   0.862   5.353
 8856SOL    HW127467   5.266   0.803   5.271
 8856SOL    HW227468   5.345   0.918   5.357
 8857SOL     OW27469   1.190   3.052   4.491
 8857SOL    HW127470   1.223   2.970   4.538
 8857SOL    HW227471   1.229   3.133   4.532
 8858SOL     OW27472   6.805   3.965   5.701
 8858SOL    HW127473   6.876   4.035   5.698
 8858SOL    HW227474   6.813   3.913   5.786
 8859SOL     OW27475   3.159   6.031   5.252
 8859SOL    HW127476   3.095   6.091   5.301
 8859SOL    HW227477   3.118   6.000   5.167
 8860SOL     OW27478   1.548   2.163   0.867
 8860SOL    HW127479   1.583   2.204   0.951
 8860SOL    HW227480   1.506   2.234   0.810
 8861SOL     OW27481   2.357   2.810   1.269
 8861SOL    HW127482   2.348   2.839   1.174
 8861SOL    HW227483   2.447   2.837   1.304
 8862SOL     OW27484   6.518   2.347   5.182
 8862SOL    HW127485   6.447   2.279   5.199
 8862SOL    HW227486   6.478   2.425   5.133
 8863SOL     OW27487   1.379   5.541   5.103
 8863SOL    HW127488   1.411   5.499   5.187
 8863SOL    HW227489   1.381   5.641   5.112
 8864SOL     OW27490   1.374   4.075   5.988
 8864SOL    HW127491   1.469   4.052   5.965
 8864SOL    HW227492   1.360   4.173   5.980
 8865SOL     OW27493   2.516   2.507   5.539
 8865SOL    HW127494   2.522   2.606   5.522
 8865SOL    HW227495   2.599   2.463   5.504
 8866SOL     OW27496   4.886   6.578   5.280
 8866SOL    HW127497   4.939   6.626   5.210
 8866SOL    HW227498   4.948   6.525   5.338
 8867SOL     OW27499   6.614   1.346   4.125
 8867SOL    HW127500   6.579   1.283   4.057
 8867SOL    HW227501   6.593   1.440   4.098
 8868SOL     OW27502   4.826   3.437   0.924
 8868SOL    HW127503   4.850   3.461   1.018
 8868SOL    HW227504   4.894   3.374   0.888
 8869SOL     OW27505   3.858   2.086   3.417
 8869SOL    HW127506   3.812   2.155   3.361
 8869SOL    HW227507   3.868   2.120   3.510
 8870SOL     OW27508   4.860   1.337   2.286
 8870SOL    HW127509   4.765   1.353   2.312
 8870SOL    HW227510   4.885   1.242   2.306
 8871SOL     OW27511   1.704   2.577   4.143
 8871SOL    HW127512   1.691   2.532   4.231
 8871SOL    HW227513   1.764   2.656   4.155
 8872SOL     OW27514   1.677   2.811   2.347
 8872SOL    HW127515   1.705   2.759   2.266
 8872SOL    HW227516   1.738   2.791   2.423
 8873SOL     OW27517   0.155   5.897   4.944
 8873SOL    HW127518   0.173   5.985   4.899
 8873SOL    HW227519   0.149   5.826   4.874
 8874SOL     OW27520   0.889   1.603   6.769
 8874SOL    HW127521   0.820   1.530   6.766
 8874SOL    HW227522   0.978   1.565   6.746
 8875SOL     OW27523   1.253   1.193   4.646
 8875SOL    HW127524   1.177   1.133   4.671
 8875SOL    HW227525   1.295   1.161   4.562
 8876SOL     OW27526   2.385   0.511   4.725
 8876SOL    HW127527   2.405   0.515   4.823
 8876SOL    HW227528   2.332   0.591   4.699
 8877SOL     OW27529   3.058   6.715   4.573
 8877SOL    HW127530   2.980   6.744   4.629
 8877SOL    HW227531   3.025   6.656   4.499
 8878SOL     OW27532   5.554   4.658   5.511
 8878SOL    HW127533   5.615   4.579   5.520
 8878SOL    HW227534   5.599   4.739   5.549
 8879SOL     OW27535   5.121   5.584   4.491
 8879SOL    HW127536   5.106   5.683   4.484
 8879SOL    HW227537   5.214   5.562   4.461
 8880SOL     OW27538   0.235   6.133   5.226
 8880SOL    HW127539   0.160   6.127   5.292
 8880SOL    HW227540   0.197   6.158   5.136
 8881SOL     OW27541   6.615   0.872   1.716
 8881SOL    HW127542   6.704   0.870   1.670
 8881SOL    HW227543   6.628   0.857   1.813
 8882SOL     OW27544   5.516   2.527   0.014
 8882SOL    HW127545   5.590   2.461   7.025
 8882SOL    HW227546   5.502   2.582   6.958
 8883SOL     OW27547   0.258   1.862   5.554
 8883SOL    HW127548   0.168   1.901   5.578
 8883SOL    HW227549   0.277   1.785   5.614
 8884SOL     OW27550   6.651   1.291   5.547
 8884SOL    HW127551   6.688   1.199   5.561
 8884SOL    HW227552   6.640   1.336   5.636
 8885SOL     OW27553   5.610   3.691   1.742
 8885SOL    HW127554   5.620   3.790   1.738
 8885SOL    HW227555   5.522   3.665   1.702
 8886SOL     OW27556   3.070   5.821   5.972
 8886SOL    HW127557   2.974   5.823   6.001
 8886SOL    HW227558   3.110   5.912   5.982
 8887SOL     OW27559   1.669   0.245   1.450
 8887SOL    HW127560   1.583   0.234   1.400
 8887SOL    HW227561   1.745   0.251   1.384
 8888SOL     OW27562   3.253   2.047   3.213
 8888SOL    HW127563   3.329   2.027   3.275
 8888SOL    HW227564   3.182   2.098   3.263
 8889SOL     OW27565   3.488   0.458   4.514
 8889SOL    HW127566   3.402   0.423   4.476
 8889SOL    HW227567   3.563   0.436   4.452
 8890SOL     OW27568   0.617   4.194   3.626
 8890SOL    HW127569   0.593   4.288   3.604
 8890SOL    HW227570   0.716   4.186   3.635
 8891SOL     OW27571   2.328   1.940   6.036
 8891SOL    HW127572   2.305   1.921   5.940
 8891SOL    HW227573   2.281   2.024   6.065
 8892SOL     OW27574   1.152   6.903   2.409
 8892SOL    HW127575   1.150   6.872   2.313
 8892SOL    HW227576   1.063   6.942   2.433
 8893SOL     OW27577   0.421   0.647   0.345
 8893SOL    HW127578   0.416   0.595   0.260
 8893SOL    HW227579   0.339   0.631   0.400
 8894SOL     OW27580   4.342   2.584   6.483
 8894SOL    HW127581   4.378   2.578   6.576
 8894SOL    HW227582   4.256   2.636   6.484
 8895SOL     OW27583   1.826   0.946   2.378
 8895SOL    HW127584   1.731   0.966   2.403
 8895SOL    HW227585   1.887   0.988   2.445
 8896SOL     OW27586   2.217   4.164   4.666
 8896SOL    HW127587   2.224   4.182   4.764
 8896SOL    HW227588   2.196   4.068   4.650
 8897SOL     OW27589   1.387   2.131   1.182
 8897SOL    HW127590   1.379   2.051   1.122
 8897SOL    HW227591   1.476   2.174   1.168
 8898SOL     OW27592   6.898   2.507   4.849
 8898SOL    HW127593   6.888   2.409   4.835
 8898SOL    HW227594   6.932   2.525   4.942
 8899SOL     OW27595   3.603   4.969   0.816
 8899SOL    HW127596   3.643   4.878   0.805
 8899SOL    HW227597   3.645   5.015   0.894
 8900SOL     OW27598   0.322   1.336   3.617
 8900SOL    HW127599   0.250   1.364   3.681
 8900SOL    HW227600   0.352   1.244   3.640
 8901SOL     OW27601   2.072   6.647   1.756
 8901SOL    HW127602   2.074   6.699   1.842
 8901SOL    HW227603   1.994   6.678   1.701
 8902SOL     OW27604   3.303   6.138   5.047
 8902SOL    HW127605   3.264   6.107   5.134
 8902SOL    HW227606   3.314   6.059   4.986
 8903SOL     OW27607   0.779   0.718   3.322
 8903SOL    HW127608   0.837   0.648   3.281
 8903SOL    HW227609   0.811   0.808   3.295
 8904SOL     OW27610   1.462   5.107   3.035
 8904SOL    HW127611   1.478   5.085   2.938
 8904SOL    HW227612   1.518   5.046   3.092
 8905SOL     OW27613   2.200   4.196   4.943
 8905SOL    HW127614   2.114   4.232   4.981
 8905SOL    HW227615   2.226   4.113   4.992
 8906SOL     OW27616   1.542   5.361   4.416
 8906SOL    HW127617   1.454   5.404   4.436
 8906SOL    HW227618   1.564   5.296   4.488
 8907SOL     OW27619   4.071   2.729   6.181
 8907SOL    HW127620   4.073   2.754   6.084
 8907SOL    HW227621   4.049   2.809   6.236
 8908SOL     OW27622   0.094   2.555   2.426
 8908SOL    HW127623   0.073   2.637   2.373
 8908SOL    HW227624   0.190   2.558   2.456
 8909SOL     OW27625   2.423   0.278   5.613
 8909SOL    HW127626   2.510   0.232   5.627
 8909SOL    HW227627   2.399   0.277   5.516
 8910SOL     OW27628   4.129   2.927   6.901
 8910SOL    HW127629   4.067   2.849   6.905
 8910SOL    HW227630   4.222   2.895   6.883
 8911SOL     OW27631   4.719   2.266   3.801
 8911SOL    HW127632   4.685   2.303   3.714
 8911SOL    HW227633   4.701   2.332   3.874
 8912SOL     OW27634   5.568   1.564   6.650
 8912SOL    HW127635   5.563   1.615   6.564
 8912SOL    HW227636   5.487   1.582   6.705
 8913SOL     OW27637   4.663   4.219   0.844
 8913SOL    HW127638   4.747   4.188   0.889
 8913SOL    HW227639   4.584   4.186   0.896
 8914SOL     OW27640   4.989   1.916   3.544
 8914SOL    HW127641   5.016   2.012   3.556
 8914SOL    HW227642   4.889   1.910   3.539
 8915SOL     OW27643   1.099   5.688   2.213
 8915SOL    HW127644   1.103   5.766   2.276
 8915SOL    HW227645   1.024   5.627   2.241
 8916SOL     OW27646   6.039   3.314   2.292
 8916SOL    HW127647   5.981   3.355   2.221
 8916SOL    HW227648   6.132   3.303   2.256
 8917SOL     OW27649   5.608   5.614   5.361
 8917SOL    HW127650   5.545   5.537   5.369
 8917SOL    HW227651   5.702   5.583   5.380
 8918SOL     OW27652   4.677   3.739   6.244
 8918SOL    HW127653   4.584   3.774   6.232
 8918SOL    HW227654   4.742   3.798   6.196
 8919SOL     OW27655   2.351   3.711   1.359
 8919SOL    HW127656   2.257   3.719   1.394
 8919SOL    HW227657   2.357   3.753   1.269
 8920SOL     OW27658   6.571   5.266   5.481
 8920SOL    HW127659   6.482   5.310   5.468
 8920SOL    HW227660   6.563   5.168   5.460
 8921SOL     OW27661   1.467   5.560   3.643
 8921SOL    HW127662   1.368   5.567   3.653
 8921SOL    HW227663   1.488   5.508   3.560
 8922SOL     OW27664   6.316   4.284   6.871
 8922SOL    HW127665   6.392   4.326   6.920
 8922SOL    HW227666   6.270   4.218   6.930
 8923SOL     OW27667   2.138   3.905   4.634
 8923SOL    HW127668   2.195   3.831   4.670
 8923SOL    HW227669   2.063   3.923   4.698
 8924SOL     OW27670   2.558   5.509   5.016
 8924SOL    HW127671   2.482   5.539   5.074
 8924SOL    HW227672   2.575   5.411   5.030
 8925SOL     OW27673   4.962   6.044   1.660
 8925SOL    HW127674   4.893   5.987   1.617
 8925SOL    HW227675   5.048   6.037   1.609
 8926SOL     OW27676   5.053   0.918   6.894
 8926SOL    HW127677   4.973   0.948   6.843
 8926SOL    HW227678   5.084   0.829   6.859
 8927SOL     OW27679   2.442   1.573   4.180
 8927SOL    HW127680   2.517   1.639   4.176
 8927SOL    HW227681   2.372   1.598   4.113
 8928SOL     OW27682   0.650   0.205   4.216
 8928SOL    HW127683   0.642   0.237   4.311
 8928SOL    HW227684   0.745   0.178   4.198
 8929SOL     OW27685   5.294   4.393   3.930
 8929SOL    HW127686   5.317   4.490   3.939
 8929SOL    HW227687   5.291   4.369   3.833
 8930SOL     OW27688   1.034   4.902   5.091
 8930SOL    HW127689   1.083   4.846   5.158
 8930SOL    HW227690   0.936   4.882   5.097
 8931SOL     OW27691   5.097   0.953   1.714
 8931SOL    HW127692   5.104   0.855   1.730
 8931SOL    HW227693   5.176   0.983   1.659
 8932SOL     OW27694   5.800   0.593   0.145
 8932SOL    HW127695   5.781   0.670   0.084
 8932SOL    HW227696   5.714   0.552   0.175
 8933SOL     OW27697   1.303   0.479   5.650
 8933SOL    HW127698   1.231   0.415   5.676
 8933SOL    HW227699   1.270   0.572   5.660
 8934SOL     OW27700   4.375   6.739   3.614
 8934SOL    HW127701   4.321   6.811   3.658
 8934SOL    HW227702   4.470   6.744   3.646
 8935SOL     OW27703   5.674   1.814   2.392
 8935SOL    HW127704   5.588   1.825   2.441
 8935SOL    HW227705   5.742   1.877   2.431
 8936SOL     OW27706   1.945   3.997   2.781
 8936SOL    HW127707   1.949   4.037   2.873
 8936SOL    HW227708   2.023   4.028   2.727
 8937SOL     OW27709   4.141   0.318   5.232
 8937SOL    HW127710   4.132   0.416   5.219
 8937SOL    HW227711   4.093   0.270   5.159
 8938SOL     OW27712   5.724   6.567   1.630
 8938SOL    HW127713   5.740   6.470   1.618
 8938SOL    HW227714   5.787   6.619   1.572
 8939SOL     OW27715   0.429   2.961   4.430
 8939SOL    HW127716   0.494   3.033   4.407
 8939SOL    HW227717   0.349   3.002   4.474
 8940SOL     OW27718   6.340   3.318   1.884
 8940SOL    HW127719   6.421   3.271   1.849
 8940SOL    HW227720   6.290   3.359   1.807
 8941SOL     OW27721   5.495   2.308   2.686
 8941SOL    HW127722   5.451   2.353   2.764
 8941SOL    HW227723   5.593   2.328   2.687
 8942SOL     OW27724   4.848   4.255   3.948
 8942SOL    HW127725   4.771   4.313   3.974
 8942SOL    HW227726   4.927   4.278   4.005
 8943SOL     OW27727   4.476   2.442   0.723
 8943SOL    HW127728   4.508   2.413   0.813
 8943SOL    HW227729   4.507   2.376   0.654
 8944SOL     OW27730   4.490   5.375   4.898
 8944SOL    HW127731   4.471   5.278   4.884
 8944SOL    HW227732   4.504   5.419   4.809
 8945SOL     OW27733   6.218   3.985   2.107
 8945SOL    HW127734   6.232   4.046   2.185
 8945SOL    HW227735   6.154   3.912   2.132
 8946SOL     OW27736   4.759   1.564   4.893
 8946SOL    HW127737   4.849   1.551   4.935
 8946SOL    HW227738   4.690   1.519   4.949
 8947SOL     OW27739   2.011   4.557   0.689
 8947SOL    HW127740   1.959   4.557   0.604
 8947SOL    HW227741   1.971   4.621   0.754
 8948SOL     OW27742   5.286   0.490   2.923
 8948SOL    HW127743   5.210   0.555   2.922
 8948SOL    HW227744   5.296   0.451   3.015
 8949SOL     OW27745   3.472   6.036   0.411
 8949SOL    HW127746   3.408   6.045   0.335
 8949SOL    HW227747   3.448   5.955   0.466
 8950SOL     OW27748   3.227   3.635   2.585
 8950SOL    HW127749   3.182   3.547   2.573
 8950SOL    HW227750   3.279   3.658   2.503
 8951SOL     OW27751   0.684   0.466   4.186
 8951SOL    HW127752   0.659   0.370   4.172
 8951SOL    HW227753   0.645   0.498   4.272
 8952SOL     OW27754   1.840   4.539   4.570
 8952SOL    HW127755   1.851   4.559   4.473
 8952SOL    HW227756   1.774   4.603   4.610
 8953SOL     OW27757   0.938   4.946   1.499
 8953SOL    HW127758   0.943   4.846   1.504
 8953SOL    HW227759   0.847   4.976   1.529
 8954SOL     OW27760   1.864   4.117   5.555
 8954SOL    HW127761   1.775   4.161   5.555
 8954SOL    HW227762   1.916   4.144   5.474
 8955SOL     OW27763   5.697   2.897   5.753
 8955SOL    HW127764   5.711   2.996   5.751
 8955SOL    HW227765   5.606   2.876   5.716
 8956SOL     OW27766   0.693   6.117   1.056
 8956SOL    HW127767   0.681   6.088   1.151
 8956SOL    HW227768   0.731   6.042   1.002
 8957SOL     OW27769   1.149   6.858   2.150
 8957SOL    HW127770   1.238   6.816   2.166
 8957SOL    HW227771   1.089   6.793   2.104
 8958SOL     OW27772   0.582   4.157   4.665
 8958SOL    HW127773   0.650   4.126   4.598
 8958SOL    HW227774   0.495   4.111   4.648
 8959SOL     OW27775   5.742   2.267   3.954
 8959SOL    HW127776   5.740   2.365   3.934
 8959SOL    HW227777   5.666   2.222   3.908
 8960SOL     OW27778   5.480   5.169   2.733
 8960SOL    HW127779   5.483   5.231   2.811
 8960SOL    HW227780   5.508   5.077   2.762
 8961SOL     OW27781   2.688   1.633   5.085
 8961SOL    HW127782   2.665   1.602   5.177
 8961SOL    HW227783   2.753   1.569   5.043
 8962SOL     OW27784   6.332   5.727   2.136
 8962SOL    HW127785   6.378   5.667   2.201
 8962SOL    HW227786   6.233   5.722   2.150
 8963SOL     OW27787   2.928   6.611   6.062
 8963SOL    HW127788   2.887   6.520   6.062
 8963SOL    HW227789   2.865   6.676   6.105
 8964SOL     OW27790   2.171   3.227   3.706
 8964SOL    HW127791   2.153   3.325   3.713
 8964SOL    HW227792   2.085   3.177   3.714
 8965SOL     OW27793   4.283   5.917   0.505
 8965SOL    HW127794   4.285   5.855   0.584
 8965SOL    HW227795   4.361   5.899   0.446
 8966SOL     OW27796   5.510   6.765   5.649
 8966SOL    HW127797   5.494   6.667   5.640
 8966SOL    HW227798   5.578   6.794   5.582
 8967SOL     OW27799   2.999   0.148   3.242
 8967SOL    HW127800   2.971   0.053   3.231
 8967SOL    HW227801   2.931   0.197   3.296
 8968SOL     OW27802   3.543   4.906   2.344
 8968SOL    HW127803   3.457   4.872   2.306
 8968SOL    HW227804   3.609   4.918   2.270
 8969SOL     OW27805   6.820   1.035   2.668
 8969SOL    HW127806   6.787   0.955   2.618
 8969SOL    HW227807   6.747   1.103   2.674
 8970SOL     OW27808   1.856   1.216   3.495
 8970SOL    HW127809   1.923   1.291   3.497
 8970SOL    HW227810   1.778   1.243   3.440
 8971SOL     OW27811   3.106   4.212   0.919
 8971SOL    HW127812   3.019   4.188   0.962
 8971SOL    HW227813   3.095   4.297   0.867
 8972SOL     OW27814   5.243   3.861   6.579
 8972SOL    HW127815   5.150   3.882   6.609
 8972SOL    HW227816   5.242   3.780   6.520
 8973SOL     OW27817   2.563   2.013   2.925
 8973SOL    HW127818   2.519   1.924   2.914
 8973SOL    HW227819   2.502   2.074   2.974
 8974SOL     OW27820   1.890   4.154   4.020
 8974SOL    HW127821   1.923   4.173   4.112
 8974SOL    HW227822   1.922   4.226   3.958
 8975SOL     OW27823   6.953   4.327   5.907
 8975SOL    HW127824   6.862   4.365   5.891
 8975SOL    HW227825   7.020   4.401   5.905
 8976SOL     OW27826   5.796   0.321   2.124
 8976SOL    HW127827   5.730   0.270   2.179
 8976SOL    HW227828   5.836   0.394   2.179
 8977SOL     OW27829   6.924   4.610   6.831
 8977SOL    HW127830   6.914   4.617   6.731
 8977SOL    HW227831   6.967   4.523   6.854
 8978SOL     OW27832   5.966   5.842   6.123
 8978SOL    HW127833   6.041   5.787   6.084
 8978SOL    HW227834   5.884   5.785   6.131
 8979SOL     OW27835   1.843   5.018   4.087
 8979SOL    HW127836   1.751   5.041   4.117
 8979SOL    HW227837   1.897   5.102   4.076
 8980SOL     OW27838   3.606   1.027   0.359
 8980SOL    HW127839   3.617   0.958   0.288
 8980SOL    HW227840   3.572   1.112   0.319
 8981SOL     OW27841   3.946   2.075   6.784
 8981SOL    HW127842   3.886   2.154   6.793
 8981SOL    HW227843   3.971   2.062   6.688
 8982SOL     OW27844   0.118   1.334   1.879
 8982SOL    HW127845   0.061   1.257   1.849
 8982SOL    HW227846   0.127   1.400   1.805
 8983SOL     OW27847   1.635   6.922   2.166
 8983SOL    HW127848   1.717   6.867   2.153
 8983SOL    HW227849   1.589   6.936   2.078
 8984SOL     OW27850   6.932   1.635   4.930
 8984SOL    HW127851   6.890   1.644   5.020
 8984SOL    HW227852   0.000   1.604   4.940
 8985SOL     OW27853   4.987   1.482   2.600
 8985SOL    HW127854   4.913   1.488   2.533
 8985SOL    HW227855   5.013   1.387   2.613
 8986SOL     OW27856   0.123   5.716   0.261
 8986SOL    HW127857   0.185   5.701   0.338
 8986SOL    HW227858   0.033   5.678   0.284
 8987SOL     OW27859   2.622   6.565   1.689
 8987SOL    HW127860   2.623   6.466   1.699
 8987SOL    HW227861   2.677   6.606   1.762
 8988SOL     OW27862   2.775   0.060   1.166
 8988SOL    HW127863   2.695   0.090   1.217
 8988SOL    HW227864   2.821   0.140   1.126
 8989SOL     OW27865   5.756   1.533   2.343
 8989SOL    HW127866   5.718   1.615   2.386
 8989SOL    HW227867   5.802   1.558   2.258
 8990SOL     OW27868   3.192   0.955   3.264
 8990SOL    HW127869   3.189   0.940   3.363
 8990SOL    HW227870   3.249   1.035   3.244
 8991SOL     OW27871   1.113   2.672   0.806
 8991SOL    HW127872   1.020   2.683   0.840
 8991SOL    HW227873   1.112   2.612   0.726
 8992SOL     OW27874   6.624   4.470   6.263
 8992SOL    HW127875   6.601   4.372   6.257
 8992SOL    HW227876   6.720   4.482   6.242
 8993SOL     OW27877   5.562   4.159   4.406
 8993SOL    HW127878   5.647   4.206   4.430
 8993SOL    HW227879   5.487   4.226   4.405
 8994SOL     OW27880   1.650   6.387   2.618
 8994SOL    HW127881   1.683   6.481   2.620
 8994SOL    HW227882   1.550   6.386   2.614
 8995SOL     OW27883   2.094   3.868   4.376
 8995SOL    HW127884   2.133   3.858   4.468
 8995SOL    HW227885   1.995   3.878   4.383
 8996SOL     OW27886   1.864   3.588   1.266
 8996SOL    HW127887   1.807   3.665   1.293
 8996SOL    HW227888   1.958   3.603   1.297
 8997SOL     OW27889   4.208   0.965   5.351
 8997SOL    HW127890   4.290   1.016   5.377
 8997SOL    HW227891   4.127   1.014   5.380
 8998SOL     OW27892   0.565   1.543   6.226
 8998SOL    HW127893   0.588   1.530   6.129
 8998SOL    HW227894   0.646   1.578   6.274
 8999SOL     OW27895   5.363   2.648   5.514
 8999SOL    HW127896   5.417   2.716   5.465
 8999SOL    HW227897   5.281   2.691   5.552
 9000SOL     OW27898   3.765   5.043   0.573
 9000SOL    HW127899   3.857   5.022   0.540
 9000SOL    HW227900   3.719   4.958   0.601
 9001SOL     OW27901   2.014   4.266   3.290
 9001SOL    HW127902   2.062   4.344   3.249
 9001SOL    HW227903   2.081   4.202   3.329
 9002SOL     OW27904   5.295   4.310   5.668
 9002SOL    HW127905   5.373   4.247   5.664
 9002SOL    HW227906   5.318   4.395   5.621
 9003SOL     OW27907   6.241   3.172   6.621
 9003SOL    HW127908   6.217   3.084   6.662
 9003SOL    HW227909   6.243   3.242   6.693
 9004SOL     OW27910   4.840   5.539   1.064
 9004SOL    HW127911   4.768   5.477   1.094
 9004SOL    HW227912   4.804   5.602   0.995
 9005SOL     OW27913   5.399   2.945   3.638
 9005SOL    HW127914   5.408   2.959   3.737
 9005SOL    HW227915   5.383   2.848   3.620
 9006SOL     OW27916   2.082   6.827   1.007
 9006SOL    HW127917   2.084   6.753   0.941
 9006SOL    HW227918   2.175   6.860   1.025
 9007SOL     OW27919   2.282   6.179   4.932
 9007SOL    HW127920   2.301   6.159   4.836
 9007SOL    HW227921   2.206   6.122   4.963
 9008SOL     OW27922   0.636   4.284   2.742
 9008SOL    HW127923   0.720   4.312   2.788
 9008SOL    HW227924   0.597   4.204   2.788
 9009SOL     OW27925   4.012   6.246   6.780
 9009SOL    HW127926   4.058   6.279   6.698
 9009SOL    HW227927   4.077   6.243   6.856
 9010SOL     OW27928   0.055   5.338   4.769
 9010SOL    HW127929   0.129   5.389   4.813
 9010SOL    HW227930   0.052   5.361   4.672
 9011SOL     OW27931   4.559   2.365   2.732
 9011SOL    HW127932   4.619   2.410   2.666
 9011SOL    HW227933   4.464   2.376   2.704
 9012SOL     OW27934   5.296   4.984   2.230
 9012SOL    HW127935   5.321   4.891   2.202
 9012SOL    HW227936   5.363   5.018   2.296
 9013SOL     OW27937   4.572   6.530   2.587
 9013SOL    HW127938   4.557   6.579   2.673
 9013SOL    HW227939   4.630   6.585   2.527
 9014SOL     OW27940   2.383   0.467   1.389
 9014SOL    HW127941   2.461   0.529   1.387
 9014SOL    HW227942   2.377   0.425   1.480
 9015SOL     OW27943   6.261   1.914   4.959
 9015SOL    HW127944   6.219   1.851   5.024
 9015SOL    HW227945   6.351   1.880   4.934
 9016SOL     OW27946   6.771   5.645   6.480
 9016SOL    HW127947   6.807   5.559   6.517
 9016SOL    HW227948   6.786   5.648   6.381
 9017SOL     OW27949   0.025   3.800   3.086
 9017SOL    HW127950   0.113   3.843   3.070
 9017SOL    HW227951   7.024   3.815   3.181
 9018SOL     OW27952   3.826   1.904   6.149
 9018SOL    HW127953   3.772   1.974   6.102
 9018SOL    HW227954   3.912   1.891   6.100
 9019SOL     OW27955   1.522   5.353   0.094
 9019SOL    HW127956   1.440   5.406   0.072
 9019SOL    HW227957   1.532   5.279   0.028
 9020SOL     OW27958   1.151   4.877   3.890
 9020SOL    HW127959   1.187   4.890   3.983
 9020SOL    HW227960   1.074   4.813   3.893
 9021SOL     OW27961   6.170   5.660   5.284
 9021SOL    HW127962   6.150   5.603   5.205
 9021SOL    HW227963   6.264   5.645   5.314
 9022SOL     OW27964   3.065   6.409   6.462
 9022SOL    HW127965   3.107   6.392   6.373
 9022SOL    HW227966   3.038   6.322   6.503
 9023SOL     OW27967   3.160   3.228   3.434
 9023SOL    HW127968   3.186   3.163   3.505
 9023SOL    HW227969   3.235   3.293   3.419
 9024SOL     OW27970   1.136   0.218   6.758
 9024SOL    HW127971   1.208   0.256   6.700
 9024SOL    HW227972   1.083   0.292   6.800
 9025SOL     OW27973   0.276   3.521   0.158
 9025SOL    HW127974   0.309   3.432   0.126
 9025SOL    HW227975   0.312   3.538   0.250
 9026SOL     OW27976   3.077   3.195   5.812
 9026SOL    HW127977   3.083   3.291   5.840
 9026SOL    HW227978   2.986   3.177   5.775
 9027SOL     OW27979   2.282   2.504   2.354
 9027SOL    HW127980   2.239   2.444   2.422
 9027SOL    HW227981   2.380   2.485   2.348
 9028SOL     OW27982   2.647   4.685   4.681
 9028SOL    HW127983   2.726   4.728   4.725
 9028SOL    HW227984   2.603   4.622   4.745
 9029SOL     OW27985   5.898   5.344   2.537
 9029SOL    HW127986   5.847   5.330   2.452
 9029SOL    HW227987   5.863   5.426   2.583
 9030SOL     OW27988   3.775   2.094   2.221
 9030SOL    HW127989   3.722   2.127   2.143
 9030SOL    HW227990   3.781   1.994   2.217
 9031SOL     OW27991   1.738   1.463   1.187
 9031SOL    HW127992   1.833   1.434   1.176
 9031SOL    HW227993   1.700   1.490   1.099
 9032SOL     OW27994   0.647   2.723   2.309
 9032SOL    HW127995   0.567   2.766   2.267
 9032SOL    HW227996   0.627   2.627   2.330
 9033SOL     OW27997   1.240   3.921   2.013
 9033SOL    HW127998   1.335   3.900   2.037
 9033SOL    HW227999   1.238   3.984   1.935
 9034SOL     OW28000   1.811   6.676   6.556
 9034SOL    HW128001   1.868   6.634   6.627
 9034SOL    HW228002   1.740   6.612   6.528
 9035SOL     OW28003   6.871   0.591   4.547
 9035SOL    HW128004   6.921   0.673   4.518
 9035SOL    HW228005   6.823   0.551   4.469
 9036SOL     OW28006   1.126   1.434   3.954
 9036SOL    HW128007   1.211   1.480   3.979
 9036SOL    HW228008   1.146   1.359   3.892
 9037SOL     OW28009   2.825   3.795   5.788
 9037SOL    HW128010   2.795   3.857   5.860
 9037SOL    HW228011   2.752   3.784   5.720
 9038SOL     OW28012   4.382   5.840   4.864
 9038SOL    HW128013   4.468   5.890   4.871
 9038SOL    HW228014   4.317   5.875   4.932
 9039SOL     OW28015   2.612   4.345   6.694
 9039SOL    HW128016   2.591   4.417   6.627
 9039SOL    HW228017   2.574   4.370   6.783
 9040SOL     OW28018   2.856   1.911   2.140
 9040SOL    HW128019   2.818   1.897   2.048
 9040SOL    HW228020   2.807   1.854   2.205
 9041SOL     OW28021   1.648   3.049   6.327
 9041SOL    HW128022   1.682   3.119   6.390
 9041SOL    HW228023   1.585   3.092   6.262
 9042SOL     OW28024   2.107   5.562   3.179
 9042SOL    HW128025   2.159   5.633   3.225
 9042SOL    HW228026   2.088   5.488   3.243
 9043SOL     OW28027   6.816   2.127   0.634
 9043SOL    HW128028   6.769   2.198   0.581
 9043SOL    HW228029   6.898   2.165   0.677
 9044SOL     OW28030   6.714   4.266   0.165
 9044SOL    HW128031   6.663   4.198   0.218
 9044SOL    HW228032   6.812   4.254   0.181
 9045SOL     OW28033   2.473   5.367   4.050
 9045SOL    HW128034   2.383   5.375   4.006
 9045SOL    HW228035   2.469   5.295   4.119
 9046SOL     OW28036   3.765   4.421   5.927
 9046SOL    HW128037   3.676   4.403   5.885
 9046SOL    HW228038   3.776   4.363   6.008
 9047SOL     OW28039   0.953   4.294   4.414
 9047SOL    HW128040   0.976   4.235   4.336
 9047SOL    HW228041   1.008   4.267   4.493
 9048SOL     OW28042   1.837   2.035   5.020
 9048SOL    HW128043   1.737   2.037   5.019
 9048SOL    HW228044   1.871   2.076   4.935
 9049SOL     OW28045   4.925   6.765   6.645
 9049SOL    HW128046   4.947   6.802   6.555
 9049SOL    HW228047   4.935   6.836   6.715
 9050SOL     OW28048   6.852   5.333   5.499
 9050SOL    HW128049   6.902   5.297   5.578
 9050SOL    HW228050   6.755   5.310   5.507
 9051SOL     OW28051   5.487   6.653   6.139
 9051SOL    HW128052   5.517   6.723   6.075
 9051SOL    HW228053   5.472   6.693   6.229
 9052SOL     OW28054   3.154   4.927   4.932
 9052SOL    HW128055   3.122   4.860   4.865
 9052SOL    HW228056   3.163   5.017   4.888
 9053SOL     OW28057   3.223   1.430   2.818
 9053SOL    HW128058   3.159   1.498   2.854
 9053SOL    HW228059   3.294   1.476   2.765
 9054SOL     OW28060   2.314   7.020   0.979
 9054SOL    HW128061   2.364   6.970   1.049
 9054SOL    HW228062   2.300   0.089   1.008
 9055SOL     OW28063   0.631   2.815   4.771
 9055SOL    HW128064   0.712   2.827   4.713
 9055SOL    HW228065   0.552   2.794   4.713
 9056SOL     OW28066   4.764   2.790   2.534
 9056SOL    HW128067   4.812   2.846   2.602
 9056SOL    HW228068   4.665   2.800   2.547
 9057SOL     OW28069   3.686   6.196   0.201
 9057SOL    HW128070   3.758   6.184   0.133
 9057SOL    HW228071   3.614   6.128   0.187
 9058SOL     OW28072   2.553   2.476   4.601
 9058SOL    HW128073   2.545   2.456   4.699
 9058SOL    HW228074   2.481   2.429   4.551
 9059SOL     OW28075   0.115   1.131   2.468
 9059SOL    HW128076   0.073   1.182   2.393
 9059SOL    HW228077   0.187   1.187   2.510
 9060SOL     OW28078   0.438   5.290   1.222
 9060SOL    HW128079   0.404   5.368   1.171
 9060SOL    HW228080   0.513   5.318   1.281
 9061SOL     OW28081   5.125   3.943   2.378
 9061SOL    HW128082   5.212   3.977   2.412
 9061SOL    HW228083   5.088   3.876   2.442
 9062SOL     OW28084   1.238   5.912   3.046
 9062SOL    HW128085   1.199   5.861   2.969
 9062SOL    HW228086   1.180   5.900   3.126
 9063SOL     OW28087   4.717   1.411   1.489
 9063SOL    HW128088   4.685   1.445   1.577
 9063SOL    HW228089   4.781   1.335   1.504
 9064SOL     OW28090   1.467   5.787   3.279
 9064SOL    HW128091   1.381   5.737   3.286
 9064SOL    HW228092   1.468   5.839   3.193
 9065SOL     OW28093   3.698   4.227   6.580
 9065SOL    HW128094   3.698   4.133   6.547
 9065SOL    HW228095   3.787   4.269   6.564
 9066SOL     OW28096   4.510   5.060   4.167
 9066SOL    HW128097   4.599   5.099   4.192
 9066SOL    HW228098   4.454   5.131   4.124
 9067SOL     OW28099   1.934   6.853   4.511
 9067SOL    HW128100   1.859   6.815   4.565
 9067SOL    HW228101   1.910   6.946   4.483
 9068SOL     OW28102   4.160   0.363   5.922
 9068SOL    HW128103   4.246   0.317   5.902
 9068SOL    HW228104   4.158   0.390   6.018
 9069SOL     OW28105   5.521   2.672   1.927
 9069SOL    HW128106   5.604   2.686   1.872
 9069SOL    HW228107   5.444   2.717   1.883
 9070SOL     OW28108   1.622   1.323   5.629
 9070SOL    HW128109   1.710   1.362   5.655
 9070SOL    HW228110   1.634   1.263   5.550
 9071SOL     OW28111   5.493   2.419   6.663
 9071SOL    HW128112   5.428   2.495   6.675
 9071SOL    HW228113   5.579   2.441   6.708
 9072SOL     OW28114   5.710   6.982   2.462
 9072SOL    HW128115   5.807   6.977   2.437
 9072SOL    HW228116   5.669   6.891   2.456
 9073SOL     OW28117   4.489   2.932   5.422
 9073SOL    HW128118   4.534   2.887   5.345
 9073SOL    HW228119   4.390   2.919   5.415
 9074SOL     OW28120   1.794   1.290   2.916
 9074SOL    HW128121   1.696   1.308   2.916
 9074SOL    HW228122   1.843   1.373   2.892
 9075SOL     OW28123   5.718   5.854   0.457
 9075SOL    HW128124   5.757   5.768   0.489
 9075SOL    HW228125   5.671   5.839   0.370
 9076SOL     OW28126   0.816   6.573   2.515
 9076SOL    HW128127   0.876   6.550   2.438
 9076SOL    HW228128   0.815   6.673   2.527
 9077SOL     OW28129   6.120   1.680   6.883
 9077SOL    HW128130   6.073   1.635   6.807
 9077SOL    HW228131   6.119   1.779   6.869
 9078SOL     OW28132   5.347   6.974   0.311
 9078SOL    HW128133   5.305   0.024   0.262
 9078SOL    HW228134   5.310   6.970   0.404
 9079SOL     OW28135   0.937   1.513   6.424
 9079SOL    HW128136   0.871   1.585   6.445
 9079SOL    HW228137   1.016   1.552   6.378
 9080SOL     OW28138   6.258   4.103   2.351
 9080SOL    HW128139   6.348   4.121   2.311
 9080SOL    HW228140   6.249   4.154   2.437
 9081SOL     OW28141   4.800   1.434   0.734
 9081SOL    HW128142   4.751   1.347   0.729
 9081SOL    HW228143   4.848   1.450   0.648
 9082SOL     OW28144   3.524   5.351   6.114
 9082SOL    HW128145   3.448   5.404   6.078
 9082SOL    HW228146   3.516   5.256   6.085
 9083SOL     OW28147   3.455   6.856   0.880
 9083SOL    HW128148   3.526   6.832   0.814
 9083SOL    HW228149   3.456   6.955   0.896
 9084SOL     OW28150   6.909   4.124   5.060
 9084SOL    HW128151   7.008   4.134   5.076
 9084SOL    HW228152   6.891   4.133   4.962
 9085SOL     OW28153   2.836   5.115   0.020
 9085SOL    HW128154   2.781   5.198   0.024
 9085SOL    HW228155   2.896   5.111   0.100
 9086SOL     OW28156   7.007   3.262   0.566
 9086SOL    HW128157   7.015   3.309   0.479
 9086SOL    HW228158   0.045   3.185   0.569
 9087SOL     OW28159   5.147   1.554   1.132
 9087SOL    HW128160   5.099   1.545   1.219
 9087SOL    HW228161   5.238   1.592   1.148
 9088SOL     OW28162   6.157   5.679   0.291
 9088SOL    HW128163   6.112   5.709   0.207
 9088SOL    HW228164   6.177   5.759   0.349
 9089SOL     OW28165   4.921   5.818   3.441
 9089SOL    HW128166   4.957   5.752   3.376
 9089SOL    HW228167   4.996   5.861   3.491
 9090SOL     OW28168   5.245   5.759   5.757
 9090SOL    HW128169   5.274   5.666   5.778
 9090SOL    HW228170   5.326   5.816   5.740
 9091SOL     OW28171   3.001   2.074   1.848
 9091SOL    HW128172   2.933   2.065   1.775
 9091SOL    HW228173   2.965   2.134   1.919
 9092SOL     OW28174   2.208   1.325   5.112
 9092SOL    HW128175   2.204   1.423   5.090
 9092SOL    HW228176   2.160   1.309   5.198
 9093SOL     OW28177   2.413   3.426   0.953
 9093SOL    HW128178   2.444   3.360   0.883
 9093SOL    HW228179   2.453   3.515   0.934
 9094SOL     OW28180   6.650   3.960   0.726
 9094SOL    HW128181   6.579   3.892   0.745
 9094SOL    HW228182   6.737   3.914   0.711
 9095SOL     OW28183   1.977   3.200   0.070
 9095SOL    HW128184   1.891   3.184   0.021
 9095SOL    HW228185   2.034   3.263   0.018
 9096SOL     OW28186   5.997   3.333   2.752
 9096SOL    HW128187   6.087   3.292   2.769
 9096SOL    HW228188   5.927   3.262   2.751
 9097SOL     OW28189   6.550   5.664   6.144
 9097SOL    HW128190   6.624   5.690   6.205
 9097SOL    HW228191   6.507   5.580   6.178
 9098SOL     OW28192   3.594   3.689   4.392
 9098SOL    HW128193   3.607   3.753   4.467
 9098SOL    HW228194   3.581   3.597   4.429
 9099SOL     OW28195   2.138   2.254   0.346
 9099SOL    HW128196   2.217   2.310   0.374
 9099SOL    HW228197   2.136   2.171   0.401
 9100SOL     OW28198   1.010   2.742   0.344
 9100SOL    HW128199   1.102   2.704   0.339
 9100SOL    HW228200   1.010   2.833   0.303
 9101SOL     OW28201   2.107   2.397   0.014
 9101SOL    HW128202   2.010   2.383   0.031
 9101SOL    HW228203   2.139   2.330   6.973
 9102SOL     OW28204   5.199   6.589   2.809
 9102SOL    HW128205   5.124   6.626   2.865
 9102SOL    HW228206   5.274   6.561   2.869
 9103SOL     OW28207   0.317   4.074   6.458
 9103SOL    HW128208   0.353   4.105   6.546
 9103SOL    HW228209   0.240   4.132   6.431
 9104SOL     OW28210   5.046   0.281   1.784
 9104SOL    HW128211   5.143   0.258   1.796
 9104SOL    HW228212   5.034   0.330   1.698
 9105SOL     OW28213   2.659   1.522   5.642
 9105SOL    HW128214   2.652   1.621   5.638
 9105SOL    HW228215   2.578   1.481   5.600
 9106SOL     OW28216   6.493   5.033   1.505
 9106SOL    HW128217   6.492   5.057   1.408
 9106SOL    HW228218   6.523   4.938   1.515
 9107SOL     OW28219   4.664   0.547   1.002
 9107SOL    HW128220   4.588   0.568   0.941
 9107SOL    HW228221   4.644   0.463   1.052
 9108SOL     OW28222   4.018   6.010   6.659
 9108SOL    HW128223   4.015   6.102   6.698
 9108SOL    HW228224   4.021   6.017   6.559
 9109SOL     OW28225   2.815   1.715   4.520
 9109SOL    HW128226   2.822   1.806   4.478
 9109SOL    HW228227   2.869   1.713   4.604
 9110SOL     OW28228   1.415   2.872   3.153
 9110SOL    HW128229   1.371   2.794   3.197
 9110SOL    HW228230   1.354   2.951   3.159
 9111SOL     OW28231   4.350   4.090   1.626
 9111SOL    HW128232   4.281   4.026   1.659
 9111SOL    HW228233   4.390   4.140   1.703
 9112SOL     OW28234   0.722   4.797   2.315
 9112SOL    HW128235   0.777   4.715   2.297
 9112SOL    HW228236   0.737   4.864   2.242
 9113SOL     OW28237   3.372   5.980   0.163
 9113SOL    HW128238   3.464   5.959   0.128
 9113SOL    HW228239   3.309   5.992   0.086
 9114SOL     OW28240   2.479   4.298   1.697
 9114SOL    HW128241   2.426   4.328   1.618
 9114SOL    HW228242   2.494   4.376   1.758
 9115SOL     OW28243   1.696   4.041   3.831
 9115SOL    HW128244   1.734   4.062   3.921
 9115SOL    HW228245   1.726   4.109   3.764
 9116SOL     OW28246   1.861   1.315   5.786
 9116SOL    HW128247   1.832   1.365   5.868
 9116SOL    HW228248   1.948   1.270   5.804
 9117SOL     OW28249   6.492   2.356   6.656
 9117SOL    HW128250   6.574   2.403   6.690
 9117SOL    HW228251   6.519   2.275   6.604
 9118SOL     OW28252   0.271   5.658   1.767
 9118SOL    HW128253   0.214   5.604   1.706
 9118SOL    HW228254   0.245   5.641   1.861
 9119SOL     OW28255   6.190   6.919   1.336
 9119SOL    HW128256   6.104   6.965   1.312
 9119SOL    HW228257   6.189   6.825   1.301
 9120SOL     OW28258   5.543   1.194   6.274
 9120SOL    HW128259   5.561   1.265   6.206
 9120SOL    HW228260   5.528   1.236   6.364
 9121SOL     OW28261   1.763   0.967   6.894
 9121SOL    HW128262   1.820   1.024   6.835
 9121SOL    HW228263   1.782   0.871   6.876
 9122SOL     OW28264   0.306   2.745   1.010
 9122SOL    HW128265   0.293   2.745   1.109
 9122SOL    HW228266   0.361   2.665   0.984
 9123SOL     OW28267   2.896   5.823   6.841
 9123SOL    HW128268   2.831   5.870   6.901
 9123SOL    HW228269   2.849   5.748   6.794
 9124SOL     OW28270   5.815   4.724   5.576
 9124SOL    HW128271   5.859   4.744   5.663
 9124SOL    HW228272   5.797   4.809   5.527
 9125SOL     OW28273   4.702   6.295   2.516
 9125SOL    HW128274   4.649   6.374   2.546
 9125SOL    HW228275   4.650   6.211   2.532
 9126SOL     OW28276   5.752   0.709   2.092
 9126SOL    HW128277   5.843   0.688   2.055
 9126SOL    HW228278   5.760   0.783   2.159
 9127SOL     OW28279   5.115   0.263   6.850
 9127SOL    HW128280   5.032   0.283   6.798
 9127SOL    HW228281   5.179   0.213   6.791
 9128SOL     OW28282   4.715   2.426   4.968
 9128SOL    HW128283   4.740   2.342   5.017
 9128SOL    HW228284   4.783   2.497   4.985
 9129SOL     OW28285   1.862   1.922   6.333
 9129SOL    HW128286   1.894   1.971   6.252
 9129SOL    HW228287   1.762   1.920   6.334
 9130SOL     OW28288   6.071   5.307   0.633
 9130SOL    HW128289   6.092   5.404   0.644
 9130SOL    HW228290   5.978   5.288   0.663
 9131SOL     OW28291   0.518   4.177   4.285
 9131SOL    HW128292   0.536   4.097   4.229
 9131SOL    HW228293   0.601   4.231   4.296
 9132SOL     OW28294   0.940   3.130   4.636
 9132SOL    HW128295   0.918   3.207   4.696
 9132SOL    HW228296   1.035   3.139   4.604
 9133SOL     OW28297   1.776   4.380   0.915
 9133SOL    HW128298   1.698   4.327   0.883
 9133SOL    HW228299   1.850   4.376   0.847
 9134SOL     OW28300   3.155   5.279   6.011
 9134SOL    HW128301   3.218   5.335   6.066
 9134SOL    HW228302   3.154   5.314   5.917
 9135SOL     OW28303   0.141   6.047   4.167
 9135SOL    HW128304   0.172   6.017   4.257
 9135SOL    HW228305   0.054   6.004   4.145
 9136SOL     OW28306   4.544   4.584   5.712
 9136SOL    HW128307   4.492   4.569   5.628
 9136SOL    HW228308   4.556   4.497   5.760
 9137SOL     OW28309   4.171   1.199   2.498
 9137SOL    HW128310   4.233   1.269   2.463
 9137SOL    HW228311   4.178   1.117   2.441
 9138SOL     OW28312   3.689   4.982   0.294
 9138SOL    HW128313   3.712   5.020   0.384
 9138SOL    HW228314   3.689   5.056   0.226
 9139SOL     OW28315   2.732   1.155   5.632
 9139SOL    HW128316   2.666   1.115   5.695
 9139SOL    HW228317   2.703   1.248   5.608
 9140SOL     OW28318   6.911   2.373   3.784
 9140SOL    HW128319   6.856   2.289   3.792
 9140SOL    HW228320   6.957   2.391   3.870
 9141SOL     OW28321   5.756   0.431   5.937
 9141SOL    HW128322   5.755   0.510   5.997
 9141SOL    HW228323   5.662   0.407   5.912
 9142SOL     OW28324   0.577   3.889   6.403
 9142SOL    HW128325   0.604   3.797   6.429
 9142SOL    HW228326   0.481   3.903   6.425
 9143SOL     OW28327   5.178   3.497   0.686
 9143SOL    HW128328   5.244   3.497   0.611
 9143SOL    HW228329   5.096   3.548   0.659
 9144SOL     OW28330   1.955   4.627   5.006
 9144SOL    HW128331   2.042   4.626   5.055
 9144SOL    HW228332   1.963   4.571   4.923
 9145SOL     OW28333   0.236   4.446   6.633
 9145SOL    HW128334   0.247   4.440   6.534
 9145SOL    HW228335   0.151   4.401   6.661
 9146SOL     OW28336   6.523   2.147   2.006
 9146SOL    HW128337   6.524   2.235   1.958
 9146SOL    HW228338   6.478   2.158   2.095
 9147SOL     OW28339   4.500   6.157   5.925
 9147SOL    HW128340   4.521   6.253   5.904
 9147SOL    HW228341   4.454   6.115   5.847
 9148SOL     OW28342   4.162   6.163   3.024
 9148SOL    HW128343   4.144   6.183   2.927
 9148SOL    HW228344   4.240   6.217   3.055
 9149SOL     OW28345   5.729   3.396   3.854
 9149SOL    HW128346   5.633   3.422   3.863
 9149SOL    HW228347   5.787   3.473   3.881
 9150SOL     OW28348   4.923   1.080   3.090
 9150SOL    HW128349   4.862   1.001   3.094
 9150SOL    HW228350   4.872   1.163   3.110
 9151SOL     OW28351   1.495   4.001   2.077
 9151SOL    HW128352   1.445   4.040   2.154
 9151SOL    HW228353   1.590   3.983   2.104
 9152SOL     OW28354   2.622   5.892   2.512
 9152SOL    HW128355   2.553   5.859   2.576
 9152SOL    HW228356   2.592   5.877   2.418
 9153SOL     OW28357   1.461   3.001   6.059
 9153SOL    HW128358   1.395   2.926   6.062
 9153SOL    HW228359   1.447   3.055   5.976
 9154SOL     OW28360   2.289   5.962   0.608
 9154SOL    HW128361   2.346   6.032   0.565
 9154SOL    HW228362   2.326   5.872   0.587
 9155SOL     OW28363   1.371   4.037   0.475
 9155SOL    HW128364   1.388   4.068   0.569
 9155SOL    HW228365   1.373   3.937   0.473
 9156SOL     OW28366   4.847   2.514   1.703
 9156SOL    HW128367   4.790   2.579   1.652
 9156SOL    HW228368   4.889   2.560   1.781
 9157SOL     OW28369   5.271   3.971   5.463
 9157SOL    HW128370   5.172   3.957   5.477
 9157SOL    HW228371   5.296   3.941   5.371
 9158SOL     OW28372   0.878   4.066   3.662
 9158SOL    HW128373   0.942   4.047   3.588
 9158SOL    HW228374   0.799   4.006   3.654
 9159SOL     OW28375   6.940   4.338   3.283
 9159SOL    HW128376   6.969   4.378   3.196
 9159SOL    HW228377   6.846   4.366   3.304
 9160SOL     OW28378   6.692   6.811   6.461
 9160SOL    HW128379   6.763   6.858   6.408
 9160SOL    HW228380   6.718   6.716   6.475
 9161SOL     OW28381   5.153   3.791   4.384
 9161SOL    HW128382   5.070   3.793   4.439
 9161SOL    HW228383   5.140   3.845   4.301
 9162SOL     OW28384   4.886   2.405   2.745
 9162SOL    HW128385   4.884   2.479   2.812
 9162SOL    HW228386   4.831   2.431   2.666
 9163SOL     OW28387   3.122   1.934   3.861
 9163SOL    HW128388   3.068   1.919   3.944
 9163SOL    HW228389   3.219   1.930   3.883
 9164SOL     OW28390   3.405   0.352   0.479
 9164SOL    HW128391   3.427   0.344   0.382
 9164SOL    HW228392   3.436   0.271   0.528
 9165SOL     OW28393   5.897   6.729   0.088
 9165SOL    HW128394   5.821   6.743   0.024
 9165SOL    HW228395   5.863   6.735   0.182
 9166SOL     OW28396   3.159   5.581   1.202
 9166SOL    HW128397   3.079   5.549   1.151
 9166SOL    HW228398   3.202   5.657   1.153
 9167SOL     OW28399   1.439   4.504   5.167
 9167SOL    HW128400   1.346   4.495   5.131
 9167SOL    HW228401   1.488   4.576   5.117
 9168SOL     OW28402   2.127   0.366   6.570
 9168SOL    HW128403   2.175   0.367   6.482
 9168SOL    HW228404   2.191   0.388   6.643
 9169SOL     OW28405   6.981   0.087   3.664
 9169SOL    HW128406   6.997   0.019   3.735
 9169SOL    HW228407   0.039   0.138   3.646
 9170SOL     OW28408   6.345   6.020   6.819
 9170SOL    HW128409   6.337   6.116   6.847
 9170SOL    HW228410   6.442   5.998   6.805
 9171SOL     OW28411   2.534   5.905   6.543
 9171SOL    HW128412   2.503   5.810   6.547
 9171SOL    HW228413   2.515   5.949   6.630
 9172SOL     OW28414   2.927   1.902   4.069
 9172SOL    HW128415   2.873   1.846   4.006
 9172SOL    HW228416   2.909   1.999   4.051
 9173SOL     OW28417   0.599   5.447   4.516
 9173SOL    HW128418   0.668   5.433   4.445
 9173SOL    HW228419   0.640   5.428   4.605
 9174SOL     OW28420   0.690   4.855   0.825
 9174SOL    HW128421   0.740   4.832   0.742
 9174SOL    HW228422   0.667   4.771   0.875
 9175SOL     OW28423   1.697   6.311   5.669
 9175SOL    HW128424   1.769   6.368   5.627
 9175SOL    HW228425   1.617   6.310   5.609
 9176SOL     OW28426   2.445   0.856   5.912
 9176SOL    HW128427   2.476   0.793   5.841
 9176SOL    HW228428   2.501   0.843   5.995
 9177SOL     OW28429   0.794   5.151   4.012
 9177SOL    HW128430   0.875   5.101   4.040
 9177SOL    HW228431   0.773   5.130   3.916
 9178SOL     OW28432   2.804   4.721   0.035
 9178SOL    HW128433   2.846   4.634   0.057
 9178SOL    HW228434   2.727   4.738   0.097
 9179SOL     OW28435   3.311   5.172   4.381
 9179SOL    HW128436   3.220   5.163   4.421
 9179SOL    HW228437   3.376   5.199   4.451
 9180SOL     OW28438   5.156   1.826   3.050
 9180SOL    HW128439   5.088   1.884   3.004
 9180SOL    HW228440   5.110   1.768   3.117
 9181SOL     OW28441   4.346   1.567   2.533
 9181SOL    HW128442   4.364   1.664   2.547
 9181SOL    HW228443   4.310   1.527   2.617
 9182SOL     OW28444   1.281   6.633   1.471
 9182SOL    HW128445   1.342   6.669   1.542
 9182SOL    HW228446   1.241   6.709   1.420
 9183SOL     OW28447   5.190   6.268   0.259
 9183SOL    HW128448   5.269   6.308   0.212
 9183SOL    HW228449   5.214   6.177   0.292
 9184SOL     OW28450   5.110   0.236   0.378
 9184SOL    HW128451   5.023   0.186   0.378
 9184SOL    HW228452   5.138   0.253   0.283
 9185SOL     OW28453   3.867   1.229   5.218
 9185SOL    HW128454   3.819   1.221   5.130
 9185SOL    HW228455   3.937   1.301   5.211
 9186SOL     OW28456   5.432   0.673   6.371
 9186SOL    HW128457   5.475   0.759   6.345
 9186SOL    HW228458   5.392   0.630   6.289
 9187SOL     OW28459   2.292   6.054   2.140
 9187SOL    HW128460   2.226   6.028   2.211
 9187SOL    HW228461   2.295   6.154   2.132
 9188SOL     OW28462   2.656   6.142   0.981
 9188SOL    HW128463   2.714   6.145   0.899
 9188SOL    HW228464   2.714   6.142   1.062
 9189SOL     OW28465   5.331   5.484   2.285
 9189SOL    HW128466   5.245   5.432   2.288
 9189SOL    HW228467   5.401   5.435   2.336
 9190SOL     OW28468   1.926   5.228   0.289
 9190SOL    HW128469   1.992   5.285   0.337
 9190SOL    HW228470   1.835   5.266   0.299
 9191SOL     OW28471   0.161   0.439   6.155
 9191SOL    HW128472   0.171   0.470   6.060
 9191SOL    HW228473   0.067   0.408   6.169
 9192SOL     OW28474   0.083   4.246   4.145
 9192SOL    HW128475   0.024   4.172   4.176
 9192SOL    HW228476   0.160   4.209   4.094
 9193SOL     OW28477   2.590   3.215   6.713
 9193SOL    HW128478   2.640   3.289   6.669
 9193SOL    HW228479   2.648   3.173   6.783
 9194SOL     OW28480   3.931   0.470   3.904
 9194SOL    HW128481   4.007   0.440   3.847
 9194SOL    HW228482   3.896   0.557   3.870
 9195SOL     OW28483   1.882   1.687   3.637
 9195SOL    HW128484   1.801   1.629   3.643
 9195SOL    HW228485   1.964   1.629   3.632
 9196SOL     OW28486   4.968   2.619   5.289
 9196SOL    HW128487   4.961   2.522   5.311
 9196SOL    HW228488   4.928   2.673   5.363
 9197SOL     OW28489   2.261   3.633   1.708
 9197SOL    HW128490   2.246   3.723   1.748
 9197SOL    HW228491   2.246   3.562   1.777
 9198SOL     OW28492   6.816   4.844   4.384
 9198SOL    HW128493   6.821   4.777   4.309
 9198SOL    HW228494   6.907   4.857   4.423
 9199SOL     OW28495   6.295   4.363   4.677
 9199SOL    HW128496   6.370   4.416   4.716
 9199SOL    HW228497   6.331   4.279   4.635
 9200SOL     OW28498   2.782   6.964   0.592
 9200SOL    HW128499   2.854   6.895   0.598
 9200SOL    HW228500   2.819   0.027   0.617
 9201SOL     OW28501   1.651   4.209   0.323
 9201SOL    HW128502   1.647   4.111   0.306
 9201SOL    HW228503   1.741   4.234   0.358
 9202SOL     OW28504   2.229   0.469   3.051
 9202SOL    HW128505   2.287   0.443   3.128
 9202SOL    HW228506   2.245   0.406   2.975
 9203SOL     OW28507   6.933   6.752   1.026
 9203SOL    HW128508   6.909   6.679   1.089
 9203SOL    HW228509   6.935   6.717   0.932
 9204SOL     OW28510   5.114   1.197   5.792
 9204SOL    HW128511   5.018   1.188   5.819
 9204SOL    HW228512   5.162   1.112   5.811
 9205SOL     OW28513   0.137   4.130   1.744
 9205SOL    HW128514   0.074   4.131   1.822
 9205SOL    HW228515   0.231   4.138   1.777
 9206SOL     OW28516   3.437   5.834   0.587
 9206SOL    HW128517   3.382   5.795   0.661
 9206SOL    HW228518   3.528   5.795   0.589
 9207SOL     OW28519   4.731   5.624   6.627
 9207SOL    HW128520   4.824   5.633   6.663
 9207SOL    HW228521   4.707   5.707   6.577
 9208SOL     OW28522   1.099   3.632   3.060
 9208SOL    HW128523   1.177   3.627   2.997
 9208SOL    HW228524   1.133   3.630   3.154
 9209SOL     OW28525   2.905   0.621   6.524
 9209SOL    HW128526   2.912   0.651   6.429
 9209SOL    HW228527   2.809   0.610   6.549
 9210SOL     OW28528   0.147   0.711   3.270
 9210SOL    HW128529   0.219   0.651   3.236
 9210SOL    HW228530   0.101   0.754   3.193
 9211SOL     OW28531   0.845   1.546   2.650
 9211SOL    HW128532   0.762   1.592   2.618
 9211SOL    HW228533   0.898   1.514   2.571
 9212SOL     OW28534   3.085   4.893   4.047
 9212SOL    HW128535   3.007   4.848   4.090
 9212SOL    HW228536   3.060   4.986   4.022
 9213SOL     OW28537   5.692   3.850   6.714
 9213SOL    HW128538   5.643   3.893   6.638
 9213SOL    HW228539   5.777   3.901   6.732
 9214SOL     OW28540   0.095   4.968   0.872
 9214SOL    HW128541   0.146   4.885   0.897
 9214SOL    HW228542   0.055   5.009   0.953
 9215SOL     OW28543   0.666   1.263   0.827
 9215SOL    HW128544   0.751   1.313   0.848
 9215SOL    HW228545   0.687   1.166   0.814
 9216SOL     OW28546   2.413   6.680   3.155
 9216SOL    HW128547   2.491   6.624   3.183
 9216SOL    HW228548   2.435   6.725   3.068
 9217SOL     OW28549   1.005   2.329   6.665
 9217SOL    HW128550   1.101   2.308   6.650
 9217SOL    HW228551   0.994   2.428   6.675
 9218SOL     OW28552   2.626   0.507   0.730
 9218SOL    HW128553   2.674   0.547   0.652
 9218SOL    HW228554   2.597   0.414   0.707
 9219SOL     OW28555   0.172   2.038   0.912
 9219SOL    HW128556   0.109   1.962   0.926
 9219SOL    HW228557   0.129   2.107   0.855
 9220SOL     OW28558   3.288   6.547   1.945
 9220SOL    HW128559   3.286   6.646   1.960
 9220SOL    HW228560   3.379   6.513   1.966
 9221SOL     OW28561   3.021   5.569   4.291
 9221SOL    HW128562   3.050   5.614   4.375
 9221SOL    HW228563   2.923   5.546   4.297
 9222SOL     OW28564   2.494   2.321   5.894
 9222SOL    HW128565   2.578   2.311   5.947
 9222SOL    HW228566   2.499   2.265   5.812
 9223SOL     OW28567   2.714   3.164   5.302
 9223SOL    HW128568   2.676   3.170   5.395
 9223SOL    HW228569   2.639   3.160   5.236
 9224SOL     OW28570   2.516   4.841   5.238
 9224SOL    HW128571   2.580   4.768   5.263
 9224SOL    HW228572   2.486   4.828   5.143
 9225SOL     OW28573   1.839   6.441   6.862
 9225SOL    HW128574   1.763   6.461   6.800
 9225SOL    HW228575   1.883   6.356   6.833
 9226SOL     OW28576   3.974   6.766   1.263
 9226SOL    HW128577   4.032   6.783   1.184
 9226SOL    HW228578   4.019   6.704   1.326
 9227SOL     OW28579   1.667   6.120   2.390
 9227SOL    HW128580   1.738   6.187   2.368
 9227SOL    HW228581   1.709   6.031   2.410
 9228SOL     OW28582   0.804   6.944   6.520
 9228SOL    HW128583   0.715   6.905   6.495
 9228SOL    HW228584   0.842   6.993   6.442
 9229SOL     OW28585   0.605   5.064   5.487
 9229SOL    HW128586   0.585   5.043   5.583
 9229SOL    HW228587   0.641   4.982   5.442
 9230SOL     OW28588   5.727   0.116   4.156
 9230SOL    HW128589   5.702   0.142   4.063
 9230SOL    HW228590   5.765   0.196   4.204
 9231SOL     OW28591   1.691   2.639   3.252
 9231SOL    HW128592   1.775   2.611   3.297
 9231SOL    HW228593   1.693   2.610   3.156
 9232SOL     OW28594   3.891   4.613   1.296
 9232SOL    HW128595   3.796   4.609   1.266
 9232SOL    HW228596   3.905   4.693   1.355
 9233SOL     OW28597   4.832   4.712   0.962
 9233SOL    HW128598   4.781   4.778   1.017
 9233SOL    HW228599   4.768   4.647   0.920
 9234SOL     OW28600   2.171   6.069   3.809
 9234SOL    HW128601   2.087   6.110   3.772
 9234SOL    HW228602   2.221   6.138   3.862
 9235SOL     OW28603   0.747   2.193   3.392
 9235SOL    HW128604   0.704   2.282   3.388
 9235SOL    HW228605   0.810   2.182   3.315
 9236SOL     OW28606   3.432   2.815   5.902
 9236SOL    HW128607   3.345   2.831   5.949
 9236SOL    HW228608   3.418   2.823   5.803
 9237SOL     OW28609   1.807   3.404   3.690
 9237SOL    HW128610   1.735   3.457   3.737
 9237SOL    HW228611   1.769   3.316   3.661
 9238SOL     OW28612   4.293   3.025   6.149
 9238SOL    HW128613   4.316   3.068   6.237
 9238SOL    HW228614   4.331   2.933   6.146
 9239SOL     OW28615   1.926   4.024   0.590
 9239SOL    HW128616   1.998   4.094   0.595
 9239SOL    HW228617   1.921   3.989   0.497
 9240SOL     OW28618   4.883   1.051   2.345
 9240SOL    HW128619   4.937   1.015   2.421
 9240SOL    HW228620   4.814   0.984   2.317
 9241SOL     OW28621   0.729   5.834   6.273
 9241SOL    HW128622   0.774   5.804   6.357
 9241SOL    HW228623   0.790   5.818   6.196
 9242SOL     OW28624   6.901   6.057   1.719
 9242SOL    HW128625   6.871   6.126   1.786
 9242SOL    HW228626   6.825   5.996   1.698
 9243SOL     OW28627   6.210   5.999   4.690
 9243SOL    HW128628   6.125   5.970   4.647
 9243SOL    HW228629   6.200   5.995   4.790
 9244SOL     OW28630   3.719   5.052   6.449
 9244SOL    HW128631   3.708   5.015   6.357
 9244SOL    HW228632   3.801   5.012   6.491
 9245SOL     OW28633   0.723   5.207   1.231
 9245SOL    HW128634   0.653   5.148   1.273
 9245SOL    HW228635   0.691   5.238   1.142
 9246SOL     OW28636   0.033   4.936   4.441
 9246SOL    HW128637   7.013   5.021   4.414
 9246SOL    HW228638   0.124   4.956   4.475
 9247SOL     OW28639   1.883   6.592   2.358
 9247SOL    HW128640   1.786   6.581   2.334
 9247SOL    HW228641   1.889   6.628   2.451
 9248SOL     OW28642   2.987   1.321   6.400
 9248SOL    HW128643   3.061   1.365   6.450
 9248SOL    HW228644   2.906   1.315   6.459
 9249SOL     OW28645   4.617   0.408   3.851
 9249SOL    HW128646   4.574   0.402   3.761
 9249SOL    HW228647   4.695   0.471   3.847
 9250SOL     OW28648   5.286   3.665   3.962
 9250SOL    HW128649   5.299   3.605   4.041
 9250SOL    HW228650   5.203   3.720   3.976
 9251SOL     OW28651   3.323   2.073   2.558
 9251SOL    HW128652   3.322   1.994   2.619
 9251SOL    HW228653   3.271   2.148   2.600
 9252SOL     OW28654   1.273   0.055   4.609
 9252SOL    HW128655   1.302   0.064   4.513
 9252SOL    HW228656   1.283   6.986   4.638
 9253SOL     OW28657   1.440   6.685   5.603
 9253SOL    HW128658   1.517   6.744   5.627
 9253SOL    HW228659   1.354   6.728   5.632
 9254SOL     OW28660   5.724   3.503   1.299
 9254SOL    HW128661   5.728   3.407   1.269
 9254SOL    HW228662   5.638   3.519   1.346
 9255SOL     OW28663   6.133   4.470   0.793
 9255SOL    HW128664   6.077   4.497   0.871
 9255SOL    HW228665   6.087   4.396   0.743
 9256SOL     OW28666   4.264   4.964   1.619
 9256SOL    HW128667   4.281   4.914   1.703
 9256SOL    HW228668   4.192   5.032   1.633
 9257SOL     OW28669   0.985   4.141   1.065
 9257SOL    HW128670   1.070   4.115   1.112
 9257SOL    HW228671   0.999   4.137   0.966
 9258SOL     OW28672   3.905   3.705   3.835
 9258SOL    HW128673   3.928   3.780   3.772
 9258SOL    HW228674   3.845   3.739   3.907
 9259SOL     OW28675   0.589   2.741   0.229
 9259SOL    HW128676   0.595   2.806   0.305
 9259SOL    HW228677   0.634   2.655   0.256
 9260SOL     OW28678   5.516   3.691   6.409
 9260SOL    HW128679   5.422   3.700   6.375
 9260SOL    HW228680   5.558   3.782   6.415
 9261SOL     OW28681   4.638   6.900   6.917
 9261SOL    HW128682   4.615   6.996   6.931
 9261SOL    HW228683   4.725   6.879   6.962
 9262SOL     OW28684   4.552   1.080   5.376
 9262SOL    HW128685   4.468   1.133   5.388
 9262SOL    HW228686   4.589   1.096   5.284
 9263SOL     OW28687   5.268   3.779   1.663
 9263SOL    HW128688   5.287   3.810   1.756
 9263SOL    HW228689   5.266   3.679   1.662
 9264SOL     OW28690   6.454   3.501   0.321
 9264SOL    HW128691   6.498   3.426   0.272
 9264SOL    HW228692   6.439   3.577   0.257
 9265SOL     OW28693   1.901   0.758   6.217
 9265SOL    HW128694   1.876   0.810   6.299
 9265SOL    HW228695   1.884   0.814   6.136
 9266SOL     OW28696   1.916   6.299   2.342
 9266SOL    HW128697   1.925   6.398   2.341
 9266SOL    HW228698   1.962   6.260   2.262
 9267SOL     OW28699   2.217   4.648   5.173
 9267SOL    HW128700   2.277   4.571   5.193
 9267SOL    HW228701   2.208   4.706   5.254
 9268SOL     OW28702   0.038   0.643   2.645
 9268SOL    HW128703   0.044   0.741   2.626
 9268SOL    HW228704   0.112   0.615   2.706
 9269SOL     OW28705   3.806   1.175   5.774
 9269SOL    HW128706   3.827   1.091   5.824
 9269SOL    HW228707   3.759   1.153   5.689
 9270SOL     OW28708   0.452   6.988   5.814
 9270SOL    HW128709   0.415   7.018   5.902
 9270SOL    HW228710   0.530   0.018   5.790
 9271SOL     OW28711   1.316   4.893   0.003
 9271SOL    HW128712   1.322   4.992   0.016
 9271SOL    HW228713   1.294   4.849   0.090
 9272SOL     OW28714   2.594   4.546   6.520
 9272SOL    HW128715   2.496   4.534   6.507
 9272SOL    HW228716   2.620   4.638   6.492
 9273SOL     OW28717   3.795   6.293   5.471
 9273SOL    HW128718   3.805   6.245   5.384
 9273SOL    HW228719   3.853   6.249   5.540
 9274SOL     OW28720   5.989   1.638   0.282
 9274SOL    HW128721   6.030   1.572   0.345
 9274SOL    HW228722   6.053   1.713   0.266
 9275SOL     OW28723   1.346   0.477   6.549
 9275SOL    HW128724   1.368   0.414   6.624
 9275SOL    HW228725   1.356   0.571   6.581
 9276SOL     OW28726   4.464   6.368   4.938
 9276SOL    HW128727   4.444   6.363   4.840
 9276SOL    HW228728   4.414   6.296   4.986
 9277SOL     OW28729   3.372   3.169   0.361
 9277SOL    HW128730   3.301   3.119   0.312
 9277SOL    HW228731   3.442   3.105   0.392
 9278SOL     OW28732   1.286   2.244   1.709
 9278SOL    HW128733   1.354   2.247   1.782
 9278SOL    HW228734   1.332   2.247   1.621
 9279SOL     OW28735   3.307   0.135   1.959
 9279SOL    HW128736   3.297   0.231   1.936
 9279SOL    HW228737   3.254   0.079   1.895
 9280SOL     OW28738   2.291   0.206   3.379
 9280SOL    HW128739   2.302   0.289   3.324
 9280SOL    HW228740   2.264   0.130   3.320
 9281SOL     OW28741   1.863   2.256   0.330
 9281SOL    HW128742   1.811   2.175   0.357
 9281SOL    HW228743   1.959   2.231   0.314
 9282SOL     OW28744   4.586   2.101   6.175
 9282SOL    HW128745   4.487   2.108   6.185
 9282SOL    HW228746   4.623   2.041   6.246
 9283SOL     OW28747   5.733   2.451   2.199
 9283SOL    HW128748   5.660   2.436   2.133
 9283SOL    HW228749   5.787   2.530   2.172
 9284SOL     OW28750   3.017   3.531   1.657
 9284SOL    HW128751   3.097   3.518   1.600
 9284SOL    HW228752   2.969   3.444   1.670
 9285SOL     OW28753   6.077   2.956   6.736
 9285SOL    HW128754   6.043   3.050   6.740
 9285SOL    HW228755   6.122   2.933   6.822
 9286SOL     OW28756   5.592   6.457   5.481
 9286SOL    HW128757   5.514   6.395   5.490
 9286SOL    HW228758   5.670   6.419   5.529
 9287SOL     OW28759   3.154   6.478   1.725
 9287SOL    HW128760   3.227   6.479   1.657
 9287SOL    HW228761   3.189   6.510   1.813
 9288SOL     OW28762   4.858   2.705   6.060
 9288SOL    HW128763   4.900   2.774   6.001
 9288SOL    HW228764   4.792   2.652   6.006
 9289SOL     OW28765   4.866   3.164   3.246
 9289SOL    HW128766   4.845   3.257   3.277
 9289SOL    HW228767   4.864   3.101   3.323
 9290SOL     OW28768   4.769   2.174   5.083
 9290SOL    HW128769   4.768   2.085   5.129
 9290SOL    HW228770   4.863   2.205   5.073
 9291SOL     OW28771   0.841   1.964   5.215
 9291SOL    HW128772   0.805   1.892   5.155
 9291SOL    HW228773   0.909   2.018   5.164
 9292SOL     OW28774   0.090   3.499   6.566
 9292SOL    HW128775   0.125   3.433   6.500
 9292SOL    HW228776   7.019   3.514   6.550
 9293SOL     OW28777   5.334   4.285   6.747
 9293SOL    HW128778   5.331   4.311   6.843
 9293SOL    HW228779   5.323   4.186   6.739
 9294SOL     OW28780   6.299   6.267   6.896
 9294SOL    HW128781   6.341   6.350   6.932
 9294SOL    HW228782   6.202   6.265   6.921
 9295SOL     OW28783   4.738   1.789   3.572
 9295SOL    HW128784   4.721   1.693   3.551
 9295SOL    HW228785   4.661   1.845   3.541
 9296SOL     OW28786   6.139   0.121   5.790
 9296SOL    HW128787   6.041   0.104   5.784
 9296SOL    HW228788   6.164   0.137   5.886
 9297SOL     OW28789   0.723   1.299   0.478
 9297SOL    HW128790   0.747   1.214   0.432
 9297SOL    HW228791   0.643   1.283   0.537
 9298SOL     OW28792   1.075   6.185   4.904
 9298SOL    HW128793   1.136   6.113   4.870
 9298SOL    HW228794   0.996   6.193   4.843
 9299SOL     OW28795   2.275   3.077   4.334
 9299SOL    HW128796   2.279   3.001   4.269
 9299SOL    HW228797   2.284   3.042   4.427
 9300SOL     OW28798   5.639   4.547   4.327
 9300SOL    HW128799   5.566   4.485   4.298
 9300SOL    HW228800   5.599   4.633   4.360
 9301SOL     OW28801   5.469   4.144   2.708
 9301SOL    HW128802   5.564   4.116   2.697
 9301SOL    HW228803   5.464   4.242   2.728
 9302SOL     OW28804   2.319   1.825   2.399
 9302SOL    HW128805   2.391   1.874   2.350
 9302SOL    HW228806   2.230   1.849   2.361
 9303SOL     OW28807   3.696   5.346   0.505
 9303SOL    HW128808   3.789   5.362   0.538
 9303SOL    HW228809   3.663   5.259   0.539
 9304SOL     OW28810   3.822   3.104   0.953
 9304SOL    HW128811   3.856   3.020   0.911
 9304SOL    HW228812   3.775   3.083   1.038
 9305SOL     OW28813   5.481   2.838   2.151
 9305SOL    HW128814   5.503   2.796   2.063
 9305SOL    HW228815   5.424   2.776   2.205
 9306SOL     OW28816   0.003   4.232   3.812
 9306SOL    HW128817   6.965   4.293   3.859
 9306SOL    HW228818   6.986   4.143   3.798
 9307SOL     OW28819   2.055   1.445   6.609
 9307SOL    HW128820   2.141   1.469   6.655
 9307SOL    HW228821   1.997   1.394   6.673
 9308SOL     OW28822   6.663   2.877   1.078
 9308SOL    HW128823   6.652   2.821   1.159
 9308SOL    HW228824   6.693   2.969   1.104
 9309SOL     OW28825   4.764   3.553   6.944
 9309SOL    HW128826   4.827   3.530   6.870
 9309SOL    HW228827   4.751   3.472   7.003
 9310SOL     OW28828   4.288   6.086   0.216
 9310SOL    HW128829   4.208   6.146   0.216
 9310SOL    HW228830   4.298   6.044   0.307
 9311SOL     OW28831   6.196   2.888   0.673
 9311SOL    HW128832   6.166   2.919   0.763
 9311SOL    HW228833   6.294   2.869   0.675
 9312SOL     OW28834   1.197   4.733   6.047
 9312SOL    HW128835   1.243   4.723   6.135
 9312SOL    HW228836   1.160   4.644   6.018
 9313SOL     OW28837   6.560   6.926   3.031
 9313SOL    HW128838   6.483   6.950   2.972
 9313SOL    HW228839   6.607   6.847   2.993
 9314SOL     OW28840   5.165   4.805   0.149
 9314SOL    HW128841   5.237   4.837   0.087
 9314SOL    HW228842   5.076   4.837   0.116
 9315SOL     OW28843   6.773   6.537   6.498
 9315SOL    HW128844   6.704   6.513   6.431
 9315SOL    HW228845   6.744   6.505   6.589
 9316SOL     OW28846   3.765   5.777   3.677
 9316SOL    HW128847   3.741   5.858   3.730
 9316SOL    HW228848   3.777   5.699   3.739
 9317SOL     OW28849   6.140   4.246   4.030
 9317SOL    HW128850   6.086   4.285   4.105
 9317SOL    HW228851   6.227   4.294   4.022
 9318SOL     OW28852   6.785   0.138   6.420
 9318SOL    HW128853   6.761   0.117   6.514
 9318SOL    HW228854   6.710   0.114   6.359
 9319SOL     OW28855   0.128   3.058   5.003
 9319SOL    HW128856   0.100   2.964   4.982
 9319SOL    HW228857   0.086   3.087   5.089
 9320SOL     OW28858   4.901   2.774   6.486
 9320SOL    HW128859   4.968   2.734   6.423
 9320SOL    HW228860   4.946   2.801   6.571
 9321SOL     OW28861   6.761   5.613   3.382
 9321SOL    HW128862   6.674   5.609   3.432
 9321SOL    HW228863   6.826   5.551   3.425
 9322SOL     OW28864   0.742   6.175   6.889
 9322SOL    HW128865   0.794   6.258   6.871
 9322SOL    HW228866   0.785   6.123   6.963
 9323SOL     OW28867   0.089   1.503   5.816
 9323SOL    HW128868   0.109   1.443   5.893
 9323SOL    HW228869   0.088   1.598   5.847
 9324SOL     OW28870   1.600   5.844   6.913
 9324SOL    HW128871   1.688   5.821   6.954
 9324SOL    HW228872   1.571   5.935   6.944
 9325SOL     OW28873   6.401   2.534   0.880
 9325SOL    HW128874   6.495   2.503   0.866
 9325SOL    HW228875   6.402   2.621   0.930
 9326SOL     OW28876   2.449   6.303   1.056
 9326SOL    HW128877   2.447   6.318   1.155
 9326SOL    HW228878   2.526   6.245   1.032
 9327SOL     OW28879   4.020   1.020   3.326
 9327SOL    HW128880   4.080   1.100   3.334
 9327SOL    HW228881   4.074   0.940   3.298
 9328SOL     OW28882   3.133   1.032   2.293
 9328SOL    HW128883   3.067   1.068   2.226
 9328SOL    HW228884   3.222   1.073   2.277
 9329SOL     OW28885   1.547   3.672   1.624
 9329SOL    HW128886   1.570   3.596   1.684
 9329SOL    HW228887   1.447   3.684   1.622
 9330SOL     OW28888   5.517   0.540   0.125
 9330SOL    HW128889   5.512   0.464   0.190
 9330SOL    HW228890   5.467   0.619   0.162
 9331SOL     OW28891   0.801   1.265   0.006
 9331SOL    HW128892   0.874   1.294   0.067
 9331SOL    HW228893   0.818   1.171   7.002
 9332SOL     OW28894   3.649   3.412   4.466
 9332SOL    HW128895   3.627   3.345   4.536
 9332SOL    HW228896   3.743   3.398   4.435
 9333SOL     OW28897   5.864   5.171   0.753
 9333SOL    HW128898   5.887   5.075   0.736
 9333SOL    HW228899   5.770   5.177   0.788
 9334SOL     OW28900   2.999   7.008   4.793
 9334SOL    HW128901   3.072   6.962   4.844
 9334SOL    HW228902   2.910   6.983   4.831
 9335SOL     OW28903   0.929   1.095   0.718
 9335SOL    HW128904   0.995   1.043   0.772
 9335SOL    HW228905   0.860   1.032   0.680
 9336SOL     OW28906   3.522   6.792   5.674
 9336SOL    HW128907   3.455   6.831   5.611
 9336SOL    HW228908   3.546   6.861   5.743
 9337SOL     OW28909   5.099   0.416   2.691
 9337SOL    HW128910   5.156   0.380   2.766
 9337SOL    HW228911   5.023   0.353   2.674
 9338SOL     OW28912   3.390   6.908   1.591
 9338SOL    HW128913   3.297   6.890   1.560
 9338SOL    HW228914   3.399   7.004   1.616
 9339SOL     OW28915   4.383   6.274   0.919
 9339SOL    HW128916   4.345   6.361   0.888
 9339SOL    HW228917   4.469   6.257   0.871
 9340SOL     OW28918   6.021   3.560   0.261
 9340SOL    HW128919   6.064   3.570   0.351
 9340SOL    HW228920   6.079   3.503   0.203
 9341SOL     OW28921   6.954   4.856   6.059
 9341SOL    HW128922   7.022   4.858   5.986
 9341SOL    HW228923   6.972   4.930   6.124
 9342SOL     OW28924   1.078   6.046   5.786
 9342SOL    HW128925   1.049   5.954   5.813
 9342SOL    HW228926   1.100   6.099   5.868
 9343SOL     OW28927   6.461   5.677   4.599
 9343SOL    HW128928   6.413   5.752   4.554
 9343SOL    HW228929   6.556   5.676   4.569
 9344SOL     OW28930   4.807   6.741   1.442
 9344SOL    HW128931   4.770   6.710   1.354
 9344SOL    HW228932   4.787   6.673   1.513
 9345SOL     OW28933   6.816   2.716   0.756
 9345SOL    HW128934   6.789   2.812   0.763
 9345SOL    HW228935   6.775   2.664   0.831
 9346SOL     OW28936   5.959   0.354   0.356
 9346SOL    HW128937   5.960   0.442   0.309
 9346SOL    HW228938   5.911   0.286   0.300
 9347SOL     OW28939   1.639   6.564   1.925
 9347SOL    HW128940   1.613   6.604   1.836
 9347SOL    HW228941   1.690   6.632   1.977
 9348SOL     OW28942   3.229   4.656   6.779
 9348SOL    HW128943   3.174   4.660   6.696
 9348SOL    HW228944   3.199   4.728   6.842
 9349SOL     OW28945   1.978   6.495   2.757
 9349SOL    HW128946   1.971   6.572   2.693
 9349SOL    HW228947   1.938   6.414   2.715
 9350SOL     OW28948   0.712   2.999   6.055
 9350SOL    HW128949   0.799   3.034   6.019
 9350SOL    HW228950   0.730   2.932   6.127
 9351SOL     OW28951   2.725   1.493   6.827
 9351SOL    HW128952   2.682   1.583   6.815
 9351SOL    HW228953   2.800   1.500   6.892
 9352SOL     OW28954   2.553   4.533   5.662
 9352SOL    HW128955   2.583   4.628   5.668
 9352SOL    HW228956   2.467   4.527   5.612
 9353SOL     OW28957   6.410   0.334   1.047
 9353SOL    HW128958   6.376   0.378   0.965
 9353SOL    HW228959   6.436   0.239   1.026
 9354SOL     OW28960   0.620   1.794   6.662
 9354SOL    HW128961   0.645   1.891   6.671
 9354SOL    HW228962   0.685   1.738   6.713
 9355SOL     OW28963   0.687   1.697   5.669
 9355SOL    HW128964   0.783   1.726   5.677
 9355SOL    HW228965   0.648   1.736   5.586
 9356SOL     OW28966   5.375   6.760   3.161
 9356SOL    HW128967   5.348   6.770   3.256
 9356SOL    HW228968   5.353   6.668   3.129
 9357SOL     OW28969   0.861   1.912   0.029
 9357SOL    HW128970   0.793   1.842   0.006
 9357SOL    HW228971   0.887   1.962   6.972
 9358SOL     OW28972   0.363   2.958   1.605
 9358SOL    HW128973   0.397   3.033   1.662
 9358SOL    HW228974   0.408   2.873   1.631
 9359SOL     OW28975   0.990   6.988   5.413
 9359SOL    HW128976   0.946   6.913   5.363
 9359SOL    HW228977   0.953   6.992   5.505
 9360SOL     OW28978   1.145   0.252   5.734
 9360SOL    HW128979   1.073   0.294   5.791
 9360SOL    HW228980   1.206   0.199   5.792
 9361SOL     OW28981   1.938   6.127   3.697
 9361SOL    HW128982   1.877   6.137   3.776
 9361SOL    HW228983   1.943   6.031   3.670
 9362SOL     OW28984   2.096   0.006   1.842
 9362SOL    HW128985   2.192   7.004   1.842
 9362SOL    HW228986   2.037   6.952   1.841
 9363SOL     OW28987   1.909   4.888   2.696
 9363SOL    HW128988   2.001   4.865   2.726
 9363SOL    HW228989   1.909   4.975   2.648
 9364SOL     OW28990   1.298   2.833   1.252
 9364SOL    HW128991   1.307   2.829   1.153
 9364SOL    HW228992   1.335   2.919   1.286
 9365SOL     OW28993   3.065   1.345   4.578
 9365SOL    HW128994   2.990   1.352   4.645
 9365SOL    HW228995   3.026   1.330   4.487
 9366SOL     OW28996   4.199   5.842   2.259
 9366SOL    HW128997   4.110   5.795   2.262
 9366SOL    HW228998   4.226   5.869   2.351
 9367SOL     OW28999   6.874   0.841   1.628
 9367SOL    HW129000   6.860   0.751   1.587
 9367SOL    HW229001   6.924   0.899   1.563
 9368SOL     OW29002   2.638   0.394   3.127
 9368SOL    HW129003   2.707   0.381   3.198
 9368SOL    HW229004   2.585   0.310   3.116
 9369SOL     OW29005   3.390   5.184   0.374
 9369SOL    HW129006   3.457   5.128   0.327
 9369SOL    HW229007   3.405   5.178   0.473
 9370SOL     OW29008   4.789   1.882   4.912
 9370SOL    HW129009   4.743   1.926   4.834
 9370SOL    HW229010   4.746   1.794   4.931
 9371SOL     OW29011   4.477   5.676   0.967
 9371SOL    HW129012   4.542   5.752   0.977
 9371SOL    HW229013   4.521   5.591   0.995
 9372SOL     OW29014   4.514   6.403   1.634
 9372SOL    HW129015   4.515   6.305   1.657
 9372SOL    HW229016   4.485   6.455   1.715
 9373SOL     OW29017   6.826   2.434   1.332
 9373SOL    HW129018   6.832   2.447   1.233
 9373SOL    HW229019   6.805   2.339   1.352
 9374SOL     OW29020   0.363   5.594   5.817
 9374SOL    HW129021   0.355   5.676   5.874
 9374SOL    HW229022   0.332   5.615   5.724
 9375SOL     OW29023   0.646   1.009   0.112
 9375SOL    HW129024   0.576   0.943   0.140
 9375SOL    HW229025   0.602   1.085   0.064
 9376SOL     OW29026   2.241   4.106   1.467
 9376SOL    HW129027   2.303   4.179   1.438
 9376SOL    HW229028   2.207   4.057   1.387
 9377SOL     OW29029   1.555   1.197   3.198
 9377SOL    HW129030   1.456   1.211   3.197
 9377SOL    HW229031   1.576   1.117   3.253
 9378SOL     OW29032   3.773   1.244   4.940
 9378SOL    HW129033   3.839   1.181   4.899
 9378SOL    HW229034   3.682   1.225   4.904
 9379SOL     OW29035   5.107   6.620   4.273
 9379SOL    HW129036   5.023   6.642   4.223
 9379SOL    HW229037   5.114   6.520   4.283
 9380SOL     OW29038   5.442   5.437   0.192
 9380SOL    HW129039   5.507   5.399   0.126
 9380SOL    HW229040   5.493   5.480   0.267
 9381SOL     OW29041   5.813   1.558   5.324
 9381SOL    HW129042   5.817   1.585   5.228
 9381SOL    HW229043   5.891   1.499   5.345
 9382SOL     OW29044   3.217   5.356   5.718
 9382SOL    HW129045   3.167   5.438   5.746
 9382SOL    HW229046   3.244   5.366   5.622
 9383SOL     OW29047   5.963   4.082   2.711
 9383SOL    HW129048   5.960   4.179   2.732
 9383SOL    HW229049   5.878   4.054   2.666
 9384SOL     OW29050   3.075   0.676   1.862
 9384SOL    HW129051   3.036   0.712   1.777
 9384SOL    HW229052   3.144   0.739   1.896
 9385SOL     OW29053   4.661   1.679   3.891
 9385SOL    HW129054   4.734   1.631   3.842
 9385SOL    HW229055   4.700   1.749   3.951
 9386SOL     OW29056   4.937   6.042   0.387
 9386SOL    HW129057   5.021   5.996   0.415
 9386SOL    HW229058   4.861   6.009   0.443
 9387SOL     OW29059   2.867   1.518   0.350
 9387SOL    HW129060   2.908   1.530   0.259
 9387SOL    HW229061   2.934   1.545   0.420
 9388SOL     OW29062   2.349   0.210   5.345
 9388SOL    HW129063   2.341   0.298   5.297
 9388SOL    HW229064   2.277   0.149   5.313
 9389SOL     OW29065   2.052   4.632   2.083
 9389SOL    HW129066   2.087   4.606   2.173
 9389SOL    HW229067   2.015   4.551   2.037
 9390SOL     OW29068   5.018   5.211   4.356
 9390SOL    HW129069   4.987   5.172   4.269
 9390SOL    HW229070   5.104   5.260   4.342
 9391SOL     OW29071   1.457   3.860   4.410
 9391SOL    HW129072   1.536   3.820   4.456
 9391SOL    HW229073   1.477   3.872   4.313
 9392SOL     OW29074   4.965   4.780   2.936
 9392SOL    HW129075   5.037   4.749   2.998
 9392SOL    HW229076   4.986   4.872   2.904
 9393SOL     OW29077   2.200   6.311   6.075
 9393SOL    HW129078   2.132   6.352   6.015
 9393SOL    HW229079   2.169   6.220   6.103
 9394SOL     OW29080   3.926   0.793   0.376
 9394SOL    HW129081   3.855   0.825   0.313
 9394SOL    HW229082   4.010   0.845   0.360
 9395SOL     OW29083   1.394   1.883   1.034
 9395SOL    HW129084   1.481   1.851   1.071
 9395SOL    HW229085   1.397   1.881   0.934
 9396SOL     OW29086   0.702   0.224   6.211
 9396SOL    HW129087   0.738   0.131   6.219
 9396SOL    HW229088   0.717   0.258   6.118
 9397SOL     OW29089   3.519   0.919   4.992
 9397SOL    HW129090   3.462   0.932   4.912
 9397SOL    HW229091   3.490   0.982   5.065
 9398SOL     OW29092   0.572   2.155   0.048
 9398SOL    HW129093   0.490   2.114   0.088
 9398SOL    HW229094   0.631   2.188   0.122
 9399SOL     OW29095   0.958   2.509   4.616
 9399SOL    HW129096   0.911   2.578   4.561
 9399SOL    HW229097   0.940   2.528   4.713
 9400SOL     OW29098   5.618   1.780   1.287
 9400SOL    HW129099   5.702   1.797   1.236
 9400SOL    HW229100   5.620   1.687   1.324
 9401SOL     OW29101   0.274   2.422   3.794
 9401SOL    HW129102   0.367   2.437   3.762
 9401SOL    HW229103   0.266   2.456   3.888
 9402SOL     OW29104   2.581   6.621   4.590
 9402SOL    HW129105   2.499   6.601   4.645
 9402SOL    HW229106   2.553   6.642   4.496
 9403SOL     OW29107   5.341   2.366   1.353
 9403SOL    HW129108   5.301   2.405   1.271
 9403SOL    HW229109   5.292   2.399   1.434
 9404SOL     OW29110   2.457   2.144   0.874
 9404SOL    HW129111   2.414   2.055   0.892
 9404SOL    HW229112   2.404   2.217   0.916
 9405SOL     OW29113   6.391   5.812   5.559
 9405SOL    HW129114   6.297   5.847   5.550
 9405SOL    HW229115   6.387   5.714   5.578
 9406SOL     OW29116   0.606   2.265   0.389
 9406SOL    HW129117   0.663   2.287   0.468
 9406SOL    HW229118   0.588   2.166   0.387
 9407SOL     OW29119   2.300   4.949   4.791
 9407SOL    HW129120   2.391   4.973   4.756
 9407SOL    HW229121   2.309   4.882   4.864
 9408SOL     OW29122   6.599   3.981   4.107
 9408SOL    HW129123   6.602   3.919   4.029
 9408SOL    HW229124   6.582   3.928   4.190
 9409SOL     OW29125   6.466   5.296   1.874
 9409SOL    HW129126   6.497   5.373   1.931
 9409SOL    HW229127   6.407   5.331   1.801
 9410SOL     OW29128   3.813   0.738   0.663
 9410SOL    HW129129   3.827   0.801   0.587
 9410SOL    HW229130   3.883   0.752   0.732
 9411SOL     OW29131   3.089   3.890   3.696
 9411SOL    HW129132   3.039   3.904   3.781
 9411SOL    HW229133   3.157   3.963   3.685
 9412SOL     OW29134   4.791   6.632   1.872
 9412SOL    HW129135   4.888   6.637   1.894
 9412SOL    HW229136   4.759   6.723   1.845
 9413SOL     OW29137   4.704   4.127   2.975
 9413SOL    HW129138   4.803   4.112   2.983
 9413SOL    HW229139   4.657   4.039   2.977
 9414SOL     OW29140   2.396   2.487   3.172
 9414SOL    HW129141   2.483   2.455   3.134
 9414SOL    HW229142   2.382   2.582   3.144
 9415SOL     OW29143   5.287   0.927   1.987
 9415SOL    HW129144   5.376   0.883   1.982
 9415SOL    HW229145   5.256   0.929   2.082
 9416SOL     OW29146   5.589   5.235   5.660
 9416SOL    HW129147   5.498   5.215   5.622
 9416SOL    HW229148   5.579   5.296   5.739
 9417SOL     OW29149   3.402   5.472   2.466
 9417SOL    HW129150   3.309   5.505   2.477
 9417SOL    HW229151   3.427   5.474   2.369
 9418SOL     OW29152   3.143   1.803   5.060
 9418SOL    HW129153   3.219   1.852   5.103
 9418SOL    HW229154   3.062   1.809   5.118
 9419SOL     OW29155   1.768   2.816   6.287
 9419SOL    HW129156   1.748   2.784   6.380
 9419SOL    HW229157   1.740   2.912   6.278
 9420SOL     OW29158   5.805   4.370   5.920
 9420SOL    HW129159   5.714   4.366   5.962
 9420SOL    HW229160   5.874   4.351   5.990
 9421SOL     OW29161   3.719   6.429   6.879
 9421SOL    HW129162   3.804   6.454   6.833
 9421SOL    HW229163   3.643   6.475   6.834
 9422SOL     OW29164   2.565   6.340   5.763
 9422SOL    HW129165   2.591   6.336   5.860
 9422SOL    HW229166   2.540   6.249   5.731
 9423SOL     OW29167   4.374   4.595   2.398
 9423SOL    HW129168   4.348   4.617   2.304
 9423SOL    HW229169   4.410   4.501   2.400
 9424SOL     OW29170   6.372   0.230   4.200
 9424SOL    HW129171   6.438   0.281   4.145
 9424SOL    HW229172   6.279   0.252   4.169
 9425SOL     OW29173   6.923   3.938   0.928
 9425SOL    HW129174   6.981   3.985   0.861
 9425SOL    HW229175   6.981   3.892   0.995
 9426SOL     OW29176   5.611   3.128   6.098
 9426SOL    HW129177   5.567   3.079   6.174
 9426SOL    HW229178   5.667   3.202   6.136
 9427SOL     OW29179   4.732   4.153   2.675
 9427SOL    HW129180   4.764   4.121   2.764
 9427SOL    HW229181   4.757   4.087   2.604
 9428SOL     OW29182   1.331   6.125   5.396
 9428SOL    HW129183   1.320   6.221   5.421
 9428SOL    HW229184   1.274   6.068   5.454
 9429SOL     OW29185   2.174   2.582   3.893
 9429SOL    HW129186   2.266   2.620   3.886
 9429SOL    HW229187   2.176   2.486   3.865
 9430SOL     OW29188   1.421   1.933   3.917
 9430SOL    HW129189   1.505   1.887   3.888
 9430SOL    HW229190   1.360   1.866   3.960
 9431SOL     OW29191   1.032   4.612   5.617
 9431SOL    HW129192   1.014   4.709   5.605
 9431SOL    HW229193   1.115   4.599   5.670
 9432SOL     OW29194   6.993   0.817   4.488
 9432SOL    HW129195   6.971   0.895   4.429
 9432SOL    HW229196   0.063   0.792   4.474
 9433SOL     OW29197   4.807   5.560   1.974
 9433SOL    HW129198   4.840   5.479   2.021
 9433SOL    HW229199   4.823   5.641   2.031
 9434SOL     OW29200   4.122   5.796   3.689
 9434SOL    HW129201   4.082   5.745   3.765
 9434SOL    HW229202   4.050   5.839   3.635
 9435SOL     OW29203   6.300   3.669   1.045
 9435SOL    HW129204   6.297   3.762   1.082
 9435SOL    HW229205   6.223   3.617   1.081
 9436SOL     OW29206   2.547   0.792   3.089
 9436SOL    HW129207   2.625   0.843   3.054
 9436SOL    HW229208   2.547   0.700   3.052
 9437SOL     OW29209   5.596   0.745   5.231
 9437SOL    HW129210   5.558   0.662   5.272
 9437SOL    HW229211   5.605   0.733   5.132
 9438SOL     OW29212   4.530   0.404   2.685
 9438SOL    HW129213   4.546   0.455   2.769
 9438SOL    HW229214   4.454   0.340   2.699
 9439SOL     OW29215   1.782   4.072   0.860
 9439SOL    HW129216   1.779   4.076   0.760
 9439SOL    HW229217   1.876   4.055   0.889
 9440SOL     OW29218   1.785   5.357   3.695
 9440SOL    HW129219   1.697   5.332   3.656
 9440SOL    HW229220   1.773   5.380   3.792
 9441SOL     OW29221   0.202   6.489   4.390
 9441SOL    HW129222   0.277   6.468   4.452
 9441SOL    HW229223   0.124   6.430   4.411
 9442SOL     OW29224   5.489   3.364   0.819
 9442SOL    HW129225   5.535   3.442   0.861
 9442SOL    HW229226   5.449   3.391   0.731
 9443SOL     OW29227   2.092   4.728   1.827
 9443SOL    HW129228   2.118   4.665   1.753
 9443SOL    HW229229   2.076   4.675   1.911
 9444SOL     OW29230   2.076   4.464   6.503
 9444SOL    HW129231   2.032   4.422   6.582
 9444SOL    HW229232   2.064   4.405   6.423
 9445SOL     OW29233   0.286   1.777   4.213
 9445SOL    HW129234   0.355   1.713   4.178
 9445SOL    HW229235   0.328   1.840   4.277
 9446SOL     OW29236   6.293   3.943   4.935
 9446SOL    HW129237   6.293   3.900   5.025
 9446SOL    HW229238   6.381   3.925   4.889
 9447SOL     OW29239   5.011   4.462   2.099
 9447SOL    HW129240   4.914   4.475   2.081
 9447SOL    HW229241   5.043   4.379   2.053
 9448SOL     OW29242   6.209   1.943   6.588
 9448SOL    HW129243   6.278   1.872   6.573
 9448SOL    HW229244   6.170   1.933   6.679
 9449SOL     OW29245   5.427   0.409   2.307
 9449SOL    HW129246   5.496   0.350   2.266
 9449SOL    HW229247   5.336   0.372   2.286
 9450SOL     OW29248   1.379   6.653   3.389
 9450SOL    HW129249   1.406   6.622   3.481
 9450SOL    HW229250   1.434   6.733   3.364
 9451SOL     OW29251   4.175   5.210   0.196
 9451SOL    HW129252   4.086   5.176   0.165
 9451SOL    HW229253   4.161   5.280   0.267
 9452SOL     OW29254   6.239   4.165   6.450
 9452SOL    HW129255   6.283   4.132   6.533
 9452SOL    HW229256   6.308   4.184   6.381
 9453SOL     OW29257   5.353   4.611   1.565
 9453SOL    HW129258   5.443   4.619   1.522
 9453SOL    HW229259   5.303   4.535   1.523
 9454SOL     OW29260   6.514   5.082   0.619
 9454SOL    HW129261   6.462   4.997   0.620
 9454SOL    HW229262   6.570   5.086   0.536
 9455SOL     OW29263   4.141   0.927   1.832
 9455SOL    HW129264   4.179   0.973   1.752
 9455SOL    HW229265   4.129   0.830   1.812
 9456SOL     OW29266   6.380   1.830   3.187
 9456SOL    HW129267   6.418   1.838   3.095
 9456SOL    HW229268   6.454   1.825   3.254
 9457SOL     OW29269   6.583   6.053   4.609
 9457SOL    HW129270   6.516   6.107   4.660
 9457SOL    HW229271   6.596   6.093   4.518
 9458SOL     OW29272   5.940   4.207   6.955
 9458SOL    HW129273   5.908   4.194   6.861
 9458SOL    HW229274   5.867   4.180   7.019
 9459SOL     OW29275   4.622   4.357   4.787
 9459SOL    HW129276   4.586   4.300   4.713
 9459SOL    HW229277   4.567   4.441   4.793
 9460SOL     OW29278   1.068   3.120   2.217
 9460SOL    HW129279   1.064   3.066   2.301
 9460SOL    HW229280   1.145   3.183   2.222
 9461SOL     OW29281   1.783   1.357   1.529
 9461SOL    HW129282   1.762   1.429   1.463
 9461SOL    HW229283   1.835   1.285   1.484
 9462SOL     OW29284   6.537   1.193   5.213
 9462SOL    HW129285   6.571   1.217   5.122
 9462SOL    HW229286   6.581   1.108   5.244
 9463SOL     OW29287   6.562   4.087   0.331
 9463SOL    HW129288   6.558   4.121   0.424
 9463SOL    HW229289   6.579   3.988   0.332
 9464SOL     OW29290   1.356   0.569   1.378
 9464SOL    HW129291   1.362   0.604   1.471
 9464SOL    HW229292   1.449   0.557   1.341
 9465SOL     OW29293   6.899   5.622   0.341
 9465SOL    HW129294   6.876   5.716   0.364
 9465SOL    HW229295   6.856   5.560   0.407
 9466SOL     OW29296   4.482   3.688   5.320
 9466SOL    HW129297   4.494   3.718   5.415
 9466SOL    HW229298   4.572   3.665   5.281
 9467SOL     OW29299   1.126   3.099   0.938
 9467SOL    HW129300   1.207   3.086   0.881
 9467SOL    HW229301   1.046   3.060   0.891
 9468SOL     OW29302   5.682   1.488   0.913
 9468SOL    HW129303   5.781   1.477   0.912
 9468SOL    HW229304   5.647   1.469   1.005
 9469SOL     OW29305   6.705   6.856   1.577
 9469SOL    HW129306   6.606   6.857   1.563
 9469SOL    HW229307   6.750   6.823   1.494
 9470SOL     OW29308   4.033   3.145   0.530
 9470SOL    HW129309   3.990   3.103   0.450
 9470SOL    HW229310   4.040   3.078   0.604
 9471SOL     OW29311   6.488   2.509   4.970
 9471SOL    HW129312   6.418   2.576   4.944
 9471SOL    HW229313   6.485   2.431   4.908
 9472SOL     OW29314   1.634   3.799   5.539
 9472SOL    HW129315   1.567   3.857   5.586
 9472SOL    HW229316   1.676   3.736   5.605
 9473SOL     OW29317   2.920   3.726   1.364
 9473SOL    HW129318   2.848   3.783   1.325
 9473SOL    HW229319   2.941   3.651   1.301
 9474SOL     OW29320   5.425   4.311   0.831
 9474SOL    HW129321   5.495   4.253   0.788
 9474SOL    HW229322   5.413   4.394   0.777
 9475SOL     OW29323   4.991   3.940   5.490
 9475SOL    HW129324   4.944   3.932   5.578
 9475SOL    HW229325   4.928   3.917   5.416
 9476SOL     OW29326   4.306   3.810   1.215
 9476SOL    HW129327   4.275   3.782   1.306
 9476SOL    HW229328   4.235   3.788   1.148
 9477SOL     OW29329   2.586   4.600   0.779
 9477SOL    HW129330   2.558   4.598   0.875
 9477SOL    HW229331   2.505   4.590   0.721
 9478SOL     OW29332   5.591   3.953   6.487
 9478SOL    HW129333   5.664   3.975   6.423
 9478SOL    HW229334   5.523   4.026   6.487
 9479SOL     OW29335   4.762   0.819   1.911
 9479SOL    HW129336   4.784   0.881   1.836
 9479SOL    HW229337   4.837   0.817   1.976
 9480SOL     OW29338   5.701   0.584   0.924
 9480SOL    HW129339   5.602   0.571   0.912
 9480SOL    HW229340   5.726   0.676   0.896
 9481SOL     OW29341   4.795   0.441   3.578
 9481SOL    HW129342   4.826   0.403   3.491
 9481SOL    HW229343   4.695   0.445   3.578
 9482SOL     OW29344   6.130   5.612   6.074
 9482SOL    HW129345   6.132   5.551   5.995
 9482SOL    HW229346   6.174   5.568   6.152
 9483SOL     OW29347   6.458   6.816   6.926
 9483SOL    HW129348   6.533   6.845   6.866
 9483SOL    HW229349   6.380   6.787   6.870
 9484SOL     OW29350   2.987   5.828   4.611
 9484SOL    HW129351   2.991   5.894   4.686
 9484SOL    HW229352   2.975   5.736   4.648
 9485SOL     OW29353   0.312   1.591   5.670
 9485SOL    HW129354   0.227   1.543   5.691
 9485SOL    HW229355   0.377   1.528   5.627
 9486SOL     OW29356   6.322   5.244   6.732
 9486SOL    HW129357   6.366   5.268   6.819
 9486SOL    HW229358   6.378   5.175   6.685
 9487SOL     OW29359   3.621   3.700   3.537
 9487SOL    HW129360   3.644   3.663   3.627
 9487SOL    HW229361   3.523   3.719   3.532
 9488SOL     OW29362   1.516   0.954   1.392
 9488SOL    HW129363   1.571   0.904   1.325
 9488SOL    HW229364   1.427   0.976   1.352
 9489SOL     OW29365   5.428   3.631   0.197
 9489SOL    HW129366   5.364   3.555   0.196
 9489SOL    HW229367   5.400   3.700   0.130
 9490SOL     OW29368   5.481   3.692   5.214
 9490SOL    HW129369   5.580   3.679   5.218
 9490SOL    HW229370   5.443   3.633   5.142
 9491SOL     OW29371   5.721   0.482   2.903
 9491SOL    HW129372   5.746   0.405   2.962
 9491SOL    HW229373   5.712   0.451   2.809
 9492SOL     OW29374   4.933   2.721   3.493
 9492SOL    HW129375   4.853   2.663   3.509
 9492SOL    HW229376   5.003   2.702   3.562
 9493SOL     OW29377   3.808   6.295   1.163
 9493SOL    HW129378   3.756   6.355   1.225
 9493SOL    HW229379   3.774   6.201   1.172
 9494SOL     OW29380   5.492   2.485   1.651
 9494SOL    HW129381   5.557   2.551   1.689
 9494SOL    HW229382   5.406   2.491   1.703
 9495SOL     OW29383   5.694   2.695   1.277
 9495SOL    HW129384   5.709   2.623   1.209
 9495SOL    HW229385   5.732   2.781   1.243
 9496SOL     OW29386   5.847   2.281   1.372
 9496SOL    HW129387   5.815   2.239   1.287
 9496SOL    HW229388   5.769   2.300   1.431
 9497SOL     OW29389   4.513   4.810   5.023
 9497SOL    HW129390   4.438   4.746   5.009
 9497SOL    HW229391   4.477   4.903   5.024
 9498SOL     OW29392   0.842   5.493   4.339
 9498SOL    HW129393   0.823   5.400   4.307
 9498SOL    HW229394   0.930   5.524   4.302
 9499SOL     OW29395   5.687   5.981   4.254
 9499SOL    HW129396   5.684   6.007   4.157
 9499SOL    HW229397   5.712   5.885   4.262
 9500SOL     OW29398   2.855   1.340   0.583
 9500SOL    HW129399   2.866   1.414   0.649
 9500SOL    HW229400   2.839   1.378   0.492
 9501SOL     OW29401   2.042   3.895   5.009
 9501SOL    HW129402   1.992   3.950   4.942
 9501SOL    HW229403   2.138   3.921   5.008
 9502SOL     OW29404   5.296   4.699   3.861
 9502SOL    HW129405   5.205   4.688   3.820
 9502SOL    HW229406   5.348   4.768   3.811
 9503SOL     OW29407   5.889   0.692   0.577
 9503SOL    HW129408   5.863   0.596   0.591
 9503SOL    HW229409   5.881   0.741   0.664
 9504SOL     OW29410   6.295   5.695   1.681
 9504SOL    HW129411   6.309   5.739   1.770
 9504SOL    HW229412   6.211   5.728   1.640
 9505SOL     OW29413   4.722   4.200   6.104
 9505SOL    HW129414   4.748   4.296   6.115
 9505SOL    HW229415   4.803   4.142   6.109
 9506SOL     OW29416   2.587   0.747   0.832
 9506SOL    HW129417   2.603   0.653   0.802
 9506SOL    HW229418   2.651   0.770   0.905
 9507SOL     OW29419   5.963   6.931   2.367
 9507SOL    HW129420   6.016   6.986   2.303
 9507SOL    HW229421   6.025   6.878   2.425
 9508SOL     OW29422   4.593   1.399   2.427
 9508SOL    HW129423   4.612   1.426   2.521
 9508SOL    HW229424   4.498   1.421   2.404
 9509SOL     OW29425   5.497   0.938   3.789
 9509SOL    HW129426   5.423   0.900   3.732
 9509SOL    HW229427   5.581   0.943   3.735
 9510SOL     OW29428   2.026   2.703   3.208
 9510SOL    HW129429   2.008   2.799   3.230
 9510SOL    HW229430   2.070   2.659   3.286
 9511SOL     OW29431   0.488   2.001   1.259
 9511SOL    HW129432   0.403   2.039   1.294
 9511SOL    HW229433   0.470   1.915   1.212
 9512SOL     OW29434   6.229   1.700   1.779
 9512SOL    HW129435   6.179   1.772   1.827
 9512SOL    HW229436   6.172   1.664   1.705
 9513SOL     OW29437   4.818   3.781   5.353
 9513SOL    HW129438   4.785   3.729   5.275
 9513SOL    HW229439   4.745   3.790   5.421
 9514SOL     OW29440   3.815   2.826   0.094
 9514SOL    HW129441   3.747   2.764   0.133
 9514SOL    HW229442   3.889   2.772   0.052
 9515SOL     OW29443   0.944   5.763   3.608
 9515SOL    HW129444   0.851   5.753   3.571
 9515SOL    HW229445   0.975   5.857   3.595
 9516SOL     OW29446   6.799   3.882   5.976
 9516SOL    HW129447   6.709   3.851   5.946
 9516SOL    HW229448   6.788   3.942   6.056
 9517SOL     OW29449   0.273   6.575   1.397
 9517SOL    HW129450   0.306   6.590   1.490
 9517SOL    HW229451   0.248   6.479   1.386
 9518SOL     OW29452   1.176   0.620   0.984
 9518SOL    HW129453   1.106   0.552   0.963
 9518SOL    HW229454   1.140   0.686   1.050
 9519SOL     OW29455   0.719   2.850   5.595
 9519SOL    HW129456   0.701   2.754   5.577
 9519SOL    HW229457   0.645   2.906   5.558
 9520SOL     OW29458   3.769   6.741   1.688
 9520SOL    HW129459   3.800   6.836   1.692
 9520SOL    HW229460   3.830   6.683   1.743
 9521SOL     OW29461   5.235   5.679   3.427
 9521SOL    HW129462   5.326   5.675   3.386
 9521SOL    HW229463   5.194   5.588   3.425
 9522SOL     OW29464   3.335   5.166   6.941
 9522SOL    HW129465   3.376   5.094   6.884
 9522SOL    HW229466   3.237   5.171   6.922
 9523SOL     OW29467   2.830   6.463   5.644
 9523SOL    HW129468   2.900   6.529   5.669
 9523SOL    HW229469   2.745   6.484   5.691
 9524SOL     OW29470   4.625   2.311   0.938
 9524SOL    HW129471   4.628   2.326   1.037
 9524SOL    HW229472   4.571   2.228   0.919
 9525SOL     OW29473   3.531   0.266   4.712
 9525SOL    HW129474   3.525   0.343   4.649
 9525SOL    HW229475   3.626   0.252   4.739
 9526SOL     OW29476   4.459   6.288   1.974
 9526SOL    HW129477   4.446   6.224   2.050
 9526SOL    HW229478   4.523   6.360   2.002
 9527SOL     OW29479   6.753   2.177   1.362
 9527SOL    HW129480   6.826   2.120   1.399
 9527SOL    HW229481   6.723   2.140   1.274
 9528SOL     OW29482   6.966   1.196   1.673
 9528SOL    HW129483   6.953   1.155   1.763
 9528SOL    HW229484   6.980   1.123   1.605
 9529SOL     OW29485   1.203   3.567   4.814
 9529SOL    HW129486   1.151   3.519   4.885
 9529SOL    HW229487   1.157   3.556   4.726
 9530SOL     OW29488   1.688   2.248   4.259
 9530SOL    HW129489   1.624   2.234   4.335
 9530SOL    HW229490   1.640   2.293   4.184
 9531SOL     OW29491   2.913   6.163   3.667
 9531SOL    HW129492   2.992   6.106   3.644
 9531SOL    HW229493   2.835   6.136   3.610
 9532SOL     OW29494   3.038   1.662   1.765
 9532SOL    HW129495   3.101   1.739   1.774
 9532SOL    HW229496   2.988   1.669   1.678
 9533SOL     OW29497   0.864   1.236   4.857
 9533SOL    HW129498   0.867   1.305   4.785
 9533SOL    HW229499   0.956   1.225   4.896
 9534SOL     OW29500   5.744   1.667   4.377
 9534SOL    HW129501   5.684   1.593   4.406
 9534SOL    HW229502   5.807   1.690   4.451
 9535SOL     OW29503   3.259   2.137   4.573
 9535SOL    HW129504   3.174   2.131   4.625
 9535SOL    HW229505   3.240   2.119   4.477
 9536SOL     OW29506   2.682   6.272   6.516
 9536SOL    HW129507   2.761   6.332   6.513
 9536SOL    HW229508   2.698   6.197   6.580
 9537SOL     OW29509   2.906   6.632   0.849
 9537SOL    HW129510   2.874   6.625   0.755
 9537SOL    HW229511   2.960   6.716   0.859
 9538SOL     OW29512   5.858   3.671   3.315
 9538SOL    HW129513   5.837   3.638   3.223
 9538SOL    HW229514   5.777   3.712   3.356
 9539SOL     OW29515   0.398   3.547   6.887
 9539SOL    HW129516   0.346   3.532   6.971
 9539SOL    HW229517   0.475   3.608   6.907
 9540SOL     OW29518   5.340   3.241   5.760
 9540SOL    HW129519   5.359   3.314   5.694
 9540SOL    HW229520   5.280   3.276   5.832
 9541SOL     OW29521   0.078   1.692   3.688
 9541SOL    HW129522   0.034   1.780   3.703
 9541SOL    HW229523   0.054   1.658   3.597
 9542SOL     OW29524   4.659   4.308   4.293
 9542SOL    HW129525   4.614   4.365   4.362
 9542SOL    HW229526   4.611   4.318   4.206
 9543SOL     OW29527   5.114   2.291   1.881
 9543SOL    HW129528   5.017   2.306   1.899
 9543SOL    HW229529   5.126   2.259   1.787
 9544SOL     OW29530   4.068   1.375   1.469
 9544SOL    HW129531   4.082   1.392   1.566
 9544SOL    HW229532   4.009   1.295   1.457
 9545SOL     OW29533   1.387   0.372   4.489
 9545SOL    HW129534   1.377   0.345   4.393
 9545SOL    HW229535   1.299   0.407   4.523
 9546SOL     OW29536   2.270   4.833   2.080
 9546SOL    HW129537   2.188   4.778   2.063
 9546SOL    HW229538   2.331   4.827   2.001
 9547SOL     OW29539   5.871   5.496   3.515
 9547SOL    HW129540   5.892   5.485   3.613
 9547SOL    HW229541   5.778   5.466   3.498
 9548SOL     OW29542   5.063   0.645   2.864
 9548SOL    HW129543   5.041   0.742   2.859
 9548SOL    HW229544   5.047   0.602   2.775
 9549SOL     OW29545   2.677   5.632   0.192
 9549SOL    HW129546   2.602   5.697   0.182
 9549SOL    HW229547   2.728   5.653   0.276
 9550SOL     OW29548   1.428   1.150   0.294
 9550SOL    HW129549   1.383   1.133   0.206
 9550SOL    HW229550   1.374   1.109   0.368
 9551SOL     OW29551   1.749   5.543   5.262
 9551SOL    HW129552   1.734   5.556   5.164
 9551SOL    HW229553   1.823   5.478   5.276
 9552SOL     OW29554   0.682   5.345   3.695
 9552SOL    HW129555   0.710   5.252   3.716
 9552SOL    HW229556   0.701   5.365   3.598
 9553SOL     OW29557   5.440   4.480   6.260
 9553SOL    HW129558   5.458   4.416   6.186
 9553SOL    HW229559   5.525   4.527   6.284
 9554SOL     OW29560   1.604   1.870   1.260
 9554SOL    HW129561   1.699   1.877   1.229
 9554SOL    HW229562   1.589   1.934   1.336
 9555SOL     OW29563   6.777   2.581   6.111
 9555SOL    HW129564   6.847   2.565   6.041
 9555SOL    HW229565   6.701   2.518   6.098
 9556SOL     OW29566   6.506   1.120   0.823
 9556SOL    HW129567   6.463   1.088   0.907
 9556SOL    HW229568   6.452   1.195   0.784
 9557SOL     OW29569   5.049   1.659   2.069
 9557SOL    HW129570   5.126   1.599   2.091
 9557SOL    HW229571   5.082   1.751   2.048
 9558SOL     OW29572   6.343   4.315   1.506
 9558SOL    HW129573   6.389   4.328   1.418
 9558SOL    HW229574   6.396   4.252   1.563
 9559SOL     OW29575   6.991   4.101   1.949
 9559SOL    HW129576   7.014   4.176   2.011
 9559SOL    HW229577   6.896   4.110   1.918
 9560SOL     OW29578   4.029   2.148   5.099
 9560SOL    HW129579   3.960   2.091   5.055
 9560SOL    HW229580   4.064   2.215   5.033
 9561SOL     OW29581   2.967   6.652   5.788
 9561SOL    HW129582   2.931   6.633   5.879
 9561SOL    HW229583   3.066   6.637   5.787
 9562SOL     OW29584   5.821   4.994   4.353
 9562SOL    HW129585   5.731   4.953   4.368
 9562SOL    HW229586   5.838   5.001   4.255
 9563SOL     OW29587   0.575   6.419   6.879
 9563SOL    HW129588   0.610   6.335   6.922
 9563SOL    HW229589   0.476   6.427   6.897
 9564SOL     OW29590   1.419   0.685   6.171
 9564SOL    HW129591   1.429   0.778   6.134
 9564SOL    HW229592   1.508   0.641   6.174
 9565SOL     OW29593   3.542   5.813   4.022
 9565SOL    HW129594   3.621   5.829   4.081
 9565SOL    HW229595   3.471   5.764   4.073
 9566SOL     OW29596   3.345   4.883   5.998
 9566SOL    HW129597   3.375   4.841   5.912
 9566SOL    HW229598   3.381   4.829   6.075
 9567SOL     OW29599   6.229   5.001   4.931
 9567SOL    HW129600   6.260   5.075   4.871
 9567SOL    HW229601   6.169   4.939   4.880
 9568SOL     OW29602   5.171   4.145   6.287
 9568SOL    HW129603   5.103   4.145   6.214
 9568SOL    HW229604   5.184   4.239   6.319
 9569SOL     OW29605   5.782   6.898   1.863
 9569SOL    HW129606   5.742   6.986   1.841
 9569SOL    HW229607   5.710   6.829   1.870
 9570SOL     OW29608   1.238   1.518   6.986
 9570SOL    HW129609   1.315   1.556   0.010
 9570SOL    HW229610   1.163   1.496   0.023
 9571SOL     OW29611   2.762   2.347   0.889
 9571SOL    HW129612   2.746   2.445   0.879
 9571SOL    HW229613   2.677   2.297   0.869
 9572SOL     OW29614   0.482   3.667   1.260
 9572SOL    HW129615   0.391   3.626   1.266
 9572SOL    HW229616   0.526   3.637   1.175
 9573SOL     OW29617   5.228   1.277   2.895
 9573SOL    HW129618   5.140   1.304   2.856
 9573SOL    HW229619   5.276   1.358   2.929
 9574SOL     OW29620   2.762   2.245   3.699
 9574SOL    HW129621   2.807   2.208   3.780
 9574SOL    HW229622   2.735   2.169   3.639
 9575SOL     OW29623   4.218   1.423   3.058
 9575SOL    HW129624   4.296   1.485   3.060
 9575SOL    HW229625   4.238   1.347   2.996
 9576SOL     OW29626   3.969   3.058   5.141
 9576SOL    HW129627   3.899   3.001   5.184
 9576SOL    HW229628   3.927   3.143   5.108
 9577SOL     OW29629   1.011   6.062   3.651
 9577SOL    HW129630   1.081   6.077   3.581
 9577SOL    HW229631   0.995   6.146   3.702
 9578SOL     OW29632   6.703   4.042   1.387
 9578SOL    HW129633   6.658   3.992   1.312
 9578SOL    HW229634   6.766   4.109   1.349
 9579SOL     OW29635   2.036   5.141   2.902
 9579SOL    HW129636   2.076   5.230   2.923
 9579SOL    HW229637   1.936   5.147   2.908
 9580SOL     OW29638   4.430   3.465   5.820
 9580SOL    HW129639   4.504   3.479   5.886
 9580SOL    HW229640   4.417   3.367   5.805
 9581SOL     OW29641   1.010   5.748   5.454
 9581SOL    HW129642   0.921   5.713   5.485
 9581SOL    HW229643   1.037   5.700   5.371
 9582SOL     OW29644   4.567   5.166   2.970
 9582SOL    HW129645   4.640   5.186   3.035
 9582SOL    HW229646   4.552   5.067   2.967
 9583SOL     OW29647   1.909   4.940   1.923
 9583SOL    HW129648   1.820   4.905   1.951
 9583SOL    HW229649   1.967   4.863   1.893
 9584SOL     OW29650   5.410   5.072   0.149
 9584SOL    HW129651   5.412   5.118   0.238
 9584SOL    HW229652   5.320   5.086   0.107
 9585SOL     OW29653   0.004   0.829   3.056
 9585SOL    HW129654   0.081   0.886   3.027
 9585SOL    HW229655   6.948   0.857   3.006
 9586SOL     OW29656   5.093   3.721   2.546
 9586SOL    HW129657   5.116   3.673   2.461
 9586SOL    HW229658   5.034   3.663   2.602
 9587SOL     OW29659   4.875   6.300   1.270
 9587SOL    HW129660   4.955   6.270   1.217
 9587SOL    HW229661   4.887   6.272   1.366
 9588SOL     OW29662   6.640   1.161   3.261
 9588SOL    HW129663   6.540   1.171   3.264
 9588SOL    HW229664   6.670   1.103   3.336
 9589SOL     OW29665   2.807   1.985   4.797
 9589SOL    HW129666   2.833   1.920   4.869
 9589SOL    HW229667   2.882   2.049   4.783
 9590SOL     OW29668   0.818   5.033   4.458
 9590SOL    HW129669   0.802   5.117   4.406
 9590SOL    HW229670   0.874   4.970   4.405
 9591SOL     OW29671   1.439   4.210   2.496
 9591SOL    HW129672   1.522   4.213   2.553
 9591SOL    HW229673   1.361   4.241   2.550
 9592SOL     OW29674   4.913   5.883   0.862
 9592SOL    HW129675   4.836   5.821   0.844
 9592SOL    HW229676   4.976   5.839   0.926
 9593SOL     OW29677   2.357   2.219   2.973
 9593SOL    HW129678   2.363   2.183   3.066
 9593SOL    HW229679   2.408   2.305   2.968
 9594SOL     OW29680   6.052   6.982   0.939
 9594SOL    HW129681   6.049   0.034   0.877
 9594SOL    HW229682   5.986   6.913   0.908
 9595SOL     OW29683   0.971   5.427   4.819
 9595SOL    HW129684   1.053   5.377   4.846
 9595SOL    HW229685   0.900   5.362   4.791
 9596SOL     OW29686   5.164   5.624   1.950
 9596SOL    HW129687   5.181   5.526   1.943
 9596SOL    HW229688   5.125   5.645   2.040
 9597SOL     OW29689   2.299   4.477   0.983
 9597SOL    HW129690   2.237   4.452   1.057
 9597SOL    HW229691   2.305   4.577   0.977
 9598SOL     OW29692   0.649   6.034   5.642
 9598SOL    HW129693   0.668   5.951   5.696
 9598SOL    HW229694   0.560   6.071   5.668
 9599SOL     OW29695   3.700   1.739   4.981
 9599SOL    HW129696   3.744   1.651   5.003
 9599SOL    HW229697   3.669   1.737   4.886
 9600SOL     OW29698   1.342   6.478   6.692
 9600SOL    HW129699   1.373   6.534   6.769
 9600SOL    HW229700   1.316   6.388   6.726
 9601SOL     OW29701   0.793   6.512   5.357
 9601SOL    HW129702   0.716   6.567   5.389
 9601SOL    HW229703   0.767   6.465   5.272
 9602SOL     OW29704   1.302   5.224   6.222
 9602SOL    HW129705   1.225   5.266   6.270
 9602SOL    HW229706   1.280   5.128   6.204
 9603SOL     OW29707   1.042   4.837   2.436
 9603SOL    HW129708   1.045   4.760   2.373
 9603SOL    HW229709   1.057   4.922   2.385
 9604SOL     OW29710   6.982   6.891   6.578
 9604SOL    HW129711   7.002   6.812   6.520
 9604SOL    HW229712   7.019   6.974   6.536
 9605SOL     OW29713   2.910   4.788   0.344
 9605SOL    HW129714   2.888   4.691   0.350
 9605SOL    HW229715   2.991   4.801   0.287
 9606SOL     OW29716   0.033   6.976   5.216
 9606SOL    HW129717   6.971   6.934   5.197
 9606SOL    HW229718   0.083   6.920   5.282
 9607SOL     OW29719   6.739   2.409   2.310
 9607SOL    HW129720   6.651   2.455   2.299
 9607SOL    HW229721   6.783   2.441   2.394
 9608SOL     OW29722   6.707   0.539   2.279
 9608SOL    HW129723   6.770   0.523   2.355
 9608SOL    HW229724   6.750   0.512   2.194
 9609SOL     OW29725   1.732   2.025   3.300
 9609SOL    HW129726   1.725   1.926   3.307
 9609SOL    HW229727   1.746   2.064   3.391
 9610SOL     OW29728   3.623   0.850   5.277
 9610SOL    HW129729   3.629   0.763   5.326
 9610SOL    HW229730   3.710   0.899   5.285
 9611SOL     OW29731   5.181   5.996   1.203
 9611SOL    HW129732   5.130   5.910   1.205
 9611SOL    HW229733   5.233   6.003   1.118
 9612SOL     OW29734   5.176   3.528   3.370
 9612SOL    HW129735   5.114   3.599   3.405
 9612SOL    HW229736   5.127   3.470   3.306
 9613SOL     OW29737   5.853   1.013   5.167
 9613SOL    HW129738   5.886   1.015   5.072
 9613SOL    HW229739   5.866   0.921   5.204
 9614SOL     OW29740   2.848   2.621   0.588
 9614SOL    HW129741   2.832   2.682   0.511
 9614SOL    HW229742   2.918   2.554   0.564
 9615SOL     OW29743   0.631   5.818   3.594
 9615SOL    HW129744   0.617   5.755   3.670
 9615SOL    HW229745   0.544   5.860   3.569
 9616SOL     OW29746   1.088   2.573   1.109
 9616SOL    HW129747   1.029   2.570   1.190
 9616SOL    HW229748   1.048   2.634   1.040
 9617SOL     OW29749   0.119   3.141   2.368
 9617SOL    HW129750   0.022   3.153   2.391
 9617SOL    HW229751   0.139   3.044   2.355
 9618SOL     OW29752   4.884   3.911   1.292
 9618SOL    HW129753   4.829   3.993   1.279
 9618SOL    HW229754   4.913   3.906   1.388
 9619SOL     OW29755   0.523   6.786   1.446
 9619SOL    HW129756   0.470   6.855   1.398
 9619SOL    HW229757   0.485   6.772   1.538
 9620SOL     OW29758   3.028   1.511   6.764
 9620SOL    HW129759   3.090   1.517   6.686
 9620SOL    HW229760   3.045   1.426   6.814
 9621SOL     OW29761   0.121   0.642   1.496
 9621SOL    HW129762   0.168   0.655   1.583
 9621SOL    HW229763   0.162   0.702   1.427
 9622SOL     OW29764   6.489   5.731   5.869
 9622SOL    HW129765   6.507   5.690   5.958
 9622SOL    HW229766   6.435   5.667   5.814
 9623SOL     OW29767   3.380   5.887   5.335
 9623SOL    HW129768   3.303   5.942   5.304
 9623SOL    HW229769   3.457   5.947   5.357
 9624SOL     OW29770   4.363   5.548   5.539
 9624SOL    HW129771   4.412   5.489   5.475
 9624SOL    HW229772   4.397   5.531   5.632
 9625SOL     OW29773   4.473   4.118   6.079
 9625SOL    HW129774   4.489   4.027   6.116
 9625SOL    HW229775   4.558   4.171   6.082
 9626SOL     OW29776   2.589   2.295   6.360
 9626SOL    HW129777   2.651   2.217   6.362
 9626SOL    HW229778   2.611   2.358   6.435
 9627SOL     OW29779   0.083   5.877   0.661
 9627SOL    HW129780   7.025   5.831   0.688
 9627SOL    HW229781   0.135   5.818   0.600
 9628SOL     OW29782   6.047   1.275   5.918
 9628SOL    HW129783   5.960   1.233   5.945
 9628SOL    HW229784   6.073   1.344   5.985
 9629SOL     OW29785   0.556   5.612   3.775
 9629SOL    HW129786   0.458   5.602   3.794
 9629SOL    HW229787   0.594   5.523   3.749
 9630SOL     OW29788   5.211   1.512   6.385
 9630SOL    HW129789   5.266   1.429   6.398
 9630SOL    HW229790   5.271   1.590   6.373
 9631SOL     OW29791   4.534   6.631   0.475
 9631SOL    HW129792   4.581   6.567   0.414
 9631SOL    HW229793   4.559   6.611   0.570
 9632SOL     OW29794   2.480   5.125   3.025
 9632SOL    HW129795   2.486   5.155   3.120
 9632SOL    HW229796   2.417   5.184   2.975
 9633SOL     OW29797   3.566   2.821   4.779
 9633SOL    HW129798   3.605   2.739   4.821
 9633SOL    HW229799   3.639   2.871   4.731
 9634SOL     OW29800   5.486   4.849   3.091
 9634SOL    HW129801   5.559   4.784   3.111
 9634SOL    HW229802   5.449   4.885   3.176
 9635SOL     OW29803   0.680   4.699   3.988
 9635SOL    HW129804   0.617   4.621   3.978
 9635SOL    HW229805   0.629   4.784   3.979
 9636SOL     OW29806   5.895   3.607   3.895
 9636SOL    HW129807   5.987   3.568   3.884
 9636SOL    HW229808   5.901   3.691   3.949
 9637SOL     OW29809   1.625   3.668   0.166
 9637SOL    HW129810   1.592   3.752   0.122
 9637SOL    HW229811   1.686   3.691   0.242
 9638SOL     OW29812   6.093   5.499   5.825
 9638SOL    HW129813   6.104   5.399   5.824
 9638SOL    HW229814   6.001   5.522   5.855
 9639SOL     OW29815   4.962   2.285   1.573
 9639SOL    HW129816   4.921   2.360   1.626
 9639SOL    HW229817   4.890   2.234   1.528
 9640SOL     OW29818   3.555   0.247   3.082
 9640SOL    HW129819   3.480   0.269   3.144
 9640SOL    HW229820   3.537   0.161   3.035
 9641SOL     OW29821   6.825   2.896   5.045
 9641SOL    HW129822   6.866   2.893   4.954
 9641SOL    HW229823   6.839   2.808   5.091
 9642SOL     OW29824   0.571   2.478   4.694
 9642SOL    HW129825   0.522   2.565   4.694
 9642SOL    HW229826   0.571   2.439   4.602
 9643SOL     OW29827   5.364   4.950   4.519
 9643SOL    HW129828   5.280   4.906   4.552
 9643SOL    HW229829   5.421   4.977   4.597
 9644SOL     OW29830   1.536   4.823   3.973
 9644SOL    HW129831   1.467   4.756   4.000
 9644SOL    HW229832   1.566   4.804   3.879
 9645SOL     OW29833   1.394   4.771   6.547
 9645SOL    HW129834   1.473   4.767   6.608
 9645SOL    HW229835   1.323   4.828   6.589
 9646SOL     OW29836   3.227   5.478   0.528
 9646SOL    HW129837   3.233   5.445   0.434
 9646SOL    HW229838   3.317   5.470   0.572
 9647SOL     OW29839   5.921   6.879   3.173
 9647SOL    HW129840   6.012   6.839   3.182
 9647SOL    HW229841   5.929   6.971   3.136
 9648SOL     OW29842   2.688   1.597   1.079
 9648SOL    HW129843   2.761   1.537   1.111
 9648SOL    HW229844   2.631   1.623   1.156
 9649SOL     OW29845   0.342   5.513   1.106
 9649SOL    HW129846   0.442   5.523   1.108
 9649SOL    HW229847   0.304   5.572   1.035
 9650SOL     OW29848   1.034   4.640   4.424
 9650SOL    HW129849   0.983   4.582   4.361
 9650SOL    HW229850   1.012   4.615   4.518
 9651SOL     OW29851   3.696   1.921   6.675
 9651SOL    HW129852   3.720   1.879   6.587
 9651SOL    HW229853   3.779   1.961   6.716
 9652SOL     OW29854   0.351   4.088   0.463
 9652SOL    HW129855   0.343   4.076   0.562
 9652SOL    HW229856   0.441   4.127   0.441
 9653SOL     OW29857   4.892   4.366   5.573
 9653SOL    HW129858   4.955   4.297   5.539
 9653SOL    HW229859   4.825   4.389   5.502
 9654SOL     OW29860   3.822   3.731   2.934
 9654SOL    HW129861   3.863   3.777   2.855
 9654SOL    HW229862   3.836   3.786   3.016
 9655SOL     OW29863   4.646   1.605   1.063
 9655SOL    HW129864   4.681   1.616   1.157
 9655SOL    HW229865   4.629   1.509   1.045
 9656SOL     OW29866   4.771   4.408   6.469
 9656SOL    HW129867   4.767   4.438   6.374
 9656SOL    HW229868   4.799   4.312   6.473
 9657SOL     OW29869   5.030   4.689   3.757
 9657SOL    HW129870   4.937   4.724   3.746
 9657SOL    HW229871   5.040   4.605   3.703
 9658SOL     OW29872   5.593   1.387   2.689
 9658SOL    HW129873   5.690   1.365   2.679
 9658SOL    HW229874   5.538   1.306   2.672
 9659SOL     OW29875   3.433   2.926   6.763
 9659SOL    HW129876   3.336   2.951   6.761
 9659SOL    HW229877   3.451   2.854   6.696
 9660SOL     OW29878   1.549   6.367   1.191
 9660SOL    HW129879   1.477   6.387   1.257
 9660SOL    HW229880   1.536   6.276   1.153
 9661SOL     OW29881   4.030   3.079   2.027
 9661SOL    HW129882   4.115   3.104   1.980
 9661SOL    HW229883   3.971   3.028   1.964
 9662SOL     OW29884   4.853   6.601   5.905
 9662SOL    HW129885   4.832   6.671   5.836
 9662SOL    HW229886   4.769   6.553   5.930
 9663SOL     OW29887   1.094   5.646   2.944
 9663SOL    HW129888   1.011   5.639   3.000
 9663SOL    HW229889   1.084   5.720   2.878
 9664SOL     OW29890   3.284   5.138   2.551
 9664SOL    HW129891   3.379   5.110   2.533
 9664SOL    HW229892   3.283   5.229   2.591
 9665SOL     OW29893   6.034   4.610   6.031
 9665SOL    HW129894   6.043   4.562   6.118
 9665SOL    HW229895   6.110   4.586   5.971
 9666SOL     OW29896   5.404   3.813   0.785
 9666SOL    HW129897   5.474   3.858   0.731
 9666SOL    HW229898   5.314   3.848   0.761
 9667SOL     OW29899   5.391   6.609   6.983
 9667SOL    HW129900   5.386   6.557   0.043
 9667SOL    HW229901   5.377   6.706   7.002
 9668SOL     OW29902   1.655   1.093   6.234
 9668SOL    HW129903   1.731   1.030   6.243
 9668SOL    HW229904   1.649   1.151   6.315
 9669SOL     OW29905   2.898   0.374   0.128
 9669SOL    HW129906   2.836   0.299   0.151
 9669SOL    HW229907   2.910   0.378   0.029
 9670SOL     OW29908   0.859   0.738   0.904
 9670SOL    HW129909   0.950   0.773   0.883
 9670SOL    HW229910   0.865   0.671   0.977
 9671SOL     OW29911   1.057   5.300   6.388
 9671SOL    HW129912   1.073   5.225   6.453
 9671SOL    HW229913   1.050   5.386   6.437
 9672SOL     OW29914   0.903   3.712   4.147
 9672SOL    HW129915   0.919   3.614   4.157
 9672SOL    HW229916   0.990   3.759   4.134
 9673SOL     OW29917   2.530   2.876   6.996
 9673SOL    HW129918   2.579   2.842   6.916
 9673SOL    HW229919   2.480   2.959   6.972
 9674SOL     OW29920   1.998   6.802   4.046
 9674SOL    HW129921   1.958   6.868   4.109
 9674SOL    HW229922   1.954   6.713   4.058
 9675SOL     OW29923   6.208   4.302   5.955
 9675SOL    HW129924   6.305   4.277   5.965
 9675SOL    HW229925   6.181   4.292   5.859
 9676SOL     OW29926   0.828   3.420   5.182
 9676SOL    HW129927   0.735   3.384   5.182
 9676SOL    HW229928   0.825   3.520   5.173
 9677SOL     OW29929   6.882   4.875   2.564
 9677SOL    HW129930   6.833   4.789   2.549
 9677SOL    HW229931   6.899   4.919   2.476
 9678SOL     OW29932   3.734   3.672   5.292
 9678SOL    HW129933   3.636   3.692   5.284
 9678SOL    HW229934   3.747   3.575   5.316
 9679SOL     OW29935   1.422   0.936   4.023
 9679SOL    HW129936   1.495   0.953   3.957
 9679SOL    HW229937   1.447   0.975   4.112
 9680SOL     OW29938   4.441   0.742   2.451
 9680SOL    HW129939   4.410   0.837   2.457
 9680SOL    HW229940   4.536   0.740   2.423
 9681SOL     OW29941   1.444   3.085   1.358
 9681SOL    HW129942   1.403   3.175   1.341
 9681SOL    HW229943   1.426   3.059   1.453
 9682SOL     OW29944   4.960   6.884   5.913
 9682SOL    HW129945   5.035   6.940   5.950
 9682SOL    HW229946   4.969   6.880   5.813
 9683SOL     OW29947   4.266   6.466   4.088
 9683SOL    HW129948   4.255   6.565   4.089
 9683SOL    HW229949   4.281   6.432   4.181
 9684SOL     OW29950   0.184   3.354   5.880
 9684SOL    HW129951   0.214   3.375   5.787
 9684SOL    HW229952   0.096   3.398   5.897
 9685SOL     OW29953   3.377   4.723   1.662
 9685SOL    HW129954   3.435   4.672   1.726
 9685SOL    HW229955   3.290   4.676   1.651
 9686SOL     OW29956   0.665   1.407   5.740
 9686SOL    HW129957   0.692   1.493   5.697
 9686SOL    HW229958   0.723   1.390   5.820
 9687SOL     OW29959   5.689   1.068   3.631
 9687SOL    HW129960   5.714   1.002   3.560
 9687SOL    HW229961   5.650   1.150   3.588
 9688SOL     OW29962   0.347   4.983   1.705
 9688SOL    HW129963   0.308   5.054   1.646
 9688SOL    HW229964   0.337   5.010   1.801
 9689SOL     OW29965   1.565   5.588   1.445
 9689SOL    HW129966   1.531   5.506   1.491
 9689SOL    HW229967   1.507   5.666   1.470
 9690SOL     OW29968   0.425   4.630   5.253
 9690SOL    HW129969   0.352   4.567   5.224
 9690SOL    HW229970   0.388   4.723   5.260
 9691SOL     OW29971   3.782   3.340   1.937
 9691SOL    HW129972   3.814   3.421   1.887
 9691SOL    HW229973   3.703   3.301   1.889
 9692SOL     OW29974   5.277   4.561   0.244
 9692SOL    HW129975   5.228   4.643   0.216
 9692SOL    HW229976   5.229   4.518   0.321
 9693SOL     OW29977   4.772   3.044   5.979
 9693SOL    HW129978   4.715   2.989   6.042
 9693SOL    HW229979   4.757   3.141   5.997
 9694SOL     OW29980   2.982   6.235   1.066
 9694SOL    HW129981   2.955   6.159   1.007
 9694SOL    HW229982   2.972   6.208   1.162
 9695SOL     OW29983   1.181   3.023   4.226
 9695SOL    HW129984   1.109   2.957   4.204
 9695SOL    HW229985   1.174   3.049   4.322
 9696SOL     OW29986   5.118   3.003   3.611
 9696SOL    HW129987   5.145   3.069   3.541
 9696SOL    HW229988   5.171   2.919   3.600
 9697SOL     OW29989   0.553   0.241   1.514
 9697SOL    HW129990   0.502   0.323   1.488
 9697SOL    HW229991   0.540   0.223   1.611
 9698SOL     OW29992   0.160   3.849   1.742
 9698SOL    HW129993   0.121   3.941   1.750
 9698SOL    HW229994   0.250   3.854   1.699
 9699SOL     OW29995   0.919   5.667   1.979
 9699SOL    HW129996   0.974   5.751   1.983
 9699SOL    HW229997   0.883   5.647   2.070
 9700SOL     OW29998   5.262   0.775   6.119
 9700SOL    HW129999   5.311   0.851   6.076
 9700SOL    HW230000   5.249   0.702   6.053
 9701SOL     OW30001   5.190   3.747   0.322
 9701SOL    HW130002   5.206   3.808   0.399
 9701SOL    HW230003   5.181   3.800   0.238
 9702SOL     OW30004   3.886   3.801   1.665
 9702SOL    HW130005   3.876   3.900   1.677
 9702SOL    HW230006   3.879   3.778   1.568
 9703SOL     OW30007   5.862   4.974   3.270
 9703SOL    HW130008   5.947   4.994   3.222
 9703SOL    HW230009   5.813   5.059   3.288
 9704SOL     OW30010   1.365   4.005   2.347
 9704SOL    HW130011   1.415   3.927   2.384
 9704SOL    HW230012   1.389   4.088   2.398
 9705SOL     OW30013   0.283   3.434   5.624
 9705SOL    HW130014   0.377   3.401   5.623
 9705SOL    HW230015   0.282   3.532   5.643
 9706SOL     OW30016   0.831   1.064   2.350
 9706SOL    HW130017   0.869   1.112   2.270
 9706SOL    HW230018   0.749   1.014   2.322
 9707SOL     OW30019   0.997   5.349   2.421
 9707SOL    HW130020   0.992   5.338   2.520
 9707SOL    HW230021   1.092   5.336   2.391
 9708SOL     OW30022   2.924   0.763   1.639
 9708SOL    HW130023   2.877   0.708   1.569
 9708SOL    HW230024   2.867   0.842   1.663
 9709SOL     OW30025   5.296   1.548   1.904
 9709SOL    HW130026   5.362   1.511   1.969
 9709SOL    HW230027   5.322   1.642   1.880
 9710SOL     OW30028   4.786   5.322   4.755
 9710SOL    HW130029   4.837   5.380   4.691
 9710SOL    HW230030   4.688   5.343   4.749
 9711SOL     OW30031   2.757   0.939   6.805
 9711SOL    HW130032   2.758   0.842   6.831
 9711SOL    HW230033   2.836   0.959   6.748
 9712SOL     OW30034   5.023   0.492   5.942
 9712SOL    HW130035   5.031   0.396   5.917
 9712SOL    HW230036   4.930   0.523   5.924
 9713SOL     OW30037   2.060   0.052   3.030
 9713SOL    HW130038   1.968   0.028   3.060
 9713SOL    HW230039   2.059   0.075   2.932
 9714SOL     OW30040   2.173   3.328   4.291
 9714SOL    HW130041   2.218   3.349   4.204
 9714SOL    HW230042   2.211   3.242   4.327
 9715SOL     OW30043   6.818   2.920   6.463
 9715SOL    HW130044   6.754   2.881   6.530
 9715SOL    HW230045   6.883   2.850   6.435
 9716SOL     OW30046   2.524   6.590   0.644
 9716SOL    HW130047   2.426   6.590   0.667
 9716SOL    HW230048   2.539   6.647   0.564
 9717SOL     OW30049   3.821   2.404   5.803
 9717SOL    HW130050   3.734   2.372   5.840
 9717SOL    HW230051   3.876   2.326   5.776
 9718SOL     OW30052   3.910   2.358   6.582
 9718SOL    HW130053   3.844   2.290   6.613
 9718SOL    HW230054   4.002   2.330   6.609
 9719SOL     OW30055   4.755   0.039   5.815
 9719SOL    HW130056   4.830   0.033   5.750
 9719SOL    HW230057   4.784   0.004   5.904
 9720SOL     OW30058   1.928   2.232   2.269
 9720SOL    HW130059   1.880   2.225   2.356
 9720SOL    HW230060   1.977   2.319   2.264
 9721SOL     OW30061   0.652   1.632   1.317
 9721SOL    HW130062   0.726   1.698   1.313
 9721SOL    HW230063   0.639   1.590   1.226
 9722SOL     OW30064   3.987   2.448   5.395
 9722SOL    HW130065   4.037   2.519   5.346
 9722SOL    HW230066   3.923   2.490   5.459
 9723SOL     OW30067   6.232   0.411   5.032
 9723SOL    HW130068   6.191   0.328   5.070
 9723SOL    HW230069   6.165   0.486   5.037
 9724SOL     OW30070   1.442   4.371   1.252
 9724SOL    HW130071   1.360   4.390   1.197
 9724SOL    HW230072   1.519   4.422   1.215
 9725SOL     OW30073   5.282   5.636   3.681
 9725SOL    HW130074   5.274   5.664   3.585
 9725SOL    HW230075   5.192   5.611   3.716
 9726SOL     OW30076   6.532   0.109   2.763
 9726SOL    HW130077   6.562   0.024   2.722
 9726SOL    HW230078   6.589   0.129   2.843
 9727SOL     OW30079   5.965   2.948   1.582
 9727SOL    HW130080   5.988   2.851   1.594
 9727SOL    HW230081   5.917   2.981   1.663
 9728SOL     OW30082   5.498   2.233   4.284
 9728SOL    HW130083   5.484   2.213   4.381
 9728SOL    HW230084   5.528   2.150   4.237
 9729SOL     OW30085   0.549   3.568   3.151
 9729SOL    HW130086   0.544   3.540   3.246
 9729SOL    HW230087   0.501   3.502   3.094
 9730SOL     OW30088   1.195   5.399   2.968
 9730SOL    HW130089   1.276   5.353   2.931
 9730SOL    HW230090   1.191   5.492   2.933
 9731SOL     OW30091   6.197   3.111   1.590
 9731SOL    HW130092   6.107   3.068   1.590
 9731SOL    HW230093   6.190   3.202   1.632
 9732SOL     OW30094   1.377   3.565   2.636
 9732SOL    HW130095   1.359   3.541   2.540
 9732SOL    HW230096   1.444   3.501   2.674
 9733SOL     OW30097   6.415   4.604   2.123
 9733SOL    HW130098   6.324   4.636   2.151
 9733SOL    HW230099   6.440   4.647   2.037
 9734SOL     OW30100   4.399   5.185   6.426
 9734SOL    HW130101   4.442   5.171   6.336
 9734SOL    HW230102   4.456   5.245   6.481
 9735SOL     OW30103   0.106   1.713   0.591
 9735SOL    HW130104   0.029   1.733   0.651
 9735SOL    HW230105   0.106   1.616   0.567
 9736SOL     OW30106   4.860   2.648   5.021
 9736SOL    HW130107   4.889   2.625   5.113
 9736SOL    HW230108   4.807   2.733   5.022
 9737SOL     OW30109   5.774   2.963   4.071
 9737SOL    HW130110   5.805   2.920   4.156
 9737SOL    HW230111   5.713   2.900   4.023
 9738SOL     OW30112   2.391   6.423   1.339
 9738SOL    HW130113   2.399   6.493   1.409
 9738SOL    HW230114   2.461   6.353   1.353
 9739SOL     OW30115   6.050   6.110   0.583
 9739SOL    HW130116   5.958   6.132   0.615
 9739SOL    HW230117   6.080   6.178   0.517
 9740SOL     OW30118   6.018   0.665   2.002
 9740SOL    HW130119   6.075   0.745   1.986
 9740SOL    HW230120   6.009   0.613   1.917
 9741SOL     OW30121   2.381   2.218   3.256
 9741SOL    HW130122   2.311   2.176   3.314
 9741SOL    HW230123   2.379   2.317   3.268
 9742SOL     OW30124   3.478   2.012   6.369
 9742SOL    HW130125   3.424   2.021   6.453
 9742SOL    HW230126   3.418   2.023   6.290
 9743SOL     OW30127   6.623   3.602   4.154
 9743SOL    HW130128   6.711   3.568   4.120
 9743SOL    HW230129   6.551   3.538   4.127
 9744SOL     OW30130   1.802   1.881   2.352
 9744SOL    HW130131   1.755   1.828   2.423
 9744SOL    HW230132   1.739   1.949   2.314
 9745SOL     OW30133   0.409   0.064   6.078
 9745SOL    HW130134   0.473   0.032   6.148
 9745SOL    HW230135   0.326   0.099   6.121
 9746SOL     OW30136   3.383   6.229   5.677
 9746SOL    HW130137   3.434   6.314   5.672
 9746SOL    HW230138   3.346   6.207   5.586
 9747SOL     OW30139   3.748   1.949   3.806
 9747SOL    HW130140   3.816   1.894   3.758
 9747SOL    HW230141   3.689   1.890   3.861
 9748SOL     OW30142   0.506   1.259   2.321
 9748SOL    HW130143   0.541   1.258   2.415
 9748SOL    HW230144   0.512   1.168   2.281
 9749SOL     OW30145   6.609   0.766   1.956
 9749SOL    HW130146   6.686   0.790   2.016
 9749SOL    HW230147   6.556   0.693   1.999
 9750SOL     OW30148   5.824   2.644   5.728
 9750SOL    HW130149   5.784   2.735   5.718
 9750SOL    HW230150   5.785   2.599   5.808
 9751SOL     OW30151   3.114   6.884   1.546
 9751SOL    HW130152   3.058   6.940   1.485
 9751SOL    HW230153   3.088   6.788   1.537
 9752SOL     OW30154   3.148   2.734   0.482
 9752SOL    HW130155   3.100   2.802   0.538
 9752SOL    HW230156   3.223   2.696   0.535
 9753SOL     OW30157   0.022   5.896   3.846
 9753SOL    HW130158   0.109   5.919   3.890
 9753SOL    HW230159   0.016   5.796   3.834
 9754SOL     OW30160   3.530   1.173   2.219
 9754SOL    HW130161   3.492   1.180   2.311
 9754SOL    HW230162   3.598   1.245   2.205
 9755SOL     OW30163   3.540   3.673   0.028
 9755SOL    HW130164   3.636   3.697   0.040
 9755SOL    HW230165   3.533   3.599   6.987
 9756SOL     OW30166   5.349   0.502   6.131
 9756SOL    HW130167   5.408   0.421   6.132
 9756SOL    HW230168   5.348   0.541   6.039
 9757SOL     OW30169   5.281   3.576   4.234
 9757SOL    HW130170   5.229   3.641   4.289
 9757SOL    HW230171   5.312   3.500   4.292
 9758SOL     OW30172   2.708   0.942   2.402
 9758SOL    HW130173   2.798   0.936   2.444
 9758SOL    HW230174   2.699   1.030   2.355
 9759SOL     OW30175   6.493   1.940   1.790
 9759SOL    HW130176   6.488   2.006   1.865
 9759SOL    HW230177   6.491   1.989   1.703
 9760SOL     OW30178   4.376   0.608   6.636
 9760SOL    HW130179   4.378   0.552   6.554
 9760SOL    HW230180   4.284   0.645   6.649
 9761SOL     OW30181   0.737   2.406   1.549
 9761SOL    HW130182   0.728   2.482   1.613
 9761SOL    HW230183   0.795   2.336   1.588
 9762SOL     OW30184   3.272   1.121   5.879
 9762SOL    HW130185   3.369   1.138   5.895
 9762SOL    HW230186   3.253   1.123   5.781
 9763SOL     OW30187   6.363   2.699   1.309
 9763SOL    HW130188   6.339   2.767   1.379
 9763SOL    HW230189   6.280   2.653   1.278
 9764SOL     OW30190   0.534   2.299   2.591
 9764SOL    HW130191   0.505   2.371   2.654
 9764SOL    HW230192   0.453   2.252   2.555
 9765SOL     OW30193   6.699   0.975   1.417
 9765SOL    HW130194   6.691   0.943   1.322
 9765SOL    HW230195   6.609   0.973   1.460
 9766SOL     OW30196   0.563   2.720   2.868
 9766SOL    HW130197   0.507   2.741   2.948
 9766SOL    HW230198   0.557   2.622   2.848
 9767SOL     OW30199   2.792   1.715   5.443
 9767SOL    HW130200   2.728   1.648   5.406
 9767SOL    HW230201   2.856   1.668   5.504
 9768SOL     OW30202   5.230   2.955   0.303
 9768SOL    HW130203   5.157   2.975   0.369
 9768SOL    HW230204   5.304   2.906   0.350
 9769SOL     OW30205   3.240   1.662   5.472
 9769SOL    HW130206   3.286   1.637   5.557
 9769SOL    HW230207   3.214   1.758   5.475
 9770SOL     OW30208   1.802   2.957   5.560
 9770SOL    HW130209   1.881   2.912   5.602
 9770SOL    HW230210   1.824   2.978   5.464
 9771SOL     OW30211   3.578   0.478   1.428
 9771SOL    HW130212   3.480   0.494   1.419
 9771SOL    HW230213   3.612   0.433   1.345
 9772SOL     OW30214   0.881   0.476   1.102
 9772SOL    HW130215   0.919   0.411   1.168
 9772SOL    HW230216   0.789   0.503   1.132
 9773SOL     OW30217   5.804   6.022   2.135
 9773SOL    HW130218   5.733   5.965   2.176
 9773SOL    HW230219   5.835   6.090   2.201
 9774SOL     OW30220   2.224   5.012   4.287
 9774SOL    HW130221   2.313   4.980   4.318
 9774SOL    HW230222   2.200   4.965   4.201
 9775SOL     OW30223   2.041   1.167   2.832
 9775SOL    HW130224   2.112   1.235   2.847
 9775SOL    HW230225   1.951   1.207   2.851
 9776SOL     OW30226   2.457   5.539   1.321
 9776SOL    HW130227   2.368   5.560   1.361
 9776SOL    HW230228   2.476   5.441   1.331
 9777SOL     OW30229   4.522   1.648   5.432
 9777SOL    HW130230   4.560   1.569   5.480
 9777SOL    HW230231   4.423   1.652   5.447
 9778SOL     OW30232   0.993   3.915   2.977
 9778SOL    HW130233   0.965   3.820   2.982
 9778SOL    HW230234   0.961   3.965   3.058
 9779SOL     OW30235   2.815   0.410   3.904
 9779SOL    HW130236   2.778   0.383   3.993
 9779SOL    HW230237   2.811   0.333   3.841
 9780SOL     OW30238   0.756   1.844   0.819
 9780SOL    HW130239   0.710   1.755   0.812
 9780SOL    HW230240   0.695   1.909   0.865
 9781SOL     OW30241   1.041   1.208   1.865
 9781SOL    HW130242   1.104   1.280   1.895
 9781SOL    HW230243   0.955   1.249   1.836
 9782SOL     OW30244   0.049   2.211   0.749
 9782SOL    HW130245   0.120   2.217   0.680
 9782SOL    HW230246   0.014   2.303   0.769
 9783SOL     OW30247   4.472   1.570   2.977
 9783SOL    HW130248   4.472   1.539   2.882
 9783SOL    HW230249   4.511   1.662   2.983
 9784SOL     OW30250   1.661   1.261   6.481
 9784SOL    HW130251   1.672   1.182   6.541
 9784SOL    HW230252   1.750   1.285   6.441
 9785SOL     OW30253   0.749   3.952   4.559
 9785SOL    HW130254   0.675   3.892   4.589
 9785SOL    HW230255   0.791   3.914   4.477
 9786SOL     OW30256   2.843   4.164   6.797
 9786SOL    HW130257   2.755   4.207   6.779
 9786SOL    HW230258   2.837   4.107   6.878
 9787SOL     OW30259   3.015   3.947   2.186
 9787SOL    HW130260   3.046   3.855   2.210
 9787SOL    HW230261   2.926   3.964   2.228
 9788SOL     OW30262   3.680   6.878   2.405
 9788SOL    HW130263   3.704   6.969   2.371
 9788SOL    HW230264   3.733   6.809   2.356
 9789SOL     OW30265   3.111   0.817   0.188
 9789SOL    HW130266   3.168   0.735   0.194
 9789SOL    HW230267   3.168   0.898   0.192
 9790SOL     OW30268   4.554   5.602   4.754
 9790SOL    HW130269   4.618   5.650   4.694
 9790SOL    HW230270   4.519   5.666   4.823
 9791SOL     OW30271   0.812   0.117   1.556
 9791SOL    HW130272   0.852   0.068   1.478
 9791SOL    HW230273   0.714   0.130   1.540
 9792SOL     OW30274   3.462   4.694   0.861
 9792SOL    HW130275   3.373   4.736   0.844
 9792SOL    HW230276   3.501   4.664   0.774
 9793SOL     OW30277   6.178   0.878   3.109
 9793SOL    HW130278   6.100   0.857   3.050
 9793SOL    HW230279   6.239   0.941   3.062
 9794SOL     OW30280   4.290   5.064   4.363
 9794SOL    HW130281   4.203   5.016   4.351
 9794SOL    HW230282   4.346   5.054   4.281
 9795SOL     OW30283   0.744   3.560   3.576
 9795SOL    HW130284   0.811   3.617   3.528
 9795SOL    HW230285   0.773   3.464   3.572
 9796SOL     OW30286   2.918   3.548   4.163
 9796SOL    HW130287   2.915   3.478   4.235
 9796SOL    HW230288   2.881   3.634   4.198
 9797SOL     OW30289   2.893   5.533   6.744
 9797SOL    HW130290   2.973   5.582   6.710
 9797SOL    HW230291   2.923   5.452   6.794
 9798SOL     OW30292   0.003   4.352   6.752
 9798SOL    HW130293   6.938   4.317   6.735
 9798SOL    HW230294   0.062   4.278   6.785
 9799SOL     OW30295   3.494   0.372   0.185
 9799SOL    HW130296   3.461   0.318   0.107
 9799SOL    HW230297   3.549   0.313   0.244
 9800SOL     OW30298   6.597   3.799   4.342
 9800SOL    HW130299   6.642   3.771   4.426
 9800SOL    HW230300   6.623   3.738   4.267
 9801SOL     OW30301   4.991   5.763   0.491
 9801SOL    HW130302   4.915   5.804   0.442
 9801SOL    HW230303   5.007   5.670   0.457
 9802SOL     OW30304   3.827   3.637   0.060
 9802SOL    HW130305   3.855   3.548   0.024
 9802SOL    HW230306   3.903   3.701   0.055
 9803SOL     OW30307   1.322   3.740   6.370
 9803SOL    HW130308   1.252   3.695   6.425
 9803SOL    HW230309   1.279   3.787   6.293
 9804SOL     OW30310   0.980   4.502   3.230
 9804SOL    HW130311   1.013   4.410   3.209
 9804SOL    HW230312   0.912   4.530   3.163
 9805SOL     OW30313   0.680   5.717   4.003
 9805SOL    HW130314   0.776   5.733   3.982
 9805SOL    HW230315   0.630   5.697   3.919
 9806SOL     OW30316   3.661   1.656   0.361
 9806SOL    HW130317   3.723   1.733   0.343
 9806SOL    HW230318   3.648   1.647   0.460
 9807SOL     OW30319   4.129   3.457   3.194
 9807SOL    HW130320   4.097   3.386   3.257
 9807SOL    HW230321   4.228   3.467   3.203
 9808SOL     OW30322   3.707   5.439   2.217
 9808SOL    HW130323   3.613   5.414   2.194
 9808SOL    HW230324   3.735   5.391   2.300
 9809SOL     OW30325   6.270   2.406   0.650
 9809SOL    HW130326   6.286   2.423   0.747
 9809SOL    HW230327   6.271   2.493   0.600
 9810SOL     OW30328   2.186   2.182   0.983
 9810SOL    HW130329   2.109   2.158   0.923
 9810SOL    HW230330   2.178   2.131   1.068
 9811SOL     OW30331   5.821   3.725   4.520
 9811SOL    HW130332   5.748   3.793   4.510
 9811SOL    HW230333   5.909   3.768   4.503
 9812SOL     OW30334   3.372   5.706   5.574
 9812SOL    HW130335   3.352   5.767   5.498
 9812SOL    HW230336   3.346   5.612   5.550
 9813SOL     OW30337   4.989   0.906   2.548
 9813SOL    HW130338   5.080   0.945   2.552
 9813SOL    HW230339   4.952   0.897   2.640
 9814SOL     OW30340   0.253   1.361   6.010
 9814SOL    HW130341   0.342   1.354   5.966
 9814SOL    HW230342   0.259   1.421   6.090
 9815SOL     OW30343   4.168   2.295   4.006
 9815SOL    HW130344   4.091   2.234   4.023
 9815SOL    HW230345   4.167   2.325   3.910
 9816SOL     OW30346   2.872   0.739   0.880
 9816SOL    HW130347   2.912   0.753   0.971
 9816SOL    HW230348   2.905   0.653   0.842
 9817SOL     OW30349   6.669   0.080   2.070
 9817SOL    HW130350   6.572   0.064   2.087
 9817SOL    HW230351   6.719   7.020   2.074
 9818SOL     OW30352   4.907   2.846   5.463
 9818SOL    HW130353   4.883   2.903   5.385
 9818SOL    HW230354   4.848   2.868   5.541
 9819SOL     OW30355   4.163   0.920   2.130
 9819SOL    HW130356   4.187   0.909   2.033
 9819SOL    HW230357   4.177   0.833   2.177
 9820SOL     OW30358   4.005   2.676   6.994
 9820SOL    HW130359   3.984   2.632   6.906
 9820SOL    HW230360   3.977   2.617   0.043
 9821SOL     OW30361   6.905   5.489   0.094
 9821SOL    HW130362   6.957   5.549   0.033
 9821SOL    HW230363   6.893   5.534   0.183
 9822SOL     OW30364   0.935   0.540   3.175
 9822SOL    HW130365   1.026   0.559   3.137
 9822SOL    HW230366   0.876   0.504   3.104
 9823SOL     OW30367   3.542   6.641   1.590
 9823SOL    HW130368   3.626   6.678   1.629
 9823SOL    HW230369   3.481   6.717   1.566
 9824SOL     OW30370   1.092   3.943   5.906
 9824SOL    HW130371   1.021   3.981   5.965
 9824SOL    HW230372   1.182   3.968   5.942
 9825SOL     OW30373   4.085   5.271   5.176
 9825SOL    HW130374   4.112   5.287   5.271
 9825SOL    HW230375   4.136   5.193   5.140
 9826SOL     OW30376   5.111   0.225   5.909
 9826SOL    HW130377   5.143   0.132   5.927
 9826SOL    HW230378   5.071   0.229   5.817
 9827SOL     OW30379   1.111   3.728   4.470
 9827SOL    HW130380   1.035   3.776   4.426
 9827SOL    HW230381   1.168   3.794   4.518
 9828SOL     OW30382   2.701   2.593   6.443
 9828SOL    HW130383   2.661   2.682   6.463
 9828SOL    HW230384   2.697   2.535   6.524
 9829SOL     OW30385   3.186   4.276   1.186
 9829SOL    HW130386   3.244   4.356   1.175
 9829SOL    HW230387   3.174   4.231   1.097
 9830SOL     OW30388   6.362   1.084   0.359
 9830SOL    HW130389   6.384   1.037   0.445
 9830SOL    HW230390   6.313   1.022   0.299
 9831SOL     OW30391   5.903   6.722   0.823
 9831SOL    HW130392   5.834   6.765   0.881
 9831SOL    HW230393   5.920   6.628   0.853
 9832SOL     OW30394   4.365   5.294   0.963
 9832SOL    HW130395   4.282   5.347   0.946
 9832SOL    HW230396   4.343   5.196   0.962
 9833SOL     OW30397   4.000   3.959   5.586
 9833SOL    HW130398   3.909   3.994   5.610
 9833SOL    HW230399   4.048   3.930   5.668
 9834SOL     OW30400   1.643   2.513   4.429
 9834SOL    HW130401   1.708   2.588   4.420
 9834SOL    HW230402   1.672   2.454   4.505
 9835SOL     OW30403   4.961   1.726   4.175
 9835SOL    HW130404   4.880   1.667   4.175
 9835SOL    HW230405   4.948   1.801   4.240
 9836SOL     OW30406   4.791   4.939   2.323
 9836SOL    HW130407   4.692   4.938   2.309
 9836SOL    HW230408   4.821   4.851   2.359
 9837SOL     OW30409   1.311   6.621   4.650
 9837SOL    HW130410   1.370   6.659   4.722
 9837SOL    HW230411   1.239   6.565   4.692
 9838SOL     OW30412   6.807   5.428   5.261
 9838SOL    HW130413   6.792   5.526   5.266
 9838SOL    HW230414   6.833   5.393   5.352
 9839SOL     OW30415   6.812   2.227   2.677
 9839SOL    HW130416   6.728   2.273   2.707
 9839SOL    HW230417   6.865   2.287   2.618
 9840SOL     OW30418   6.565   0.560   0.820
 9840SOL    HW130419   6.647   0.508   0.846
 9840SOL    HW230420   6.486   0.499   0.821
 9841SOL     OW30421   1.661   3.740   4.530
 9841SOL    HW130422   1.737   3.714   4.589
 9841SOL    HW230423   1.644   3.668   4.463
 9842SOL     OW30424   3.417   2.915   2.820
 9842SOL    HW130425   3.489   2.873   2.876
 9842SOL    HW230426   3.349   2.958   2.879
 9843SOL     OW30427   5.676   3.227   2.182
 9843SOL    HW130428   5.711   3.261   2.095
 9843SOL    HW230429   5.716   3.279   2.257
 9844SOL     OW30430   5.085   0.536   2.436
 9844SOL    HW130431   5.084   0.518   2.535
 9844SOL    HW230432   5.132   0.461   2.389
 9845SOL     OW30433   0.938   2.350   3.747
 9845SOL    HW130434   0.931   2.449   3.741
 9845SOL    HW230435   0.939   2.310   3.655
 9846SOL     OW30436   2.931   3.630   3.036
 9846SOL    HW130437   2.945   3.536   3.067
 9846SOL    HW230438   2.901   3.629   2.941
 9847SOL     OW30439   2.355   4.398   4.999
 9847SOL    HW130440   2.291   4.328   4.969
 9847SOL    HW230441   2.343   4.414   5.097
 9848SOL     OW30442   4.799   3.411   0.547
 9848SOL    HW130443   4.724   3.476   0.556
 9848SOL    HW230444   4.812   3.362   0.634
 9849SOL     OW30445   0.598   6.812   5.155
 9849SOL    HW130446   0.508   6.852   5.137
 9849SOL    HW230447   0.597   6.762   5.242
 9850SOL     OW30448   4.361   7.009   2.667
 9850SOL    HW130449   4.392   6.944   2.598
 9850SOL    HW230450   4.317   6.960   2.742
 9851SOL     OW30451   5.779   3.006   4.801
 9851SOL    HW130452   5.879   3.002   4.802
 9851SOL    HW230453   5.748   3.070   4.731
 9852SOL     OW30454   4.943   2.085   3.857
 9852SOL    HW130455   4.912   2.015   3.922
 9852SOL    HW230456   4.864   2.120   3.806
 9853SOL     OW30457   6.859   3.818   1.647
 9853SOL    HW130458   6.791   3.747   1.664
 9853SOL    HW230459   6.935   3.806   1.711
 9854SOL     OW30460   4.506   6.068   3.247
 9854SOL    HW130461   4.605   6.081   3.256
 9854SOL    HW230462   4.486   5.970   3.236
 9855SOL     OW30463   1.579   3.394   1.057
 9855SOL    HW130464   1.584   3.324   0.986
 9855SOL    HW230465   1.622   3.478   1.025
 9856SOL     OW30466   4.214   2.477   0.571
 9856SOL    HW130467   4.238   2.523   0.656
 9856SOL    HW230468   4.286   2.412   0.547
 9857SOL     OW30469   5.714   3.983   3.374
 9857SOL    HW130470   5.634   3.923   3.373
 9857SOL    HW230471   5.714   4.040   3.292
 9858SOL     OW30472   4.260   1.641   1.069
 9858SOL    HW130473   4.175   1.608   1.026
 9858SOL    HW230474   4.256   1.623   1.167
 9859SOL     OW30475   6.436   0.536   1.409
 9859SOL    HW130476   6.466   0.580   1.494
 9859SOL    HW230477   6.433   0.437   1.422
 9860SOL     OW30478   0.548   0.973   2.253
 9860SOL    HW130479   0.504   0.948   2.167
 9860SOL    HW230480   0.490   0.945   2.330
 9861SOL     OW30481   3.605   6.679   4.876
 9861SOL    HW130482   3.561   6.617   4.941
 9861SOL    HW230483   3.619   6.631   4.789
 9862SOL     OW30484   0.605   2.668   0.856
 9862SOL    HW130485   0.537   2.623   0.914
 9862SOL    HW230486   0.591   2.639   0.761
 9863SOL     OW30487   2.916   6.915   0.923
 9863SOL    HW130488   2.817   6.919   0.931
 9863SOL    HW230489   2.958   6.953   1.005
 9864SOL     OW30490   4.505   5.947   2.404
 9864SOL    HW130491   4.558   5.865   2.380
 9864SOL    HW230492   4.421   5.920   2.451
 9865SOL     OW30493   0.634   2.801   5.046
 9865SOL    HW130494   0.566   2.865   5.083
 9865SOL    HW230495   0.639   2.811   4.946
 9866SOL     OW30496   4.074   4.808   3.414
 9866SOL    HW130497   4.069   4.778   3.318
 9866SOL    HW230498   4.170   4.825   3.438
 9867SOL     OW30499   3.957   0.131   5.917
 9867SOL    HW130500   3.866   0.136   5.960
 9867SOL    HW230501   4.009   0.213   5.942
 9868SOL     OW30502   6.985   5.316   6.831
 9868SOL    HW130503   7.012   5.294   6.924
 9868SOL    HW230504   6.922   5.394   6.832
 9869SOL     OW30505   1.725   3.797   3.472
 9869SOL    HW130506   1.674   3.817   3.556
 9869SOL    HW230507   1.738   3.882   3.421
 9870SOL     OW30508   4.883   4.431   2.349
 9870SOL    HW130509   4.859   4.350   2.295
 9870SOL    HW230510   4.944   4.489   2.295
 9871SOL     OW30511   1.560   1.351   5.309
 9871SOL    HW130512   1.585   1.435   5.358
 9871SOL    HW230513   1.642   1.298   5.290
 9872SOL     OW30514   1.587   4.989   3.667
 9872SOL    HW130515   1.649   4.942   3.731
 9872SOL    HW230516   1.606   4.958   3.574
 9873SOL     OW30517   0.874   3.023   0.818
 9873SOL    HW130518   0.776   3.041   0.823
 9873SOL    HW230519   0.891   2.954   0.748
 9874SOL     OW30520   0.860   3.312   3.579
 9874SOL    HW130521   0.847   3.235   3.640
 9874SOL    HW230522   0.958   3.327   3.564
 9875SOL     OW30523   1.073   0.839   3.441
 9875SOL    HW130524   1.105   0.900   3.513
 9875SOL    HW230525   1.151   0.810   3.385
 9876SOL     OW30526   6.862   6.233   2.614
 9876SOL    HW130527   6.856   6.332   2.617
 9876SOL    HW230528   6.923   6.201   2.687
 9877SOL     OW30529   3.471   0.284   2.416
 9877SOL    HW130530   3.400   0.345   2.452
 9877SOL    HW230531   3.436   0.235   2.337
 9878SOL     OW30532   0.834   0.155   5.223
 9878SOL    HW130533   0.914   0.099   5.245
 9878SOL    HW230534   0.862   0.250   5.208
 9879SOL     OW30535   5.582   6.074   6.114
 9879SOL    HW130536   5.489   6.071   6.152
 9879SOL    HW230537   5.581   6.127   6.029
 9880SOL     OW30538   2.068   1.481   4.842
 9880SOL    HW130539   2.019   1.558   4.801
 9880SOL    HW230540   2.141   1.515   4.902
 9881SOL     OW30541   6.776   2.256   6.454
 9881SOL    HW130542   6.817   2.241   6.544
 9881SOL    HW230543   6.746   2.352   6.447
 9882SOL     OW30544   1.217   1.819   3.088
 9882SOL    HW130545   1.281   1.782   3.155
 9882SOL    HW230546   1.144   1.753   3.070
 9883SOL     OW30547   2.227   0.541   1.841
 9883SOL    HW130548   2.128   0.534   1.828
 9883SOL    HW230549   2.247   0.580   1.931
 9884SOL     OW30550   3.652   0.748   4.021
 9884SOL    HW130551   3.599   0.664   4.028
 9884SOL    HW230552   3.720   0.751   4.094
 9885SOL     OW30553   6.062   5.046   3.935
 9885SOL    HW130554   6.134   5.110   3.961
 9885SOL    HW230555   6.038   5.060   3.839
 9886SOL     OW30556   1.410   3.552   2.376
 9886SOL    HW130557   1.450   3.638   2.407
 9886SOL    HW230558   1.480   3.495   2.334
 9887SOL     OW30559   4.340   0.382   6.270
 9887SOL    HW130560   4.257   0.418   6.226
 9887SOL    HW230561   4.396   0.459   6.303
 9888SOL     OW30562   0.212   4.330   0.417
 9888SOL    HW130563   0.210   4.358   0.513
 9888SOL    HW230564   0.244   4.236   0.409
 9889SOL     OW30565   0.471   5.228   0.659
 9889SOL    HW130566   0.433   5.261   0.746
 9889SOL    HW230567   0.405   5.244   0.586
 9890SOL     OW30568   0.921   2.582   1.328
 9890SOL    HW130569   0.973   2.641   1.389
 9890SOL    HW230570   0.852   2.532   1.380
 9891SOL     OW30571   4.988   1.611   1.604
 9891SOL    HW130572   5.079   1.644   1.627
 9891SOL    HW230573   4.950   1.664   1.529
 9892SOL     OW30574   0.102   5.657   6.556
 9892SOL    HW130575   0.013   5.615   6.572
 9892SOL    HW230576   0.171   5.611   6.612
 9893SOL     OW30577   1.825   1.000   1.157
 9893SOL    HW130578   1.882   0.919   1.165
 9893SOL    HW230579   1.831   1.053   1.242
 9894SOL     OW30580   1.506   1.918   0.780
 9894SOL    HW130581   1.524   2.012   0.808
 9894SOL    HW230582   1.451   1.918   0.697
 9895SOL     OW30583   4.999   3.400   5.842
 9895SOL    HW130584   5.082   3.364   5.885
 9895SOL    HW230585   4.986   3.356   5.753
 9896SOL     OW30586   5.738   6.748   0.390
 9896SOL    HW130587   5.798   6.740   0.470
 9896SOL    HW230588   5.733   6.659   0.343
 9897SOL     OW30589   4.830   5.261   3.557
 9897SOL    HW130590   4.901   5.297   3.617
 9897SOL    HW230591   4.808   5.167   3.584
 9898SOL     OW30592   3.028   6.258   5.360
 9898SOL    HW130593   2.971   6.234   5.438
 9898SOL    HW230594   3.004   6.349   5.327
 9899SOL     OW30595   6.895   5.598   6.863
 9899SOL    HW130596   6.949   5.680   6.845
 9899SOL    HW230597   6.799   5.616   6.838
 9900SOL     OW30598   2.002   3.828   3.390
 9900SOL    HW130599   2.067   3.827   3.466
 9900SOL    HW230600   1.917   3.784   3.419
 9901SOL     OW30601   1.889   2.676   5.379
 9901SOL    HW130602   1.968   2.731   5.350
 9901SOL    HW230603   1.807   2.734   5.382
 9902SOL     OW30604   2.662   4.078   7.005
 9902SOL    HW130605   2.607   4.051   6.925
 9902SOL    HW230606   2.649   4.176   7.022
 9903SOL     OW30607   5.684   0.515   3.535
 9903SOL    HW130608   5.744   0.462   3.475
 9903SOL    HW230609   5.683   0.611   3.506
 9904SOL     OW30610   6.917   2.666   6.357
 9904SOL    HW130611   6.869   2.621   6.282
 9904SOL    HW230612   7.013   2.679   6.332
 9905SOL     OW30613   4.252   1.392   0.136
 9905SOL    HW130614   4.340   1.359   0.101
 9905SOL    HW230615   4.181   1.376   0.068
 9906SOL     OW30616   4.070   3.746   4.127
 9906SOL    HW130617   4.038   3.654   4.106
 9906SOL    HW230618   4.117   3.784   4.048
 9907SOL     OW30619   0.632   0.274   1.180
 9907SOL    HW130620   0.657   0.219   1.260
 9907SOL    HW230621   0.678   0.238   1.099
 9908SOL     OW30622   5.123   3.316   3.213
 9908SOL    HW130623   5.148   3.246   3.281
 9908SOL    HW230624   5.024   3.323   3.207
 9909SOL     OW30625   2.137   0.036   5.242
 9909SOL    HW130626   2.161   6.993   5.311
 9909SOL    HW230627   2.038   0.038   5.230
 9910SOL     OW30628   0.862   4.062   3.161
 9910SOL    HW130629   0.875   4.019   3.251
 9910SOL    HW230630   0.764   4.073   3.144
 9911SOL     OW30631   3.043   6.247   2.310
 9911SOL    HW130632   3.017   6.327   2.363
 9911SOL    HW230633   3.029   6.264   2.212
 9912SOL     OW30634   4.786   0.998   6.781
 9912SOL    HW130635   4.715   0.952   6.835
 9912SOL    HW230636   4.780   1.097   6.797
 9913SOL     OW30637   5.644   3.060   6.757
 9913SOL    HW130638   5.545   3.051   6.769
 9913SOL    HW230639   5.676   3.141   6.807
 9914SOL     OW30640   6.949   2.894   4.766
 9914SOL    HW130641   6.900   2.971   4.725
 9914SOL    HW230642   7.013   2.856   4.700
 9915SOL     OW30643   5.562   0.469   3.800
 9915SOL    HW130644   5.591   0.545   3.858
 9915SOL    HW230645   5.600   0.480   3.708
 9916SOL     OW30646   2.254   2.150   1.928
 9916SOL    HW130647   2.266   2.127   1.832
 9916SOL    HW230648   2.237   2.249   1.937
 9917SOL     OW30649   6.615   4.209   4.943
 9917SOL    HW130650   6.710   4.180   4.944
 9917SOL    HW230651   6.576   4.200   5.035
 9918SOL     OW30652   4.143   2.022   2.919
 9918SOL    HW130653   4.177   2.035   2.826
 9918SOL    HW230654   4.052   2.062   2.928
 9919SOL     OW30655   6.880   5.912   0.417
 9919SOL    HW130656   6.825   5.886   0.496
 9919SOL    HW230657   6.944   5.984   0.444
 9920SOL     OW30658   5.149   1.394   2.189
 9920SOL    HW130659   5.051   1.390   2.209
 9920SOL    HW230660   5.186   1.302   2.185
 9921SOL     OW30661   3.965   5.550   5.942
 9921SOL    HW130662   3.992   5.620   5.876
 9921SOL    HW230663   3.944   5.594   6.029
 9922SOL     OW30664   0.718   5.303   0.539
 9922SOL    HW130665   0.636   5.266   0.582
 9922SOL    HW230666   0.785   5.326   0.610
 9923SOL     OW30667   5.294   4.844   0.388
 9923SOL    HW130668   5.260   4.857   0.295
 9923SOL    HW230669   5.245   4.769   0.431
 9924SOL     OW30670   0.855   4.099   4.759
 9924SOL    HW130671   0.837   4.014   4.710
 9924SOL    HW230672   0.770   4.148   4.774
 9925SOL     OW30673   5.326   2.289   3.594
 9925SOL    HW130674   5.313   2.312   3.497
 9925SOL    HW230675   5.236   2.272   3.636
 9926SOL     OW30676   2.019   5.046   0.098
 9926SOL    HW130677   1.974   5.125   0.138
 9926SOL    HW230678   1.965   5.013   0.020
 9927SOL     OW30679   6.319   7.008   2.923
 9927SOL    HW130680   6.315   0.037   2.840
 9927SOL    HW230681   6.226   6.994   2.957
 9928SOL     OW30682   5.044   4.385   1.263
 9928SOL    HW130683   5.012   4.291   1.268
 9928SOL    HW230684   4.970   4.445   1.232
 9929SOL     OW30685   2.235   4.134   3.419
 9929SOL    HW130686   2.311   4.197   3.437
 9929SOL    HW230687   2.267   4.040   3.430
 9930SOL     OW30688   6.762   0.393   3.860
 9930SOL    HW130689   6.807   0.480   3.838
 9930SOL    HW230690   6.749   0.340   3.776
 9931SOL     OW30691   1.017   4.867   5.540
 9931SOL    HW130692   1.022   4.927   5.459
 9931SOL    HW230693   0.983   4.920   5.618
 9932SOL     OW30694   1.097   5.970   5.212
 9932SOL    HW130695   0.999   5.961   5.192
 9932SOL    HW230696   1.109   5.998   5.307
 9933SOL     OW30697   0.222   5.778   2.278
 9933SOL    HW130698   0.233   5.809   2.372
 9933SOL    HW230699   0.262   5.845   2.216
 9934SOL     OW30700   6.676   1.720   6.245
 9934SOL    HW130701   6.717   1.809   6.223
 9934SOL    HW230702   6.582   1.718   6.211
 9935SOL     OW30703   3.190   1.065   6.435
 9935SOL    HW130704   3.235   1.020   6.513
 9935SOL    HW230705   3.095   1.084   6.459
 9936SOL     OW30706   0.726   4.326   4.294
 9936SOL    HW130707   0.712   4.425   4.288
 9936SOL    HW230708   0.806   4.307   4.350
 9937SOL     OW30709   6.546   2.114   6.506
 9937SOL    HW130710   6.480   2.080   6.440
 9937SOL    HW230711   6.629   2.143   6.458
 9938SOL     OW30712   6.479   6.506   3.149
 9938SOL    HW130713   6.399   6.551   3.190
 9938SOL    HW230714   6.552   6.572   3.138
 9939SOL     OW30715   3.309   3.109   2.256
 9939SOL    HW130716   3.406   3.134   2.250
 9939SOL    HW230717   3.293   3.028   2.199
 9940SOL     OW30718   0.150   1.418   0.573
 9940SOL    HW130719   0.124   1.379   0.485
 9940SOL    HW230720   0.242   1.457   0.567
 9941SOL     OW30721   3.383   4.623   5.614
 9941SOL    HW130722   3.311   4.600   5.679
 9941SOL    HW230723   3.369   4.573   5.528
 9942SOL     OW30724   2.557   5.483   3.274
 9942SOL    HW130725   2.527   5.388   3.278
 9942SOL    HW230726   2.650   5.488   3.238
 9943SOL     OW30727   1.232   6.450   5.209
 9943SOL    HW130728   1.191   6.540   5.225
 9943SOL    HW230729   1.248   6.405   5.297
 9944SOL     OW30730   0.631   3.811   0.174
 9944SOL    HW130731   0.572   3.811   0.254
 9944SOL    HW230732   0.727   3.809   0.203
 9945SOL     OW30733   6.591   5.735   0.068
 9945SOL    HW130734   6.516   5.796   0.044
 9945SOL    HW230735   6.554   5.643   0.086
 9946SOL     OW30736   5.087   0.810   4.999
 9946SOL    HW130737   5.161   0.871   4.971
 9946SOL    HW230738   5.021   0.862   5.055
 9947SOL     OW30739   5.958   4.688   3.766
 9947SOL    HW130740   5.861   4.668   3.777
 9947SOL    HW230741   5.970   4.764   3.702
 9948SOL     OW30742   5.316   4.648   4.320
 9948SOL    HW130743   5.329   4.549   4.313
 9948SOL    HW230744   5.219   4.668   4.334
 9949SOL     OW30745   5.865   5.117   2.723
 9949SOL    HW130746   5.934   5.146   2.789
 9949SOL    HW230747   5.862   5.181   2.647
 9950SOL     OW30748   3.798   5.830   5.476
 9950SOL    HW130749   3.725   5.763   5.491
 9950SOL    HW230750   3.842   5.811   5.388
 9951SOL     OW30751   6.008   2.108   2.897
 9951SOL    HW130752   5.988   2.184   2.836
 9951SOL    HW230753   5.988   2.134   2.991
 9952SOL     OW30754   0.429   5.300   0.348
 9952SOL    HW130755   0.371   5.361   0.294
 9952SOL    HW230756   0.512   5.280   0.296
 9953SOL     OW30757   6.866   1.807   4.187
 9953SOL    HW130758   6.876   1.738   4.115
 9953SOL    HW230759   6.814   1.885   4.152
 9954SOL     OW30760   4.580   0.171   5.499
 9954SOL    HW130761   4.676   0.143   5.497
 9954SOL    HW230762   4.543   0.173   5.406
 9955SOL     OW30763   0.680   4.522   5.154
 9955SOL    HW130764   0.654   4.532   5.058
 9955SOL    HW230765   0.601   4.544   5.211
 9956SOL     OW30766   1.468   6.106   1.193
 9956SOL    HW130767   1.398   6.098   1.122
 9956SOL    HW230768   1.446   6.044   1.268
 9957SOL     OW30769   6.263   4.311   3.008
 9957SOL    HW130770   6.315   4.382   3.055
 9957SOL    HW230771   6.170   4.307   3.044
 9958SOL     OW30772   2.302   4.596   1.460
 9958SOL    HW130773   2.244   4.573   1.538
 9958SOL    HW230774   2.346   4.513   1.425
 9959SOL     OW30775   3.804   3.696   0.919
 9959SOL    HW130776   3.867   3.726   0.848
 9959SOL    HW230777   3.787   3.598   0.909
 9960SOL     OW30778   0.868   1.344   2.152
 9960SOL    HW130779   0.797   1.408   2.181
 9960SOL    HW230780   0.838   1.295   2.070
 9961SOL     OW30781   2.262   4.520   4.729
 9961SOL    HW130782   2.294   4.502   4.822
 9961SOL    HW230783   2.332   4.491   4.664
 9962SOL     OW30784   5.523   6.003   5.101
 9962SOL    HW130785   5.583   6.049   5.035
 9962SOL    HW230786   5.506   6.065   5.178
 9963SOL     OW30787   3.021   0.534   0.790
 9963SOL    HW130788   2.964   0.453   0.804
 9963SOL    HW230789   3.077   0.522   0.709
 9964SOL     OW30790   4.954   5.613   5.197
 9964SOL    HW130791   4.968   5.590   5.101
 9964SOL    HW230792   4.871   5.668   5.207
 9965SOL     OW30793   3.802   0.307   0.007
 9965SOL    HW130794   3.873   0.320   6.963
 9965SOL    HW230795   3.844   0.271   0.090
 9966SOL     OW30796   0.471   6.853   2.746
 9966SOL    HW130797   0.395   6.911   2.779
 9966SOL    HW230798   0.547   6.912   2.720
 9967SOL     OW30799   1.222   4.877   0.912
 9967SOL    HW130800   1.207   4.914   0.820
 9967SOL    HW230801   1.286   4.935   0.961
 9968SOL     OW30802   3.559   3.022   2.609
 9968SOL    HW130803   3.505   3.001   2.691
 9968SOL    HW230804   3.499   3.020   2.529
 9969SOL     OW30805   0.915   3.253   1.777
 9969SOL    HW130806   0.919   3.268   1.875
 9969SOL    HW230807   0.845   3.313   1.737
 9970SOL     OW30808   5.653   4.489   1.328
 9970SOL    HW130809   5.663   4.522   1.422
 9970SOL    HW230810   5.738   4.448   1.297
 9971SOL     OW30811   2.462   5.800   0.176
 9971SOL    HW130812   2.461   5.897   0.200
 9971SOL    HW230813   2.373   5.775   0.137
 9972SOL     OW30814   6.728   4.707   1.405
 9972SOL    HW130815   6.738   4.756   1.492
 9972SOL    HW230816   6.769   4.616   1.413
 9973SOL     OW30817   5.667   6.918   4.573
 9973SOL    HW130818   5.674   6.826   4.614
 9973SOL    HW230819   5.677   6.911   4.474
 9974SOL     OW30820   1.806   0.889   4.107
 9974SOL    HW130821   1.793   0.988   4.098
 9974SOL    HW230822   1.898   0.870   4.141
 9975SOL     OW30823   6.821   3.058   0.520
 9975SOL    HW130824   6.834   3.027   0.614
 9975SOL    HW230825   6.862   3.149   0.509
 9976SOL     OW30826   1.776   0.336   5.186
 9976SOL    HW130827   1.676   0.327   5.196
 9976SOL    HW230828   1.797   0.411   5.124
 9977SOL     OW30829   6.748   4.419   4.315
 9977SOL    HW130830   6.769   4.324   4.336
 9977SOL    HW230831   6.653   4.438   4.338
 9978SOL     OW30832   0.164   2.199   4.347
 9978SOL    HW130833   0.245   2.220   4.292
 9978SOL    HW230834   0.104   2.138   4.294
 9979SOL     OW30835   0.737   4.002   5.265
 9979SOL    HW130836   0.790   4.084   5.245
 9979SOL    HW230837   0.796   3.922   5.260
 9980SOL     OW30838   3.483   6.962   4.871
 9980SOL    HW130839   3.544   6.891   4.835
 9980SOL    HW230840   3.394   6.921   4.893
 9981SOL     OW30841   3.440   2.000   4.043
 9981SOL    HW130842   3.403   1.918   4.088
 9981SOL    HW230843   3.448   1.984   3.945
 9982SOL     OW30844   6.440   5.695   3.172
 9982SOL    HW130845   6.509   5.666   3.106
 9982SOL    HW230846   6.349   5.669   3.139
 9983SOL     OW30847   0.206   1.264   1.348
 9983SOL    HW130848   0.223   1.255   1.446
 9983SOL    HW230849   0.146   1.190   1.318
 9984SOL     OW30850   2.349   0.690   0.311
 9984SOL    HW130851   2.349   0.594   0.282
 9984SOL    HW230852   2.381   0.696   0.406
 9985SOL     OW30853   1.291   1.282   1.702
 9985SOL    HW130854   1.357   1.219   1.663
 9985SOL    HW230855   1.230   1.316   1.631
 9986SOL     OW30856   5.408   4.627   4.924
 9986SOL    HW130857   5.333   4.638   4.859
 9986SOL    HW230858   5.375   4.642   5.017
 9987SOL     OW30859   0.106   4.176   6.056
 9987SOL    HW130860   0.144   4.231   6.131
 9987SOL    HW230861   0.039   4.231   6.005
 9988SOL     OW30862   6.920   6.632   4.597
 9988SOL    HW130863   6.919   6.548   4.542
 9988SOL    HW230864   6.844   6.691   4.571
 9989SOL     OW30865   0.866   3.339   4.795
 9989SOL    HW130866   0.789   3.364   4.855
 9989SOL    HW230867   0.889   3.418   4.737
 9990SOL     OW30868   1.070   5.034   2.240
 9990SOL    HW130869   1.129   5.071   2.169
 9990SOL    HW230870   0.994   4.984   2.199
 9991SOL     OW30871   3.902   1.837   3.326
 9991SOL    HW130872   3.967   1.868   3.257
 9991SOL    HW230873   3.882   1.911   3.389
 9992SOL     OW30874   6.590   5.379   6.173
 9992SOL    HW130875   6.537   5.332   6.103
 9992SOL    HW230876   6.675   5.414   6.133
 9993SOL     OW30877   0.741   0.848   1.736
 9993SOL    HW130878   0.755   0.765   1.791
 9993SOL    HW230879   0.719   0.924   1.797
 9994SOL     OW30880   5.862   4.632   2.954
 9994SOL    HW130881   5.953   4.596   2.971
 9994SOL    HW230882   5.864   4.692   2.874
 9995SOL     OW30883   5.127   1.287   4.695
 9995SOL    HW130884   5.145   1.219   4.624
 9995SOL    HW230885   5.192   1.362   4.686
 9996SOL     OW30886   2.242   3.300   0.013
 9996SOL    HW130887   2.315   3.238   7.013
 9996SOL    HW230888   2.281   3.380   0.059
 9997SOL     OW30889   2.815   6.720   4.721
 9997SOL    HW130890   2.816   6.805   4.773
 9997SOL    HW230891   2.725   6.709   4.678
 9998SOL     OW30892   5.934   6.234   5.399
 9998SOL    HW130893   5.939   6.322   5.447
 9998SOL    HW230894   5.877   6.171   5.451
 9999SOL     OW30895   6.778   2.988   4.543
 9999SOL    HW130896   6.776   3.088   4.535
 9999SOL    HW230897   6.692   2.956   4.583
10000SOL     OW30898   0.040   3.797   6.985
10000SOL    HW130899   0.105   3.783   6.910
10000SOL    HW230900   0.022   3.710   0.004
10001SOL     OW30901   4.107   0.188   2.875
10001SOL    HW130902   4.018   0.226   2.849
10001SOL    HW230903   4.104   0.088   2.869
10002SOL     OW30904   0.805   1.359   1.820
10002SOL    HW130905   0.839   1.451   1.799
10002SOL    HW230906   0.710   1.365   1.853
10003SOL     OW30907   5.016   2.171   3.575
10003SOL    HW130908   5.052   2.207   3.661
10003SOL    HW230909   4.944   2.232   3.541
10004SOL     OW30910   0.267   2.213   2.804
10004SOL    HW130911   0.320   2.225   2.888
10004SOL    HW230912   0.170   2.211   2.826
10005SOL     OW30913   5.384   6.821   4.636
10005SOL    HW130914   5.451   6.834   4.564
10005SOL    HW230915   5.422   6.851   4.724
10006SOL     OW30916   4.602   1.142   4.718
10006SOL    HW130917   4.540   1.212   4.683
10006SOL    HW230918   4.696   1.168   4.700
10007SOL     OW30919   6.494   3.530   4.393
10007SOL    HW130920   6.509   3.582   4.309
10007SOL    HW230921   6.443   3.585   4.459
10008SOL     OW30922   3.875   0.062   4.044
10008SOL    HW130923   3.900   0.022   4.132
10008SOL    HW230924   3.810   0.002   3.997
10009SOL     OW30925   0.918   4.276   1.887
10009SOL    HW130926   0.885   4.185   1.859
10009SOL    HW230927   0.996   4.266   1.949
10010SOL     OW30928   6.908   1.587   6.181
10010SOL    HW130929   6.950   1.505   6.221
10010SOL    HW230930   6.816   1.598   6.217
10011SOL     OW30931   0.197   6.731   4.743
10011SOL    HW130932   0.173   6.726   4.646
10011SOL    HW230933   0.117   6.760   4.796
10012SOL     OW30934   5.862   0.317   4.318
10012SOL    HW130935   5.829   0.355   4.404
10012SOL    HW230936   5.907   0.230   4.335
10013SOL     OW30937   1.438   0.988   2.113
10013SOL    HW130938   1.500   0.935   2.055
10013SOL    HW230939   1.352   0.939   2.124
10014SOL     OW30940   2.088   5.300   5.689
10014SOL    HW130941   2.140   5.224   5.650
10014SOL    HW230942   1.994   5.297   5.653
10015SOL     OW30943   2.272   4.865   0.092
10015SOL    HW130944   2.191   4.923   0.080
10015SOL    HW230945   2.304   4.873   0.187
10016SOL     OW30946   2.680   0.813   5.616
10016SOL    HW130947   2.759   0.776   5.566
10016SOL    HW230948   2.686   0.786   5.712
10017SOL     OW30949   0.888   2.196   4.158
10017SOL    HW130950   0.890   2.233   4.251
10017SOL    HW230951   0.824   2.119   4.155
10018SOL     OW30952   4.749   6.782   6.333
10018SOL    HW130953   4.699   6.841   6.270
10018SOL    HW230954   4.826   6.832   6.372
10019SOL     OW30955   1.942   1.358   2.385
10019SOL    HW130956   1.872   1.355   2.313
10019SOL    HW230957   1.898   1.343   2.474
10020SOL     OW30958   0.008   2.578   0.186
10020SOL    HW130959   6.953   2.611   0.233
10020SOL    HW230960   0.086   2.635   0.211
10021SOL     OW30961   5.514   3.292   1.537
10021SOL    HW130962   5.488   3.216   1.597
10021SOL    HW230963   5.525   3.258   1.444
10022SOL     OW30964   1.858   0.352   6.561
10022SOL    HW130965   1.830   0.365   6.656
10022SOL    HW230966   1.957   0.363   6.553
10023SOL     OW30967   0.224   3.375   1.278
10023SOL    HW130968   0.226   3.279   1.308
10023SOL    HW230969   0.148   3.422   1.323
10024SOL     OW30970   1.491   4.838   3.420
10024SOL    HW130971   1.405   4.888   3.416
10024SOL    HW230972   1.544   4.856   3.337
10025SOL     OW30973   1.175   1.807   0.385
10025SOL    HW130974   1.149   1.817   0.289
10025SOL    HW230975   1.131   1.725   0.423
10026SOL     OW30976   0.013   0.429   3.955
10026SOL    HW130977   0.007   0.468   4.047
10026SOL    HW230978   6.947   0.411   3.920
10027SOL     OW30979   5.211   2.447   5.895
10027SOL    HW130980   5.130   2.404   5.855
10027SOL    HW230981   5.251   2.386   5.963
10028SOL     OW30982   2.000   0.800   1.230
10028SOL    HW130983   1.993   0.700   1.224
10028SOL    HW230984   2.085   0.824   1.275
10029SOL     OW30985   5.150   1.674   3.983
10029SOL    HW130986   5.146   1.745   3.913
10029SOL    HW230987   5.070   1.681   4.042
10030SOL     OW30988   1.409   0.929   3.084
10030SOL    HW130989   1.330   0.985   3.058
10030SOL    HW230990   1.466   0.911   3.005
10031SOL     OW30991   6.892   4.359   3.994
10031SOL    HW130992   6.799   4.344   4.028
10031SOL    HW230993   6.957   4.345   4.068
10032SOL     OW30994   2.784   1.313   5.394
10032SOL    HW130995   2.733   1.234   5.428
10032SOL    HW230996   2.872   1.282   5.357
10033SOL     OW30997   5.775   2.796   4.519
10033SOL    HW130998   5.762   2.885   4.563
10033SOL    HW230999   5.725   2.726   4.569
10034SOL     OW31000   4.971   0.240   6.143
10034SOL    HW131001   5.029   0.229   6.063
10034SOL    HW231002   4.882   0.199   6.126
10035SOL     OW31003   0.064   6.546   3.547
10035SOL    HW131004   0.139   6.605   3.577
10035SOL    HW231005   0.100   6.475   3.486
10036SOL     OW31006   6.726   0.521   0.103
10036SOL    HW131007   6.733   0.587   0.028
10036SOL    HW231008   6.818   0.493   0.132
10037SOL     OW31009   0.211   6.853   1.094
10037SOL    HW131010   0.193   6.863   0.996
10037SOL    HW231011   0.288   6.791   1.107
10038SOL     OW31012   6.418   0.064   0.603
10038SOL    HW131013   6.372   0.013   0.675
10038SOL    HW231014   6.477   0.002   0.551
10039SOL     OW31015   3.175   0.537   3.379
10039SOL    HW131016   3.106   0.587   3.431
10039SOL    HW231017   3.130   0.481   3.309
10040SOL     OW31018   0.283   2.160   1.358
10040SOL    HW131019   0.323   2.113   1.437
10040SOL    HW231020   0.289   2.259   1.373
10041SOL     OW31021   1.440   5.890   0.871
10041SOL    HW131022   1.515   5.903   0.935
10041SOL    HW231023   1.454   5.806   0.819
10042SOL     OW31024   6.421   2.558   3.275
10042SOL    HW131025   6.379   2.550   3.366
10042SOL    HW231026   6.496   2.492   3.267
10043SOL     OW31027   0.650   3.117   4.889
10043SOL    HW131028   0.576   3.132   4.824
10043SOL    HW231029   0.676   3.020   4.887
10044SOL     OW31030   3.678   1.803   6.388
10044SOL    HW131031   3.587   1.804   6.348
10044SOL    HW231032   3.739   1.862   6.335
10045SOL     OW31033   2.142   0.843   0.206
10045SOL    HW131034   2.225   0.789   0.222
10045SOL    HW231035   2.142   0.874   0.111
10046SOL     OW31036   1.253   5.151   1.150
10046SOL    HW131037   1.206   5.239   1.153
10046SOL    HW231038   1.327   5.151   1.217
10047SOL     OW31039   1.156   3.892   0.763
10047SOL    HW131040   1.196   3.852   0.845
10047SOL    HW231041   1.213   3.870   0.684
10048SOL     OW31042   5.724   5.017   2.309
10048SOL    HW131043   5.781   5.089   2.268
10048SOL    HW231044   5.637   5.057   2.338
10049SOL     OW31045   5.822   1.264   5.238
10049SOL    HW131046   5.755   1.310   5.180
10049SOL    HW231047   5.806   1.165   5.236
10050SOL     OW31048   0.062   2.815   6.037
10050SOL    HW131049   7.006   2.866   6.061
10050SOL    HW231050   0.130   2.823   6.110
10051SOL     OW31051   2.247   1.869   4.238
10051SOL    HW131052   2.203   1.871   4.328
10051SOL    HW231053   2.323   1.933   4.237
10052SOL     OW31054   1.423   0.492   3.018
10052SOL    HW131055   1.422   0.485   2.918
10052SOL    HW231056   1.481   0.568   3.046
10053SOL     OW31057   5.807   5.275   3.003
10053SOL    HW131058   5.901   5.242   3.013
10053SOL    HW231059   5.785   5.284   2.906
10054SOL     OW31060   6.976   4.198   4.471
10054SOL    HW131061   7.022   4.114   4.442
10054SOL    HW231062   6.877   4.183   4.470
10055SOL     OW31063   1.655   2.488   6.578
10055SOL    HW131064   1.652   2.438   6.665
10055SOL    HW231065   1.709   2.437   6.512
10056SOL     OW31066   6.457   1.999   4.170
10056SOL    HW131067   6.432   1.954   4.255
10056SOL    HW231068   6.413   1.953   4.093
10057SOL     OW31069   5.363   5.236   5.837
10057SOL    HW131070   5.426   5.164   5.810
10057SOL    HW231071   5.270   5.210   5.810
10058SOL     OW31072   0.153   4.252   4.751
10058SOL    HW131073   0.187   4.176   4.695
10058SOL    HW231074   0.058   4.234   4.778
10059SOL     OW31075   5.362   6.709   6.435
10059SOL    HW131076   5.453   6.750   6.437
10059SOL    HW231077   5.335   6.685   6.528
10060SOL     OW31078   3.202   1.857   1.897
10060SOL    HW131079   3.120   1.912   1.915
10060SOL    HW231080   3.281   1.901   1.940
10061SOL     OW31081   3.100   0.165   2.240
10061SOL    HW131082   3.007   0.148   2.208
10061SOL    HW231083   3.110   0.261   2.265
10062SOL     OW31084   0.611   6.649   4.860
10062SOL    HW131085   0.697   6.689   4.890
10062SOL    HW231086   0.615   6.550   4.868
10063SOL     OW31087   2.768   2.309   4.590
10063SOL    HW131088   2.722   2.243   4.530
10063SOL    HW231089   2.713   2.392   4.596
10064SOL     OW31090   2.704   0.559   2.021
10064SOL    HW131091   2.629   0.619   1.994
10064SOL    HW231092   2.775   0.613   2.066
10065SOL     OW31093   0.135   1.791   1.678
10065SOL    HW131094   0.153   1.767   1.582
10065SOL    HW231095   0.205   1.751   1.736
10066SOL     OW31096   6.657   4.987   3.299
10066SOL    HW131097   6.688   4.965   3.391
10066SOL    HW231098   6.608   5.074   3.300
10067SOL     OW31099   6.968   3.693   5.275
10067SOL    HW131100   7.008   3.772   5.320
10067SOL    HW231101   6.959   3.618   5.341
10068SOL     OW31102   1.381   2.772   2.318
10068SOL    HW131103   1.338   2.751   2.230
10068SOL    HW231104   1.480   2.771   2.308
10069SOL     OW31105   3.183   4.870   0.797
10069SOL    HW131106   3.139   4.841   0.711
10069SOL    HW231107   3.122   4.932   0.846
10070SOL     OW31108   5.285   7.009   0.612
10070SOL    HW131109   5.240   6.921   0.626
10070SOL    HW231110   5.376   7.007   0.654
10071SOL     OW31111   5.247   0.961   5.813
10071SOL    HW131112   5.288   0.954   5.722
10071SOL    HW231113   5.168   0.900   5.819
10072SOL     OW31114   6.299   3.406   2.122
10072SOL    HW131115   6.325   3.374   2.031
10072SOL    HW231116   6.317   3.505   2.130
10073SOL     OW31117   5.331   5.138   4.929
10073SOL    HW131118   5.404   5.205   4.940
10073SOL    HW231119   5.291   5.117   5.018
10074SOL     OW31120   2.308   4.599   0.549
10074SOL    HW131121   2.234   4.558   0.603
10074SOL    HW231122   2.316   4.696   0.572
10075SOL     OW31123   1.177   3.175   1.745
10075SOL    HW131124   1.085   3.205   1.721
10075SOL    HW231125   1.211   3.228   1.823
10076SOL     OW31126   5.660   4.246   3.999
10076SOL    HW131127   5.715   4.182   3.944
10076SOL    HW231128   5.623   4.198   4.078
10077SOL     OW31129   4.810   3.407   6.547
10077SOL    HW131130   4.802   3.347   6.467
10077SOL    HW231131   4.758   3.490   6.532
10078SOL     OW31132   6.207   4.903   4.558
10078SOL    HW131133   6.177   4.844   4.483
10078SOL    HW231134   6.243   4.989   4.520
10079SOL     OW31135   5.152   4.389   3.472
10079SOL    HW131136   5.172   4.310   3.414
10079SOL    HW231137   5.078   4.366   3.536
10080SOL     OW31138   4.910   1.766   5.553
10080SOL    HW131139   4.959   1.774   5.467
10080SOL    HW231140   4.813   1.751   5.534
10081SOL     OW31141   0.970   4.772   0.266
10081SOL    HW131142   0.900   4.771   0.194
10081SOL    HW231143   0.964   4.687   0.318
10082SOL     OW31144   1.034   4.383   0.639
10082SOL    HW131145   1.086   4.427   0.566
10082SOL    HW231146   1.037   4.440   0.722
10083SOL     OW31147   2.590   6.102   2.287
10083SOL    HW131148   2.679   6.063   2.309
10083SOL    HW231149   2.523   6.028   2.276
10084SOL     OW31150   1.376   2.585   4.490
10084SOL    HW131151   1.472   2.557   4.478
10084SOL    HW231152   1.316   2.506   4.476
10085SOL     OW31153   4.911   6.945   1.625
10085SOL    HW131154   5.005   6.967   1.597
10085SOL    HW231155   4.870   6.884   1.557
10086SOL     OW31156   4.304   6.552   2.849
10086SOL    HW131157   4.362   6.552   2.930
10086SOL    HW231158   4.237   6.626   2.856
10087SOL     OW31159   1.854   6.401   5.139
10087SOL    HW131160   1.847   6.353   5.052
10087SOL    HW231161   1.932   6.464   5.136
10088SOL     OW31162   6.201   2.520   1.616
10088SOL    HW131163   6.293   2.548   1.586
10088SOL    HW231164   6.180   2.429   1.579
10089SOL     OW31165   4.229   0.375   1.974
10089SOL    HW131166   4.250   0.387   2.071
10089SOL    HW231167   4.167   0.447   1.943
10090SOL     OW31168   1.982   6.174   3.174
10090SOL    HW131169   2.049   6.236   3.133
10090SOL    HW231170   1.963   6.204   3.267
10091SOL     OW31171   5.703   5.188   4.651
10091SOL    HW131172   5.643   5.110   4.668
10091SOL    HW231173   5.793   5.170   4.692
10092SOL     OW31174   0.957   1.863   3.280
10092SOL    HW131175   1.013   1.781   3.272
10092SOL    HW231176   0.867   1.847   3.238
10093SOL     OW31177   4.637   3.602   6.470
10093SOL    HW131178   4.538   3.605   6.482
10093SOL    HW231179   4.662   3.641   6.381
10094SOL     OW31180   3.462   2.068   0.552
10094SOL    HW131181   3.418   2.072   0.642
10094SOL    HW231182   3.535   2.136   0.547
10095SOL     OW31183   4.194   3.202   5.590
10095SOL    HW131184   4.111   3.204   5.645
10095SOL    HW231185   4.234   3.294   5.585
10096SOL     OW31186   6.361   3.685   2.133
10096SOL    HW131187   6.275   3.705   2.179
10096SOL    HW231188   6.417   3.768   2.129
10097SOL     OW31189   0.909   1.468   0.917
10097SOL    HW131190   0.928   1.470   1.015
10097SOL    HW231191   0.985   1.424   0.869
10098SOL     OW31192   3.460   6.181   4.761
10098SOL    HW131193   3.366   6.176   4.794
10098SOL    HW231194   3.515   6.234   4.825
10099SOL     OW31195   0.025   5.081   3.153
10099SOL    HW131196   6.961   5.092   3.112
10099SOL    HW231197   0.024   5.005   3.218
10100SOL     OW31198   5.226   5.085   4.048
10100SOL    HW131199   5.282   5.100   3.967
10100SOL    HW231200   5.285   5.070   4.127
10101SOL     OW31201   6.467   2.804   0.248
10101SOL    HW131202   6.392   2.773   0.190
10101SOL    HW231203   6.510   2.725   0.292
10102SOL     OW31204   6.275   4.884   3.236
10102SOL    HW131205   6.246   4.788   3.230
10102SOL    HW231206   6.278   4.911   3.332
10103SOL     OW31207   0.226   6.528   6.735
10103SOL    HW131208   0.151   6.463   6.721
10103SOL    HW231209   0.234   6.550   6.832
10104SOL     OW31210   2.882   1.193   4.789
10104SOL    HW131211   2.796   1.222   4.746
10104SOL    HW231212   2.871   1.102   4.829
10105SOL     OW31213   3.113   1.224   3.597
10105SOL    HW131214   3.117   1.309   3.544
10105SOL    HW231215   3.046   1.234   3.670
10106SOL     OW31216   5.657   4.218   1.435
10106SOL    HW131217   5.653   4.277   1.355
10106SOL    HW231218   5.597   4.140   1.422
10107SOL     OW31219   5.257   5.572   6.282
10107SOL    HW131220   5.243   5.476   6.257
10107SOL    HW231221   5.171   5.609   6.319
10108SOL     OW31222   2.447   2.461   5.207
10108SOL    HW131223   2.359   2.458   5.254
10108SOL    HW231224   2.471   2.370   5.175
10109SOL     OW31225   1.002   2.866   1.163
10109SOL    HW131226   1.057   2.932   1.111
10109SOL    HW231227   1.038   2.860   1.256
10110SOL     OW31228   6.533   5.643   1.556
10110SOL    HW131229   6.551   5.714   1.488
10110SOL    HW231230   6.446   5.662   1.602
10111SOL     OW31231   6.124   2.686   1.822
10111SOL    HW131232   6.136   2.635   1.737
10111SOL    HW231233   6.116   2.622   1.898
10112SOL     OW31234   6.771   2.809   4.134
10112SOL    HW131235   6.789   2.715   4.106
10112SOL    HW231236   6.674   2.830   4.119
10113SOL     OW31237   6.730   6.468   5.883
10113SOL    HW131238   6.717   6.373   5.912
10113SOL    HW231239   6.812   6.505   5.926
10114SOL     OW31240   4.895   3.366   1.899
10114SOL    HW131241   4.911   3.353   1.997
10114SOL    HW231242   4.875   3.462   1.881
10115SOL     OW31243   3.566   3.030   5.994
10115SOL    HW131244   3.507   3.108   5.971
10115SOL    HW231245   3.524   2.946   5.958
10116SOL     OW31246   0.588   0.310   6.576
10116SOL    HW131247   0.662   0.368   6.543
10116SOL    HW231248   0.583   0.316   6.676
10117SOL     OW31249   6.835   4.462   1.446
10117SOL    HW131250   6.762   4.426   1.504
10117SOL    HW231251   6.922   4.420   1.471
10118SOL     OW31252   3.984   5.164   4.042
10118SOL    HW131253   4.028   5.085   4.085
10118SOL    HW231254   3.958   5.140   3.948
10119SOL     OW31255   6.043   6.528   6.765
10119SOL    HW131256   6.100   6.450   6.739
10119SOL    HW231257   6.093   6.613   6.750
10120SOL     OW31258   2.391   2.585   2.683
10120SOL    HW131259   2.352   2.495   2.665
10120SOL    HW231260   2.490   2.582   2.669
10121SOL     OW31261   6.916   5.624   1.280
10121SOL    HW131262   6.864   5.671   1.209
10121SOL    HW231263   6.860   5.552   1.320
10122SOL     OW31264   1.739   0.166   3.164
10122SOL    HW131265   1.688   0.230   3.222
10122SOL    HW231266   1.725   0.190   3.068
10123SOL     OW31267   6.267   5.851   6.223
10123SOL    HW131268   6.173   5.836   6.252
10123SOL    HW231269   6.308   5.765   6.194
10124SOL     OW31270   2.303   5.257   2.206
10124SOL    HW131271   2.240   5.279   2.281
10124SOL    HW231272   2.251   5.222   2.128
10125SOL     OW31273   1.259   1.097   5.126
10125SOL    HW131274   1.276   1.004   5.159
10125SOL    HW231275   1.280   1.163   5.198
10126SOL     OW31276   6.645   6.123   5.049
10126SOL    HW131277   6.553   6.162   5.044
10126SOL    HW231278   6.685   6.145   5.138
10127SOL     OW31279   2.316   0.049   5.773
10127SOL    HW131280   2.334   0.117   5.702
10127SOL    HW231281   2.400   0.031   5.824
10128SOL     OW31282   2.634   2.270   6.949
10128SOL    HW131283   2.613   2.207   7.024
10128SOL    HW231284   2.566   2.343   6.946
10129SOL     OW31285   6.344   1.887   4.522
10129SOL    HW131286   6.437   1.921   4.536
10129SOL    HW231287   6.317   1.831   4.600
10130SOL     OW31288   1.409   2.040   3.356
10130SOL    HW131289   1.351   2.120   3.372
10130SOL    HW231290   1.460   2.053   3.271
10131SOL     OW31291   1.722   0.243   5.463
10131SOL    HW131292   1.654   0.302   5.508
10131SOL    HW231293   1.752   0.287   5.378
10132SOL     OW31294   5.414   0.641   2.443
10132SOL    HW131295   5.415   0.557   2.388
10132SOL    HW231296   5.429   0.618   2.539
10133SOL     OW31297   4.781   6.041   1.380
10133SOL    HW131298   4.771   6.095   1.296
10133SOL    HW231299   4.847   5.968   1.364
10134SOL     OW31300   0.179   6.381   3.339
10134SOL    HW131301   0.090   6.346   3.370
10134SOL    HW231302   0.236   6.306   3.308
10135SOL     OW31303   6.441   6.399   3.444
10135SOL    HW131304   6.519   6.379   3.504
10135SOL    HW231305   6.472   6.398   3.349
10136SOL     OW31306   4.537   1.221   3.780
10136SOL    HW131307   4.498   1.167   3.855
10136SOL    HW231308   4.635   1.235   3.797
10137SOL     OW31309   0.289   5.627   4.062
10137SOL    HW131310   0.321   5.715   4.026
10137SOL    HW231311   0.232   5.643   4.143
10138SOL     OW31312   6.972   2.586   1.823
10138SOL    HW131313   0.001   2.657   1.780
10138SOL    HW231314   7.020   2.498   1.816
10139SOL     OW31315   3.963   2.598   6.736
10139SOL    HW131316   4.036   2.658   6.702
10139SOL    HW231317   3.952   2.520   6.675
10140SOL     OW31318   6.755   5.716   5.330
10140SOL    HW131319   6.853   5.708   5.348
10140SOL    HW231320   6.715   5.784   5.391
10141SOL     OW31321   1.914   2.229   4.815
10141SOL    HW131322   1.941   2.317   4.775
10141SOL    HW231323   1.815   2.219   4.807
10142SOL     OW31324   5.076   5.734   2.171
10142SOL    HW131325   5.023   5.664   2.220
10142SOL    HW231326   5.111   5.801   2.236
10143SOL     OW31327   5.880   3.315   5.977
10143SOL    HW131328   5.861   3.313   6.075
10143SOL    HW231329   5.973   3.283   5.960
10144SOL     OW31330   3.753   0.470   0.634
10144SOL    HW131331   3.785   0.561   0.661
10144SOL    HW231332   3.680   0.479   0.566
10145SOL     OW31333   6.697   6.954   5.413
10145SOL    HW131334   6.702   6.916   5.321
10145SOL    HW231335   6.782   6.937   5.462
10146SOL     OW31336   1.584   3.035   5.671
10146SOL    HW131337   1.514   2.963   5.675
10146SOL    HW231338   1.670   2.996   5.639
10147SOL     OW31339   3.858   5.409   6.886
10147SOL    HW131340   3.780   5.349   6.867
10147SOL    HW231341   3.901   5.435   6.799
10148SOL     OW31342   0.533   5.151   6.900
10148SOL    HW131343   0.531   5.053   6.878
10148SOL    HW231344   0.500   5.204   6.823
10149SOL     OW31345   4.088   3.258   2.239
10149SOL    HW131346   4.086   3.352   2.204
10149SOL    HW231347   4.043   3.197   2.174
10150SOL     OW31348   5.003   4.098   1.681
10150SOL    HW131349   4.951   4.089   1.766
10150SOL    HW231350   4.944   4.139   1.610
10151SOL     OW31351   0.019   1.055   6.020
10151SOL    HW131352   0.105   1.098   5.995
10151SOL    HW231353   6.979   1.125   6.048
10152SOL     OW31354   3.973   6.986   3.448
10152SOL    HW131355   3.886   7.021   3.413
10152SOL    HW231356   3.984   7.014   3.543
10153SOL     OW31357   4.849   3.650   1.789
10153SOL    HW131358   4.855   3.686   1.882
10153SOL    HW231359   4.824   3.724   1.726
10154SOL     OW31360   4.101   5.503   5.028
10154SOL    HW131361   4.040   5.499   4.949
10154SOL    HW231362   4.102   5.414   5.074
10155SOL     OW31363   4.623   1.976   4.412
10155SOL    HW131364   4.549   1.911   4.394
10155SOL    HW231365   4.592   2.068   4.387
10156SOL     OW31366   3.861   2.262   6.229
10156SOL    HW131367   3.798   2.218   6.292
10156SOL    HW231368   3.910   2.336   6.276
10157SOL     OW31369   0.625   4.640   1.030
10157SOL    HW131370   0.545   4.585   1.053
10157SOL    HW231371   0.696   4.627   1.100
10158SOL     OW31372   5.457   5.182   0.405
10158SOL    HW131373   5.416   5.264   0.446
10158SOL    HW231374   5.555   5.197   0.392
10159SOL     OW31375   3.622   2.843   1.833
10159SOL    HW131376   3.642   2.754   1.791
10159SOL    HW231377   3.563   2.896   1.772
10160SOL     OW31378   0.134   4.363   2.398
10160SOL    HW131379   0.167   4.269   2.392
10160SOL    HW231380   0.192   4.423   2.343
10161SOL     OW31381   6.143   3.209   5.954
10161SOL    HW131382   6.214   3.226   5.886
10161SOL    HW231383   6.186   3.196   6.044
10162SOL     OW31384   1.755   2.267   2.484
10162SOL    HW131385   1.670   2.283   2.435
10162SOL    HW231386   1.735   2.224   2.572
10163SOL     OW31387   3.501   4.967   4.661
10163SOL    HW131388   3.403   4.976   4.641
10163SOL    HW231389   3.520   5.007   4.751
10164SOL     OW31390   0.441   1.196   4.022
10164SOL    HW131391   0.389   1.273   4.059
10164SOL    HW231392   0.454   1.127   4.093
10165SOL     OW31393   1.607   3.157   4.012
10165SOL    HW131394   1.706   3.140   4.015
10165SOL    HW231395   1.590   3.249   3.978
10166SOL     OW31396   3.146   5.726   2.956
10166SOL    HW131397   3.237   5.702   2.989
10166SOL    HW231398   3.125   5.820   2.982
10167SOL     OW31399   2.912   2.361   6.545
10167SOL    HW131400   2.941   2.270   6.574
10167SOL    HW231401   2.838   2.393   6.605
10168SOL     OW31402   0.288   0.744   6.173
10168SOL    HW131403   0.236   0.695   6.243
10168SOL    HW231404   0.277   0.842   6.185
10169SOL     OW31405   4.552   5.724   3.187
10169SOL    HW131406   4.561   5.681   3.277
10169SOL    HW231407   4.462   5.768   3.180
10170SOL     OW31408   4.933   6.730   0.515
10170SOL    HW131409   4.974   6.653   0.564
10170SOL    HW231410   4.941   6.813   0.570
10171SOL     OW31411   2.213   4.045   4.211
10171SOL    HW131412   2.177   3.977   4.276
10171SOL    HW231413   2.230   4.001   4.123
10172SOL     OW31414   0.384   0.954   2.504
10172SOL    HW131415   0.308   1.013   2.478
10172SOL    HW231416   0.397   0.958   2.603
10173SOL     OW31417   3.963   3.990   4.982
10173SOL    HW131418   4.026   3.980   5.058
10173SOL    HW231419   3.991   3.930   4.907
10174SOL     OW31420   5.242   4.512   1.095
10174SOL    HW131421   5.181   4.487   1.170
10174SOL    HW231422   5.193   4.571   1.030
10175SOL     OW31423   6.638   6.990   4.161
10175SOL    HW131424   6.695   0.030   4.209
10175SOL    HW231425   6.660   6.898   4.192
10176SOL     OW31426   6.988   0.903   4.769
10176SOL    HW131427   0.006   0.988   4.798
10176SOL    HW231428   6.979   0.903   4.670
10177SOL     OW31429   2.835   1.452   4.098
10177SOL    HW131430   2.811   1.472   4.003
10177SOL    HW231431   2.899   1.521   4.131
10178SOL     OW31432   0.465   1.503   1.716
10178SOL    HW131433   0.509   1.455   1.792
10178SOL    HW231434   0.401   1.571   1.752
10179SOL     OW31435   6.977   6.001   1.295
10179SOL    HW131436   6.976   6.081   1.235
10179SOL    HW231437   6.902   6.009   1.361
10180SOL     OW31438   3.092   6.713   6.403
10180SOL    HW131439   3.035   6.654   6.345
10180SOL    HW231440   3.188   6.692   6.387
10181SOL     OW31441   0.565   3.402   2.664
10181SOL    HW131442   0.555   3.373   2.568
10181SOL    HW231443   0.478   3.441   2.695
10182SOL     OW31444   3.839   0.284   0.449
10182SOL    HW131445   3.879   0.348   0.383
10182SOL    HW231446   3.820   0.333   0.534
10183SOL     OW31447   4.132   6.067   5.729
10183SOL    HW131448   4.054   6.004   5.727
10183SOL    HW231449   4.131   6.124   5.646
10184SOL     OW31450   5.664   2.987   5.074
10184SOL    HW131451   5.678   2.986   4.975
10184SOL    HW231452   5.681   2.896   5.111
10185SOL     OW31453   2.611   4.641   2.489
10185SOL    HW131454   2.561   4.604   2.567
10185SOL    HW231455   2.705   4.661   2.515
10186SOL     OW31456   3.578   2.971   0.471
10186SOL    HW131457   3.663   3.005   0.431
10186SOL    HW231458   3.552   2.885   0.426
10187SOL     OW31459   2.238   3.558   5.589
10187SOL    HW131460   2.214   3.655   5.582
10187SOL    HW231461   2.169   3.503   5.541
10188SOL     OW31462   1.953   6.682   6.793
10188SOL    HW131463   1.946   6.592   6.834
10188SOL    HW231464   1.887   6.744   6.836
10189SOL     OW31465   2.109   1.847   5.126
10189SOL    HW131466   2.117   1.946   5.115
10189SOL    HW231467   2.036   1.827   5.192
10190SOL     OW31468   4.067   4.093   0.953
10190SOL    HW131469   4.035   4.031   0.881
10190SOL    HW231470   4.083   4.042   1.037
10191SOL     OW31471   5.377   0.728   0.237
10191SOL    HW131472   5.382   0.823   0.207
10191SOL    HW231473   5.298   0.717   0.297
10192SOL     OW31474   1.817   1.156   4.073
10192SOL    HW131475   1.817   1.179   3.975
10192SOL    HW231476   1.907   1.175   4.111
10193SOL     OW31477   3.610   3.666   4.106
10193SOL    HW131478   3.651   3.577   4.082
10193SOL    HW231479   3.611   3.676   4.206
10194SOL     OW31480   3.115   6.011   2.944
10194SOL    HW131481   3.134   6.099   2.986
10194SOL    HW231482   3.167   6.002   2.860
10195SOL     OW31483   5.186   0.661   3.233
10195SOL    HW131484   5.262   0.617   3.282
10195SOL    HW231485   5.216   0.685   3.140
10196SOL     OW31486   5.192   4.234   4.414
10196SOL    HW131487   5.139   4.312   4.448
10196SOL    HW231488   5.246   4.196   4.489
10197SOL     OW31489   5.054   1.568   3.128
10197SOL    HW131490   5.126   1.507   3.160
10197SOL    HW231491   5.023   1.539   3.038
10198SOL     OW31492   3.423   1.048   1.578
10198SOL    HW131493   3.393   1.097   1.496
10198SOL    HW231494   3.343   1.017   1.629
10199SOL     OW31495   1.078   1.816   0.150
10199SOL    HW131496   0.998   1.855   0.104
10199SOL    HW231497   1.157   1.819   0.089
10200SOL     OW31498   5.656   6.254   4.692
10200SOL    HW131499   5.732   6.246   4.627
10200SOL    HW231500   5.588   6.184   4.672
10201SOL     OW31501   1.806   4.571   3.163
10201SOL    HW131502   1.899   4.606   3.168
10201SOL    HW231503   1.783   4.550   3.069
10202SOL     OW31504   0.529   2.154   3.565
10202SOL    HW131505   0.561   2.152   3.659
10202SOL    HW231506   0.605   2.132   3.503
10203SOL     OW31507   0.121   2.196   1.139
10203SOL    HW131508   0.171   2.179   1.224
10203SOL    HW231509   0.166   2.146   1.064
10204SOL     OW31510   2.733   5.864   4.460
10204SOL    HW131511   2.824   5.893   4.490
10204SOL    HW231512   2.700   5.791   4.520
10205SOL     OW31513   3.948   0.486   1.145
10205SOL    HW131514   3.958   0.393   1.110
10205SOL    HW231515   3.851   0.512   1.145
10206SOL     OW31516   5.264   6.916   6.617
10206SOL    HW131517   5.355   6.877   6.625
10206SOL    HW231518   5.269   7.016   6.621
10207SOL     OW31519   4.002   1.339   2.662
10207SOL    HW131520   4.054   1.260   2.628
10207SOL    HW231521   3.950   1.378   2.586
10208SOL     OW31522   6.723   3.577   5.811
10208SOL    HW131523   6.692   3.656   5.864
10208SOL    HW231524   6.716   3.495   5.867
10209SOL     OW31525   4.151   6.392   6.581
10209SOL    HW131526   4.215   6.315   6.579
10209SOL    HW231527   4.112   6.406   6.490
10210SOL     OW31528   5.600   5.555   0.392
10210SOL    HW131529   5.682   5.574   0.338
10210SOL    HW231530   5.625   5.540   0.487
10211SOL     OW31531   3.792   5.533   5.454
10211SOL    HW131532   3.842   5.491   5.379
10211SOL    HW231533   3.854   5.591   5.508
10212SOL     OW31534   6.213   6.245   6.154
10212SOL    HW131535   6.239   6.159   6.111
10212SOL    HW231536   6.295   6.289   6.192
10213SOL     OW31537   4.487   0.883   4.551
10213SOL    HW131538   4.486   0.844   4.459
10213SOL    HW231539   4.540   0.968   4.550
10214SOL     OW31540   0.789   0.673   0.259
10214SOL    HW131541   0.720   0.662   0.330
10214SOL    HW231542   0.870   0.620   0.282
10215SOL     OW31543   4.270   2.472   6.983
10215SOL    HW131544   4.296   2.400   0.021
10215SOL    HW231545   4.170   2.471   6.971
10216SOL     OW31546   5.091   0.091   2.860
10216SOL    HW131547   5.045   0.110   2.773
10216SOL    HW231548   5.188   0.072   2.843
10217SOL     OW31549   3.305   2.450   5.560
10217SOL    HW131550   3.236   2.379   5.553
10217SOL    HW231551   3.310   2.500   5.473
10218SOL     OW31552   3.079   2.172   6.716
10218SOL    HW131553   3.071   2.208   6.809
10218SOL    HW231554   3.138   2.091   6.717
10219SOL     OW31555   1.051   5.301   6.958
10219SOL    HW131556   1.094   5.261   0.012
10219SOL    HW231557   0.994   5.379   6.985
10220SOL     OW31558   4.278   2.194   0.162
10220SOL    HW131559   4.242   2.166   0.073
10220SOL    HW231560   4.237   2.137   0.234
10221SOL     OW31561   2.621   0.947   4.529
10221SOL    HW131562   2.576   1.016   4.585
10221SOL    HW231563   2.553   0.880   4.498
10222SOL     OW31564   2.021   4.897   5.749
10222SOL    HW131565   1.952   4.965   5.775
10222SOL    HW231566   1.981   4.806   5.755
10223SOL     OW31567   0.619   4.461   6.945
10223SOL    HW131568   0.540   4.401   6.960
10223SOL    HW231569   0.667   4.476   0.005
10224SOL     OW31570   2.734   6.972   4.841
10224SOL    HW131571   2.664   6.984   4.911
10224SOL    HW231572   2.695   6.996   4.752
10225SOL     OW31573   4.793   6.083   4.646
10225SOL    HW131574   4.852   6.159   4.618
10225SOL    HW231575   4.846   6.019   4.701
10226SOL     OW31576   6.557   2.962   6.342
10226SOL    HW131577   6.566   2.953   6.243
10226SOL    HW231578   6.649   2.965   6.383
10227SOL     OW31579   4.809   4.867   5.570
10227SOL    HW131580   4.774   4.948   5.523
10227SOL    HW231581   4.895   4.839   5.528
10228SOL     OW31582   0.968   3.041   1.974
10228SOL    HW131583   1.005   3.082   2.057
10228SOL    HW231584   1.044   3.012   1.915
10229SOL     OW31585   2.162   0.651   1.487
10229SOL    HW131586   2.234   0.660   1.556
10229SOL    HW231587   2.108   0.568   1.507
10230SOL     OW31588   6.336   6.632   3.530
10230SOL    HW131589   6.412   6.693   3.507
10230SOL    HW231590   6.358   6.539   3.503
10231SOL     OW31591   4.765   6.935   4.477
10231SOL    HW131592   4.824   7.016   4.474
10231SOL    HW231593   4.783   6.883   4.561
10232SOL     OW31594   3.983   1.583   3.389
10232SOL    HW131595   4.052   1.583   3.461
10232SOL    HW231596   3.949   1.677   3.377
10233SOL     OW31597   4.725   0.433   5.517
10233SOL    HW131598   4.647   0.370   5.510
10233SOL    HW231599   4.728   0.472   5.609
10234SOL     OW31600   4.615   5.910   1.075
10234SOL    HW131601   4.670   5.990   1.048
10234SOL    HW231602   4.637   5.886   1.170
10235SOL     OW31603   4.812   0.905   0.346
10235SOL    HW131604   4.837   0.860   0.432
10235SOL    HW231605   4.845   0.851   0.269
10236SOL     OW31606   1.911   5.779   1.684
10236SOL    HW131607   1.962   5.770   1.599
10236SOL    HW231608   1.923   5.697   1.740
10237SOL     OW31609   5.730   2.447   3.294
10237SOL    HW131610   5.733   2.547   3.303
10237SOL    HW231611   5.644   2.419   3.252
10238SOL     OW31612   4.312   6.164   4.775
10238SOL    HW131613   4.397   6.111   4.775
10238SOL    HW231614   4.319   6.239   4.710
10239SOL     OW31615   6.225   3.651   4.608
10239SOL    HW131616   6.182   3.671   4.520
10239SOL    HW231617   6.299   3.716   4.624
10240SOL     OW31618   4.890   3.827   3.517
10240SOL    HW131619   4.842   3.914   3.508
10240SOL    HW231620   4.953   3.831   3.595
10241SOL     OW31621   2.057   1.808   2.950
10241SOL    HW131622   2.071   1.906   2.938
10241SOL    HW231623   2.144   1.760   2.941
10242SOL     OW31624   1.210   5.506   5.991
10242SOL    HW131625   1.142   5.576   6.011
10242SOL    HW231626   1.263   5.533   5.911
10243SOL     OW31627   1.054   6.540   2.909
10243SOL    HW131628   1.074   6.446   2.939
10243SOL    HW231629   1.126   6.570   2.846
10244SOL     OW31630   1.303   5.505   0.298
10244SOL    HW131631   1.373   5.566   0.259
10244SOL    HW231632   1.254   5.459   0.224
10245SOL     OW31633   2.424   2.698   0.424
10245SOL    HW131634   2.368   2.739   0.496
10245SOL    HW231635   2.400   2.739   0.336
10246SOL     OW31636   3.186   3.269   4.179
10246SOL    HW131637   3.199   3.359   4.137
10246SOL    HW231638   3.166   3.281   4.276
10247SOL     OW31639   0.815   5.598   5.560
10247SOL    HW131640   0.837   5.562   5.469
10247SOL    HW231641   0.759   5.531   5.609
10248SOL     OW31642   5.789   0.716   3.796
10248SOL    HW131643   5.826   0.808   3.810
10248SOL    HW231644   5.774   0.701   3.699
10249SOL     OW31645   4.718   1.292   6.232
10249SOL    HW131646   4.627   1.265   6.263
10249SOL    HW231647   4.784   1.277   6.306
10250SOL     OW31648   5.559   6.943   0.712
10250SOL    HW131649   5.549   6.878   0.636
10250SOL    HW231650   5.652   6.978   0.714
10251SOL     OW31651   3.607   4.601   1.096
10251SOL    HW131652   3.620   4.686   1.147
10251SOL    HW231653   3.549   4.618   1.017
10252SOL     OW31654   0.107   4.431   1.349
10252SOL    HW131655   0.094   4.336   1.320
10252SOL    HW231656   0.204   4.447   1.366
10253SOL     OW31657   3.912   4.739   0.432
10253SOL    HW131658   3.906   4.654   0.484
10253SOL    HW231659   3.827   4.790   0.441
10254SOL     OW31660   2.174   1.233   4.600
10254SOL    HW131661   2.233   1.268   4.528
10254SOL    HW231662   2.092   1.193   4.560
10255SOL     OW31663   3.031   5.425   3.023
10255SOL    HW131664   3.060   5.367   2.947
10255SOL    HW231665   3.060   5.519   3.005
10256SOL     OW31666   6.053   6.247   0.065
10256SOL    HW131667   6.097   6.259   0.154
10256SOL    HW231668   6.050   6.334   0.017
10257SOL     OW31669   1.717   5.657   5.527
10257SOL    HW131670   1.795   5.713   5.557
10257SOL    HW231671   1.729   5.633   5.430
10258SOL     OW31672   4.028   0.473   3.573
10258SOL    HW131673   4.081   0.464   3.657
10258SOL    HW231674   3.992   0.566   3.567
10259SOL     OW31675   0.496   3.782   3.932
10259SOL    HW131676   0.470   3.780   3.835
10259SOL    HW231677   0.487   3.690   3.970
10260SOL     OW31678   6.864   5.758   2.379
10260SOL    HW131679   6.925   5.680   2.369
10260SOL    HW231680   6.865   5.812   2.295
10261SOL     OW31681   1.806   0.322   2.037
10261SOL    HW131682   1.841   0.293   1.948
10261SOL    HW231683   1.859   0.400   2.070
10262SOL     OW31684   1.308   6.189   3.746
10262SOL    HW131685   1.408   6.189   3.753
10262SOL    HW231686   1.279   6.267   3.689
10263SOL     OW31687   6.703   2.945   5.490
10263SOL    HW131688   6.650   2.962   5.407
10263SOL    HW231689   6.707   3.029   5.544
10264SOL     OW31690   0.701   6.714   0.147
10264SOL    HW131691   0.685   6.790   0.083
10264SOL    HW231692   0.797   6.687   0.144
10265SOL     OW31693   4.416   1.967   2.742
10265SOL    HW131694   4.454   1.968   2.835
10265SOL    HW231695   4.488   1.938   2.678
10266SOL     OW31696   4.057   3.554   6.700
10266SOL    HW131697   4.063   3.558   6.600
10266SOL    HW231698   4.093   3.639   6.738
10267SOL     OW31699   6.548   1.311   6.250
10267SOL    HW131700   6.450   1.324   6.235
10267SOL    HW231701   6.577   1.366   6.328
10268SOL     OW31702   6.598   3.939   1.134
10268SOL    HW131703   6.607   3.861   1.073
10268SOL    HW231704   6.612   4.024   1.083
10269SOL     OW31705   3.560   2.310   6.232
10269SOL    HW131706   3.591   2.394   6.275
10269SOL    HW231707   3.553   2.238   6.300
10270SOL     OW31708   2.979   6.236   1.803
10270SOL    HW131709   3.025   6.179   1.871
10270SOL    HW231710   3.037   6.313   1.779
10271SOL     OW31711   2.646   5.362   1.046
10271SOL    HW131712   2.585   5.436   1.015
10271SOL    HW231713   2.591   5.282   1.070
10272SOL     OW31714   2.006   2.395   4.440
10272SOL    HW131715   1.984   2.304   4.475
10272SOL    HW231716   1.956   2.411   4.355
10273SOL     OW31717   4.306   0.170   4.157
10273SOL    HW131718   4.263   0.254   4.125
10273SOL    HW231719   4.275   0.093   4.102
10274SOL     OW31720   2.664   4.817   6.501
10274SOL    HW131721   2.757   4.840   6.471
10274SOL    HW231722   2.637   4.879   6.574
10275SOL     OW31723   0.789   6.756   1.681
10275SOL    HW131724   0.809   6.786   1.588
10275SOL    HW231725   0.868   6.771   1.740
10276SOL     OW31726   0.643   5.815   6.796
10276SOL    HW131727   0.683   5.880   6.732
10276SOL    HW231728   0.578   5.862   6.855
10277SOL     OW31729   0.531   5.880   2.064
10277SOL    HW131730   0.438   5.884   2.029
10277SOL    HW231731   0.554   5.786   2.087
10278SOL     OW31732   6.854   0.071   5.843
10278SOL    HW131733   6.951   0.058   5.825
10278SOL    HW231734   6.814   7.011   5.874
10279SOL     OW31735   3.653   6.332   4.927
10279SOL    HW131736   3.742   6.347   4.884
10279SOL    HW231737   3.634   6.408   4.990
10280SOL     OW31738   3.584   2.709   6.935
10280SOL    HW131739   3.514   2.780   6.928
10280SOL    HW231740   3.675   2.752   6.940
10281SOL     OW31741   4.744   0.138   4.213
10281SOL    HW131742   4.772   0.225   4.172
10281SOL    HW231743   4.795   0.063   4.169
10282SOL     OW31744   1.287   2.814   4.621
10282SOL    HW131745   1.287   2.728   4.570
10282SOL    HW231746   1.233   2.804   4.704
10283SOL     OW31747   1.791   4.202   6.034
10283SOL    HW131748   1.704   4.251   6.029
10283SOL    HW231749   1.802   4.145   5.953
10284SOL     OW31750   4.896   2.894   0.226
10284SOL    HW131751   4.892   2.994   0.226
10284SOL    HW231752   4.900   2.860   0.132
10285SOL     OW31753   5.274   1.266   0.787
10285SOL    HW131754   5.233   1.272   0.878
10285SOL    HW231755   5.347   1.334   0.779
10286SOL     OW31756   4.464   1.056   3.998
10286SOL    HW131757   4.504   1.073   4.088
10286SOL    HW231758   4.496   0.966   3.965
10287SOL     OW31759   1.250   4.544   2.123
10287SOL    HW131760   1.267   4.637   2.156
10287SOL    HW231761   1.295   4.532   2.034
10288SOL     OW31762   4.670   6.435   4.549
10288SOL    HW131763   4.652   6.337   4.552
10288SOL    HW231764   4.632   6.474   4.465
10289SOL     OW31765   2.782   1.258   1.414
10289SOL    HW131766   2.787   1.259   1.514
10289SOL    HW231767   2.687   1.240   1.385
10290SOL     OW31768   3.091   3.266   2.264
10290SOL    HW131769   3.160   3.197   2.243
10290SOL    HW231770   3.093   3.337   2.194
10291SOL     OW31771   4.088   0.585   5.120
10291SOL    HW131772   4.145   0.667   5.121
10291SOL    HW231773   4.002   0.604   5.167
10292SOL     OW31774   0.578   2.210   5.025
10292SOL    HW131775   0.568   2.111   5.032
10292SOL    HW231776   0.636   2.243   5.100
10293SOL     OW31777   3.175   5.776   3.300
10293SOL    HW131778   3.196   5.689   3.345
10293SOL    HW231779   3.259   5.816   3.264
10294SOL     OW31780   6.705   1.561   3.019
10294SOL    HW131781   6.606   1.566   3.007
10294SOL    HW231782   6.727   1.496   3.092
10295SOL     OW31783   1.809   3.934   4.424
10295SOL    HW131784   1.835   3.998   4.496
10295SOL    HW231785   1.756   3.859   4.463
10296SOL     OW31786   6.683   2.949   1.806
10296SOL    HW131787   6.706   3.009   1.882
10296SOL    HW231788   6.753   2.957   1.735
10297SOL     OW31789   3.207   5.531   4.595
10297SOL    HW131790   3.232   5.440   4.628
10297SOL    HW231791   3.108   5.540   4.594
10298SOL     OW31792   5.945   3.155   3.393
10298SOL    HW131793   6.024   3.215   3.381
10298SOL    HW231794   5.926   3.144   3.491
10299SOL     OW31795   4.882   3.958   2.084
10299SOL    HW131796   4.870   3.859   2.096
10299SOL    HW231797   4.980   3.980   2.081
10300SOL     OW31798   0.929   5.174   1.687
10300SOL    HW131799   0.863   5.243   1.659
10300SOL    HW231800   0.976   5.139   1.605
10301SOL     OW31801   4.445   1.239   1.548
10301SOL    HW131802   4.450   1.299   1.628
10301SOL    HW231803   4.406   1.289   1.471
10302SOL     OW31804   2.021   4.221   4.246
10302SOL    HW131805   2.080   4.143   4.225
10302SOL    HW231806   2.056   4.268   4.327
10303SOL     OW31807   4.088   2.582   1.373
10303SOL    HW131808   4.171   2.604   1.424
10303SOL    HW231809   4.044   2.501   1.414
10304SOL     OW31810   6.086   6.391   3.786
10304SOL    HW131811   6.119   6.482   3.812
10304SOL    HW231812   6.139   6.321   3.834
10305SOL     OW31813   1.948   5.493   1.165
10305SOL    HW131814   1.941   5.522   1.069
10305SOL    HW231815   2.040   5.457   1.182
10306SOL     OW31816   4.303   4.380   1.128
10306SOL    HW131817   4.321   4.292   1.084
10306SOL    HW231818   4.303   4.453   1.059
10307SOL     OW31819   2.095   1.542   5.402
10307SOL    HW131820   2.096   1.442   5.395
10307SOL    HW231821   2.023   1.571   5.465
10308SOL     OW31822   2.748   5.511   3.623
10308SOL    HW131823   2.665   5.469   3.587
10308SOL    HW231824   2.747   5.609   3.604
10309SOL     OW31825   0.392   5.915   3.537
10309SOL    HW131826   0.409   5.949   3.444
10309SOL    HW231827   0.307   5.863   3.538
10310SOL     OW31828   3.398   2.886   4.548
10310SOL    HW131829   3.446   2.883   4.460
10310SOL    HW231830   3.462   2.864   4.621
10311SOL     OW31831   0.415   0.052   0.742
10311SOL    HW131832   0.346   7.017   0.779
10311SOL    HW231833   0.401   0.145   0.777
10312SOL     OW31834   2.237   4.803   0.937
10312SOL    HW131835   2.165   4.771   1.000
10312SOL    HW231836   2.316   4.833   0.989
10313SOL     OW31837   6.556   5.521   3.891
10313SOL    HW131838   6.512   5.465   3.821
10313SOL    HW231839   6.632   5.469   3.931
10314SOL     OW31840   6.283   5.279   5.141
10314SOL    HW131841   6.188   5.292   5.113
10314SOL    HW231842   6.340   5.351   5.101
10315SOL     OW31843   4.471   6.813   5.459
10315SOL    HW131844   4.474   6.733   5.518
10315SOL    HW231845   4.375   6.838   5.441
10316SOL     OW31846   0.196   3.910   2.909
10316SOL    HW131847   0.258   3.833   2.891
10316SOL    HW231848   0.247   3.995   2.905
10317SOL     OW31849   4.924   4.595   0.058
10317SOL    HW131850   4.825   4.601   0.055
10317SOL    HW231851   4.955   4.586   0.153
10318SOL     OW31852   6.324   5.520   2.815
10318SOL    HW131853   6.256   5.594   2.811
10318SOL    HW231854   6.295   5.445   2.757
10319SOL     OW31855   5.241   6.462   4.737
10319SOL    HW131856   5.243   6.405   4.818
10319SOL    HW231857   5.334   6.478   4.705
10320SOL     OW31858   4.454   5.463   2.122
10320SOL    HW131859   4.429   5.542   2.067
10320SOL    HW231860   4.507   5.492   2.201
10321SOL     OW31861   4.070   0.343   4.124
10321SOL    HW131862   4.040   0.399   4.047
10321SOL    HW231863   4.037   0.249   4.112
10322SOL     OW31864   0.602   2.416   6.938
10322SOL    HW131865   0.699   2.440   6.934
10322SOL    HW231866   0.592   2.321   6.969
10323SOL     OW31867   0.841   2.384   5.729
10323SOL    HW131868   0.887   2.356   5.645
10323SOL    HW231869   0.906   2.429   5.789
10324SOL     OW31870   3.531   2.908   4.282
10324SOL    HW131871   3.613   2.857   4.256
10324SOL    HW231872   3.470   2.915   4.203
10325SOL     OW31873   6.945   3.825   3.391
10325SOL    HW131874   7.020   3.858   3.448
10325SOL    HW231875   6.906   3.901   3.340
10326SOL     OW31876   5.546   2.124   1.311
10326SOL    HW131877   5.497   2.210   1.324
10326SOL    HW231878   5.483   2.055   1.275
10327SOL     OW31879   6.380   1.168   3.337
10327SOL    HW131880   6.363   1.129   3.428
10327SOL    HW231881   6.299   1.217   3.307
10328SOL     OW31882   6.230   4.154   2.639
10328SOL    HW131883   6.140   4.124   2.671
10328SOL    HW231884   6.267   4.221   2.703
10329SOL     OW31885   3.476   5.921   2.821
10329SOL    HW131886   3.535   6.002   2.818
10329SOL    HW231887   3.506   5.855   2.752
10330SOL     OW31888   3.051   3.905   0.987
10330SOL    HW131889   3.119   3.889   0.915
10330SOL    HW231890   2.962   3.871   0.957
10331SOL     OW31891   5.327   0.892   4.428
10331SOL    HW131892   5.273   0.956   4.482
10331SOL    HW231893   5.387   0.942   4.366
10332SOL     OW31894   0.765   1.309   6.258
10332SOL    HW131895   0.684   1.365   6.274
10332SOL    HW231896   0.847   1.365   6.270
10333SOL     OW31897   6.192   4.587   5.430
10333SOL    HW131898   6.226   4.519   5.496
10333SOL    HW231899   6.241   4.577   5.343
10334SOL     OW31900   1.034   5.072   4.867
10334SOL    HW131901   1.057   5.018   4.947
10334SOL    HW231902   1.104   5.140   4.850
10335SOL     OW31903   3.021   5.291   2.095
10335SOL    HW131904   3.012   5.193   2.116
10335SOL    HW231905   3.064   5.302   2.006
10336SOL     OW31906   4.954   0.066   2.625
10336SOL    HW131907   5.021   0.046   2.554
10336SOL    HW231908   4.900   7.010   2.644
10337SOL     OW31909   0.306   4.509   5.507
10337SOL    HW131910   0.325   4.424   5.555
10337SOL    HW231911   0.385   4.534   5.451
10338SOL     OW31912   2.642   4.992   2.741
10338SOL    HW131913   2.557   5.031   2.705
10338SOL    HW231914   2.720   5.031   2.692
10339SOL     OW31915   2.861   5.748   0.676
10339SOL    HW131916   2.893   5.659   0.643
10339SOL    HW231917   2.807   5.734   0.759
10340SOL     OW31918   1.606   6.284   0.448
10340SOL    HW131919   1.694   6.275   0.495
10340SOL    HW231920   1.555   6.361   0.486
10341SOL     OW31921   0.459   2.364   2.003
10341SOL    HW131922   0.388   2.391   1.938
10341SOL    HW231923   0.431   2.279   2.049
10342SOL     OW31924   3.920   6.392   4.207
10342SOL    HW131925   3.938   6.295   4.188
10342SOL    HW231926   3.829   6.401   4.248
10343SOL     OW31927   2.452   2.689   4.301
10343SOL    HW131928   2.426   2.746   4.379
10343SOL    HW231929   2.539   2.644   4.320
10344SOL     OW31930   4.122   3.239   1.736
10344SOL    HW131931   4.138   3.319   1.793
10344SOL    HW231932   4.209   3.194   1.715
10345SOL     OW31933   2.905   2.224   5.810
10345SOL    HW131934   2.948   2.174   5.735
10345SOL    HW231935   2.971   2.288   5.850
10346SOL     OW31936   6.152   5.574   0.631
10346SOL    HW131937   6.191   5.651   0.682
10346SOL    HW231938   6.078   5.606   0.574
10347SOL     OW31939   4.576   0.353   1.469
10347SOL    HW131940   4.646   0.382   1.403
10347SOL    HW231941   4.615   0.354   1.561
10348SOL     OW31942   6.588   4.965   5.663
10348SOL    HW131943   6.543   5.010   5.586
10348SOL    HW231944   6.550   4.999   5.749
10349SOL     OW31945   6.761   2.238   0.197
10349SOL    HW131946   6.718   2.218   0.284
10349SOL    HW231947   6.750   2.335   0.175
10350SOL     OW31948   2.201   4.693   4.511
10350SOL    HW131949   2.214   4.647   4.598
10350SOL    HW231950   2.136   4.769   4.522
10351SOL     OW31951   3.865   5.004   4.776
10351SOL    HW131952   3.839   4.944   4.700
10351SOL    HW231953   3.861   4.952   4.862
10352SOL     OW31954   6.515   0.642   0.251
10352SOL    HW131955   6.449   0.671   0.183
10352SOL    HW231956   6.601   0.617   0.207
10353SOL     OW31957   6.441   2.274   4.194
10353SOL    HW131958   6.369   2.277   4.124
10353SOL    HW231959   6.458   2.179   4.219
10354SOL     OW31960   6.073   2.734   1.323
10354SOL    HW131961   6.005   2.701   1.388
10354SOL    HW231962   6.112   2.820   1.357
10355SOL     OW31963   0.700   1.587   0.743
10355SOL    HW131964   0.781   1.565   0.798
10355SOL    HW231965   0.663   1.503   0.703
10356SOL     OW31966   5.408   2.197   6.800
10356SOL    HW131967   5.321   2.222   6.842
10356SOL    HW231968   5.434   2.267   6.733
10357SOL     OW31969   1.305   0.137   5.903
10357SOL    HW131970   1.322   0.040   5.923
10357SOL    HW231971   1.322   0.191   5.986
10358SOL     OW31972   0.178   2.604   3.036
10358SOL    HW131973   0.080   2.594   3.055
10358SOL    HW231974   0.192   2.681   2.973
10359SOL     OW31975   0.518   2.090   2.344
10359SOL    HW131976   0.606   2.131   2.368
10359SOL    HW231977   0.452   2.105   2.418
10360SOL     OW31978   6.097   3.957   0.954
10360SOL    HW131979   6.177   3.957   1.015
10360SOL    HW231980   6.014   3.966   1.008
10361SOL     OW31981   6.133   2.087   2.301
10361SOL    HW131982   6.228   2.113   2.279
10361SOL    HW231983   6.079   2.085   2.218
10362SOL     OW31984   1.283   5.549   2.032
10362SOL    HW131985   1.221   5.616   2.073
10362SOL    HW231986   1.236   5.462   2.021
10363SOL     OW31987   5.604   5.188   6.761
10363SOL    HW131988   5.572   5.093   6.757
10363SOL    HW231989   5.562   5.241   6.688
10364SOL     OW31990   5.554   5.466   2.686
10364SOL    HW131991   5.523   5.558   2.663
10364SOL    HW231992   5.515   5.439   2.774
10365SOL     OW31993   6.211   5.389   0.273
10365SOL    HW131994   6.285   5.348   0.326
10365SOL    HW231995   6.222   5.488   0.272
10366SOL     OW31996   2.925   6.677   4.052
10366SOL    HW131997   2.907   6.732   3.970
10366SOL    HW231998   3.021   6.649   4.053
10367SOL     OW31999   5.459   6.353   2.098
10367SOL    HW132000   5.367   6.343   2.060
10367SOL    HW232001   5.494   6.444   2.078
10368SOL     OW32002   1.105   5.310   2.057
10368SOL    HW132003   1.040   5.361   2.000
10368SOL    HW232004   1.088   5.330   2.153
10369SOL     OW32005   2.447   0.480   5.981
10369SOL    HW132006   2.513   0.406   5.970
10369SOL    HW232007   2.451   0.514   6.075
10370SOL     OW32008   2.078   1.659   5.817
10370SOL    HW132009   2.125   1.744   5.841
10370SOL    HW232010   2.087   1.594   5.892
10371SOL     OW32011   4.184   5.639   2.944
10371SOL    HW132012   4.090   5.639   2.978
10371SOL    HW232013   4.217   5.544   2.937
10372SOL     OW32014   2.459   6.594   1.054
10372SOL    HW132015   2.473   6.622   1.149
10372SOL    HW232016   2.453   6.494   1.049
10373SOL     OW32017   6.195   1.002   6.611
10373SOL    HW132018   6.206   1.075   6.544
10373SOL    HW232019   6.269   1.005   6.677
10374SOL     OW32020   2.798   5.024   3.234
10374SOL    HW132021   2.844   4.939   3.208
10374SOL    HW232022   2.778   5.077   3.152
10375SOL     OW32023   2.422   5.747   0.535
10375SOL    HW132024   2.453   5.671   0.591
10375SOL    HW232025   2.496   5.778   0.476
10376SOL     OW32026   2.411   4.720   3.599
10376SOL    HW132027   2.359   4.760   3.674
10376SOL    HW232028   2.452   4.793   3.544
10377SOL     OW32029   2.167   1.235   2.281
10377SOL    HW132030   2.083   1.274   2.319
10377SOL    HW232031   2.158   1.136   2.276
10378SOL     OW32032   0.567   6.076   5.157
10378SOL    HW132033   0.487   6.132   5.180
10378SOL    HW232034   0.565   6.054   5.060
10379SOL     OW32035   2.051   0.196   3.533
10379SOL    HW132036   2.144   0.202   3.497
10379SOL    HW232037   2.052   0.153   3.623
10380SOL     OW32038   3.645   1.717   3.944
10380SOL    HW132039   3.717   1.753   4.004
10380SOL    HW232040   3.657   1.618   3.935
10381SOL     OW32041   4.019   6.988   2.707
10381SOL    HW132042   3.938   6.998   2.650
10381SOL    HW232043   4.100   7.020   2.657
10382SOL     OW32044   4.044   5.354   2.062
10382SOL    HW132045   4.117   5.291   2.038
10382SOL    HW232046   3.956   5.315   2.034
10383SOL     OW32047   0.776   4.788   0.033
10383SOL    HW132048   0.807   4.882   0.019
10383SOL    HW232049   0.768   4.743   6.970
10384SOL     OW32050   5.007   5.517   1.333
10384SOL    HW132051   5.021   5.420   1.352
10384SOL    HW232052   4.926   5.549   1.383
10385SOL     OW32053   4.509   4.382   0.237
10385SOL    HW132054   4.472   4.389   0.330
10385SOL    HW232055   4.492   4.290   0.202
10386SOL     OW32056   0.151   0.453   1.301
10386SOL    HW132057   0.154   0.517   1.377
10386SOL    HW232058   0.120   0.364   1.334
10387SOL     OW32059   4.884   3.540   2.334
10387SOL    HW132060   4.805   3.583   2.378
10387SOL    HW232061   4.968   3.570   2.379
10388SOL     OW32062   1.832   6.984   4.910
10388SOL    HW132063   1.829   6.917   4.984
10388SOL    HW232064   1.764   6.961   4.841
10389SOL     OW32065   0.970   3.954   6.846
10389SOL    HW132066   1.017   4.038   6.817
10389SOL    HW232067   0.927   3.911   6.767
10390SOL     OW32068   2.105   2.380   1.958
10390SOL    HW132069   2.116   2.474   1.924
10390SOL    HW232070   2.018   2.343   1.926
10391SOL     OW32071   5.797   6.924   3.955
10391SOL    HW132072   5.834   6.832   3.963
10391SOL    HW232073   5.745   6.946   4.038
10392SOL     OW32074   6.738   4.145   4.352
10392SOL    HW132075   6.661   4.193   4.394
10392SOL    HW232076   6.714   4.117   4.260
10393SOL     OW32077   1.736   2.670   2.897
10393SOL    HW132078   1.702   2.749   2.946
10393SOL    HW232079   1.836   2.672   2.895
10394SOL     OW32080   3.233   0.360   4.100
10394SOL    HW132081   3.306   0.396   4.042
10394SOL    HW232082   3.154   0.420   4.094
10395SOL     OW32083   0.830   0.129   0.520
10395SOL    HW132084   0.815   0.034   0.495
10395SOL    HW232085   0.762   0.157   0.588
10396SOL     OW32086   3.367   2.128   4.947
10396SOL    HW132087   3.277   2.166   4.966
10396SOL    HW232088   3.413   2.182   4.876
10397SOL     OW32089   5.449   2.057   4.004
10397SOL    HW132090   5.477   2.128   3.938
10397SOL    HW232091   5.349   2.055   4.010
10398SOL     OW32092   5.767   2.589   2.447
10398SOL    HW132093   5.723   2.562   2.361
10398SOL    HW232094   5.859   2.623   2.428
10399SOL     OW32095   0.841   3.879   2.175
10399SOL    HW132096   0.930   3.836   2.190
10399SOL    HW232097   0.771   3.809   2.162
10400SOL     OW32098   2.285   6.293   0.833
10400SOL    HW132099   2.285   6.256   0.927
10400SOL    HW232100   2.379   6.293   0.798
10401SOL     OW32101   0.272   0.945   5.714
10401SOL    HW132102   0.349   0.935   5.651
10401SOL    HW232103   0.283   0.882   5.790
10402SOL     OW32104   6.915   3.405   5.330
10402SOL    HW132105   6.844   3.334   5.335
10402SOL    HW232106   6.977   3.384   5.254
10403SOL     OW32107   3.245   6.941   0.649
10403SOL    HW132108   3.269   6.915   0.743
10403SOL    HW232109   3.146   6.931   0.637
10404SOL     OW32110   6.717   6.732   6.168
10404SOL    HW132111   6.647   6.664   6.189
10404SOL    HW232112   6.673   6.818   6.142
10405SOL     OW32113   0.630   2.481   6.493
10405SOL    HW132114   0.641   2.539   6.574
10405SOL    HW232115   0.688   2.400   6.500
10406SOL     OW32116   1.884   5.083   1.399
10406SOL    HW132117   1.849   5.144   1.327
10406SOL    HW232118   1.863   4.988   1.375
10407SOL     OW32119   2.428   5.939   5.820
10407SOL    HW132120   2.461   5.845   5.808
10407SOL    HW232121   2.404   5.954   5.915
10408SOL     OW32122   3.861   1.350   0.267
10408SOL    HW132123   3.792   1.342   0.339
10408SOL    HW232124   3.829   1.414   0.197
10409SOL     OW32125   5.784   4.819   0.975
10409SOL    HW132126   5.723   4.822   1.055
10409SOL    HW232127   5.759   4.892   0.911
10410SOL     OW32128   4.891   0.406   0.695
10410SOL    HW132129   4.897   0.503   0.717
10410SOL    HW232130   4.983   0.366   0.697
10411SOL     OW32131   2.575   4.976   3.877
10411SOL    HW132132   2.613   5.049   3.933
10411SOL    HW232133   2.587   4.999   3.780
10412SOL     OW32134   5.775   0.074   0.734
10412SOL    HW132135   5.728   0.156   0.766
10412SOL    HW232136   5.874   0.089   0.737
10413SOL     OW32137   6.929   2.914   2.145
10413SOL    HW132138   6.987   2.836   2.121
10413SOL    HW232139   6.927   2.926   2.244
10414SOL     OW32140   5.034   2.741   4.408
10414SOL    HW132141   5.092   2.733   4.489
10414SOL    HW232142   4.972   2.663   4.403
10415SOL     OW32143   0.091   0.625   6.355
10415SOL    HW132144   0.109   0.541   6.305
10415SOL    HW232145   7.022   0.628   6.384
10416SOL     OW32146   5.358   3.360   4.429
10416SOL    HW132147   5.441   3.342   4.377
10416SOL    HW232148   5.318   3.274   4.459
10417SOL     OW32149   2.714   4.655   3.072
10417SOL    HW132150   2.644   4.598   3.029
10417SOL    HW232151   2.729   4.624   3.166
10418SOL     OW32152   1.774   5.463   5.964
10418SOL    HW132153   1.770   5.551   6.011
10418SOL    HW232154   1.687   5.415   5.978
10419SOL     OW32155   1.374   1.535   0.976
10419SOL    HW132156   1.325   1.534   1.063
10419SOL    HW232157   1.308   1.536   0.901
10420SOL     OW32158   0.338   3.456   3.389
10420SOL    HW132159   0.254   3.406   3.369
10420SOL    HW232160   0.322   3.554   3.377
10421SOL     OW32161   0.430   1.378   3.302
10421SOL    HW132162   0.503   1.353   3.366
10421SOL    HW232163   0.375   1.297   3.282
10422SOL     OW32164   5.829   3.545   5.820
10422SOL    HW132165   5.917   3.580   5.788
10422SOL    HW232166   5.843   3.459   5.869
10423SOL     OW32167   5.238   4.495   2.542
10423SOL    HW132168   5.196   4.470   2.455
10423SOL    HW232169   5.170   4.486   2.615
10424SOL     OW32170   4.630   1.912   6.360
10424SOL    HW132171   4.598   1.903   6.454
10424SOL    HW232172   4.650   1.822   6.322
10425SOL     OW32173   2.174   6.512   1.534
10425SOL    HW132174   2.178   6.555   1.444
10425SOL    HW232175   2.100   6.553   1.587
10426SOL     OW32176   6.417   3.673   0.109
10426SOL    HW132177   6.443   3.639   0.019
10426SOL    HW232178   6.384   3.767   0.101
10427SOL     OW32179   4.456   1.350   1.095
10427SOL    HW132180   4.429   1.427   1.038
10427SOL    HW232181   4.445   1.373   1.191
10428SOL     OW32182   4.904   1.125   4.467
10428SOL    HW132183   4.959   1.164   4.393
10428SOL    HW232184   4.879   1.197   4.531
10429SOL     OW32185   5.892   6.403   2.192
10429SOL    HW132186   5.890   6.365   2.100
10429SOL    HW232187   5.971   6.465   2.201
10430SOL     OW32188   3.957   6.612   3.109
10430SOL    HW132189   3.978   6.515   3.123
10430SOL    HW232190   3.943   6.656   3.197
10431SOL     OW32191   2.108   1.273   5.383
10431SOL    HW132192   2.200   1.237   5.401
10431SOL    HW232193   2.042   1.224   5.440
10432SOL     OW32194   5.436   1.121   5.128
10432SOL    HW132195   5.379   1.046   5.092
10432SOL    HW232196   5.487   1.088   5.207
10433SOL     OW32197   2.926   6.492   1.075
10433SOL    HW132198   2.959   6.397   1.074
10433SOL    HW232199   2.902   6.520   0.982
10434SOL     OW32200   2.532   1.950   4.260
10434SOL    HW132201   2.518   1.985   4.167
10434SOL    HW232202   2.584   1.865   4.255
10435SOL     OW32203   5.317   6.099   0.011
10435SOL    HW132204   5.281   6.006   0.015
10435SOL    HW232205   5.344   6.121   6.943
10436SOL     OW32206   1.317   0.097   2.215
10436SOL    HW132207   1.304   7.024   2.211
10436SOL    HW232208   1.404   0.117   2.260
10437SOL     OW32209   6.444   5.324   5.947
10437SOL    HW132210   6.503   5.350   5.870
10437SOL    HW232211   6.357   5.374   5.940
10438SOL     OW32212   3.502   6.491   6.182
10438SOL    HW132213   3.480   6.434   6.103
10438SOL    HW232214   3.597   6.519   6.178
10439SOL     OW32215   4.208   0.180   5.486
10439SOL    HW132216   4.211   0.233   5.402
10439SOL    HW232217   4.181   0.239   5.562
10440SOL     OW32218   2.398   6.078   0.210
10440SOL    HW132219   2.396   6.101   0.308
10440SOL    HW232220   2.309   6.099   0.170
10441SOL     OW32221   3.744   0.571   6.696
10441SOL    HW132222   3.751   0.651   6.755
10441SOL    HW232223   3.679   0.588   6.623
10442SOL     OW32224   4.401   6.014   5.722
10442SOL    HW132225   4.425   5.927   5.679
10442SOL    HW232226   4.303   6.030   5.713
10443SOL     OW32227   6.075   2.900   5.023
10443SOL    HW132228   6.035   2.956   5.095
10443SOL    HW232229   6.049   2.936   4.934
10444SOL     OW32230   3.599   4.917   3.830
10444SOL    HW132231   3.596   5.015   3.851
10444SOL    HW232232   3.508   4.885   3.802
10445SOL     OW32233   6.032   6.031   3.867
10445SOL    HW132234   5.938   6.047   3.837
10445SOL    HW232235   6.083   5.985   3.794
10446SOL     OW32236   0.825   6.302   6.600
10446SOL    HW132237   0.911   6.280   6.554
10446SOL    HW232238   0.844   6.357   6.682
10447SOL     OW32239   6.553   2.098   1.177
10447SOL    HW132240   6.533   2.021   1.237
10447SOL    HW232241   6.500   2.178   1.205
10448SOL     OW32242   3.472   4.150   2.285
10448SOL    HW132243   3.388   4.101   2.312
10448SOL    HW232244   3.450   4.219   2.216
10449SOL     OW32245   1.499   5.198   4.640
10449SOL    HW132246   1.535   5.183   4.732
10449SOL    HW232247   1.419   5.139   4.625
10450SOL     OW32248   6.933   3.144   0.956
10450SOL    HW132249   6.863   3.103   0.897
10450SOL    HW232250   7.020   3.097   0.941
10451SOL     OW32251   2.305   4.340   2.655
10451SOL    HW132252   2.216   4.384   2.670
10451SOL    HW232253   2.322   4.333   2.557
10452SOL     OW32254   1.105   3.898   5.112
10452SOL    HW132255   1.170   3.850   5.053
10452SOL    HW232256   1.081   3.986   5.069
10453SOL     OW32257   5.612   0.094   1.794
10453SOL    HW132258   5.631   0.172   1.853
10453SOL    HW232259   5.667   0.100   1.711
10454SOL     OW32260   4.945   3.590   2.726
10454SOL    HW132261   4.905   3.638   2.804
10454SOL    HW232262   4.916   3.494   2.727
10455SOL     OW32263   6.475   4.533   3.113
10455SOL    HW132264   6.440   4.502   3.201
10455SOL    HW232265   6.537   4.465   3.075
10456SOL     OW32266   3.795   6.405   0.928
10456SOL    HW132267   3.804   6.324   0.870
10456SOL    HW232268   3.771   6.378   1.021
10457SOL     OW32269   3.499   3.325   4.243
10457SOL    HW132270   3.412   3.374   4.237
10457SOL    HW232271   3.538   3.339   4.334
10458SOL     OW32272   6.757   6.739   1.818
10458SOL    HW132273   6.729   6.802   1.745
10458SOL    HW232274   6.807   6.790   1.889
10459SOL     OW32275   6.338   4.686   2.574
10459SOL    HW132276   6.324   4.784   2.584
10459SOL    HW232277   6.365   4.647   2.662
10460SOL     OW32278   2.192   5.286   1.608
10460SOL    HW132279   2.245   5.220   1.660
10460SOL    HW232280   2.252   5.338   1.547
10461SOL     OW32281   2.164   1.822   6.410
10461SOL    HW132282   2.089   1.842   6.473
10461SOL    HW232283   2.169   1.892   6.339
10462SOL     OW32284   5.533   6.674   1.329
10462SOL    HW132285   5.577   6.754   1.369
10462SOL    HW232286   5.492   6.619   1.402
10463SOL     OW32287   2.849   4.087   1.551
10463SOL    HW132288   2.898   4.094   1.464
10463SOL    HW232289   2.908   4.042   1.619
10464SOL     OW32290   5.244   0.101   1.590
10464SOL    HW132291   5.286   0.083   1.501
10464SOL    HW232292   5.224   0.014   1.636
10465SOL     OW32293   6.534   5.175   4.858
10465SOL    HW132294   6.616   5.201   4.807
10465SOL    HW232295   6.545   5.201   4.954
10466SOL     OW32296   5.110   6.565   6.696
10466SOL    HW132297   5.072   6.656   6.712
10466SOL    HW232298   5.210   6.570   6.697
10467SOL     OW32299   4.521   0.820   3.930
10467SOL    HW132300   4.548   0.743   3.988
10467SOL    HW232301   4.593   0.838   3.864
10468SOL     OW32302   3.388   5.865   3.095
10468SOL    HW132303   3.391   5.904   3.003
10468SOL    HW232304   3.434   5.776   3.096
10469SOL     OW32305   1.825   4.930   6.953
10469SOL    HW132306   1.751   4.868   6.977
10469SOL    HW232307   1.826   4.943   6.854
10470SOL     OW32308   2.668   1.727   4.144
10470SOL    HW132309   2.738   1.671   4.189
10470SOL    HW232310   2.696   1.746   4.050
10471SOL     OW32311   4.755   4.046   0.547
10471SOL    HW132312   4.773   3.995   0.463
10471SOL    HW232313   4.789   3.993   0.625
10472SOL     OW32314   4.795   1.539   3.198
10472SOL    HW132315   4.761   1.630   3.221
10472SOL    HW232316   4.895   1.542   3.188
10473SOL     OW32317   4.751   5.637   0.213
10473SOL    HW132318   4.669   5.585   0.236
10473SOL    HW232319   4.832   5.582   0.234
10474SOL     OW32320   5.070   0.803   4.335
10474SOL    HW132321   5.136   0.804   4.410
10474SOL    HW232322   5.107   0.856   4.258
10475SOL     OW32323   4.603   6.537   2.054
10475SOL    HW132324   4.668   6.571   1.986
10475SOL    HW232325   4.550   6.614   2.090
10476SOL     OW32326   0.051   4.667   0.476
10476SOL    HW132327   0.006   4.593   0.427
10476SOL    HW232328   0.138   4.689   0.431
10477SOL     OW32329   4.825   4.830   4.921
10477SOL    HW132330   4.831   4.928   4.902
10477SOL    HW232331   4.729   4.803   4.924
10478SOL     OW32332   0.630   6.060   2.254
10478SOL    HW132333   0.597   6.144   2.211
10478SOL    HW232334   0.607   5.981   2.197
10479SOL     OW32335   1.522   4.659   2.772
10479SOL    HW132336   1.490   4.590   2.708
10479SOL    HW232337   1.448   4.723   2.793
10480SOL     OW32338   5.821   0.201   2.551
10480SOL    HW132339   5.913   0.195   2.513
10480SOL    HW232340   5.772   0.115   2.535
10481SOL     OW32341   2.571   0.824   4.823
10481SOL    HW132342   2.514   0.879   4.762
10481SOL    HW232343   2.513   0.771   4.885
10482SOL     OW32344   1.239   5.277   5.394
10482SOL    HW132345   1.280   5.367   5.385
10482SOL    HW232346   1.310   5.208   5.405
10483SOL     OW32347   6.987   5.448   0.811
10483SOL    HW132348   6.925   5.392   0.866
10483SOL    HW232349   6.937   5.523   0.769
10484SOL     OW32350   6.178   1.961   1.402
10484SOL    HW132351   6.178   1.942   1.304
10484SOL    HW232352   6.228   1.889   1.450
10485SOL     OW32353   3.097   3.964   3.969
10485SOL    HW132354   3.045   3.880   3.950
10485SOL    HW232355   3.078   3.994   4.062
10486SOL     OW32356   5.775   5.447   4.963
10486SOL    HW132357   5.769   5.362   5.015
10486SOL    HW232358   5.811   5.520   5.022
10487SOL     OW32359   5.151   3.003   3.107
10487SOL    HW132360   5.113   2.935   3.170
10487SOL    HW232361   5.111   2.990   3.017
10488SOL     OW32362   0.033   2.408   5.592
10488SOL    HW132363   0.101   2.466   5.637
10488SOL    HW232364   0.070   2.372   5.506
10489SOL     OW32365   6.095   3.849   4.465
10489SOL    HW132366   6.097   3.837   4.564
10489SOL    HW232367   6.075   3.945   4.444
10490SOL     OW32368   5.686   6.916   6.835
10490SOL    HW132369   5.769   6.921   6.780
10490SOL    HW232370   5.667   6.820   6.858
10491SOL     OW32371   1.872   3.247   5.611
10491SOL    HW132372   1.803   3.199   5.557
10491SOL    HW232373   1.953   3.190   5.621
10492SOL     OW32374   3.333   5.757   0.327
10492SOL    HW132375   3.335   5.845   0.279
10492SOL    HW232376   3.380   5.766   0.415
10493SOL     OW32377   3.798   5.064   1.726
10493SOL    HW132378   3.726   5.079   1.658
10493SOL    HW232379   3.763   5.086   1.817
10494SOL     OW32380   0.712   4.294   3.995
10494SOL    HW132381   0.719   4.285   4.094
10494SOL    HW232382   0.804   4.306   3.956
10495SOL     OW32383   0.272   6.630   0.748
10495SOL    HW132384   0.263   6.612   0.650
10495SOL    HW232385   0.368   6.630   0.773
10496SOL     OW32386   0.101   4.707   6.439
10496SOL    HW132387   0.020   4.650   6.424
10496SOL    HW232388   0.181   4.660   6.402
10497SOL     OW32389   2.992   0.410   1.860
10497SOL    HW132390   3.006   0.508   1.843
10497SOL    HW232391   2.896   0.386   1.841
10498SOL     OW32392   4.350   3.603   6.403
10498SOL    HW132393   4.334   3.524   6.343
10498SOL    HW232394   4.298   3.681   6.370
10499SOL     OW32395   5.447   3.743   2.472
10499SOL    HW132396   5.539   3.710   2.493
10499SOL    HW232397   5.388   3.728   2.552
10500SOL     OW32398   1.026   3.459   4.984
10500SOL    HW132399   0.962   3.473   5.060
10500SOL    HW232400   0.977   3.429   4.903
10501SOL     OW32401   3.517   4.901   2.883
10501SOL    HW132402   3.496   4.804   2.872
10501SOL    HW232403   3.468   4.954   2.814
10502SOL     OW32404   3.197   3.308   2.516
10502SOL    HW132405   3.291   3.277   2.532
10502SOL    HW232406   3.171   3.288   2.422
10503SOL     OW32407   6.863   1.247   6.083
10503SOL    HW132408   6.791   1.192   6.125
10503SOL    HW232409   6.897   1.314   6.149
10504SOL     OW32410   0.542   3.982   5.997
10504SOL    HW132411   0.570   4.077   6.013
10504SOL    HW232412   0.479   3.953   6.070
10505SOL     OW32413   6.297   6.908   0.791
10505SOL    HW132414   6.219   6.913   0.852
10505SOL    HW232415   6.377   6.873   0.841
10506SOL     OW32416   1.172   4.479   5.974
10506SOL    HW132417   1.117   4.410   5.928
10506SOL    HW232418   1.239   4.517   5.909
10507SOL     OW32419   1.059   5.748   5.743
10507SOL    HW132420   1.031   5.671   5.800
10507SOL    HW232421   1.033   5.730   5.648
10508SOL     OW32422   1.827   5.684   6.342
10508SOL    HW132423   1.772   5.732   6.274
10508SOL    HW232424   1.869   5.603   6.301
10509SOL     OW32425   4.897   2.410   3.165
10509SOL    HW132426   4.868   2.403   3.261
10509SOL    HW232427   4.856   2.335   3.113
10510SOL     OW32428   5.537   5.542   3.668
10510SOL    HW132429   5.551   5.610   3.596
10510SOL    HW232430   5.445   5.550   3.705
10511SOL     OW32431   4.036   1.636   0.847
10511SOL    HW132432   3.981   1.627   0.764
10511SOL    HW232433   4.072   1.546   0.873
10512SOL     OW32434   4.099   1.908   5.511
10512SOL    HW132435   4.016   1.924   5.565
10512SOL    HW232436   4.152   1.992   5.504
10513SOL     OW32437   3.914   2.970   0.327
10513SOL    HW132438   3.869   2.925   0.250
10513SOL    HW232439   4.014   2.962   0.317
10514SOL     OW32440   1.526   4.653   1.780
10514SOL    HW132441   1.488   4.686   1.694
10514SOL    HW232442   1.483   4.566   1.805
10515SOL     OW32443   2.173   3.098   4.831
10515SOL    HW132444   2.112   3.048   4.892
10515SOL    HW232445   2.260   3.115   4.877
10516SOL     OW32446   4.902   1.985   1.986
10516SOL    HW132447   4.895   2.083   2.005
10516SOL    HW232448   4.999   1.960   1.980
10517SOL     OW32449   0.705   2.882   2.511
10517SOL    HW132450   0.774   2.945   2.477
10517SOL    HW232451   0.682   2.815   2.440
10518SOL     OW32452   0.846   5.565   2.255
10518SOL    HW132453   0.898   5.495   2.305
10518SOL    HW232454   0.749   5.545   2.261
10519SOL     OW32455   3.609   6.991   1.406
10519SOL    HW132456   3.567   7.004   1.496
10519SOL    HW232457   3.708   6.984   1.417
10520SOL     OW32458   1.430   2.823   6.315
10520SOL    HW132459   1.492   2.780   6.381
10520SOL    HW232460   1.452   2.920   6.307
10521SOL     OW32461   6.672   2.769   3.138
10521SOL    HW132462   6.683   2.696   3.206
10521SOL    HW232463   6.579   2.806   3.144
10522SOL     OW32464   5.788   1.342   3.864
10522SOL    HW132465   5.767   1.383   3.775
10522SOL    HW232466   5.734   1.388   3.935
10523SOL     OW32467   1.052   4.291   2.454
10523SOL    HW132468   1.065   4.254   2.363
10523SOL    HW232469   0.958   4.326   2.463
10524SOL     OW32470   0.034   5.921   4.590
10524SOL    HW132471   0.099   5.854   4.626
10524SOL    HW232472   0.041   6.005   4.643
10525SOL     OW32473   5.161   1.406   3.935
10525SOL    HW132474   5.239   1.385   3.876
10525SOL    HW232475   5.165   1.502   3.963
10526SOL     OW32476   1.451   5.440   6.358
10526SOL    HW132477   1.436   5.528   6.313
10526SOL    HW232478   1.384   5.374   6.325
10527SOL     OW32479   0.366   6.566   5.466
10527SOL    HW132480   0.391   6.625   5.543
10527SOL    HW232481   0.320   6.484   5.500
10528SOL     OW32482   2.173   4.811   5.384
10528SOL    HW132483   2.094   4.857   5.424
10528SOL    HW232484   2.248   4.877   5.374
10529SOL     OW32485   0.291   5.373   0.830
10529SOL    HW132486   0.267   5.391   0.925
10529SOL    HW232487   0.263   5.451   0.773
10530SOL     OW32488   6.907   6.247   1.926
10530SOL    HW132489   6.989   6.304   1.917
10530SOL    HW232490   6.825   6.305   1.918
10531SOL     OW32491   3.546   2.275   5.517
10531SOL    HW132492   3.473   2.302   5.579
10531SOL    HW232493   3.512   2.274   5.423
10532SOL     OW32494   4.831   6.264   5.854
10532SOL    HW132495   4.736   6.237   5.837
10532SOL    HW232496   4.857   6.336   5.789
10533SOL     OW32497   3.718   0.383   3.300
10533SOL    HW132498   3.732   0.471   3.254
10533SOL    HW232499   3.639   0.337   3.258
10534SOL     OW32500   1.485   5.842   3.546
10534SOL    HW132501   1.479   5.834   3.446
10534SOL    HW232502   1.494   5.750   3.585
10535SOL     OW32503   3.639   2.118   2.469
10535SOL    HW132504   3.690   2.133   2.384
10535SOL    HW232505   3.541   2.120   2.449
10536SOL     OW32506   5.581   3.389   5.211
10536SOL    HW132507   5.530   3.303   5.206
10536SOL    HW232508   5.567   3.441   5.127
10537SOL     OW32509   4.074   1.186   3.787
10537SOL    HW132510   4.143   1.115   3.795
10537SOL    HW232511   3.992   1.159   3.838
10538SOL     OW32512   0.105   2.890   3.594
10538SOL    HW132513   0.091   2.794   3.571
10538SOL    HW232514   0.020   2.930   3.627
10539SOL     OW32515   6.889   6.704   3.220
10539SOL    HW132516   6.839   6.617   3.212
10539SOL    HW232517   6.856   6.753   3.301
10540SOL     OW32518   1.882   4.308   0.091
10540SOL    HW132519   1.786   4.320   0.067
10540SOL    HW232520   1.923   4.398   0.108
10541SOL     OW32521   2.927   2.965   5.283
10541SOL    HW132522   2.867   3.045   5.285
10541SOL    HW232523   3.010   2.988   5.232
10542SOL     OW32524   4.957   6.351   2.858
10542SOL    HW132525   4.927   6.447   2.857
10542SOL    HW232526   4.877   6.292   2.866
10543SOL     OW32527   2.264   2.858   4.142
10543SOL    HW132528   2.191   2.806   4.187
10543SOL    HW232529   2.340   2.796   4.122
10544SOL     OW32530   3.475   1.168   2.515
10544SOL    HW132531   3.471   1.263   2.482
10544SOL    HW232532   3.556   1.157   2.573
10545SOL     OW32533   2.249   2.875   2.079
10545SOL    HW132534   2.243   2.913   2.171
10545SOL    HW232535   2.229   2.946   2.012
10546SOL     OW32536   2.399   6.861   7.025
10546SOL    HW132537   2.438   6.913   6.950
10546SOL    HW232538   2.360   6.923   0.067
10547SOL     OW32539   3.901   5.981   5.677
10547SOL    HW132540   3.815   6.017   5.713
10547SOL    HW232541   3.882   5.926   5.595
10548SOL     OW32542   0.737   6.161   3.205
10548SOL    HW132543   0.812   6.143   3.142
10548SOL    HW232544   0.683   6.238   3.171
10549SOL     OW32545   6.539   0.531   2.521
10549SOL    HW132546   6.566   0.481   2.603
10549SOL    HW232547   6.588   0.495   2.442
10550SOL     OW32548   4.954   5.457   2.836
10550SOL    HW132549   4.946   5.357   2.828
10550SOL    HW232550   4.964   5.482   2.932
10551SOL     OW32551   3.606   0.550   5.348
10551SOL    HW132552   3.528   0.571   5.289
10551SOL    HW232553   3.578   0.558   5.443
10552SOL     OW32554   3.155   7.000   3.593
10552SOL    HW132555   3.249   6.965   3.601
10552SOL    HW232556   3.134   0.029   3.674
10553SOL     OW32557   6.030   5.805   0.977
10553SOL    HW132558   6.086   5.854   1.043
10553SOL    HW232559   5.933   5.822   0.995
10554SOL     OW32560   6.247   6.534   2.468
10554SOL    HW132561   6.240   6.492   2.558
10554SOL    HW232562   6.294   6.471   2.406
10555SOL     OW32563   3.445   3.284   0.949
10555SOL    HW132564   3.440   3.185   0.954
10555SOL    HW232565   3.468   3.313   0.856
10556SOL     OW32566   2.710   1.842   1.904
10556SOL    HW132567   2.745   1.880   1.818
10556SOL    HW232568   2.617   1.809   1.890
10557SOL     OW32569   2.038   4.655   2.970
10557SOL    HW132570   2.085   4.743   2.966
10557SOL    HW232571   1.956   4.658   2.913
10558SOL     OW32572   4.062   4.866   4.583
10558SOL    HW132573   4.072   4.956   4.626
10558SOL    HW232574   3.973   4.861   4.537
10559SOL     OW32575   4.016   6.339   1.441
10559SOL    HW132576   4.049   6.295   1.358
10559SOL    HW232577   4.031   6.279   1.519
10560SOL     OW32578   5.338   6.344   3.294
10560SOL    HW132579   5.259   6.283   3.297
10560SOL    HW232580   5.363   6.370   3.387
10561SOL     OW32581   6.951   4.953   6.482
10561SOL    HW132582   6.988   4.864   6.456
10561SOL    HW232583   7.004   4.990   6.558
10562SOL     OW32584   4.277   5.889   2.530
10562SOL    HW132585   4.214   5.832   2.582
10562SOL    HW232586   4.289   5.977   2.576
10563SOL     OW32587   0.986   6.815   2.828
10563SOL    HW132588   0.891   6.814   2.798
10563SOL    HW232589   1.000   6.748   2.900
10564SOL     OW32590   5.129   4.728   3.243
10564SOL    HW132591   5.156   4.769   3.156
10564SOL    HW232592   5.202   4.669   3.276
10565SOL     OW32593   0.222   1.324   5.459
10565SOL    HW132594   0.239   1.287   5.551
10565SOL    HW232595   0.142   1.278   5.420
10566SOL     OW32596   3.420   1.595   0.605
10566SOL    HW132597   3.391   1.651   0.527
10566SOL    HW232598   3.476   1.519   0.573
10567SOL     OW32599   2.162   2.503   6.543
10567SOL    HW132600   2.089   2.552   6.591
10567SOL    HW232601   2.163   2.531   6.447
10568SOL     OW32602   4.919   2.309   5.906
10568SOL    HW132603   4.908   2.210   5.905
10568SOL    HW232604   4.864   2.348   5.981
10569SOL     OW32605   5.503   0.981   0.583
10569SOL    HW132606   5.523   1.079   0.588
10569SOL    HW232607   5.564   0.931   0.644
10570SOL     OW32608   1.879   3.526   3.121
10570SOL    HW132609   1.879   3.530   3.221
10570SOL    HW232610   1.785   3.523   3.087
10571SOL     OW32611   6.735   4.025   5.247
10571SOL    HW132612   6.663   4.094   5.255
10571SOL    HW232613   6.792   4.047   5.167
10572SOL     OW32614   6.323   4.195   1.038
10572SOL    HW132615   6.333   4.119   0.974
10572SOL    HW232616   6.345   4.281   0.993
10573SOL     OW32617   6.939   2.580   3.300
10573SOL    HW132618   6.968   2.491   3.337
10573SOL    HW232619   6.890   2.631   3.370
10574SOL     OW32620   5.958   2.429   2.895
10574SOL    HW132621   5.955   2.374   2.978
10574SOL    HW232622   6.004   2.516   2.914
10575SOL     OW32623   5.665   0.063   2.815
10575SOL    HW132624   5.580   0.100   2.777
10575SOL    HW232625   5.668   6.991   2.801
10576SOL     OW32626   1.288   3.910   4.620
10576SOL    HW132627   1.326   3.888   4.710
10576SOL    HW232628   1.349   3.876   4.549
10577SOL     OW32629   4.342   4.183   0.918
10577SOL    HW132630   4.353   4.270   0.871
10577SOL    HW232631   4.245   4.169   0.938
10578SOL     OW32632   0.711   3.626   2.464
10578SOL    HW132633   0.626   3.655   2.509
10578SOL    HW232634   0.789   3.648   2.522
10579SOL     OW32635   0.487   3.178   0.348
10579SOL    HW132636   0.580   3.178   0.313
10579SOL    HW232637   0.461   3.272   0.372
10580SOL     OW32638   5.272   0.160   6.642
10580SOL    HW132639   5.268   0.224   6.565
10580SOL    HW232640   5.359   0.170   6.688
10581SOL     OW32641   4.576   0.764   3.610
10581SOL    HW132642   4.525   0.808   3.535
10581SOL    HW232643   4.620   0.835   3.666
10582SOL     OW32644   6.466   3.426   6.541
10582SOL    HW132645   6.543   3.471   6.494
10582SOL    HW232646   6.486   3.328   6.550
10583SOL     OW32647   3.497   1.994   5.422
10583SOL    HW132648   3.572   1.932   5.444
10583SOL    HW232649   3.518   2.085   5.457
10584SOL     OW32650   0.822   0.318   3.346
10584SOL    HW132651   0.848   0.406   3.306
10584SOL    HW232652   0.778   0.261   3.277
10585SOL     OW32653   1.706   0.855   5.549
10585SOL    HW132654   1.712   0.862   5.450
10585SOL    HW232655   1.629   0.910   5.582
10586SOL     OW32656   4.369   4.246   5.346
10586SOL    HW132657   4.333   4.320   5.289
10586SOL    HW232658   4.306   4.227   5.421
10587SOL     OW32659   2.509   4.919   5.507
10587SOL    HW132660   2.518   4.893   5.411
10587SOL    HW232661   2.600   4.938   5.546
10588SOL     OW32662   1.614   3.621   3.287
10588SOL    HW132663   1.638   3.678   3.208
10588SOL    HW232664   1.660   3.657   3.368
10589SOL     OW32665   5.909   6.457   3.541
10589SOL    HW132666   5.970   6.422   3.613
10589SOL    HW232667   5.961   6.470   3.457
10590SOL     OW32668   0.947   5.046   2.808
10590SOL    HW132669   1.043   5.058   2.782
10590SOL    HW232670   0.941   5.022   2.904
10591SOL     OW32671   0.202   4.079   2.290
10591SOL    HW132672   0.200   3.988   2.249
10591SOL    HW232673   0.265   4.079   2.368
10592SOL     OW32674   0.449   2.415   4.952
10592SOL    HW132675   0.502   2.337   4.984
10592SOL    HW232676   0.503   2.467   4.886
10593SOL     OW32677   2.952   5.190   3.410
10593SOL    HW132678   2.940   5.175   3.312
10593SOL    HW232679   2.910   5.114   3.460
10594SOL     OW32680   3.150   5.392   3.794
10594SOL    HW132681   3.092   5.422   3.719
10594SOL    HW232682   3.115   5.430   3.880
10595SOL     OW32683   4.749   6.911   0.831
10595SOL    HW132684   4.805   6.962   0.765
10595SOL    HW232685   4.715   6.973   0.901
10596SOL     OW32686   5.021   3.119   0.030
10596SOL    HW132687   5.109   3.074   0.042
10596SOL    HW232688   4.990   3.156   0.117
10597SOL     OW32689   2.331   6.461   4.646
10597SOL    HW132690   2.299   6.509   4.728
10597SOL    HW232691   2.381   6.379   4.674
10598SOL     OW32692   3.329   0.652   0.170
10598SOL    HW132693   3.364   0.558   0.171
10598SOL    HW232694   3.380   0.707   0.236
10599SOL     OW32695   0.801   2.373   0.602
10599SOL    HW132696   0.785   2.389   0.700
10599SOL    HW232697   0.839   2.282   0.590
10600SOL     OW32698   3.915   1.076   1.719
10600SOL    HW132699   3.986   1.021   1.763
10600SOL    HW232700   3.919   1.170   1.754
10601SOL     OW32701   1.728   0.996   4.553
10601SOL    HW132702   1.720   0.979   4.651
10601SOL    HW232703   1.678   0.925   4.503
10602SOL     OW32704   6.443   0.271   1.650
10602SOL    HW132705   6.498   0.233   1.576
10602SOL    HW232706   6.350   0.235   1.645
10603SOL     OW32707   5.833   0.430   3.275
10603SOL    HW132708   5.740   0.455   3.249
10603SOL    HW232709   5.845   0.331   3.266
10604SOL     OW32710   5.094   1.552   5.144
10604SOL    HW132711   4.996   1.566   5.154
10604SOL    HW232712   5.111   1.478   5.079
10605SOL     OW32713   3.185   2.146   0.667
10605SOL    HW132714   3.105   2.103   0.709
10605SOL    HW232715   3.267   2.120   0.719
10606SOL     OW32716   6.552   0.815   6.814
10606SOL    HW132717   6.550   0.875   6.734
10606SOL    HW232718   6.641   0.770   6.820
10607SOL     OW32719   3.447   3.812   0.374
10607SOL    HW132720   3.484   3.719   0.380
10607SOL    HW232721   3.506   3.875   0.423
10608SOL     OW32722   5.317   4.312   3.674
10608SOL    HW132723   5.252   4.363   3.618
10608SOL    HW232724   5.329   4.220   3.637
10609SOL     OW32725   5.804   0.151   0.164
10609SOL    HW132726   5.897   0.120   0.144
10609SOL    HW232727   5.753   0.077   0.209
10610SOL     OW32728   0.724   1.766   3.153
10610SOL    HW132729   0.679   1.677   3.154
10610SOL    HW232730   0.655   1.838   3.151
10611SOL     OW32731   4.099   5.168   4.814
10611SOL    HW132732   4.081   5.265   4.830
10611SOL    HW232733   4.013   5.118   4.804
10612SOL     OW32734   6.392   2.556   3.918
10612SOL    HW132735   6.303   2.552   3.965
10612SOL    HW232736   6.427   2.464   3.905
10613SOL     OW32737   4.363   6.103   4.388
10613SOL    HW132738   4.264   6.105   4.406
10613SOL    HW232739   4.382   6.042   4.312
10614SOL     OW32740   3.772   2.145   6.001
10614SOL    HW132741   3.816   2.195   6.075
10614SOL    HW232742   3.686   2.189   5.977
10615SOL     OW32743   2.553   2.769   5.518
10615SOL    HW132744   2.648   2.793   5.495
10615SOL    HW232745   2.493   2.793   5.442
10616SOL     OW32746   1.545   5.851   0.375
10616SOL    HW132747   1.644   5.838   0.381
10616SOL    HW232748   1.516   5.915   0.446
10617SOL     OW32749   1.673   3.093   1.749
10617SOL    HW132750   1.749   3.108   1.812
10617SOL    HW232751   1.666   2.995   1.729
10618SOL     OW32752   1.186   4.578   4.048
10618SOL    HW132753   1.094   4.549   4.073
10618SOL    HW232754   1.205   4.555   3.953
10619SOL     OW32755   1.029   2.839   1.765
10619SOL    HW132756   1.127   2.859   1.776
10619SOL    HW232757   1.002   2.768   1.830
10620SOL     OW32758   3.247   0.571   5.959
10620SOL    HW132759   3.239   0.545   5.862
10620SOL    HW232760   3.215   0.665   5.971
10621SOL     OW32761   0.497   3.834   3.192
10621SOL    HW132762   0.549   3.916   3.169
10621SOL    HW232763   0.543   3.754   3.156
10622SOL     OW32764   4.543   2.222   0.166
10622SOL    HW132765   4.447   2.195   0.158
10622SOL    HW232766   4.561   2.299   0.104
10623SOL     OW32767   5.167   5.561   5.339
10623SOL    HW132768   5.218   5.638   5.376
10623SOL    HW232769   5.079   5.593   5.304
10624SOL     OW32770   0.264   1.884   0.003
10624SOL    HW132771   0.246   1.980   0.025
10624SOL    HW232772   0.221   1.826   0.072
10625SOL     OW32773   6.631   5.785   0.596
10625SOL    HW132774   6.625   5.779   0.497
10625SOL    HW232775   6.592   5.703   0.638
10626SOL     OW32776   5.491   3.170   1.282
10626SOL    HW132777   5.443   3.183   1.195
10626SOL    HW232778   5.541   3.084   1.280
10627SOL     OW32779   5.790   5.179   5.022
10627SOL    HW132780   5.775   5.112   4.950
10627SOL    HW232781   5.755   5.143   5.109
10628SOL     OW32782   2.943   6.420   0.195
10628SOL    HW132783   3.023   6.418   0.256
10628SOL    HW232784   2.923   6.328   0.164
10629SOL     OW32785   4.555   5.415   4.303
10629SOL    HW132786   4.455   5.410   4.310
10629SOL    HW232787   4.586   5.508   4.321
10630SOL     OW32788   3.922   1.166   1.440
10630SOL    HW132789   3.939   1.105   1.363
10630SOL    HW232790   3.844   1.132   1.493
10631SOL     OW32791   3.679   5.786   1.688
10631SOL    HW132792   3.710   5.692   1.697
10631SOL    HW232793   3.692   5.817   1.594
10632SOL     OW32794   5.497   6.490   4.640
10632SOL    HW132795   5.524   6.484   4.544
10632SOL    HW232796   5.543   6.418   4.693
10633SOL     OW32797   2.073   3.083   0.618
10633SOL    HW132798   2.092   3.130   0.704
10633SOL    HW232799   2.042   3.150   0.550
10634SOL     OW32800   6.961   4.902   6.904
10634SOL    HW132801   6.923   4.815   6.875
10634SOL    HW232802   6.931   4.924   6.997
10635SOL     OW32803   2.932   5.863   6.387
10635SOL    HW132804   3.028   5.879   6.410
10635SOL    HW232805   2.887   5.950   6.369
10636SOL     OW32806   6.270   2.948   6.948
10636SOL    HW132807   6.219   2.987   7.024
10636SOL    HW232808   6.288   2.851   6.966
10637SOL     OW32809   2.488   0.452   7.012
10637SOL    HW132810   2.469   0.455   0.084
10637SOL    HW232811   2.502   0.545   6.979
10638SOL     OW32812   4.918   5.155   0.916
10638SOL    HW132813   4.926   5.149   1.015
10638SOL    HW232814   4.822   5.159   0.890
10639SOL     OW32815   0.077   4.901   1.638
10639SOL    HW132816   0.058   4.813   1.596
10639SOL    HW232817   0.151   4.892   1.704
10640SOL     OW32818   4.138   6.069   3.371
10640SOL    HW132819   4.198   6.144   3.344
10640SOL    HW232820   4.057   6.106   3.416
10641SOL     OW32821   1.032   1.976   2.798
10641SOL    HW132822   1.059   1.964   2.702
10641SOL    HW232823   1.114   1.975   2.855
10642SOL     OW32824   6.870   3.047   6.100
10642SOL    HW132825   6.951   3.059   6.157
10642SOL    HW232826   6.819   3.133   6.095
10643SOL     OW32827   2.297   5.107   5.910
10643SOL    HW132828   2.356   5.047   5.856
10643SOL    HW232829   2.336   5.199   5.913
10644SOL     OW32830   6.732   3.235   2.757
10644SOL    HW132831   6.726   3.188   2.669
10644SOL    HW232832   6.739   3.168   2.830
10645SOL     OW32833   2.107   2.102   2.964
10645SOL    HW132834   2.046   2.175   2.932
10645SOL    HW232835   2.202   2.130   2.952
10646SOL     OW32836   5.477   6.931   3.976
10646SOL    HW132837   5.514   7.018   3.943
10646SOL    HW232838   5.522   6.856   3.928
10647SOL     OW32839   3.553   5.492   4.955
10647SOL    HW132840   3.535   5.442   5.040
10647SOL    HW232841   3.636   5.456   4.912
10648SOL     OW32842   4.654   4.286   5.353
10648SOL    HW132843   4.706   4.209   5.317
10648SOL    HW232844   4.557   4.262   5.356
10649SOL     OW32845   6.216   3.624   3.153
10649SOL    HW132846   6.157   3.641   3.074
10649SOL    HW232847   6.243   3.528   3.154
10650SOL     OW32848   0.758   0.714   2.693
10650SOL    HW132849   0.689   0.690   2.761
10650SOL    HW232850   0.809   0.794   2.723
10651SOL     OW32851   2.774   5.429   5.718
10651SOL    HW132852   2.679   5.398   5.724
10651SOL    HW232853   2.832   5.351   5.693
10652SOL     OW32854   1.581   0.028   6.963
10652SOL    HW132855   1.559   6.970   7.013
10652SOL    HW232856   1.655   0.076   7.011
10653SOL     OW32857   5.129   5.849   4.521
10653SOL    HW132858   5.072   5.926   4.547
10653SOL    HW232859   5.200   5.834   4.590
10654SOL     OW32860   6.722   2.048   4.110
10654SOL    HW132861   6.710   2.129   4.051
10654SOL    HW232862   6.633   2.021   4.147
10655SOL     OW32863   0.141   4.475   1.054
10655SOL    HW132864   0.074   4.504   1.123
10655SOL    HW232865   0.106   4.395   1.005
10656SOL     OW32866   5.604   2.018   4.758
10656SOL    HW132867   5.657   2.070   4.825
10656SOL    HW232868   5.610   1.921   4.780
10657SOL     OW32869   5.106   6.991   5.117
10657SOL    HW132870   5.006   6.988   5.115
10657SOL    HW232871   5.138   0.030   5.048
10658SOL     OW32872   0.952   1.728   5.350
10658SOL    HW132873   1.017   1.669   5.303
10658SOL    HW232874   0.950   1.818   5.306
10659SOL     OW32875   0.532   5.798   0.903
10659SOL    HW132876   0.461   5.868   0.905
10659SOL    HW232877   0.569   5.787   0.995
10660SOL     OW32878   5.401   2.847   5.734
10660SOL    HW132879   5.416   2.878   5.828
10660SOL    HW232880   5.312   2.881   5.702
10661SOL     OW32881   3.483   5.036   5.362
10661SOL    HW132882   3.391   5.027   5.323
10661SOL    HW232883   3.518   4.945   5.384
10662SOL     OW32884   2.687   0.948   1.352
10662SOL    HW132885   2.685   0.999   1.267
10662SOL    HW232886   2.656   0.854   1.336
10663SOL     OW32887   0.849   2.468   4.044
10663SOL    HW132888   0.904   2.520   3.978
10663SOL    HW232889   0.779   2.416   3.995
10664SOL     OW32890   1.201   5.294   4.809
10664SOL    HW132891   1.204   5.303   4.709
10664SOL    HW232892   1.258   5.364   4.850
10665SOL     OW32893   3.315   3.148   0.015
10665SOL    HW132894   3.366   3.103   0.089
10665SOL    HW232895   3.254   3.081   6.998
10666SOL     OW32896   3.753   3.820   1.398
10666SOL    HW132897   3.712   3.783   1.315
10666SOL    HW232898   3.703   3.902   1.426
10667SOL     OW32899   5.475   2.980   3.908
10667SOL    HW132900   5.424   2.973   3.994
10667SOL    HW232901   5.537   2.903   3.898
10668SOL     OW32902   3.407   2.625   6.101
10668SOL    HW132903   3.375   2.587   6.014
10668SOL    HW232904   3.506   2.634   6.099
10669SOL     OW32905   6.207   1.673   1.205
10669SOL    HW132906   6.264   1.616   1.265
10669SOL    HW232907   6.212   1.637   1.112
10670SOL     OW32908   4.851   3.822   4.350
10670SOL    HW132909   4.847   3.920   4.332
10670SOL    HW232910   4.889   3.807   4.441
10671SOL     OW32911   1.465   3.392   5.148
10671SOL    HW132912   1.555   3.415   5.187
10671SOL    HW232913   1.393   3.417   5.212
10672SOL     OW32914   5.963   3.534   2.530
10672SOL    HW132915   5.958   3.596   2.608
10672SOL    HW232916   6.024   3.458   2.551
10673SOL     OW32917   1.994   1.400   1.106
10673SOL    HW132918   2.047   1.329   1.153
10673SOL    HW232919   2.001   1.388   1.007
10674SOL     OW32920   3.260   3.428   3.845
10674SOL    HW132921   3.171   3.452   3.885
10674SOL    HW232922   3.275   3.481   3.762
10675SOL     OW32923   3.885   6.949   5.512
10675SOL    HW132924   3.811   6.882   5.511
10675SOL    HW232925   3.934   6.947   5.425
10676SOL     OW32926   1.543   0.104   5.732
10676SOL    HW132927   1.462   0.134   5.783
10676SOL    HW232928   1.615   0.172   5.741
10677SOL     OW32929   0.481   1.524   6.895
10677SOL    HW132930   0.420   1.583   6.842
10677SOL    HW232931   0.455   1.527   6.991
10678SOL     OW32932   4.018   5.632   2.104
10678SOL    HW132933   4.016   5.535   2.128
10678SOL    HW232934   4.091   5.649   2.038
10679SOL     OW32935   4.261   3.751   6.886
10679SOL    HW132936   4.356   3.782   6.892
10679SOL    HW232937   4.252   3.662   6.931
10680SOL     OW32938   4.249   1.535   5.245
10680SOL    HW132939   4.153   1.511   5.238
10680SOL    HW232940   4.293   1.523   5.156
10681SOL     OW32941   1.995   3.419   5.447
10681SOL    HW132942   1.942   3.356   5.504
10681SOL    HW232943   2.035   3.370   5.370
10682SOL     OW32944   5.200   3.283   6.647
10682SOL    HW132945   5.291   3.267   6.609
10682SOL    HW232946   5.132   3.238   6.589
10683SOL     OW32947   2.622   0.434   3.529
10683SOL    HW132948   2.526   0.456   3.546
10683SOL    HW232949   2.666   0.510   3.481
10684SOL     OW32950   4.498   4.654   1.920
10684SOL    HW132951   4.564   4.636   1.993
10684SOL    HW232952   4.521   4.741   1.876
10685SOL     OW32953   1.190   6.492   1.866
10685SOL    HW132954   1.282   6.452   1.858
10685SOL    HW232955   1.122   6.419   1.857
10686SOL     OW32956   2.407   0.800   7.014
10686SOL    HW132957   2.444   0.817   0.079
10686SOL    HW232958   2.433   0.875   6.953
10687SOL     OW32959   0.832   3.978   3.973
10687SOL    HW132960   0.836   3.895   3.918
10687SOL    HW232961   0.817   4.057   3.914
10688SOL     OW32962   5.173   1.048   3.004
10688SOL    HW132963   5.197   1.130   2.951
10688SOL    HW232964   5.089   1.066   3.055
10689SOL     OW32965   0.777   6.853   2.507
10689SOL    HW132966   0.709   6.864   2.435
10689SOL    HW232967   0.846   6.925   2.499
10690SOL     OW32968   0.662   6.571   4.278
10690SOL    HW132969   0.666   6.568   4.378
10690SOL    HW232970   0.568   6.593   4.250
10691SOL     OW32971   3.732   0.142   2.068
10691SOL    HW132972   3.656   0.077   2.059
10691SOL    HW232973   3.708   0.228   2.023
10692SOL     OW32974   2.043   1.211   4.218
10692SOL    HW132975   2.082   1.303   4.211
10692SOL    HW232976   2.115   1.145   4.235
10693SOL     OW32977   1.367   5.234   6.728
10693SOL    HW132978   1.284   5.282   6.700
10693SOL    HW232979   1.348   5.137   6.737
10694SOL     OW32980   4.237   0.800   5.152
10694SOL    HW132981   4.334   0.800   5.128
10694SOL    HW232982   4.222   0.862   5.230
10695SOL     OW32983   5.411   4.261   2.130
10695SOL    HW132984   5.454   4.171   2.130
10695SOL    HW232985   5.427   4.305   2.042
10696SOL     OW32986   6.455   4.671   3.756
10696SOL    HW132987   6.453   4.688   3.658
10696SOL    HW232988   6.528   4.725   3.798
10697SOL     OW32989   2.554   5.182   4.954
10697SOL    HW132990   2.565   5.205   4.857
10697SOL    HW232991   2.472   5.225   4.990
10698SOL     OW32992   3.627   3.222   0.021
10698SOL    HW132993   3.569   3.294   7.008
10698SOL    HW232994   3.699   3.265   0.076
10699SOL     OW32995   3.301   2.629   0.698
10699SOL    HW132996   3.239   2.558   0.732
10699SOL    HW232997   3.312   2.699   0.769
10700SOL     OW32998   4.794   0.590   1.454
10700SOL    HW132999   4.722   0.633   1.398
10700SOL    HW233000   4.865   0.657   1.474
10701SOL     OW33001   3.095   6.775   6.754
10701SOL    HW133002   3.164   6.794   6.684
10701SOL    HW233003   3.115   6.687   6.797
10702SOL     OW33004   5.658   2.466   1.439
10702SOL    HW133005   5.596   2.472   1.517
10702SOL    HW233006   5.632   2.535   1.371
10703SOL     OW33007   0.635   2.525   6.235
10703SOL    HW133008   0.725   2.483   6.220
10703SOL    HW233009   0.620   2.540   6.333
10704SOL     OW33010   5.136   6.720   1.917
10704SOL    HW133011   5.222   6.692   1.959
10704SOL    HW233012   5.155   6.779   1.838
10705SOL     OW33013   5.718   3.923   0.928
10705SOL    HW133014   5.679   3.831   0.938
10705SOL    HW233015   5.775   3.945   1.007
10706SOL     OW33016   4.142   0.377   0.646
10706SOL    HW133017   4.206   0.453   0.635
10706SOL    HW233018   4.068   0.404   0.708
10707SOL     OW33019   5.565   0.196   3.912
10707SOL    HW133020   5.581   0.274   3.851
10707SOL    HW233021   5.467   0.186   3.929
10708SOL     OW33022   4.085   1.694   2.322
10708SOL    HW133023   4.153   1.684   2.249
10708SOL    HW233024   3.995   1.672   2.287
10709SOL     OW33025   5.896   4.981   3.662
10709SOL    HW133026   5.798   4.985   3.681
10709SOL    HW233027   5.915   4.908   3.596
10710SOL     OW33028   5.359   1.691   3.669
10710SOL    HW133029   5.292   1.759   3.697
10710SOL    HW233030   5.440   1.737   3.633
10711SOL     OW33031   4.236   6.964   2.110
10711SOL    HW133032   4.299   7.007   2.174
10711SOL    HW233033   4.142   6.993   2.131
10712SOL     OW33034   5.419   6.884   2.907
10712SOL    HW133035   5.396   6.981   2.916
10712SOL    HW233036   5.410   6.839   2.996
10713SOL     OW33037   1.231   4.083   1.152
10713SOL    HW133038   1.296   4.026   1.100
10713SOL    HW233039   1.269   4.102   1.243
10714SOL     OW33040   3.003   3.908   4.733
10714SOL    HW133041   2.966   3.902   4.826
10714SOL    HW233042   3.033   3.817   4.704
10715SOL     OW33043   6.178   0.886   1.844
10715SOL    HW133044   6.221   0.904   1.756
10715SOL    HW233045   6.235   0.924   1.917
10716SOL     OW33046   5.719   1.501   3.634
10716SOL    HW133047   5.686   1.438   3.564
10716SOL    HW233048   5.670   1.588   3.627
10717SOL     OW33049   1.824   2.574   0.299
10717SOL    HW133050   1.786   2.482   0.297
10717SOL    HW233051   1.811   2.617   0.209
10718SOL     OW33052   1.936   5.165   5.467
10718SOL    HW133053   1.852   5.114   5.483
10718SOL    HW233054   2.001   5.108   5.417
10719SOL     OW33055   6.248   5.718   4.306
10719SOL    HW133056   6.286   5.768   4.385
10719SOL    HW233057   6.190   5.644   4.339
10720SOL     OW33058   6.969   5.220   3.384
10720SOL    HW133059   7.025   5.183   3.309
10720SOL    HW233060   6.876   5.234   3.352
10721SOL     OW33061   5.457   4.087   5.629
10721SOL    HW133062   5.392   4.021   5.592
10721SOL    HW233063   5.538   4.038   5.662
10722SOL     OW33064   6.705   4.275   5.566
10722SOL    HW133065   6.795   4.258   5.527
10722SOL    HW233066   6.653   4.189   5.568
10723SOL     OW33067   5.937   6.732   0.563
10723SOL    HW133068   5.921   6.736   0.662
10723SOL    HW233069   6.022   6.778   0.540
10724SOL     OW33070   6.640   6.360   0.413
10724SOL    HW133071   6.737   6.337   0.423
10724SOL    HW233072   6.602   6.311   0.334
10725SOL     OW33073   2.460   5.682   5.202
10725SOL    HW133074   2.396   5.746   5.160
10725SOL    HW233075   2.553   5.717   5.193
10726SOL     OW33076   5.559   1.519   4.503
10726SOL    HW133077   5.494   1.449   4.532
10726SOL    HW233078   5.624   1.537   4.577
10727SOL     OW33079   1.786   6.207   5.376
10727SOL    HW133080   1.711   6.143   5.389
10727SOL    HW233081   1.774   6.255   5.289
10728SOL     OW33082   5.768   5.898   1.000
10728SOL    HW133083   5.724   5.928   0.916
10728SOL    HW233084   5.717   5.932   1.079
10729SOL     OW33085   6.358   2.913   1.502
10729SOL    HW133086   6.304   2.991   1.536
10729SOL    HW233087   6.397   2.864   1.580
10730SOL     OW33088   4.896   0.175   2.230
10730SOL    HW133089   4.845   0.260   2.217
10730SOL    HW233090   4.911   0.131   2.142
10731SOL     OW33091   4.608   0.717   1.223
10731SOL    HW133092   4.530   0.674   1.267
10731SOL    HW233093   4.636   0.662   1.144
10732SOL     OW33094   0.762   4.814   5.092
10732SOL    HW133095   0.718   4.734   5.050
10732SOL    HW233096   0.742   4.895   5.038
10733SOL     OW33097   6.301   2.708   0.022
10733SOL    HW133098   6.241   2.686   6.972
10733SOL    HW233099   6.300   2.634   0.089
10734SOL     OW33100   6.700   2.660   1.843
10734SOL    HW133101   6.759   2.605   1.785
10734SOL    HW233102   6.708   2.757   1.818
10735SOL     OW33103   0.227   3.975   2.577
10735SOL    HW133104   0.132   3.948   2.595
10735SOL    HW233105   0.258   4.036   2.651
10736SOL     OW33106   2.810   0.333   3.353
10736SOL    HW133107   2.766   0.324   3.442
10736SOL    HW233108   2.847   0.425   3.343
10737SOL     OW33109   6.863   1.873   1.617
10737SOL    HW133110   6.945   1.820   1.637
10737SOL    HW233111   6.783   1.826   1.655
10738SOL     OW33112   4.388   0.688   3.293
10738SOL    HW133113   4.362   0.615   3.356
10738SOL    HW233114   4.430   0.763   3.344
10739SOL     OW33115   2.292   1.943   1.696
10739SOL    HW133116   2.241   1.976   1.616
10739SOL    HW233117   2.230   1.889   1.754
10740SOL     OW33118   5.019   4.870   3.505
10740SOL    HW133119   5.062   4.817   3.432
10740SOL    HW233120   5.088   4.893   3.574
10741SOL     OW33121   3.615   0.490   2.951
10741SOL    HW133122   3.711   0.517   2.949
10741SOL    HW233123   3.606   0.401   2.995
10742SOL     OW33124   6.558   5.502   0.889
10742SOL    HW133125   6.485   5.447   0.849
10742SOL    HW233126   6.526   5.597   0.899
10743SOL     OW33127   2.108   1.719   4.476
10743SOL    HW133128   2.019   1.764   4.482
10743SOL    HW233129   2.150   1.716   4.567
10744SOL     OW33130   3.902   1.805   1.249
10744SOL    HW133131   3.937   1.837   1.161
10744SOL    HW233132   3.938   1.714   1.269
10745SOL     OW33133   6.828   5.692   6.224
10745SOL    HW133134   6.856   5.770   6.169
10745SOL    HW233135   6.825   5.610   6.166
10746SOL     OW33136   0.335   4.298   5.681
10746SOL    HW133137   0.400   4.230   5.715
10746SOL    HW233138   0.247   4.255   5.662
10747SOL     OW33139   3.270   1.287   4.750
10747SOL    HW133140   3.221   1.317   4.668
10747SOL    HW233141   3.204   1.262   4.821
10748SOL     OW33142   5.312   1.381   2.482
10748SOL    HW133143   5.341   1.295   2.525
10748SOL    HW233144   5.255   1.361   2.402
10749SOL     OW33145   2.106   0.008   5.925
10749SOL    HW133146   2.122   0.068   6.004
10749SOL    HW233147   2.181   0.017   5.860
10750SOL     OW33148   3.629   0.498   6.430
10750SOL    HW133149   3.636   0.507   6.331
10750SOL    HW233150   3.576   0.416   6.452
10751SOL     OW33151   2.484   4.831   4.099
10751SOL    HW133152   2.494   4.734   4.077
10751SOL    HW233153   2.531   4.885   4.030
10752SOL     OW33154   4.803   5.422   3.964
10752SOL    HW133155   4.876   5.444   3.900
10752SOL    HW233156   4.783   5.502   4.020
10753SOL     OW33157   6.913   3.458   4.497
10753SOL    HW133158   6.954   3.477   4.586
10753SOL    HW233159   6.948   3.372   4.462
10754SOL     OW33160   1.892   0.093   2.325
10754SOL    HW133161   1.979   0.056   2.357
10754SOL    HW233162   1.817   0.048   2.373
10755SOL     OW33163   6.246   5.948   1.878
10755SOL    HW133164   6.316   5.951   1.949
10755SOL    HW233165   6.156   5.941   1.921
10756SOL     OW33166   0.038   6.542   5.356
10756SOL    HW133167   0.009   6.629   5.397
10756SOL    HW233168   0.052   6.555   5.258
10757SOL     OW33169   2.553   3.227   1.184
10757SOL    HW133170   2.453   3.223   1.176
10757SOL    HW233171   2.589   3.286   1.111
10758SOL     OW33172   0.531   5.449   4.132
10758SOL    HW133173   0.590   5.487   4.061
10758SOL    HW233174   0.506   5.522   4.196
10759SOL     OW33175   7.024   2.838   6.820
10759SOL    HW133176   6.949   2.817   6.883
10759SOL    HW233177   7.017   2.933   6.790
10760SOL     OW33178   6.299   1.024   3.606
10760SOL    HW133179   6.251   1.049   3.689
10760SOL    HW233180   6.257   0.943   3.565
10761SOL     OW33181   2.779   4.917   5.420
10761SOL    HW133182   2.808   4.859   5.496
10761SOL    HW233183   2.809   4.876   5.334
10762SOL     OW33184   3.339   0.709   4.350
10762SOL    HW133185   3.349   0.675   4.444
10762SOL    HW233186   3.242   0.712   4.326
10763SOL     OW33187   4.384   6.567   3.418
10763SOL    HW133188   4.361   6.623   3.498
10763SOL    HW233189   4.469   6.600   3.378
10764SOL     OW33190   5.949   0.082   4.402
10764SOL    HW133191   5.962   0.050   4.496
10764SOL    HW233192   6.001   0.024   4.339
10765SOL     OW33193   5.825   3.544   0.868
10765SOL    HW133194   5.837   3.576   0.774
10765SOL    HW233195   5.727   3.537   0.888
10766SOL     OW33196   3.990   2.678   1.702
10766SOL    HW133197   3.968   2.722   1.789
10766SOL    HW233198   3.917   2.696   1.636
10767SOL     OW33199   3.268   1.511   1.735
10767SOL    HW133200   3.294   1.462   1.818
10767SOL    HW233201   3.201   1.581   1.758
10768SOL     OW33202   6.761   5.446   0.520
10768SOL    HW133203   6.785   5.358   0.562
10768SOL    HW233204   6.672   5.438   0.475
10769SOL     OW33205   1.842   4.050   5.817
10769SOL    HW133206   1.852   4.074   5.720
10769SOL    HW233207   1.860   3.953   5.830
10770SOL     OW33208   4.508   6.275   2.813
10770SOL    HW133209   4.510   6.353   2.750
10770SOL    HW233210   4.465   6.197   2.767
10771SOL     OW33211   2.546   1.121   3.843
10771SOL    HW133212   2.572   1.201   3.789
10771SOL    HW233213   2.478   1.068   3.794
10772SOL     OW33214   5.291   5.195   3.602
10772SOL    HW133215   5.342   5.236   3.677
10772SOL    HW233216   5.341   5.207   3.516
10773SOL     OW33217   5.002   5.326   3.749
10773SOL    HW133218   5.081   5.370   3.791
10773SOL    HW233219   5.003   5.228   3.769
10774SOL     OW33220   1.293   0.930   3.687
10774SOL    HW133221   1.225   0.912   3.759
10774SOL    HW233222   1.264   1.008   3.632
10775SOL     OW33223   0.583   3.966   2.034
10775SOL    HW133224   0.660   3.966   1.971
10775SOL    HW233225   0.611   3.929   2.123
10776SOL     OW33226   1.352   0.135   6.564
10776SOL    HW133227   1.330   0.041   6.536
10776SOL    HW233228   1.372   0.190   6.483
10777SOL     OW33229   3.031   6.074   1.598
10777SOL    HW133230   3.006   6.153   1.655
10777SOL    HW233231   2.980   5.994   1.628
10778SOL     OW33232   6.112   5.900   3.191
10778SOL    HW133233   6.077   5.841   3.119
10778SOL    HW233234   6.174   5.968   3.152
10779SOL     OW33235   5.335   2.339   3.314
10779SOL    HW133236   5.278   2.404   3.264
10779SOL    HW233237   5.421   2.325   3.265
10780SOL     OW33238   0.566   1.034   3.159
10780SOL    HW133239   0.608   1.057   3.247
10780SOL    HW233240   0.477   1.077   3.153
10781SOL     OW33241   3.789   0.295   4.185
10781SOL    HW133242   3.824   0.215   4.135
10781SOL    HW233243   3.808   0.377   4.132
10782SOL     OW33244   6.750   5.405   4.019
10782SOL    HW133245   6.830   5.417   3.960
10782SOL    HW233246   6.768   5.334   4.087
10783SOL     OW33247   6.475   2.176   3.041
10783SOL    HW133248   6.492   2.257   2.984
10783SOL    HW233249   6.398   2.125   3.002
10784SOL     OW33250   2.618   1.229   4.694
10784SOL    HW133251   2.521   1.249   4.703
10784SOL    HW233252   2.655   1.282   4.617
10785SOL     OW33253   0.690   3.822   6.704
10785SOL    HW133254   0.662   3.907   6.661
10785SOL    HW233255   0.727   3.760   6.634
10786SOL     OW33256   0.936   5.397   3.083
10786SOL    HW133257   1.015   5.389   3.022
10786SOL    HW233258   0.955   5.347   3.168
10787SOL     OW33259   1.998   2.754   5.709
10787SOL    HW133260   2.049   2.674   5.741
10787SOL    HW233261   1.905   2.752   5.746
10788SOL     OW33262   5.867   3.708   6.367
10788SOL    HW133263   5.823   3.796   6.348
10788SOL    HW233264   5.956   3.724   6.409
10789SOL     OW33265   6.590   1.903   0.269
10789SOL    HW133266   6.676   1.926   0.224
10789SOL    HW233267   6.605   1.829   0.335
10790SOL     OW33268   6.937   6.875   2.935
10790SOL    HW133269   6.909   6.789   2.977
10790SOL    HW233270   6.967   6.938   3.007
10791SOL     OW33271   0.310   6.297   2.606
10791SOL    HW133272   0.355   6.298   2.516
10791SOL    HW233273   0.273   6.388   2.626
10792SOL     OW33274   3.666   4.015   5.180
10792SOL    HW133275   3.601   4.066   5.236
10792SOL    HW233276   3.739   3.980   5.238
10793SOL     OW33277   5.575   3.254   4.858
10793SOL    HW133278   5.495   3.214   4.902
10793SOL    HW233279   5.581   3.221   4.764
10794SOL     OW33280   3.626   3.132   3.702
10794SOL    HW133281   3.592   3.107   3.612
10794SOL    HW233282   3.549   3.158   3.760
10795SOL     OW33283   0.893   4.985   3.551
10795SOL    HW133284   0.924   4.893   3.577
10795SOL    HW233285   0.803   4.979   3.508
10796SOL     OW33286   1.801   6.194   4.836
10796SOL    HW133287   1.794   6.130   4.759
10796SOL    HW233288   1.713   6.240   4.849
10797SOL     OW33289   4.102   2.409   0.322
10797SOL    HW133290   4.125   2.417   0.419
10797SOL    HW233291   4.174   2.358   0.275
10798SOL     OW33292   0.183   1.745   0.235
10798SOL    HW133293   0.125   1.821   0.265
10798SOL    HW233294   0.269   1.746   0.287
10799SOL     OW33295   4.239   1.527   1.927
10799SOL    HW133296   4.237   1.562   2.021
10799SOL    HW233297   4.263   1.601   1.864
10800SOL     OW33298   1.247   6.914   1.297
10800SOL    HW133299   1.324   6.974   1.316
10800SOL    HW233300   1.265   6.861   1.214
10801SOL     OW33301   1.435   0.912   0.650
10801SOL    HW133302   1.406   0.907   0.746
10801SOL    HW233303   1.534   0.900   0.645
10802SOL     OW33304   6.579   0.087   3.900
10802SOL    HW133305   6.592   0.046   3.990
10802SOL    HW233306   6.515   0.163   3.907
10803SOL     OW33307   2.153   5.179   6.506
10803SOL    HW133308   2.160   5.164   6.605
10803SOL    HW233309   2.180   5.273   6.485
10804SOL     OW33310   6.746   3.684   4.546
10804SOL    HW133311   6.809   3.651   4.476
10804SOL    HW233312   6.788   3.672   4.636
10805SOL     OW33313   6.304   1.157   5.367
10805SOL    HW133314   6.240   1.231   5.348
10805SOL    HW233315   6.385   1.167   5.309
10806SOL     OW33316   1.984   4.344   6.727
10806SOL    HW133317   1.917   4.404   6.772
10806SOL    HW233318   1.997   4.262   6.783
10807SOL     OW33319   3.382   6.766   4.216
10807SOL    HW133320   3.413   6.842   4.273
10807SOL    HW233321   3.455   6.699   4.206
10808SOL     OW33322   0.455   2.731   6.475
10808SOL    HW133323   0.431   2.638   6.503
10808SOL    HW233324   0.441   2.794   6.551
10809SOL     OW33325   2.332   6.167   4.670
10809SOL    HW133326   2.284   6.249   4.635
10809SOL    HW233327   2.269   6.089   4.668
10810SOL     OW33328   0.272   0.430   4.652
10810SOL    HW133329   0.192   0.489   4.650
10810SOL    HW233330   0.248   0.339   4.617
10811SOL     OW33331   4.855   5.060   4.802
10811SOL    HW133332   4.930   5.031   4.743
10811SOL    HW233333   4.825   5.152   4.777
10812SOL     OW33334   6.207   2.532   0.204
10812SOL    HW133335   6.148   2.479   0.144
10812SOL    HW233336   6.171   2.530   0.297
10813SOL     OW33337   0.716   4.472   6.133
10813SOL    HW133338   0.736   4.545   6.199
10813SOL    HW233339   0.731   4.507   6.040
10814SOL     OW33340   2.935   0.661   1.275
10814SOL    HW133341   2.985   0.624   1.197
10814SOL    HW233342   2.929   0.591   1.347
10815SOL     OW33343   5.350   0.901   4.990
10815SOL    HW133344   5.323   0.805   4.986
10815SOL    HW233345   5.361   0.936   4.897
10816SOL     OW33346   4.012   3.153   3.922
10816SOL    HW133347   3.976   3.068   3.883
10816SOL    HW233348   3.955   3.230   3.894
10817SOL     OW33349   2.114   6.444   3.344
10817SOL    HW133350   2.153   6.418   3.256
10817SOL    HW233351   2.099   6.362   3.400
10818SOL     OW33352   4.127   4.523   6.241
10818SOL    HW133353   4.213   4.574   6.243
10818SOL    HW233354   4.055   4.578   6.285
10819SOL     OW33355   6.876   6.009   5.905
10819SOL    HW133356   6.854   5.939   5.837
10819SOL    HW233357   6.921   5.966   5.984
10820SOL     OW33358   2.604   3.928   5.974
10820SOL    HW133359   2.514   3.972   5.982
10820SOL    HW233360   2.652   3.933   6.062
10821SOL     OW33361   4.679   5.644   2.961
10821SOL    HW133362   4.638   5.676   3.047
10821SOL    HW233363   4.640   5.695   2.885
10822SOL     OW33364   5.173   2.136   2.318
10822SOL    HW133365   5.140   2.141   2.412
10822SOL    HW233366   5.205   2.043   2.299
10823SOL     OW33367   5.890   6.725   2.660
10823SOL    HW133368   5.845   6.688   2.578
10823SOL    HW233369   5.822   6.762   2.722
10824SOL     OW33370   0.837   2.863   3.889
10824SOL    HW133371   0.896   2.936   3.853
10824SOL    HW233372   0.834   2.870   3.989
10825SOL     OW33373   0.514   2.017   0.342
10825SOL    HW133374   0.526   1.979   0.433
10825SOL    HW233375   0.529   1.946   0.273
10826SOL     OW33376   0.553   2.762   3.260
10826SOL    HW133377   0.563   2.848   3.309
10826SOL    HW233378   0.458   2.730   3.267
10827SOL     OW33379   6.861   3.634   4.812
10827SOL    HW133380   6.906   3.706   4.866
10827SOL    HW233381   6.762   3.637   4.829
10828SOL     OW33382   6.241   5.005   5.213
10828SOL    HW133383   6.249   4.983   5.115
10828SOL    HW233384   6.245   5.104   5.225
10829SOL     OW33385   4.152   3.201   5.307
10829SOL    HW133386   4.111   3.122   5.262
10829SOL    HW233387   4.136   3.195   5.405
10830SOL     OW33388   3.820   1.705   3.663
10830SOL    HW133389   3.787   1.613   3.638
10830SOL    HW233390   3.919   1.707   3.658
10831SOL     OW33391   3.999   0.754   3.544
10831SOL    HW133392   4.088   0.799   3.546
10831SOL    HW233393   3.964   0.754   3.450
10832SOL     OW33394   6.741   3.376   0.364
10832SOL    HW133395   6.713   3.438   0.437
10832SOL    HW233396   6.841   3.379   0.354
10833SOL     OW33397   0.400   0.899   6.915
10833SOL    HW133398   0.380   0.963   6.989
10833SOL    HW233399   0.321   0.893   6.854
10834SOL     OW33400   0.018   6.999   1.286
10834SOL    HW133401   7.004   6.915   1.322
10834SOL    HW233402   0.050   6.983   1.192
10835SOL     OW33403   0.376   2.067   5.885
10835SOL    HW133404   0.426   2.136   5.937
10835SOL    HW233405   0.430   1.983   5.881
10836SOL     OW33406   6.972   1.069   4.345
10836SOL    HW133407   6.932   1.160   4.348
10836SOL    HW233408   0.042   1.073   4.371
10837SOL     OW33409   0.305   3.467   2.802
10837SOL    HW133410   0.324   3.565   2.794
10837SOL    HW233411   0.208   3.451   2.788
10838SOL     OW33412   0.219   5.355   2.360
10838SOL    HW133413   0.289   5.299   2.316
10838SOL    HW233414   0.262   5.421   2.420
10839SOL     OW33415   5.143   2.480   1.505
10839SOL    HW133416   5.077   2.406   1.521
10839SOL    HW233417   5.183   2.508   1.592
10840SOL     OW33418   3.170   0.254   1.368
10840SOL    HW133419   3.228   0.335   1.362
10840SOL    HW233420   3.102   0.267   1.440
10841SOL     OW33421   1.961   5.301   5.087
10841SOL    HW133422   1.972   5.385   5.033
10841SOL    HW233423   2.006   5.312   5.175
10842SOL     OW33424   5.214   4.589   0.520
10842SOL    HW133425   5.260   4.524   0.581
10842SOL    HW233426   5.143   4.638   0.571
10843SOL     OW33427   2.393   2.137   1.343
10843SOL    HW133428   2.377   2.051   1.293
10843SOL    HW233429   2.406   2.211   1.277
10844SOL     OW33430   1.861   5.397   4.846
10844SOL    HW133431   1.833   5.349   4.763
10844SOL    HW233432   1.883   5.330   4.917
10845SOL     OW33433   4.267   0.092   4.801
10845SOL    HW133434   4.259   7.026   4.765
10845SOL    HW233435   4.285   0.156   4.727
10846SOL     OW33436   5.278   0.638   7.024
10846SOL    HW133437   5.284   0.538   7.024
10846SOL    HW233438   5.300   0.673   0.088
10847SOL     OW33439   1.981   0.838   6.538
10847SOL    HW133440   1.994   0.766   6.606
10847SOL    HW233441   2.060   0.840   6.476
10848SOL     OW33442   1.652   4.818   1.970
10848SOL    HW133443   1.664   4.773   2.058
10848SOL    HW233444   1.609   4.755   1.906
10849SOL     OW33445   2.017   6.656   4.353
10849SOL    HW133446   2.001   6.743   4.398
10849SOL    HW233447   1.940   6.635   4.292
10850SOL     OW33448   3.396   4.844   0.289
10850SOL    HW133449   3.465   4.820   0.221
10850SOL    HW233450   3.442   4.883   0.369
10851SOL     OW33451   2.019   5.183   0.564
10851SOL    HW133452   1.977   5.133   0.488
10851SOL    HW233453   2.092   5.241   0.530
10852SOL     OW33454   2.057   1.527   1.755
10852SOL    HW133455   1.998   1.466   1.808
10852SOL    HW233456   2.000   1.591   1.703
10853SOL     OW33457   2.605   1.907   6.133
10853SOL    HW133458   2.673   1.943   6.069
10853SOL    HW233459   2.514   1.939   6.107
10854SOL     OW33460   3.162   6.660   5.268
10854SOL    HW133461   3.094   6.590   5.246
10854SOL    HW233462   3.134   6.747   5.227
10855SOL     OW33463   3.310   1.234   6.654
10855SOL    HW133464   3.316   1.149   6.601
10855SOL    HW233465   3.243   1.223   6.727
10856SOL     OW33466   0.194   1.073   0.400
10856SOL    HW133467   0.097   1.051   0.387
10856SOL    HW233468   0.246   0.989   0.413
10857SOL     OW33469   6.484   2.023   2.508
10857SOL    HW133470   6.434   2.092   2.561
10857SOL    HW233471   6.581   2.026   2.533
10858SOL     OW33472   2.600   6.131   1.897
10858SOL    HW133473   2.554   6.091   1.818
10858SOL    HW233474   2.639   6.059   1.953
10859SOL     OW33475   1.872   5.551   3.484
10859SOL    HW133476   1.836   5.575   3.574
10859SOL    HW233477   1.844   5.621   3.417
10860SOL     OW33478   0.173   3.164   3.560
10860SOL    HW133479   0.263   3.181   3.600
10860SOL    HW233480   0.155   3.066   3.556
10861SOL     OW33481   4.209   3.631   4.967
10861SOL    HW133482   4.198   3.551   5.026
10861SOL    HW233483   4.306   3.649   4.953
10862SOL     OW33484   1.162   0.716   4.400
10862SOL    HW133485   1.128   0.810   4.395
10862SOL    HW233486   1.240   0.706   4.338
10863SOL     OW33487   3.164   6.084   4.750
10863SOL    HW133488   3.131   6.173   4.721
10863SOL    HW233489   3.208   6.038   4.673
10864SOL     OW33490   3.774   5.807   2.873
10864SOL    HW133491   3.837   5.837   2.945
10864SOL    HW233492   3.742   5.715   2.894
10865SOL     OW33493   6.399   1.742   6.147
10865SOL    HW133494   6.359   1.677   6.084
10865SOL    HW233495   6.428   1.824   6.097
10866SOL     OW33496   5.398   5.201   0.906
10866SOL    HW133497   5.308   5.159   0.889
10866SOL    HW233498   5.385   5.289   0.952
10867SOL     OW33499   3.258   1.948   0.416
10867SOL    HW133500   3.207   2.030   0.387
10867SOL    HW233501   3.331   1.975   0.478
10868SOL     OW33502   2.631   2.433   2.651
10868SOL    HW133503   2.616   2.430   2.552
10868SOL    HW233504   2.690   2.356   2.678
10869NA      NA33505   6.428   2.222   5.841
10870NA      NA33506   4.422   4.688   5.224
10871NA      NA33507   2.456   3.626   1.558
10872NA      NA33508   4.899   3.464   5.206
10873NA      NA33509   4.202   2.363   5.348
10874NA      NA33510   3.700   4.641   1.673
10875NA      NA33511   6.698   5.909   4.955
10876NA      NA33512   3.738   4.091   4.969
10877NA      NA33513   4.470   6.808   0.062
10878NA      NA33514   3.505   0.168   4.949
10879NA      NA33515   0.128   5.185   2.726
10880NA      NA33516   2.734   0.509   2.952
10881NA      NA33517   3.609   4.141   1.007
10882NA      NA33518   3.461   3.488   2.989
   7.02636   7.02636   7.02636
