Generated by trjconv : CNT in water t= 518.00000
33518
    1C        C    1   2.840   2.766   4.748
    1C        C    2   2.899   2.719   4.868
    1C        C    3   2.841   2.767   4.986
    1C        C    4   2.853   2.777   4.261
    1C        C    5   2.905   2.731   4.384
    1C        C    6   2.847   2.774   4.506
    1C        C    7   3.013   2.641   4.628
    1C        C    8   2.896   2.721   4.627
    1C        C    9   3.079   2.609   4.748
    1C        C   10   3.013   2.635   4.869
    1C        C   11   3.185   2.493   4.981
    1C        C   12   3.065   2.565   4.979
    1C        C   13   2.851   2.773   3.774
    1C        C   14   2.904   2.724   3.895
    1C        C   15   2.851   2.774   4.016
    1C        C   16   3.019   2.647   4.141
    1C        C   17   2.902   2.727   4.139
    1C        C   18   3.080   2.612   4.263
    1C        C   19   3.022   2.652   4.386
    1C        C   20   3.211   2.556   4.508
    1C        C   21   3.081   2.611   4.508
    1C        C   22   3.282   2.535   4.628
    1C        C   23   3.210   2.553   4.749
    1C        C   24   3.413   2.484   4.871
    1C        C   25   3.272   2.503   4.867
    1C        C   26   3.492   2.476   4.986
    1C        C   27   2.847   2.769   3.285
    1C        C   28   2.904   2.724   3.406
    1C        C   29   2.855   2.773   3.529
    1C        C   30   3.023   2.648   3.651
    1C        C   31   2.907   2.728   3.653
    1C        C   32   3.082   2.608   3.773
    1C        C   33   3.019   2.642   3.895
    1C        C   34   3.211   2.559   4.020
    1C        C   35   3.079   2.608   4.019
    1C        C   36   3.279   2.537   4.142
    1C        C   37   3.212   2.561   4.264
    1C        C   38   3.417   2.508   4.386
    1C        C   39   3.278   2.536   4.386
    1C        C   40   3.489   2.505   4.507
    1C        C   41   3.421   2.510   4.631
    1C        C   42   3.633   2.490   4.748
    1C        C   43   3.491   2.484   4.751
    1C        C   44   3.707   2.487   4.868
    1C        C   45   3.631   2.478   4.986
    1C        C   46   2.838   2.753   2.796
    1C        C   47   2.895   2.710   2.917
    1C        C   48   2.846   2.765   3.038
    1C        C   49   3.015   2.643   3.162
    1C        C   50   2.898   2.722   3.161
    1C        C   51   3.079   2.608   3.283
    1C        C   52   3.019   2.642   3.406
    1C        C   53   3.210   2.551   3.528
    1C        C   54   3.080   2.607   3.529
    1C        C   55   3.278   2.533   3.651
    1C        C   56   3.213   2.557   3.774
    1C        C   57   3.419   2.514   3.898
    1C        C   58   3.280   2.541   3.897
    1C        C   59   3.489   2.500   4.019
    1C        C   60   3.417   2.507   4.140
    1C        C   61   3.628   2.510   4.261
    1C        C   62   3.487   2.506   4.263
    1C        C   63   3.702   2.507   4.382
    1C        C   64   3.630   2.504   4.503
    1C        C   65   3.838   2.542   4.621
    1C        C   66   3.700   2.511   4.626
    1C        C   67   3.907   2.564   4.743
    1C        C   68   3.843   2.525   4.862
    1C        C   69   4.053   2.584   4.982
    1C        C   70   3.926   2.525   4.975
    1C        C   71   2.823   2.735   2.312
    1C        C   72   2.883   2.690   2.432
    1C        C   73   2.830   2.744   2.551
    1C        C   74   3.006   2.625   2.674
    1C        C   75   2.887   2.702   2.674
    1C        C   76   3.071   2.592   2.795
    1C        C   77   3.014   2.634   2.918
    1C        C   78   3.207   2.550   3.041
    1C        C   79   3.077   2.605   3.041
    1C        C   80   3.275   2.528   3.162
    1C        C   81   3.209   2.553   3.285
    1C        C   82   3.416   2.503   3.406
    1C        C   83   3.277   2.528   3.407
    1C        C   84   3.487   2.497   3.528
    1C        C   85   3.417   2.507   3.651
    1C        C   86   3.628   2.501   3.772
    1C        C   87   3.486   2.505   3.774
    1C        C   88   3.699   2.511   3.893
    1C        C   89   3.630   2.506   4.016
    1C        C   90   3.837   2.548   4.139
    1C        C   91   3.698   2.520   4.139
    1C        C   92   3.906   2.569   4.260
    1C        C   93   3.838   2.543   4.381
    1C        C   94   4.035   2.628   4.502
    1C        C   95   3.910   2.561   4.502
    1C        C   96   4.090   2.673   4.623
    1C        C   97   4.033   2.629   4.745
    1C        C   98   4.186   2.769   4.866
    1C        C   99   4.102   2.653   4.867
    1C        C  100   4.211   2.847   4.979
    1C        C  101   2.827   2.734   2.073
    1C        C  102   2.990   2.592   2.195
    1C        C  103   2.877   2.681   2.192
    1C        C  104   3.065   2.574   2.314
    1C        C  105   3.004   2.617   2.434
    1C        C  106   3.202   2.536   2.554
    1C        C  107   3.072   2.591   2.555
    1C        C  108   3.272   2.526   2.676
    1C        C  109   3.203   2.542   2.798
    1C        C  110   3.413   2.500   2.917
    1C        C  111   3.274   2.524   2.919
    1C        C  112   3.486   2.498   3.039
    1C        C  113   3.415   2.510   3.160
    1C        C  114   3.627   2.502   3.281
    1C        C  115   3.486   2.503   3.283
    1C        C  116   3.697   2.512   3.403
    1C        C  117   3.628   2.507   3.526
    1C        C  118   3.833   2.550   3.648
    1C        C  119   3.697   2.515   3.649
    1C        C  120   3.899   2.575   3.771
    1C        C  121   3.836   2.547   3.894
    1C        C  122   4.028   2.636   4.013
    1C        C  123   3.904   2.569   4.016
    1C        C  124   4.089   2.671   4.135
    1C        C  125   4.033   2.631   4.259
    1C        C  126   4.204   2.758   4.379
    1C        C  127   4.096   2.666   4.381
    1C        C  128   4.248   2.815   4.500
    1C        C  129   4.198   2.764   4.622
    1C        C  130   4.326   2.934   4.742
    1C        C  131   4.243   2.818   4.745
    1C        C  132   4.352   3.006   4.861
    1C        C  133   4.284   2.965   4.976
    1C        C  134   3.178   2.479   2.082
    1C        C  135   3.042   2.511   2.088
    1C        C  136   3.264   2.491   2.192
    1C        C  137   3.200   2.528   2.312
    1C        C  138   3.408   2.486   2.432
    1C        C  139   3.268   2.504   2.433
    1C        C  140   3.482   2.487   2.553
    1C        C  141   3.410   2.496   2.674
    1C        C  142   3.625   2.497   2.794
    1C        C  143   3.484   2.492   2.795
    1C        C  144   3.698   2.503   2.915
    1C        C  145   3.627   2.498   3.037
    1C        C  146   3.834   2.544   3.159
    1C        C  147   3.698   2.507   3.159
    1C        C  148   3.901   2.571   3.281
    1C        C  149   3.834   2.547   3.403
    1C        C  150   4.027   2.632   3.525
    1C        C  151   3.900   2.570   3.525
    1C        C  152   4.089   2.669   3.647
    1C        C  153   4.027   2.634   3.769
    1C        C  154   4.199   2.760   3.889
    1C        C  155   4.087   2.674   3.891
    1C        C  156   4.246   2.810   4.012
    1C        C  157   4.200   2.759   4.136
    1C        C  158   4.340   2.918   4.256
    1C        C  159   4.256   2.804   4.257
    1C        C  160   4.375   2.982   4.377
    1C        C  161   4.330   2.930   4.501
    1C        C  162   4.435   3.117   4.617
    1C        C  163   4.366   2.994   4.621
    1C        C  164   4.465   3.185   4.737
    1C        C  165   4.428   3.125   4.859
    1C        C  166   4.509   3.320   4.975
    1C        C  167   4.482   3.184   4.975
    1C        C  168   3.479   2.438   2.077
    1C        C  169   3.403   2.466   2.191
    1C        C  170   3.620   2.468   2.309
    1C        C  171   3.478   2.467   2.310
    1C        C  172   3.694   2.487   2.428
    1C        C  173   3.623   2.489   2.550
    1C        C  174   3.830   2.544   2.670
    1C        C  175   3.693   2.508   2.671
    1C        C  176   3.901   2.563   2.790
    1C        C  177   3.834   2.541   2.913
    1C        C  178   4.029   2.622   3.034
    1C        C  179   3.901   2.564   3.036
    1C        C  180   4.091   2.659   3.155
    1C        C  181   4.030   2.628   3.279
    1C        C  182   4.202   2.750   3.399
    1C        C  183   4.089   2.665   3.402
    1C        C  184   4.254   2.801   3.520
    1C        C  185   4.203   2.752   3.642
    1C        C  186   4.339   2.912   3.767
    1C        C  187   4.255   2.799   3.765
    1C        C  188   4.375   2.975   3.888
    1C        C  189   4.336   2.919   4.012
    1C        C  190   4.437   3.106   4.131
    1C        C  191   4.376   2.978   4.134
    1C        C  192   4.457   3.176   4.252
    1C        C  193   4.434   3.110   4.375
    1C        C  194   4.499   3.317   4.494
    1C        C  195   4.464   3.180   4.494
    1C        C  196   4.518   3.390   4.613
    1C        C  197   4.507   3.321   4.736
    1C        C  198   4.551   3.535   4.852
    1C        C  199   4.524   3.394   4.857
    1C        C  200   4.584   3.619   4.963
    1C        C  201   3.618   2.422   2.073
    1C        C  202   3.828   2.513   2.187
    1C        C  203   3.694   2.463   2.188
    1C        C  204   3.900   2.542   2.306
    1C        C  205   3.831   2.520   2.427
    1C        C  206   4.025   2.617   2.544
    1C        C  207   3.898   2.554   2.546
    1C        C  208   4.087   2.654   2.665
    1C        C  209   4.028   2.625   2.789
    1C        C  210   4.202   2.746   2.911
    1C        C  211   4.090   2.660   2.911
    1C        C  212   4.252   2.797   3.032
    1C        C  213   4.200   2.748   3.155
    1C        C  214   4.341   2.907   3.274
    1C        C  215   4.255   2.794   3.277
    1C        C  216   4.376   2.968   3.397
    1C        C  217   4.341   2.913   3.522
    1C        C  218   4.432   3.103   3.639
    1C        C  219   4.374   2.974   3.644
    1C        C  220   4.456   3.170   3.761
    1C        C  221   4.433   3.104   3.884
    1C        C  222   4.491   3.306   4.005
    1C        C  223   4.459   3.169   4.006
    1C        C  224   4.505   3.379   4.125
    1C        C  225   4.491   3.313   4.249
    1C        C  226   4.512   3.526   4.368
    1C        C  227   4.502   3.385   4.370
    1C        C  228   4.515   3.599   4.489
    1C        C  229   4.529   3.531   4.612
    1C        C  230   4.503   3.745   4.728
    1C        C  231   4.537   3.607   4.731
    1C        C  232   4.500   3.821   4.847
    1C        C  233   4.548   3.754   4.960
    1C        C  234   4.016   2.614   2.065
    1C        C  235   3.893   2.550   2.068
    1C        C  236   4.082   2.655   2.182
    1C        C  237   4.027   2.607   2.303
    1C        C  238   4.204   2.731   2.422
    1C        C  239   4.092   2.643   2.422
    1C        C  240   4.255   2.784   2.543
    1C        C  241   4.204   2.734   2.664
    1C        C  242   4.339   2.899   2.785
    1C        C  243   4.253   2.787   2.786
    1C        C  244   4.379   2.963   2.905
    1C        C  245   4.342   2.906   3.028
    1C        C  246   4.435   3.094   3.150
    1C        C  247   4.379   2.965   3.151
    1C        C  248   4.459   3.161   3.272
    1C        C  249   4.433   3.098   3.396
    1C        C  250   4.491   3.305   3.515
    1C        C  251   4.453   3.169   3.516
    1C        C  252   4.504   3.375   3.637
    1C        C  253   4.494   3.306   3.760
    1C        C  254   4.515   3.517   3.881
    1C        C  255   4.503   3.376   3.883
    1C        C  256   4.509   3.591   4.001
    1C        C  257   4.509   3.521   4.123
    1C        C  258   4.484   3.732   4.241
    1C        C  259   4.510   3.594   4.244
    1C        C  260   4.469   3.801   4.363
    1C        C  261   4.483   3.737   4.488
    1C        C  262   4.429   3.946   4.605
    1C        C  263   4.474   3.812   4.607
    1C        C  264   4.398   4.012   4.726
    1C        C  265   4.436   3.948   4.845
    1C        C  266   4.318   4.132   4.959
    1C        C  267   4.393   4.015   4.960
    1C        C  268   4.255   2.786   2.065
    1C        C  269   4.199   2.734   2.182
    1C        C  270   4.350   2.888   2.302
    1C        C  271   4.261   2.777   2.301
    1C        C  272   4.386   2.955   2.421
    1C        C  273   4.342   2.896   2.542
    1C        C  274   4.443   3.084   2.663
    1C        C  275   4.378   2.959   2.663
    1C        C  276   4.469   3.154   2.783
    1C        C  277   4.443   3.089   2.905
    1C        C  278   4.505   3.293   3.028
    1C        C  279   4.465   3.158   3.027
    1C        C  280   4.506   3.368   3.148
    1C        C  281   4.489   3.299   3.270
    1C        C  282   4.509   3.512   3.391
    1C        C  283   4.504   3.371   3.391
    1C        C  284   4.509   3.583   3.513
    1C        C  285   4.512   3.516   3.638
    1C        C  286   4.489   3.727   3.754
    1C        C  287   4.515   3.588   3.759
    1C        C  288   4.472   3.796   3.876
    1C        C  289   4.492   3.732   4.000
    1C        C  290   4.433   3.940   4.117
    1C        C  291   4.473   3.805   4.120
    1C        C  292   4.401   4.002   4.239
    1C        C  293   4.426   3.936   4.362
    1C        C  294   4.333   4.131   4.480
    1C        C  295   4.400   4.007   4.481
    1C        C  296   4.291   4.194   4.599
    1C        C  297   4.328   4.136   4.723
    1C        C  298   4.207   4.321   4.840
    1C        C  299   4.286   4.202   4.841
    1C        C  300   4.174   4.407   4.950
    1C        C  301   4.347   2.890   2.062
    1C        C  302   4.472   3.067   2.179
    1C        C  303   4.397   2.945   2.181
    1C        C  304   4.485   3.143   2.299
    1C        C  305   4.452   3.080   2.420
    1C        C  306   4.513   3.285   2.537
    1C        C  307   4.476   3.148   2.541
    1C        C  308   4.512   3.357   2.658
    1C        C  309   4.500   3.292   2.782
    1C        C  310   4.516   3.503   2.903
    1C        C  311   4.513   3.362   2.904
    1C        C  312   4.512   3.578   3.023
    1C        C  313   4.506   3.509   3.147
    1C        C  314   4.486   3.722   3.267
    1C        C  315   4.504   3.581   3.268
    1C        C  316   4.474   3.792   3.389
    1C        C  317   4.494   3.723   3.511
    1C        C  318   4.430   3.929   3.628
    1C        C  319   4.476   3.795   3.631
    1C        C  320   4.402   3.994   3.750
    1C        C  321   4.432   3.931   3.873
    1C        C  322   4.326   4.119   3.992
    1C        C  323   4.403   4.001   3.992
    1C        C  324   4.282   4.177   4.113
    1C        C  325   4.328   4.123   4.235
    1C        C  326   4.190   4.285   4.356
    1C        C  327   4.289   4.185   4.357
    1C        C  328   4.142   4.344   4.475
    1C        C  329   4.200   4.302   4.597
    1C        C  330   4.028   4.435   4.714
    1C        C  331   4.148   4.358   4.716
    1C        C  332   3.974   4.494   4.830
    1C        C  333   4.056   4.482   4.943
    1C        C  334   4.553   3.268   2.065
    1C        C  335   4.540   3.129   2.070
    1C        C  336   4.534   3.353   2.175
    1C        C  337   4.513   3.283   2.296
    1C        C  338   4.524   3.497   2.413
    1C        C  339   4.526   3.356   2.416
    1C        C  340   4.518   3.569   2.535
    1C        C  341   4.517   3.499   2.658
    1C        C  342   4.493   3.711   2.776
    1C        C  343   4.512   3.571   2.779
    1C        C  344   4.481   3.784   2.896
    1C        C  345   4.498   3.718   3.020
    1C        C  346   4.429   3.920   3.140
    1C        C  347   4.475   3.786   3.141
    1C        C  348   4.403   3.988   3.261
    1C        C  349   4.433   3.927   3.385
    1C        C  350   4.327   4.112   3.505
    1C        C  351   4.404   3.994   3.505
    1C        C  352   4.284   4.172   3.626
    1C        C  353   4.324   4.112   3.747
    1C        C  354   4.183   4.272   3.869
    1C        C  355   4.278   4.168   3.868
    1C        C  356   4.133   4.328   3.989
    1C        C  357   4.186   4.281   4.111
    1C        C  358   4.013   4.400   4.231
    1C        C  359   4.132   4.325   4.233
    1C        C  360   3.957   4.448   4.352
    1C        C  361   4.027   4.425   4.473
    1C        C  362   3.830   4.515   4.594
    1C        C  363   3.961   4.462   4.592
    1C        C  364   3.764   4.546   4.715
    1C        C  365   3.841   4.541   4.833
    1C        C  366   3.631   4.593   4.950
    1C        C  367   3.769   4.571   4.949
    1C        C  368   4.506   3.566   2.054
    1C        C  369   4.525   3.494   2.172
    1C        C  370   4.509   3.710   2.291
    1C        C  371   4.524   3.569   2.292
    1C        C  372   4.491   3.780   2.412
    1C        C  373   4.502   3.709   2.534
    1C        C  374   4.426   3.911   2.653
    1C        C  375   4.477   3.779   2.654
    1C        C  376   4.398   3.979   2.774
    1C        C  377   4.430   3.916   2.896
    1C        C  378   4.327   4.104   3.015
    1C        C  379   4.402   3.983   3.017
    1C        C  380   4.281   4.158   3.137
    1C        C  381   4.326   4.107   3.260
    1C        C  382   4.182   4.264   3.377
    1C        C  383   4.279   4.162   3.382
    1C        C  384   4.127   4.310   3.499
    1C        C  385   4.182   4.270   3.623
    1C        C  386   4.014   4.398   3.741
    1C        C  387   4.131   4.318   3.745
    1C        C  388   3.951   4.436   3.862
    1C        C  389   4.013   4.402   3.984
    1C        C  390   3.820   4.484   4.110
    1C        C  391   3.951   4.431   4.108
    1C        C  392   3.754   4.518   4.231
    1C        C  393   3.826   4.500   4.351
    1C        C  394   3.622   4.553   4.476
    1C        C  395   3.761   4.531   4.472
    1C        C  396   3.550   4.561   4.597
    1C        C  397   3.624   4.564   4.717
    1C        C  398   3.411   4.551   4.839
    1C        C  399   3.551   4.574   4.837
    1C        C  400   3.341   4.521   4.957
    1C        C  401   4.503   3.705   2.054
    1C        C  402   4.457   3.917   2.167
    1C        C  403   4.498   3.782   2.171
    1C        C  404   4.419   3.979   2.288
    1C        C  405   4.446   3.914   2.410
    1C        C  406   4.328   4.095   2.528
    1C        C  407   4.406   3.977   2.530
    1C        C  408   4.284   4.155   2.648
    1C        C  409   4.326   4.101   2.771
    1C        C  410   4.188   4.262   2.889
    1C        C  411   4.286   4.160   2.892
    1C        C  412   4.132   4.307   3.010
    1C        C  413   4.183   4.260   3.134
    1C        C  414   4.006   4.381   3.255
    1C        C  415   4.124   4.305   3.255
    1C        C  416   3.944   4.417   3.377
    1C        C  417   4.006   4.384   3.499
    1C        C  418   3.817   4.484   3.621
    1C        C  419   3.945   4.424   3.621
    1C        C  420   3.750   4.506   3.743
    1C        C  421   3.818   4.483   3.864
    1C        C  422   3.613   4.527   3.987
    1C        C  423   3.753   4.506   3.988
    1C        C  424   3.544   4.537   4.110
    1C        C  425   3.614   4.536   4.233
    1C        C  426   3.405   4.548   4.359
    1C        C  427   3.547   4.548   4.356
    1C        C  428   3.334   4.550   4.481
    1C        C  429   3.409   4.556   4.601
    1C        C  430   3.195   4.521   4.723
    1C        C  431   3.335   4.545   4.720
    1C        C  432   3.126   4.496   4.846
    1C        C  433   3.205   4.496   4.962
    1C        C  434   4.388   4.124   2.056
    1C        C  435   4.454   4.000   2.054
    1C        C  436   4.305   4.164   2.166
    1C        C  437   4.341   4.098   2.286
    1C        C  438   4.187   4.252   2.403
    1C        C  439   4.288   4.153   2.405
    1C        C  440   4.132   4.301   2.523
    1C        C  441   4.182   4.254   2.647
    1C        C  442   4.011   4.382   2.769
    1C        C  443   4.130   4.305   2.767
    1C        C  444   3.949   4.416   2.891
    1C        C  445   4.012   4.380   3.012
    1C        C  446   3.814   4.469   3.133
    1C        C  447   3.944   4.414   3.132
    1C        C  448   3.749   4.495   3.256
    1C        C  449   3.815   4.474   3.379
    1C        C  450   3.607   4.526   3.497
    1C        C  451   3.746   4.499   3.500
    1C        C  452   3.540   4.539   3.620
    1C        C  453   3.611   4.532   3.742
    1C        C  454   3.401   4.538   3.866
    1C        C  455   3.542   4.538   3.865
    1C        C  456   3.333   4.529   3.990
    1C        C  457   3.403   4.534   4.113
    1C        C  458   3.197   4.503   4.238
    1C        C  459   3.336   4.532   4.237
    1C        C  460   3.130   4.483   4.361
    1C        C  461   3.198   4.511   4.481
    1C        C  462   2.999   4.436   4.605
    1C        C  463   3.127   4.495   4.602
    1C        C  464   2.932   4.402   4.725
    1C        C  465   2.991   4.449   4.845
    1C        C  466   2.802   4.341   4.957
    1C        C  467   2.908   4.433   4.960
    1C        C  468   4.121   4.281   2.045
    1C        C  469   4.195   4.256   2.162
    1C        C  470   4.014   4.377   2.281
    1C        C  471   4.135   4.303   2.282
    1C        C  472   3.947   4.405   2.402
    1C        C  473   4.012   4.376   2.524
    1C        C  474   3.817   4.460   2.643
    1C        C  475   3.948   4.408   2.645
    1C        C  476   3.749   4.483   2.765
    1C        C  477   3.816   4.464   2.887
    1C        C  478   3.609   4.510   3.010
    1C        C  479   3.748   4.486   3.009
    1C        C  480   3.537   4.520   3.131
    1C        C  481   3.610   4.515   3.252
    1C        C  482   3.397   4.532   3.378
    1C        C  483   3.538   4.527   3.373
    1C        C  484   3.327   4.532   3.500
    1C        C  485   3.398   4.544   3.622
    1C        C  486   3.193   4.500   3.746
    1C        C  487   3.329   4.538   3.745
    1C        C  488   3.130   4.476   3.870
    1C        C  489   3.196   4.496   3.993
    1C        C  490   3.002   4.415   4.117
    1C        C  491   3.131   4.475   4.117
    1C        C  492   2.942   4.382   4.240
    1C        C  493   3.004   4.418   4.362
    1C        C  494   2.830   4.300   4.484
    1C        C  495   2.944   4.383   4.486
    1C        C  496   2.775   4.257   4.606
    1C        C  497   2.822   4.312   4.727
    1C        C  498   2.663   4.165   4.847
    1C        C  499   2.755   4.272   4.845
    1C        C  500   2.598   4.114   4.961
    1C        C  501   4.004   4.355   2.043
    1C        C  502   3.815   4.458   2.158
    1C        C  503   3.944   4.402   2.161
    1C        C  504   3.745   4.478   2.279
    1C        C  505   3.815   4.455   2.400
    1C        C  506   3.608   4.504   2.523
    1C        C  507   3.747   4.480   2.522
    1C        C  508   3.536   4.508   2.645
    1C        C  509   3.609   4.504   2.765
    1C        C  510   3.398   4.524   2.887
    1C        C  511   3.539   4.517   2.887
    1C        C  512   3.326   4.519   3.008
    1C        C  513   3.396   4.526   3.130
    1C        C  514   3.191   4.491   3.256
    1C        C  515   3.328   4.524   3.254
    1C        C  516   3.123   4.472   3.379
    1C        C  517   3.190   4.497   3.501
    1C        C  518   2.998   4.414   3.626
    1C        C  519   3.125   4.476   3.625
    1C        C  520   2.940   4.380   3.750
    1C        C  521   3.002   4.415   3.872
    1C        C  522   2.836   4.286   3.997
    1C        C  523   2.943   4.379   3.994
    1C        C  524   2.787   4.239   4.121
    1C        C  525   2.836   4.289   4.243
    1C        C  526   2.693   4.133   4.365
    1C        C  527   2.778   4.245   4.364
    1C        C  528   2.655   4.076   4.489
    1C        C  529   2.692   4.143   4.608
    1C        C  530   2.589   3.958   4.733
    1C        C  531   2.644   4.089   4.730
    1C        C  532   2.544   3.900   4.855
    1C        C  533   2.528   3.993   4.963
    1C        C  534   3.618   4.550   2.040
    1C        C  535   3.753   4.514   2.045
    1C        C  536   3.537   4.534   2.157
    1C        C  537   3.606   4.509   2.278
    1C        C  538   3.397   4.514   2.400
    1C        C  539   3.538   4.517   2.401
    1C        C  540   3.325   4.511   2.521
    1C        C  541   3.395   4.509   2.644
    1C        C  542   3.185   4.492   2.767
    1C        C  543   3.325   4.512   2.766
    1C        C  544   3.120   4.467   2.890
    1C        C  545   3.188   4.488   3.013
    1C        C  546   2.996   4.402   3.135
    1C        C  547   3.121   4.468   3.136
    1C        C  548   2.939   4.368   3.260
    1C        C  549   2.994   4.414   3.382
    1C        C  550   2.828   4.286   3.506
    1C        C  551   2.937   4.376   3.505
    1C        C  552   2.779   4.236   3.629
    1C        C  553   2.832   4.288   3.750
    1C        C  554   2.701   4.125   3.876
    1C        C  555   2.788   4.237   3.874
    1C        C  556   2.659   4.068   3.998
    1C        C  557   2.697   4.130   4.119
    1C        C  558   2.598   3.944   4.246
    1C        C  559   2.661   4.071   4.242
    1C        C  560   2.565   3.882   4.368
    1C        C  561   2.586   3.953   4.489
    1C        C  562   2.533   3.751   4.619
    1C        C  563   2.566   3.888   4.613
    1C        C  564   2.522   3.680   4.740
    1C        C  565   2.523   3.758   4.859
    1C        C  566   2.533   3.546   4.982
    1C        C  567   2.525   3.684   4.978
    1C        C  568   3.329   4.472   2.039
    1C        C  569   3.397   4.509   2.156
    1C        C  570   3.185   4.479   2.281
    1C        C  571   3.324   4.506   2.279
    1C        C  572   3.117   4.461   2.403
    1C        C  573   3.185   4.490   2.523
    1C        C  574   2.993   4.402   2.647
    1C        C  575   3.118   4.468   2.646
    1C        C  576   2.933   4.364   2.769
    1C        C  577   2.995   4.401   2.890
    1C        C  578   2.827   4.274   3.015
    1C        C  579   2.937   4.362   3.013
    1C        C  580   2.781   4.224   3.139
    1C        C  581   2.832   4.276   3.259
    1C        C  582   2.694   4.121   3.386
    1C        C  583   2.782   4.232   3.384
    1C        C  584   2.656   4.063   3.509
    1C        C  585   2.696   4.122   3.631
    1C        C  586   2.599   3.937   3.755
    1C        C  587   2.660   4.065   3.755
    1C        C  588   2.573   3.876   3.880
    1C        C  589   2.602   3.939   4.003
    1C        C  590   2.538   3.739   4.129
    1C        C  591   2.573   3.876   4.125
    1C        C  592   2.533   3.671   4.253
    1C        C  593   2.534   3.744   4.374
    1C        C  594   2.513   3.537   4.502
    1C        C  595   2.522   3.678   4.498
    1C        C  596   2.517   3.464   4.623
    1C        C  597   2.524   3.538   4.744
    1C        C  598   2.537   3.326   4.866
    1C        C  599   2.530   3.467   4.866
    1C        C  600   2.536   3.249   4.983
    1C        C  601   3.196   4.437   2.045
    1C        C  602   2.986   4.389   2.163
    1C        C  603   3.117   4.445   2.160
    1C        C  604   2.921   4.363   2.287
    1C        C  605   2.990   4.398   2.406
    1C        C  606   2.818   4.275   2.529
    1C        C  607   2.929   4.361   2.528
    1C        C  608   2.769   4.224   2.651
    1C        C  609   2.821   4.277   2.771
    1C        C  610   2.684   4.116   2.897
    1C        C  611   2.771   4.228   2.894
    1C        C  612   2.652   4.055   3.020
    1C        C  613   2.692   4.114   3.143
    1C        C  614   2.587   3.933   3.268
    1C        C  615   2.653   4.058   3.266
    1C        C  616   2.568   3.869   3.393
    1C        C  617   2.597   3.935   3.514
    1C        C  618   2.531   3.732   3.637
    1C        C  619   2.569   3.868   3.636
    1C        C  620   2.519   3.668   3.763
    1C        C  621   2.533   3.740   3.883
    1C        C  622   2.517   3.530   4.010
    1C        C  623   2.528   3.670   4.006
    1C        C  624   2.521   3.459   4.132
    1C        C  625   2.521   3.530   4.255
    1C        C  626   2.544   3.326   4.383
    1C        C  627   2.518   3.465   4.380
    1C        C  628   2.557   3.254   4.503
    1C        C  629   2.538   3.325   4.624
    1C        C  630   2.600   3.120   4.747
    1C        C  631   2.555   3.255   4.746
    1C        C  632   2.618   3.048   4.868
    1C        C  633   2.564   3.112   4.984
    1C        C  634   2.777   4.307   2.054
    1C        C  635   2.889   4.390   2.057
    1C        C  636   2.747   4.234   2.170
    1C        C  637   2.808   4.278   2.290
    1C        C  638   2.666   4.118   2.412
    1C        C  639   2.757   4.226   2.411
    1C        C  640   2.631   4.056   2.535
    1C        C  641   2.681   4.113   2.654
    1C        C  642   2.581   3.927   2.776
    1C        C  643   2.642   4.055   2.777
    1C        C  644   2.566   3.859   2.899
    1C        C  645   2.595   3.926   3.020
    1C        C  646   2.535   3.728   3.149
    1C        C  647   2.568   3.866   3.145
    1C        C  648   2.519   3.659   3.271
    1C        C  649   2.533   3.732   3.391
    1C        C  650   2.514   3.523   3.519
    1C        C  651   2.522   3.664   3.514
    1C        C  652   2.518   3.456   3.644
    1C        C  653   2.513   3.527   3.766
    1C        C  654   2.544   3.318   3.890
    1C        C  655   2.518   3.457   3.889
    1C        C  656   2.560   3.251   4.014
    1C        C  657   2.546   3.320   4.136
    1C        C  658   2.607   3.124   4.262
    1C        C  659   2.557   3.256   4.261
    1C        C  660   2.639   3.059   4.383
    1C        C  661   2.606   3.122   4.505
    1C        C  662   2.702   2.932   4.627
    1C        C  663   2.630   3.053   4.626
    1C        C  664   2.744   2.871   4.748
    1C        C  665   2.696   2.927   4.869
    1C        C  666   2.738   2.860   4.985
    1C        C  667   2.681   4.029   2.054
    1C        C  668   2.688   4.106   2.171
    1C        C  669   2.592   3.916   2.295
    1C        C  670   2.643   4.049   2.292
    1C        C  671   2.559   3.852   2.417
    1C        C  672   2.581   3.924   2.537
    1C        C  673   2.516   3.720   2.659
    1C        C  674   2.554   3.856   2.658
    1C        C  675   2.511   3.651   2.782
    1C        C  676   2.536   3.721   2.903
    1C        C  677   2.514   3.515   3.029
    1C        C  678   2.526   3.656   3.028
    1C        C  679   2.511   3.448   3.153
    1C        C  680   2.509   3.518   3.276
    1C        C  681   2.534   3.309   3.401
    1C        C  682   2.511   3.449   3.399
    1C        C  683   2.560   3.246   3.525
    1C        C  684   2.546   3.318   3.646
    1C        C  685   2.607   3.115   3.771
    1C        C  686   2.561   3.249   3.768
    1C        C  687   2.639   3.057   3.895
    1C        C  688   2.606   3.118   4.018
    1C        C  689   2.718   2.939   4.140
    1C        C  690   2.637   3.055   4.142
    1C        C  691   2.760   2.883   4.263
    1C        C  692   2.713   2.938   4.384
    1C        C  693   2.751   2.878   4.506
    1C        C  694   2.630   3.899   2.061
    1C        C  695   2.532   3.706   2.176
    1C        C  696   2.582   3.838   2.178
    1C        C  697   2.507   3.641   2.299
    1C        C  698   2.520   3.717   2.418
    1C        C  699   2.494   3.505   2.543
    1C        C  700   2.508   3.646   2.539
    1C        C  701   2.507   3.436   2.665
    1C        C  702   2.508   3.510   2.786
    1C        C  703   2.525   3.300   2.912
    1C        C  704   2.509   3.441   2.909
    1C        C  705   2.543   3.234   3.035
    1C        C  706   2.534   3.309   3.155
    1C        C  707   2.603   3.110   3.279
    1C        C  708   2.553   3.242   3.278
    1C        C  709   2.636   3.051   3.403
    1C        C  710   2.611   3.114   3.526
    1C        C  711   2.713   2.930   3.650
    1C        C  712   2.640   3.051   3.649
    1C        C  713   2.759   2.881   3.774
    1C        C  714   2.720   2.941   3.896
    1C        C  715   2.761   2.883   4.018
    1C        C  716   2.448   3.503   2.065
    1C        C  717   2.495   3.635   2.062
    1C        C  718   2.469   3.424   2.183
    1C        C  719   2.489   3.500   2.302
    1C        C  720   2.517   3.291   2.424
    1C        C  721   2.490   3.429   2.424
    1C        C  722   2.536   3.223   2.547
    1C        C  723   2.526   3.296   2.667
    1C        C  724   2.593   3.098   2.790
    1C        C  725   2.540   3.229   2.791
    1C        C  726   2.627   3.038   2.914
    1C        C  727   2.593   3.102   3.035
    1C        C  728   2.712   2.929   3.160
    1C        C  729   2.626   3.041   3.158
    1C        C  730   2.752   2.873   3.284
    1C        C  731   2.711   2.931   3.406
    1C        C  732   2.757   2.875   3.527
    1C        C  733   2.485   3.198   2.074
    1C        C  734   2.491   3.283   2.185
    1C        C  735   2.590   3.088   2.304
    1C        C  736   2.528   3.216   2.305
    1C        C  737   2.614   3.022   2.427
    1C        C  738   2.583   3.089   2.547
    1C        C  739   2.700   2.913   2.670
    1C        C  740   2.624   3.032   2.669
    1C        C  741   2.744   2.859   2.793
    1C        C  742   2.700   2.917   2.914
    1C        C  743   2.752   2.871   3.037
    1C        C  744   2.546   3.073   2.073
    1C        C  745   2.688   2.899   2.186
    1C        C  746   2.615   3.019   2.183
    1C        C  747   2.731   2.843   2.308
    1C        C  748   2.684   2.899   2.428
    1C        C  749   2.734   2.848   2.550
    1C        C  750   2.736   2.839   2.069
    1C        C  751   3.669   2.310   1.990
    1C        O  752   3.704   2.197   2.034
    1C        O  753   3.671   2.316   1.850
    1C        C  754   4.640   3.044   2.001
    1C        O  755   4.641   3.041   1.875
    1C        O  756   4.775   3.039   2.037
    1C        C  757   4.455   4.230   1.977
    1C        O  758   4.571   4.271   2.005
    1C        O  759   4.413   4.279   1.853
    1C        C  760   3.584   4.650   1.936
    1C        O  761   3.627   4.768   1.942
    1C        O  762   3.537   4.629   1.806
    1C        C  763   2.880   4.508   1.969
    1C        O  764   2.918   4.489   1.850
    1C        O  765   2.852   4.636   2.019
    1C        C  766   2.326   3.495   1.982
    1C        O  767   2.323   3.462   1.860
    1C        O  768   2.196   3.494   2.033
    1C        C  769   4.713   3.586   5.028
    1C        O  770   4.738   3.507   5.123
    1C        O  771   4.837   3.631   4.982
    1C        C  772   4.269   4.445   5.058
    1C        O  773   4.254   4.420   5.180
    1C        O  774   4.381   4.526   5.034
    1C        C  775   4.149   2.534   5.084
    1C        O  776   4.192   2.416   5.083
    1C        O  777   4.158   2.592   5.211
    1C        C  778   2.870   4.548   5.046
    1C        O  779   2.817   4.652   4.999
    1C        O  780   2.875   4.557   5.186
    1C        C  781   2.507   3.048   5.105
    1C        O  782   2.389   3.006   5.105
    1C        O  783   2.542   3.097   5.230
    1C        C  784   2.434   3.984   5.077
    1C        O  785   2.309   3.991   5.060
    1C        O  786   2.472   3.978   5.211
    1C        C  787   2.955   2.431   1.998
    1C        O  788   2.910   2.477   1.890
    1C        O  789   2.946   2.293   1.998
    1C        C  790   3.169   2.373   5.066
    1C        O  791   3.125   2.263   5.024
    1C        O  792   3.241   2.357   5.185
    1C        H  793   4.247   3.044   5.038
    1C        H  794   4.150   2.831   5.066
    1C        H  795   4.531   3.120   5.045
    1C        H  796   4.498   3.366   5.071
    1C        H  797   4.552   3.807   5.053
    1C        H  798   4.452   4.002   5.048
    1C        H  799   4.300   4.180   5.053
    1C        H  800   4.034   4.543   5.028
    1C        H  801   3.824   4.611   5.031
    1C        H  802   3.585   4.600   5.046
    1C        H  803   3.391   4.513   5.051
    1C        H  804   3.155   4.515   5.055
    1C        H  805   3.914   2.436   5.032
    1C        H  806   3.684   2.468   5.079
    1C        H  807   3.014   2.570   5.072
    1C        H  808   3.442   2.475   5.081
    1C        H  809   2.894   2.746   5.077
    1C        H  810   2.659   2.827   5.048
    1C        H  811   2.466   3.281   5.058
    1C        H  812   2.540   3.495   5.076
    1C        H  813   2.550   3.738   5.067
    1C        H  814   2.613   4.163   5.055
    1C        H  815   2.725   4.358   5.029
    1C        H  816   2.704   2.876   1.973
    1C        H  817   2.882   2.718   1.982
    1C        H  818   3.213   2.440   1.989
    1C        H  819   3.426   2.420   1.986
    1C        H  820   3.852   2.510   1.978
    1C        H  821   4.072   2.586   1.978
    1C        H  822   4.245   2.729   1.974
    1C        H  823   4.427   2.872   1.994
    1C        H  824   4.591   3.316   1.977
    1C        H  825   4.441   3.525   1.980
    1C        H  826   4.477   3.751   1.961
    1C        H  827   3.821   4.566   1.981
    1C        H  828   3.949   4.355   1.951
    1C        H  829   4.170   4.269   1.951
    1C        H  830   4.523   3.979   1.976
    1C        H  831   2.647   3.838   1.975
    1C        H  832   2.757   4.041   1.979
    1C        H  833   2.692   4.348   2.004
    1C        H  834   3.382   4.440   1.952
    1C        H  835   3.142   4.466   1.957
    1C        H  836   2.504   3.003   2.003
    1C        H  837   2.413   3.226   2.000
    1C        H  838   2.561   3.656   1.980
    2V3OU   H29  839   2.811   3.547   5.750
    2V3OU   C27  840   2.784   3.502   5.849
    2V3OU   H27  841   2.733   3.582   5.907
    2V3OU   H28  842   2.730   3.405   5.835
    2V3OU   O11  843   2.910   3.477   5.911
    2V3OU   C15  844   2.923   3.398   6.024
    2V3OU   C13  845   3.051   3.374   6.078
    2V3OU   C14  846   3.078   3.269   6.166
    2V3OU   C16  847   2.971   3.190   6.209
    2V3OU    H6  848   2.995   3.101   6.268
    2V3OU   C12  849   3.216   3.228   6.199
    2V3OU    O2  850   3.241   3.123   6.262
    2V3OU   C10  851   3.326   3.307   6.142
    2V3OU    C8  852   3.459   3.270   6.160
    2V3OU   O10  853   3.496   3.157   6.226
    2V3OU   H26  854   3.412   3.114   6.251
    2V3OU    C6  855   3.567   3.351   6.114
    2V3OU    C5  856   3.540   3.470   6.048
    2V3OU    C4  857   3.705   3.294   6.118
    2V3OU    H4  858   3.722   3.226   6.207
    2V3OU    H5  859   3.711   3.230   6.025
    2V3OU    C2  860   3.816   3.399   6.115
    2V3OU    O6  861   3.806   3.479   6.233
    2V3OU   H21  862   3.760   3.558   6.201
    2V3OU    C3  863   3.782   3.492   5.999
    2V3OU    H2  864   3.862   3.568   5.986
    2V3OU    H3  865   3.780   3.434   5.903
    2V3OU   C25  866   3.952   3.331   6.094
    2V3OU    O7  867   4.000   3.293   5.988
    2V3OU   C26  868   4.033   3.297   6.218
    2V3OU   H22  869   4.070   3.385   6.276
    2V3OU   H23  870   4.116   3.228   6.191
    2V3OU    O8  871   3.959   3.213   6.303
    2V3OU   H24  872   3.926   3.266   6.377
    2V3OU    C1  873   3.651   3.567   6.016
    2V3OU    H1  874   3.631   3.626   5.922
    2V3OU    O3  875   3.655   3.655   6.129
    2V3OU   C19  876   3.622   3.793   6.113
    2V3OU    H9  877   3.525   3.808   6.057
    2V3OU    O4  878   3.721   3.848   6.028
    2V3OU   C20  879   3.853   3.872   6.077
    2V3OU   H10  880   3.896   3.771   6.102
    2V3OU   C24  881   3.613   3.859   6.251
    2V3OU   H16  882   3.544   3.799   6.316
    2V3OU   H17  883   3.567   3.960   6.230
    2V3OU   C23  884   3.752   3.876   6.313
    2V3OU   H15  885   3.794   3.772   6.336
    2V3OU    N1  886   3.739   3.946   6.439
    2V3OU   H19  887   3.814   3.923   6.502
    2V3OU   H20  888   3.646   3.937   6.474
    2V3OU   C21  889   3.847   3.946   6.211
    2V3OU   H11  890   3.947   3.927   6.260
    2V3OU    O5  891   3.822   4.085   6.210
    2V3OU   H18  892   3.778   4.096   6.296
    2V3OU   C22  893   3.914   3.952   5.963
    2V3OU   H12  894   3.864   4.051   5.955
    2V3OU   H13  895   3.895   3.900   5.866
    2V3OU   H14  896   4.024   3.961   5.985
    2V3OU   C11  897   3.159   3.473   6.063
    2V3OU    O1  898   3.139   3.592   6.030
    2V3OU    C9  899   3.300   3.429   6.076
    2V3OU    C7  900   3.404   3.504   6.022
    2V3OU    O9  901   3.387   3.624   5.956
    2V3OU   H25  902   3.293   3.633   5.931
    2V3OU   C17  903   2.817   3.318   6.071
    2V3OU    H7  904   2.715   3.348   6.047
    2V3OU   C18  905   2.843   3.216   6.162
    2V3OU    H8  906   2.757   3.152   6.187
    3SOL     OW  907   3.561   3.197   4.022
    3SOL    HW1  908   3.643   3.239   3.983
    3SOL    HW2  909   3.587   3.128   4.089
    4SOL     OW  910   6.898   5.847   0.889
    4SOL    HW1  911   6.932   5.940   0.870
    4SOL    HW2  912   6.918   5.823   0.984
    5SOL     OW  913   4.743   2.398   0.481
    5SOL    HW1  914   4.837   2.409   0.513
    5SOL    HW2  915   4.680   2.429   0.552
    6SOL     OW  916   4.587   1.537   2.115
    6SOL    HW1  917   4.572   1.515   2.212
    6SOL    HW2  918   4.671   1.494   2.084
    7SOL     OW  919   2.124   3.485   4.531
    7SOL    HW1  920   2.141   3.529   4.620
    7SOL    HW2  921   2.202   3.430   4.505
    8SOL     OW  922   0.903   1.938   5.159
    8SOL    HW1  923   0.974   1.957   5.227
    8SOL    HW2  924   0.887   2.020   5.104
    9SOL     OW  925   0.268   1.612   5.738
    9SOL    HW1  926   0.304   1.570   5.655
    9SOL    HW2  927   0.244   1.540   5.804
   10SOL     OW  928   5.216   4.841   1.983
   10SOL    HW1  929   5.250   4.907   1.916
   10SOL    HW2  930   5.223   4.880   2.075
   11SOL     OW  931   2.500   2.580   1.265
   11SOL    HW1  932   2.401   2.588   1.257
   11SOL    HW2  933   2.529   2.490   1.234
   12SOL     OW  934   4.670   5.063   2.179
   12SOL    HW1  935   4.589   5.086   2.232
   12SOL    HW2  936   4.667   4.966   2.154
   13SOL     OW  937   5.653   5.815   1.451
   13SOL    HW1  938   5.703   5.895   1.485
   13SOL    HW2  939   5.556   5.825   1.472
   14SOL     OW  940   4.558   6.944   6.804
   14SOL    HW1  941   4.512   6.964   6.718
   14SOL    HW2  942   4.656   6.959   6.794
   15SOL     OW  943   1.056   5.831   6.376
   15SOL    HW1  944   0.966   5.861   6.408
   15SOL    HW2  945   1.047   5.789   6.286
   16SOL     OW  946   2.121   5.292   4.968
   16SOL    HW1  947   2.089   5.281   4.874
   16SOL    HW2  948   2.217   5.264   4.974
   17SOL     OW  949   6.811   0.880   4.915
   17SOL    HW1  950   6.891   0.916   4.963
   17SOL    HW2  951   6.761   0.955   4.873
   18SOL     OW  952   2.846   1.203   6.074
   18SOL    HW1  953   2.782   1.275   6.045
   18SOL    HW2  954   2.899   1.172   5.995
   19SOL     OW  955   3.304   6.516   2.199
   19SOL    HW1  956   3.350   6.605   2.191
   19SOL    HW2  957   3.356   6.456   2.259
   20SOL     OW  958   6.815   1.932   5.516
   20SOL    HW1  959   6.778   1.965   5.429
   20SOL    HW2  960   6.915   1.930   5.511
   21SOL     OW  961   2.196   3.859   2.399
   21SOL    HW1  962   2.183   3.767   2.435
   21SOL    HW2  963   2.142   3.871   2.316
   22SOL     OW  964   0.659   1.195   0.177
   22SOL    HW1  965   0.759   1.193   0.181
   22SOL    HW2  966   0.630   1.180   0.082
   23SOL     OW  967   6.288   4.851   0.384
   23SOL    HW1  968   6.213   4.786   0.402
   23SOL    HW2  969   6.374   4.801   0.374
   24SOL     OW  970   5.487   1.490   0.204
   24SOL    HW1  971   5.429   1.550   0.258
   24SOL    HW2  972   5.464   1.500   0.107
   25SOL     OW  973   1.187   0.800   4.385
   25SOL    HW1  974   1.236   0.860   4.448
   25SOL    HW2  975   1.244   0.782   4.304
   26SOL     OW  976   1.610   1.729   5.993
   26SOL    HW1  977   1.639   1.705   6.086
   26SOL    HW2  978   1.688   1.722   5.931
   27SOL     OW  979   0.536   7.008   2.569
   27SOL    HW1  980   0.474   0.041   2.518
   27SOL    HW2  981   0.594   0.036   2.629
   28SOL     OW  982   1.606   0.609   6.013
   28SOL    HW1  983   1.691   0.630   5.964
   28SOL    HW2  984   1.571   0.692   6.057
   29SOL     OW  985   5.806   0.314   1.300
   29SOL    HW1  986   5.748   0.388   1.335
   29SOL    HW2  987   5.849   0.343   1.215
   30SOL     OW  988   4.865   0.393   5.122
   30SOL    HW1  989   4.871   0.397   5.221
   30SOL    HW2  990   4.881   0.299   5.091
   31SOL     OW  991   0.021   4.702   4.385
   31SOL    HW1  992   6.965   4.646   4.396
   31SOL    HW2  993   0.081   4.660   4.317
   32SOL     OW  994   2.816   0.708   0.656
   32SOL    HW1  995   2.721   0.728   0.682
   32SOL    HW2  996   2.879   0.748   0.722
   33SOL     OW  997   2.152   5.027   5.670
   33SOL    HW1  998   2.196   5.041   5.759
   33SOL    HW2  999   2.079   5.095   5.659
   34SOL     OW 1000   2.382   5.920   5.636
   34SOL    HW1 1001   2.414   6.012   5.611
   34SOL    HW2 1002   2.321   5.885   5.564
   35SOL     OW 1003   1.214   3.071   5.488
   35SOL    HW1 1004   1.266   2.988   5.508
   35SOL    HW2 1005   1.148   3.087   5.561
   36SOL     OW 1006   6.022   0.805   3.640
   36SOL    HW1 1007   5.931   0.844   3.628
   36SOL    HW2 1008   6.091   0.871   3.611
   37SOL     OW 1009   2.232   6.105   4.070
   37SOL    HW1 1010   2.145   6.140   4.103
   37SOL    HW2 1011   2.273   6.045   4.139
   38SOL     OW 1012   1.615   4.322   2.548
   38SOL    HW1 1013   1.601   4.335   2.449
   38SOL    HW2 1014   1.528   4.334   2.595
   39SOL     OW 1015   6.774   4.817   1.213
   39SOL    HW1 1016   6.790   4.885   1.142
   39SOL    HW2 1017   6.841   4.827   1.286
   40SOL     OW 1018   4.370   1.480   0.402
   40SOL    HW1 1019   4.315   1.453   0.480
   40SOL    HW2 1020   4.310   1.509   0.327
   41SOL     OW 1021   4.959   3.741   1.584
   41SOL    HW1 1022   4.964   3.809   1.657
   41SOL    HW2 1023   4.978   3.650   1.621
   42SOL     OW 1024   2.493   4.816   6.438
   42SOL    HW1 1025   2.527   4.907   6.412
   42SOL    HW2 1026   2.485   4.759   6.356
   43SOL     OW 1027   5.474   0.028   4.681
   43SOL    HW1 1028   5.436   0.017   4.588
   43SOL    HW2 1029   5.559   7.003   4.688
   44SOL     OW 1030   0.203   1.180   6.601
   44SOL    HW1 1031   0.163   1.147   6.687
   44SOL    HW2 1032   0.153   1.261   6.570
   45SOL     OW 1033   1.911   4.928   6.026
   45SOL    HW1 1034   2.001   4.931   5.982
   45SOL    HW2 1035   1.888   4.833   6.048
   46SOL     OW 1036   1.611   4.171   4.736
   46SOL    HW1 1037   1.528   4.165   4.681
   46SOL    HW2 1038   1.590   4.146   4.831
   47SOL     OW 1039   5.856   3.562   0.291
   47SOL    HW1 1040   5.831   3.564   0.388
   47SOL    HW2 1041   5.777   3.590   0.236
   48SOL     OW 1042   6.457   4.191   0.809
   48SOL    HW1 1043   6.432   4.119   0.874
   48SOL    HW2 1044   6.460   4.154   0.717
   49SOL     OW 1045   3.092   2.934   6.429
   49SOL    HW1 1046   3.139   2.992   6.495
   49SOL    HW2 1047   3.145   2.929   6.344
   50SOL     OW 1048   5.239   2.022   6.685
   50SOL    HW1 1049   5.152   2.037   6.637
   50SOL    HW2 1050   5.272   1.929   6.667
   51SOL     OW 1051   0.829   5.823   1.828
   51SOL    HW1 1052   0.836   5.916   1.791
   51SOL    HW2 1053   0.869   5.758   1.763
   52SOL     OW 1054   5.629   2.264   2.242
   52SOL    HW1 1055   5.555   2.317   2.283
   52SOL    HW2 1056   5.596   2.221   2.158
   53SOL     OW 1057   3.674   0.808   0.791
   53SOL    HW1 1058   3.735   0.791   0.869
   53SOL    HW2 1059   3.584   0.835   0.825
   54SOL     OW 1060   6.440   0.366   6.288
   54SOL    HW1 1061   6.527   0.317   6.295
   54SOL    HW2 1062   6.455   0.464   6.299
   55SOL     OW 1063   1.564   3.820   5.977
   55SOL    HW1 1064   1.588   3.826   6.074
   55SOL    HW2 1065   1.646   3.803   5.923
   56SOL     OW 1066   1.103   2.519   6.635
   56SOL    HW1 1067   1.137   2.568   6.554
   56SOL    HW2 1068   1.095   2.421   6.614
   57SOL     OW 1069   4.188   6.343   0.356
   57SOL    HW1 1070   4.246   6.396   0.418
   57SOL    HW2 1071   4.196   6.379   0.263
   58SOL     OW 1072   1.624   0.907   6.825
   58SOL    HW1 1073   1.596   0.849   6.749
   58SOL    HW2 1074   1.706   0.870   6.868
   59SOL     OW 1075   4.092   2.756   6.052
   59SOL    HW1 1076   4.040   2.821   6.106
   59SOL    HW2 1077   4.032   2.711   5.986
   60SOL     OW 1078   6.567   2.808   2.625
   60SOL    HW1 1079   6.637   2.825   2.693
   60SOL    HW2 1080   6.588   2.723   2.576
   61SOL     OW 1081   1.201   5.713   3.214
   61SOL    HW1 1082   1.271   5.696   3.144
   61SOL    HW2 1083   1.114   5.734   3.170
   62SOL     OW 1084   5.975   2.474   3.012
   62SOL    HW1 1085   5.900   2.482   2.946
   62SOL    HW2 1086   6.000   2.378   3.023
   63SOL     OW 1087   3.700   6.932   5.817
   63SOL    HW1 1088   3.660   6.841   5.810
   63SOL    HW2 1089   3.798   6.925   5.831
   64SOL     OW 1090   1.222   1.855   5.904
   64SOL    HW1 1091   1.209   1.779   5.840
   64SOL    HW2 1092   1.278   1.825   5.981
   65SOL     OW 1093   0.650   5.433   4.691
   65SOL    HW1 1094   0.686   5.394   4.776
   65SOL    HW2 1095   0.562   5.391   4.669
   66SOL     OW 1096   4.439   1.561   1.526
   66SOL    HW1 1097   4.343   1.537   1.541
   66SOL    HW2 1098   4.449   1.610   1.440
   67SOL     OW 1099   7.013   3.718   1.390
   67SOL    HW1 1100   6.927   3.742   1.345
   67SOL    HW2 1101   0.049   3.676   1.323
   68SOL     OW 1102   0.395   1.032   6.963
   68SOL    HW1 1103   0.433   0.960   6.904
   68SOL    HW2 1104   0.462   1.105   6.973
   69SOL     OW 1105   1.450   5.467   6.733
   69SOL    HW1 1106   1.373   5.410   6.760
   69SOL    HW2 1107   1.417   5.554   6.698
   70SOL     OW 1108   4.456   4.852   3.815
   70SOL    HW1 1109   4.442   4.929   3.753
   70SOL    HW2 1110   4.539   4.803   3.787
   71SOL     OW 1111   4.951   1.366   5.263
   71SOL    HW1 1112   4.957   1.266   5.257
   71SOL    HW2 1113   5.011   1.407   5.193
   72SOL     OW 1114   0.023   0.371   3.053
   72SOL    HW1 1115   7.025   0.459   3.012
   72SOL    HW2 1116   0.103   0.383   3.112
   73SOL     OW 1117   2.682   0.535   1.528
   73SOL    HW1 1118   2.722   0.579   1.447
   73SOL    HW2 1119   2.593   0.497   1.504
   74SOL     OW 1120   3.115   2.038   0.180
   74SOL    HW1 1121   3.139   1.966   0.245
   74SOL    HW2 1122   3.114   2.000   0.087
   75SOL     OW 1123   2.456   3.118   0.341
   75SOL    HW1 1124   2.538   3.131   0.286
   75SOL    HW2 1125   2.376   3.117   0.281
   76SOL     OW 1126   3.993   4.811   5.701
   76SOL    HW1 1127   3.903   4.855   5.696
   76SOL    HW2 1128   4.032   4.825   5.791
   77SOL     OW 1129   0.788   5.702   4.610
   77SOL    HW1 1130   0.879   5.706   4.653
   77SOL    HW2 1131   0.751   5.610   4.621
   78SOL     OW 1132   4.822   2.081   1.349
   78SOL    HW1 1133   4.729   2.110   1.369
   78SOL    HW2 1134   4.876   2.081   1.433
   79SOL     OW 1135   1.624   4.298   3.924
   79SOL    HW1 1136   1.691   4.249   3.869
   79SOL    HW2 1137   1.619   4.257   4.015
   80SOL     OW 1138   3.560   1.956   5.059
   80SOL    HW1 1139   3.488   2.020   5.031
   80SOL    HW2 1140   3.647   2.004   5.061
   81SOL     OW 1141   3.351   5.223   2.415
   81SOL    HW1 1142   3.422   5.284   2.382
   81SOL    HW2 1143   3.367   5.202   2.512
   82SOL     OW 1144   2.993   0.091   1.994
   82SOL    HW1 1145   3.067   0.046   1.943
   82SOL    HW2 1146   3.032   0.145   2.068
   83SOL     OW 1147   5.396   1.391   4.151
   83SOL    HW1 1148   5.382   1.469   4.089
   83SOL    HW2 1149   5.310   1.370   4.198
   84SOL     OW 1150   5.723   2.917   3.160
   84SOL    HW1 1151   5.798   2.887   3.219
   84SOL    HW2 1152   5.718   2.859   3.079
   85SOL     OW 1153   2.597   6.179   3.024
   85SOL    HW1 1154   2.584   6.230   2.939
   85SOL    HW2 1155   2.693   6.152   3.032
   86SOL     OW 1156   5.126   0.487   0.960
   86SOL    HW1 1157   5.122   0.576   1.005
   86SOL    HW2 1158   5.034   0.454   0.943
   87SOL     OW 1159   2.964   3.523   6.590
   87SOL    HW1 1160   2.943   3.607   6.539
   87SOL    HW2 1161   2.939   3.536   6.686
   88SOL     OW 1162   2.307   3.019   1.478
   88SOL    HW1 1163   2.308   2.958   1.557
   88SOL    HW2 1164   2.216   3.018   1.436
   89SOL     OW 1165   3.292   3.385   4.790
   89SOL    HW1 1166   3.375   3.414   4.742
   89SOL    HW2 1167   3.276   3.446   4.868
   90SOL     OW 1168   5.957   3.944   2.558
   90SOL    HW1 1169   5.877   3.898   2.595
   90SOL    HW2 1170   5.932   3.991   2.472
   91SOL     OW 1171   4.513   6.135   0.334
   91SOL    HW1 1172   4.610   6.112   0.325
   91SOL    HW2 1173   4.495   6.167   0.427
   92SOL     OW 1174   6.010   4.821   6.875
   92SOL    HW1 1175   6.063   4.830   6.791
   92SOL    HW2 1176   6.059   4.865   6.950
   93SOL     OW 1177   2.848   3.892   1.711
   93SOL    HW1 1178   2.814   3.806   1.749
   93SOL    HW2 1179   2.825   3.897   1.614
   94SOL     OW 1180   3.584   1.751   4.286
   94SOL    HW1 1181   3.525   1.808   4.229
   94SOL    HW2 1182   3.548   1.747   4.379
   95SOL     OW 1183   0.861   6.884   4.396
   95SOL    HW1 1184   0.801   6.876   4.475
   95SOL    HW2 1185   0.956   6.874   4.424
   96SOL     OW 1186   0.227   5.584   6.685
   96SOL    HW1 1187   0.172   5.607   6.765
   96SOL    HW2 1188   0.310   5.535   6.713
   97SOL     OW 1189   2.989   4.438   5.790
   97SOL    HW1 1190   2.912   4.391   5.746
   97SOL    HW2 1191   2.981   4.536   5.776
   98SOL     OW 1192   6.948   1.638   4.771
   98SOL    HW1 1193   0.020   1.650   4.784
   98SOL    HW2 1194   6.913   1.710   4.711
   99SOL     OW 1195   3.976   4.376   5.260
   99SOL    HW1 1196   4.068   4.374   5.222
   99SOL    HW2 1197   3.927   4.293   5.234
  100SOL     OW 1198   1.094   0.746   5.255
  100SOL    HW1 1199   1.152   0.673   5.220
  100SOL    HW2 1200   1.007   0.707   5.286
  101SOL     OW 1201   5.212   3.625   2.736
  101SOL    HW1 1202   5.150   3.569   2.790
  101SOL    HW2 1203   5.229   3.581   2.647
  102SOL     OW 1204   3.706   0.498   6.907
  102SOL    HW1 1205   3.748   0.588   6.893
  102SOL    HW2 1206   3.645   0.501   6.986
  103SOL     OW 1207   1.006   1.426   2.038
  103SOL    HW1 1208   0.934   1.396   2.100
  103SOL    HW2 1209   0.987   1.393   1.946
  104SOL     OW 1210   6.416   4.583   2.215
  104SOL    HW1 1211   6.349   4.544   2.152
  104SOL    HW2 1212   6.377   4.587   2.307
  105SOL     OW 1213   0.492   0.284   4.986
  105SOL    HW1 1214   0.507   0.274   4.888
  105SOL    HW2 1215   0.410   0.339   5.001
  106SOL     OW 1216   4.501   3.071   1.643
  106SOL    HW1 1217   4.567   3.061   1.569
  106SOL    HW2 1218   4.550   3.070   1.731
  107SOL     OW 1219   5.496   6.824   1.395
  107SOL    HW1 1220   5.554   6.905   1.386
  107SOL    HW2 1221   5.506   6.767   1.313
  108SOL     OW 1222   3.636   1.734   4.909
  108SOL    HW1 1223   3.634   1.666   4.982
  108SOL    HW2 1224   3.648   1.825   4.948
  109SOL     OW 1225   1.850   0.982   5.354
  109SOL    HW1 1226   1.771   0.964   5.413
  109SOL    HW2 1227   1.928   0.927   5.384
  110SOL     OW 1228   4.059   4.181   5.745
  110SOL    HW1 1229   3.963   4.204   5.756
  110SOL    HW2 1230   4.102   4.173   5.835
  111SOL     OW 1231   5.615   3.389   1.080
  111SOL    HW1 1232   5.695   3.335   1.106
  111SOL    HW2 1233   5.630   3.485   1.104
  112SOL     OW 1234   4.992   6.673   5.542
  112SOL    HW1 1235   5.062   6.660   5.472
  112SOL    HW2 1236   4.966   6.584   5.581
  113SOL     OW 1237   0.241   4.557   2.547
  113SOL    HW1 1238   0.205   4.529   2.458
  113SOL    HW2 1239   0.266   4.476   2.599
  114SOL     OW 1240   0.065   2.136   1.857
  114SOL    HW1 1241   0.105   2.116   1.767
  114SOL    HW2 1242   0.126   2.195   1.909
  115SOL     OW 1243   4.385   0.268   2.672
  115SOL    HW1 1244   4.467   0.246   2.723
  115SOL    HW2 1245   4.399   0.353   2.621
  116SOL     OW 1246   6.856   5.409   0.934
  116SOL    HW1 1247   6.866   5.348   0.856
  116SOL    HW2 1248   6.930   5.393   0.999
  117SOL     OW 1249   3.201   2.320   0.125
  117SOL    HW1 1250   3.191   2.222   0.141
  117SOL    HW2 1251   3.170   2.370   0.205
  118SOL     OW 1252   0.162   1.754   2.307
  118SOL    HW1 1253   0.165   1.814   2.387
  118SOL    HW2 1254   0.148   1.809   2.224
  119SOL     OW 1255   6.455   7.018   5.446
  119SOL    HW1 1256   6.534   7.015   5.385
  119SOL    HW2 1257   6.433   0.086   5.469
  120SOL     OW 1258   4.526   1.035   4.642
  120SOL    HW1 1259   4.602   1.083   4.598
  120SOL    HW2 1260   4.452   1.100   4.661
  121SOL     OW 1261   0.222   5.663   6.419
  121SOL    HW1 1262   0.202   5.654   6.516
  121SOL    HW2 1263   0.168   5.738   6.380
  122SOL     OW 1264   6.679   4.753   5.968
  122SOL    HW1 1265   6.655   4.845   5.999
  122SOL    HW2 1266   6.719   4.758   5.877
  123SOL     OW 1267   0.394   2.598   1.880
  123SOL    HW1 1268   0.306   2.583   1.835
  123SOL    HW2 1269   0.386   2.578   1.978
  124SOL     OW 1270   1.622   3.758   0.731
  124SOL    HW1 1271   1.594   3.662   0.723
  124SOL    HW2 1272   1.718   3.762   0.756
  125SOL     OW 1273   4.255   2.460   0.860
  125SOL    HW1 1274   4.233   2.447   0.764
  125SOL    HW2 1275   4.172   2.452   0.915
  126SOL     OW 1276   3.662   2.960   4.138
  126SOL    HW1 1277   3.649   2.946   4.040
  126SOL    HW2 1278   3.759   2.952   4.161
  127SOL     OW 1279   0.471   4.749   5.409
  127SOL    HW1 1280   0.543   4.737   5.477
  127SOL    HW2 1281   0.499   4.819   5.343
  128SOL     OW 1282   4.471   3.778   5.789
  128SOL    HW1 1283   4.486   3.789   5.887
  128SOL    HW2 1284   4.373   3.777   5.770
  129SOL     OW 1285   0.543   5.409   2.597
  129SOL    HW1 1286   0.475   5.474   2.632
  129SOL    HW2 1287   0.635   5.442   2.620
  130SOL     OW 1288   6.139   3.429   4.383
  130SOL    HW1 1289   6.178   3.346   4.422
  130SOL    HW2 1290   6.200   3.506   4.401
  131SOL     OW 1291   0.498   3.423   3.235
  131SOL    HW1 1292   0.532   3.515   3.216
  131SOL    HW2 1293   0.566   3.373   3.289
  132SOL     OW 1294   4.653   2.502   1.222
  132SOL    HW1 1295   4.749   2.501   1.195
  132SOL    HW2 1296   4.630   2.591   1.260
  133SOL     OW 1297   4.602   4.874   6.215
  133SOL    HW1 1298   4.621   4.893   6.118
  133SOL    HW2 1299   4.513   4.914   6.239
  134SOL     OW 1300   5.661   2.202   1.003
  134SOL    HW1 1301   5.631   2.108   1.018
  134SOL    HW2 1302   5.669   2.249   1.091
  135SOL     OW 1303   4.752   4.688   3.947
  135SOL    HW1 1304   4.779   4.722   3.857
  135SOL    HW2 1305   4.822   4.712   4.014
  136SOL     OW 1306   3.762   0.022   6.423
  136SOL    HW1 1307   3.834   0.084   6.453
  136SOL    HW2 1308   3.797   6.955   6.419
  137SOL     OW 1309   2.453   4.031   6.159
  137SOL    HW1 1310   2.407   3.943   6.170
  137SOL    HW2 1311   2.385   4.102   6.140
  138SOL     OW 1312   0.907   5.486   6.601
  138SOL    HW1 1313   0.815   5.464   6.567
  138SOL    HW2 1314   0.963   5.403   6.601
  139SOL     OW 1315   0.456   0.062   1.318
  139SOL    HW1 1316   0.376   0.101   1.364
  139SOL    HW2 1317   0.449   0.079   1.220
  140SOL     OW 1318   4.028   0.931   1.377
  140SOL    HW1 1319   4.124   0.907   1.362
  140SOL    HW2 1320   3.992   0.877   1.453
  141SOL     OW 1321   0.371   1.717   6.953
  141SOL    HW1 1322   0.334   1.655   6.883
  141SOL    HW2 1323   0.377   1.669   0.014
  142SOL     OW 1324   2.115   4.032   0.452
  142SOL    HW1 1325   2.142   3.937   0.471
  142SOL    HW2 1326   2.051   4.063   0.522
  143SOL     OW 1327   4.879   6.339   1.817
  143SOL    HW1 1328   4.816   6.262   1.808
  143SOL    HW2 1329   4.829   6.420   1.849
  144SOL     OW 1330   3.575   5.232   2.892
  144SOL    HW1 1331   3.560   5.286   2.975
  144SOL    HW2 1332   3.673   5.216   2.880
  145SOL     OW 1333   6.909   5.550   4.188
  145SOL    HW1 1334   6.820   5.505   4.201
  145SOL    HW2 1335   6.963   5.542   4.272
  146SOL     OW 1336   6.473   0.654   6.217
  146SOL    HW1 1337   6.572   0.653   6.226
  146SOL    HW2 1338   6.435   0.732   6.267
  147SOL     OW 1339   6.239   1.425   5.452
  147SOL    HW1 1340   6.244   1.516   5.411
  147SOL    HW2 1341   6.212   1.433   5.548
  148SOL     OW 1342   2.101   6.579   1.769
  148SOL    HW1 1343   2.120   6.515   1.694
  148SOL    HW2 1344   2.186   6.598   1.818
  149SOL     OW 1345   1.525   2.999   4.514
  149SOL    HW1 1346   1.489   2.917   4.559
  149SOL    HW2 1347   1.578   3.052   4.580
  150SOL     OW 1348   4.090   1.777   5.397
  150SOL    HW1 1349   4.121   1.834   5.473
  150SOL    HW2 1350   4.073   1.684   5.431
  151SOL     OW 1351   6.313   3.317   0.955
  151SOL    HW1 1352   6.358   3.327   1.044
  151SOL    HW2 1353   6.221   3.355   0.960
  152SOL     OW 1354   0.442   2.831   1.055
  152SOL    HW1 1355   0.456   2.839   1.153
  152SOL    HW2 1356   0.344   2.828   1.035
  153SOL     OW 1357   2.260   1.748   3.722
  153SOL    HW1 1358   2.224   1.774   3.632
  153SOL    HW2 1359   2.302   1.657   3.715
  154SOL     OW 1360   6.788   1.530   2.968
  154SOL    HW1 1361   6.857   1.599   2.947
  154SOL    HW2 1362   6.813   1.484   3.053
  155SOL     OW 1363   6.230   4.579   3.870
  155SOL    HW1 1364   6.155   4.538   3.922
  155SOL    HW2 1365   6.314   4.576   3.923
  156SOL     OW 1366   5.058   1.474   0.836
  156SOL    HW1 1367   5.065   1.431   0.926
  156SOL    HW2 1368   5.020   1.409   0.771
  157SOL     OW 1369   5.058   0.065   1.311
  157SOL    HW1 1370   5.141   0.101   1.269
  157SOL    HW2 1371   4.983   0.065   1.245
  158SOL     OW 1372   0.353   2.884   4.710
  158SOL    HW1 1373   0.342   2.785   4.716
  158SOL    HW2 1374   0.430   2.912   4.767
  159SOL     OW 1375   6.189   5.215   0.264
  159SOL    HW1 1376   6.197   5.314   0.250
  159SOL    HW2 1377   6.281   5.176   0.274
  160SOL     OW 1378   5.196   0.945   0.858
  160SOL    HW1 1379   5.228   0.988   0.773
  160SOL    HW2 1380   5.154   1.014   0.916
  161SOL     OW 1381   6.704   6.184   0.737
  161SOL    HW1 1382   6.658   6.204   0.651
  161SOL    HW2 1383   6.803   6.180   0.722
  162SOL     OW 1384   4.481   7.006   5.874
  162SOL    HW1 1385   4.509   6.929   5.817
  162SOL    HW2 1386   4.384   7.025   5.859
  163SOL     OW 1387   0.606   3.003   2.953
  163SOL    HW1 1388   0.616   2.953   3.039
  163SOL    HW2 1389   0.547   3.082   2.966
  164SOL     OW 1390   2.011   2.093   3.023
  164SOL    HW1 1391   2.051   2.007   2.993
  164SOL    HW2 1392   1.917   2.077   3.055
  165SOL     OW 1393   7.021   6.890   3.830
  165SOL    HW1 1394   6.922   6.886   3.837
  165SOL    HW2 1395   0.035   6.828   3.897
  166SOL     OW 1396   0.116   4.540   4.200
  166SOL    HW1 1397   0.057   4.559   4.121
  166SOL    HW2 1398   0.133   4.442   4.206
  167SOL     OW 1399   1.648   1.081   4.832
  167SOL    HW1 1400   1.697   1.132   4.903
  167SOL    HW2 1401   1.567   1.132   4.804
  168SOL     OW 1402   3.619   3.727   2.453
  168SOL    HW1 1403   3.714   3.725   2.424
  168SOL    HW2 1404   3.559   3.713   2.374
  169SOL     OW 1405   5.445   2.596   0.591
  169SOL    HW1 1406   5.435   2.508   0.544
  169SOL    HW2 1407   5.366   2.654   0.570
  170SOL     OW 1408   6.191   5.386   1.543
  170SOL    HW1 1409   6.271   5.437   1.511
  170SOL    HW2 1410   6.116   5.398   1.478
  171SOL     OW 1411   3.292   3.155   1.453
  171SOL    HW1 1412   3.245   3.081   1.406
  171SOL    HW2 1413   3.367   3.118   1.507
  172SOL     OW 1414   1.542   0.802   6.581
  172SOL    HW1 1415   1.486   0.880   6.553
  172SOL    HW2 1416   1.606   0.779   6.509
  173SOL     OW 1417   5.463   1.408   4.553
  173SOL    HW1 1418   5.410   1.330   4.585
  173SOL    HW2 1419   5.413   1.492   4.571
  174SOL     OW 1420   5.599   4.037   4.486
  174SOL    HW1 1421   5.650   4.103   4.542
  174SOL    HW2 1422   5.517   4.081   4.449
  175SOL     OW 1423   0.733   6.451   2.876
  175SOL    HW1 1424   0.826   6.457   2.841
  175SOL    HW2 1425   0.670   6.431   2.800
  176SOL     OW 1426   6.582   4.154   1.619
  176SOL    HW1 1427   6.569   4.200   1.531
  176SOL    HW2 1428   6.498   4.109   1.646
  177SOL     OW 1429   6.338   1.903   3.753
  177SOL    HW1 1430   6.395   1.956   3.816
  177SOL    HW2 1431   6.394   1.871   3.676
  178SOL     OW 1432   2.389   5.407   4.258
  178SOL    HW1 1433   2.473   5.412   4.204
  178SOL    HW2 1434   2.327   5.340   4.216
  179SOL     OW 1435   3.263   4.234   1.418
  179SOL    HW1 1436   3.323   4.213   1.495
  179SOL    HW2 1437   3.176   4.186   1.430
  180SOL     OW 1438   4.733   1.402   6.297
  180SOL    HW1 1439   4.785   1.331   6.250
  180SOL    HW2 1440   4.648   1.363   6.333
  181SOL     OW 1441   3.180   1.317   6.056
  181SOL    HW1 1442   3.104   1.373   6.088
  181SOL    HW2 1443   3.152   1.221   6.051
  182SOL     OW 1444   2.800   3.176   5.601
  182SOL    HW1 1445   2.710   3.214   5.624
  182SOL    HW2 1446   2.792   3.117   5.521
  183SOL     OW 1447   3.049   0.651   3.027
  183SOL    HW1 1448   2.988   0.625   2.952
  183SOL    HW2 1449   3.122   0.584   3.035
  184SOL     OW 1450   5.537   5.647   3.468
  184SOL    HW1 1451   5.608   5.663   3.537
  184SOL    HW2 1452   5.576   5.597   3.391
  185SOL     OW 1453   0.627   6.796   5.229
  185SOL    HW1 1454   0.723   6.771   5.217
  185SOL    HW2 1455   0.614   6.835   5.320
  186SOL     OW 1456   2.902   6.213   5.010
  186SOL    HW1 1457   2.963   6.189   5.085
  186SOL    HW2 1458   2.954   6.217   4.925
  187SOL     OW 1459   4.300   5.692   1.216
  187SOL    HW1 1460   4.299   5.721   1.311
  187SOL    HW2 1461   4.278   5.595   1.210
  188SOL     OW 1462   1.283   3.470   3.056
  188SOL    HW1 1463   1.187   3.494   3.041
  188SOL    HW2 1464   1.325   3.539   3.116
  189SOL     OW 1465   5.776   4.626   5.522
  189SOL    HW1 1466   5.812   4.673   5.441
  189SOL    HW2 1467   5.848   4.622   5.592
  190SOL     OW 1468   6.372   6.696   0.529
  190SOL    HW1 1469   6.364   6.743   0.617
  190SOL    HW2 1470   6.288   6.708   0.477
  191SOL     OW 1471   2.169   1.888   4.953
  191SOL    HW1 1472   2.108   1.942   4.895
  191SOL    HW2 1473   2.116   1.821   5.004
  192SOL     OW 1474   7.023   5.792   1.445
  192SOL    HW1 1475   7.024   5.774   1.543
  192SOL    HW2 1476   7.005   5.707   1.396
  193SOL     OW 1477   2.311   0.388   1.495
  193SOL    HW1 1478   2.275   0.433   1.577
  193SOL    HW2 1479   2.324   0.290   1.514
  194SOL     OW 1480   3.753   6.241   3.010
  194SOL    HW1 1481   3.768   6.316   3.074
  194SOL    HW2 1482   3.757   6.275   2.916
  195SOL     OW 1483   3.481   0.222   0.925
  195SOL    HW1 1484   3.457   0.207   0.829
  195SOL    HW2 1485   3.553   0.159   0.952
  196SOL     OW 1486   3.895   2.684   0.943
  196SOL    HW1 1487   3.896   2.773   0.896
  196SOL    HW2 1488   3.928   2.696   1.037
  197SOL     OW 1489   2.016   6.088   6.835
  197SOL    HW1 1490   1.963   6.063   6.916
  197SOL    HW2 1491   1.965   6.154   6.780
  198SOL     OW 1492   4.384   7.024   6.568
  198SOL    HW1 1493   4.407   0.088   6.602
  198SOL    HW2 1494   4.339   0.005   6.479
  199SOL     OW 1495   1.168   0.834   3.205
  199SOL    HW1 1496   1.119   0.788   3.131
  199SOL    HW2 1497   1.106   0.898   3.250
  200SOL     OW 1498   1.094   3.826   3.782
  200SOL    HW1 1499   1.065   3.902   3.724
  200SOL    HW2 1500   1.124   3.862   3.871
  201SOL     OW 1501   4.433   1.558   6.288
  201SOL    HW1 1502   4.450   1.498   6.366
  201SOL    HW2 1503   4.443   1.506   6.203
  202SOL     OW 1504   3.651   0.866   2.646
  202SOL    HW1 1505   3.677   0.955   2.611
  202SOL    HW2 1506   3.563   0.839   2.607
  203SOL     OW 1507   6.053   3.110   0.111
  203SOL    HW1 1508   6.122   3.115   0.183
  203SOL    HW2 1509   5.982   3.179   0.127
  204SOL     OW 1510   2.019   6.936   1.125
  204SOL    HW1 1511   2.107   6.978   1.102
  204SOL    HW2 1512   1.951   7.008   1.140
  205SOL     OW 1513   6.048   0.398   1.366
  205SOL    HW1 1514   6.031   0.448   1.451
  205SOL    HW2 1515   5.966   0.347   1.341
  206SOL     OW 1516   6.888   6.098   1.544
  206SOL    HW1 1517   6.869   6.195   1.555
  206SOL    HW2 1518   6.966   6.072   1.602
  207SOL     OW 1519   5.329   1.652   5.623
  207SOL    HW1 1520   5.369   1.726   5.676
  207SOL    HW2 1521   5.286   1.689   5.541
  208SOL     OW 1522   4.000   4.308   6.597
  208SOL    HW1 1523   3.926   4.247   6.570
  208SOL    HW2 1524   3.969   4.369   6.669
  209SOL     OW 1525   6.938   5.664   4.629
  209SOL    HW1 1526   7.003   5.674   4.705
  209SOL    HW2 1527   6.988   5.635   4.547
  210SOL     OW 1528   4.188   2.009   0.689
  210SOL    HW1 1529   4.246   1.987   0.768
  210SOL    HW2 1530   4.190   1.933   0.624
  211SOL     OW 1531   0.825   2.684   1.863
  211SOL    HW1 1532   0.852   2.777   1.838
  211SOL    HW2 1533   0.888   2.619   1.821
  212SOL     OW 1534   0.025   5.508   4.428
  212SOL    HW1 1535   0.101   5.547   4.377
  212SOL    HW2 1536   0.018   5.410   4.409
  213SOL     OW 1537   3.619   2.148   6.309
  213SOL    HW1 1538   3.617   2.069   6.247
  213SOL    HW2 1539   3.545   2.139   6.376
  214SOL     OW 1540   1.758   6.988   3.382
  214SOL    HW1 1541   1.849   7.012   3.416
  214SOL    HW2 1542   1.689   7.014   3.449
  215SOL     OW 1543   3.869   3.971   2.656
  215SOL    HW1 1544   3.781   3.999   2.693
  215SOL    HW2 1545   3.932   3.951   2.731
  216SOL     OW 1546   1.686   0.054   5.812
  216SOL    HW1 1547   1.766   0.103   5.777
  216SOL    HW2 1548   1.684   0.060   5.912
  217SOL     OW 1549   6.793   2.594   4.673
  217SOL    HW1 1550   6.773   2.632   4.764
  217SOL    HW2 1551   6.736   2.639   4.605
  218SOL     OW 1552   2.061   3.962   5.492
  218SOL    HW1 1553   2.073   3.995   5.586
  218SOL    HW2 1554   1.977   3.999   5.454
  219SOL     OW 1555   3.138   5.205   0.258
  219SOL    HW1 1556   3.051   5.243   0.288
  219SOL    HW2 1557   3.122   5.130   0.195
  220SOL     OW 1558   1.417   4.662   0.598
  220SOL    HW1 1559   1.470   4.606   0.534
  220SOL    HW2 1560   1.470   4.743   0.624
  221SOL     OW 1561   6.268   2.746   4.149
  221SOL    HW1 1562   6.188   2.691   4.128
  221SOL    HW2 1563   6.257   2.837   4.108
  222SOL     OW 1564   1.466   6.163   4.333
  222SOL    HW1 1565   1.450   6.133   4.239
  222SOL    HW2 1566   1.555   6.208   4.339
  223SOL     OW 1567   6.387   4.701   2.721
  223SOL    HW1 1568   6.454   4.640   2.677
  223SOL    HW2 1569   6.434   4.757   2.790
  224SOL     OW 1570   3.843   2.065   2.235
  224SOL    HW1 1571   3.776   2.102   2.170
  224SOL    HW2 1572   3.873   1.975   2.204
  225SOL     OW 1573   6.147   6.913   1.468
  225SOL    HW1 1574   6.175   7.009   1.475
  225SOL    HW2 1575   6.228   6.855   1.472
  226SOL     OW 1576   6.772   5.585   1.900
  226SOL    HW1 1577   6.678   5.620   1.897
  226SOL    HW2 1578   6.820   5.624   1.979
  227SOL     OW 1579   0.952   3.007   2.979
  227SOL    HW1 1580   0.886   3.023   2.906
  227SOL    HW2 1581   0.905   3.000   3.066
  228SOL     OW 1582   3.777   6.283   2.731
  228SOL    HW1 1583   3.756   6.235   2.646
  228SOL    HW2 1584   3.819   6.371   2.710
  229SOL     OW 1585   6.147   5.318   3.582
  229SOL    HW1 1586   6.057   5.292   3.548
  229SOL    HW2 1587   6.186   5.242   3.635
  230SOL     OW 1588   1.192   3.961   6.068
  230SOL    HW1 1589   1.237   4.049   6.057
  230SOL    HW2 1590   1.171   3.946   6.165
  231SOL     OW 1591   0.769   2.180   6.486
  231SOL    HW1 1592   0.785   2.170   6.584
  231SOL    HW2 1593   0.739   2.273   6.466
  232SOL     OW 1594   1.172   4.210   6.932
  232SOL    HW1 1595   1.152   4.263   6.849
  232SOL    HW2 1596   1.269   4.188   6.934
  233SOL     OW 1597   3.202   0.232   6.512
  233SOL    HW1 1598   3.235   0.321   6.541
  233SOL    HW2 1599   3.271   0.188   6.455
  234SOL     OW 1600   2.649   5.593   5.850
  234SOL    HW1 1601   2.640   5.686   5.815
  234SOL    HW2 1602   2.636   5.528   5.775
  235SOL     OW 1603   3.209   3.479   5.360
  235SOL    HW1 1604   3.142   3.424   5.409
  235SOL    HW2 1605   3.186   3.481   5.262
  236SOL     OW 1606   0.284   2.683   5.837
  236SOL    HW1 1607   0.269   2.585   5.826
  236SOL    HW2 1608   0.197   2.729   5.853
  237SOL     OW 1609   6.642   6.547   1.731
  237SOL    HW1 1610   6.673   6.589   1.645
  237SOL    HW2 1611   6.546   6.523   1.723
  238SOL     OW 1612   6.762   1.609   2.335
  238SOL    HW1 1613   6.717   1.527   2.371
  238SOL    HW2 1614   6.750   1.685   2.400
  239SOL     OW 1615   0.004   5.274   1.443
  239SOL    HW1 1616   6.956   5.299   1.504
  239SOL    HW2 1617   0.066   5.211   1.490
  240SOL     OW 1618   6.848   2.758   5.374
  240SOL    HW1 1619   6.918   2.716   5.316
  240SOL    HW2 1620   6.889   2.828   5.431
  241SOL     OW 1621   6.070   1.812   4.071
  241SOL    HW1 1622   6.059   1.730   4.127
  241SOL    HW2 1623   6.001   1.814   3.999
  242SOL     OW 1624   2.785   2.052   4.041
  242SOL    HW1 1625   2.707   2.083   3.988
  242SOL    HW2 1626   2.824   2.129   4.092
  243SOL     OW 1627   4.518   1.372   6.514
  243SOL    HW1 1628   4.595   1.425   6.550
  243SOL    HW2 1629   4.462   1.339   6.590
  244SOL     OW 1630   0.126   0.847   5.744
  244SOL    HW1 1631   0.067   0.903   5.685
  244SOL    HW2 1632   0.093   0.854   5.838
  245SOL     OW 1633   5.052   2.366   3.846
  245SOL    HW1 1634   5.099   2.295   3.898
  245SOL    HW2 1635   5.018   2.436   3.909
  246SOL     OW 1636   4.938   3.002   3.542
  246SOL    HW1 1637   4.964   3.075   3.606
  246SOL    HW2 1638   5.019   2.971   3.493
  247SOL     OW 1639   2.790   0.787   3.111
  247SOL    HW1 1640   2.753   0.873   3.146
  247SOL    HW2 1641   2.886   0.800   3.085
  248SOL     OW 1642   6.738   1.184   1.843
  248SOL    HW1 1643   6.656   1.150   1.890
  248SOL    HW2 1644   6.816   1.179   1.905
  249SOL     OW 1645   2.008   6.252   5.144
  249SOL    HW1 1646   1.983   6.156   5.145
  249SOL    HW2 1647   1.977   6.294   5.058
  250SOL     OW 1648   4.740   2.909   6.791
  250SOL    HW1 1649   4.808   2.921   6.864
  250SOL    HW2 1650   4.689   2.825   6.807
  251SOL     OW 1651   2.196   2.301   0.467
  251SOL    HW1 1652   2.152   2.213   0.445
  251SOL    HW2 1653   2.295   2.289   0.469
  252SOL     OW 1654   0.400   1.655   0.234
  252SOL    HW1 1655   0.469   1.586   0.210
  252SOL    HW2 1656   0.309   1.615   0.228
  253SOL     OW 1657   1.793   4.233   5.871
  253SOL    HW1 1658   1.740   4.243   5.787
  253SOL    HW2 1659   1.742   4.271   5.948
  254SOL     OW 1660   4.785   3.869   6.270
  254SOL    HW1 1661   4.798   3.900   6.176
  254SOL    HW2 1662   4.776   3.769   6.272
  255SOL     OW 1663   3.593   1.878   2.477
  255SOL    HW1 1664   3.600   1.931   2.392
  255SOL    HW2 1665   3.599   1.940   2.555
  256SOL     OW 1666   6.290   5.771   2.070
  256SOL    HW1 1667   6.255   5.845   2.012
  256SOL    HW2 1668   6.227   5.694   2.067
  257SOL     OW 1669   2.400   5.751   6.783
  257SOL    HW1 1670   2.322   5.810   6.805
  257SOL    HW2 1671   2.485   5.802   6.796
  258SOL     OW 1672   4.703   4.857   4.406
  258SOL    HW1 1673   4.608   4.889   4.405
  258SOL    HW2 1674   4.707   4.765   4.366
  259SOL     OW 1675   1.030   2.318   2.646
  259SOL    HW1 1676   0.974   2.245   2.607
  259SOL    HW2 1677   1.073   2.370   2.573
  260SOL     OW 1678   0.028   6.662   5.620
  260SOL    HW1 1679   0.012   6.718   5.539
  260SOL    HW2 1680   0.024   6.565   5.596
  261SOL     OW 1681   0.727   1.134   3.591
  261SOL    HW1 1682   0.670   1.208   3.626
  261SOL    HW2 1683   0.775   1.164   3.508
  262SOL     OW 1684   1.525   4.986   2.714
  262SOL    HW1 1685   1.588   5.056   2.681
  262SOL    HW2 1686   1.440   4.990   2.661
  263SOL     OW 1687   0.246   3.507   4.849
  263SOL    HW1 1688   0.213   3.421   4.812
  263SOL    HW2 1689   0.338   3.495   4.886
  264SOL     OW 1690   3.323   4.262   6.824
  264SOL    HW1 1691   3.318   4.250   6.725
  264SOL    HW2 1692   3.320   4.173   6.870
  265SOL     OW 1693   4.846   5.576   4.464
  265SOL    HW1 1694   4.760   5.626   4.464
  265SOL    HW2 1695   4.850   5.516   4.384
  266SOL     OW 1696   3.980   2.677   6.528
  266SOL    HW1 1697   3.954   2.773   6.521
  266SOL    HW2 1698   4.054   2.667   6.595
  267SOL     OW 1699   2.676   1.739   5.672
  267SOL    HW1 1700   2.600   1.790   5.712
  267SOL    HW2 1701   2.756   1.746   5.731
  268SOL     OW 1702   2.735   4.714   3.742
  268SOL    HW1 1703   2.672   4.642   3.770
  268SOL    HW2 1704   2.744   4.713   3.642
  269SOL     OW 1705   1.778   1.346   4.957
  269SOL    HW1 1706   1.857   1.401   4.931
  269SOL    HW2 1707   1.807   1.270   5.015
  270SOL     OW 1708   4.920   6.493   4.887
  270SOL    HW1 1709   4.981   6.432   4.835
  270SOL    HW2 1710   4.846   6.524   4.828
  271SOL     OW 1711   1.752   1.896   0.386
  271SOL    HW1 1712   1.846   1.880   0.355
  271SOL    HW2 1713   1.735   1.846   0.470
  272SOL     OW 1714   4.617   6.148   0.990
  272SOL    HW1 1715   4.662   6.074   1.039
  272SOL    HW2 1716   4.606   6.226   1.050
  273SOL     OW 1717   2.165   6.721   4.206
  273SOL    HW1 1718   2.229   6.647   4.188
  273SOL    HW2 1719   2.084   6.710   4.148
  274SOL     OW 1720   5.344   2.036   1.195
  274SOL    HW1 1721   5.269   1.973   1.177
  274SOL    HW2 1722   5.321   2.094   1.273
  275SOL     OW 1723   5.779   5.775   6.144
  275SOL    HW1 1724   5.731   5.699   6.100
  275SOL    HW2 1725   5.764   5.771   6.243
  276SOL     OW 1726   0.228   6.707   4.634
  276SOL    HW1 1727   0.224   6.807   4.632
  276SOL    HW2 1728   0.275   6.674   4.552
  277SOL     OW 1729   4.531   2.894   5.777
  277SOL    HW1 1730   4.548   2.964   5.846
  277SOL    HW2 1731   4.529   2.804   5.821
  278SOL     OW 1732   5.843   4.045   2.952
  278SOL    HW1 1733   5.918   4.025   3.015
  278SOL    HW2 1734   5.767   3.983   2.968
  279SOL     OW 1735   6.687   3.709   3.537
  279SOL    HW1 1736   6.638   3.741   3.456
  279SOL    HW2 1737   6.741   3.628   3.513
  280SOL     OW 1738   4.441   1.469   3.571
  280SOL    HW1 1739   4.353   1.471   3.620
  280SOL    HW2 1740   4.429   1.423   3.483
  281SOL     OW 1741   5.323   6.343   5.243
  281SOL    HW1 1742   5.266   6.390   5.175
  281SOL    HW2 1743   5.369   6.266   5.200
  282SOL     OW 1744   1.188   2.926   0.440
  282SOL    HW1 1745   1.274   2.976   0.433
  282SOL    HW2 1746   1.205   2.829   0.424
  283SOL     OW 1747   6.348   4.111   4.230
  283SOL    HW1 1748   6.430   4.168   4.241
  283SOL    HW2 1749   6.278   4.162   4.181
  284SOL     OW 1750   4.879   6.277   2.464
  284SOL    HW1 1751   4.895   6.285   2.366
  284SOL    HW2 1752   4.878   6.368   2.505
  285SOL     OW 1753   4.105   6.632   5.589
  285SOL    HW1 1754   4.106   6.702   5.660
  285SOL    HW2 1755   4.070   6.546   5.626
  286SOL     OW 1756   2.703   4.746   5.266
  286SOL    HW1 1757   2.769   4.671   5.269
  286SOL    HW2 1758   2.693   4.778   5.172
  287SOL     OW 1759   3.718   6.358   6.843
  287SOL    HW1 1760   3.684   6.355   6.937
  287SOL    HW2 1761   3.816   6.339   6.842
  288SOL     OW 1762   5.081   1.688   0.232
  288SOL    HW1 1763   4.986   1.715   0.245
  288SOL    HW2 1764   5.084   1.601   0.183
  289SOL     OW 1765   5.619   4.459   4.657
  289SOL    HW1 1766   5.697   4.456   4.720
  289SOL    HW2 1767   5.587   4.366   4.640
  290SOL     OW 1768   3.377   0.598   5.694
  290SOL    HW1 1769   3.402   0.583   5.599
  290SOL    HW2 1770   3.364   0.509   5.739
  291SOL     OW 1771   4.127   0.758   5.345
  291SOL    HW1 1772   4.146   0.855   5.357
  291SOL    HW2 1773   4.193   0.719   5.280
  292SOL     OW 1774   3.453   0.344   3.840
  292SOL    HW1 1775   3.512   0.315   3.915
  292SOL    HW2 1776   3.436   0.266   3.779
  293SOL     OW 1777   5.142   6.637   2.886
  293SOL    HW1 1778   5.097   6.697   2.953
  293SOL    HW2 1779   5.171   6.553   2.932
  294SOL     OW 1780   6.586   1.296   6.890
  294SOL    HW1 1781   6.664   1.351   6.861
  294SOL    HW2 1782   6.544   1.338   6.971
  295SOL     OW 1783   1.019   0.967   4.846
  295SOL    HW1 1784   0.925   0.937   4.857
  295SOL    HW2 1785   1.033   0.999   4.752
  296SOL     OW 1786   1.013   2.293   1.960
  296SOL    HW1 1787   1.059   2.248   1.884
  296SOL    HW2 1788   0.926   2.248   1.979
  297SOL     OW 1789   5.322   3.254   3.213
  297SOL    HW1 1790   5.365   3.324   3.156
  297SOL    HW2 1791   5.332   3.164   3.170
  298SOL     OW 1792   4.281   1.016   5.656
  298SOL    HW1 1793   4.233   0.952   5.715
  298SOL    HW2 1794   4.232   1.024   5.569
  299SOL     OW 1795   0.385   1.463   6.758
  299SOL    HW1 1796   0.412   1.390   6.695
  299SOL    HW2 1797   0.451   1.538   6.752
  300SOL     OW 1798   5.066   6.887   3.612
  300SOL    HW1 1799   5.104   6.937   3.535
  300SOL    HW2 1800   5.073   6.789   3.594
  301SOL     OW 1801   6.900   5.249   6.257
  301SOL    HW1 1802   6.865   5.163   6.293
  301SOL    HW2 1803   6.980   5.230   6.200
  302SOL     OW 1804   0.401   6.608   2.723
  302SOL    HW1 1805   0.396   6.592   2.822
  302SOL    HW2 1806   0.486   6.656   2.701
  303SOL     OW 1807   5.664   6.228   3.000
  303SOL    HW1 1808   5.701   6.199   2.912
  303SOL    HW2 1809   5.625   6.149   3.047
  304SOL     OW 1810   2.198   6.620   4.475
  304SOL    HW1 1811   2.281   6.570   4.500
  304SOL    HW2 1812   2.204   6.650   4.380
  305SOL     OW 1813   0.493   2.267   1.601
  305SOL    HW1 1814   0.544   2.346   1.636
  305SOL    HW2 1815   0.485   2.275   1.502
  306SOL     OW 1816   0.669   6.709   3.042
  306SOL    HW1 1817   0.742   6.662   3.092
  306SOL    HW2 1818   0.619   6.643   2.986
  307SOL     OW 1819   3.654   3.840   3.417
  307SOL    HW1 1820   3.719   3.910   3.448
  307SOL    HW2 1821   3.577   3.835   3.481
  308SOL     OW 1822   6.555   1.727   2.174
  308SOL    HW1 1823   6.475   1.682   2.214
  308SOL    HW2 1824   6.638   1.688   2.214
  309SOL     OW 1825   1.812   5.415   7.017
  309SOL    HW1 1826   1.787   5.386   0.083
  309SOL    HW2 1827   1.877   5.491   7.022
  310SOL     OW 1828   5.563   6.531   4.884
  310SOL    HW1 1829   5.612   6.532   4.796
  310SOL    HW2 1830   5.567   6.622   4.925
  311SOL     OW 1831   1.572   5.718   1.524
  311SOL    HW1 1832   1.534   5.657   1.454
  311SOL    HW2 1833   1.669   5.696   1.538
  312SOL     OW 1834   3.276   0.516   4.026
  312SOL    HW1 1835   3.356   0.536   3.970
  312SOL    HW2 1836   3.198   0.495   3.967
  313SOL     OW 1837   3.226   3.029   2.728
  313SOL    HW1 1838   3.260   2.984   2.646
  313SOL    HW2 1839   3.283   3.004   2.806
  314SOL     OW 1840   2.491   5.331   6.258
  314SOL    HW1 1841   2.472   5.333   6.159
  314SOL    HW2 1842   2.587   5.356   6.273
  315SOL     OW 1843   5.246   0.609   4.717
  315SOL    HW1 1844   5.250   0.614   4.817
  315SOL    HW2 1845   5.335   0.631   4.678
  316SOL     OW 1846   3.490   0.811   6.849
  316SOL    HW1 1847   3.468   0.794   6.753
  316SOL    HW2 1848   3.532   0.901   6.857
  317SOL     OW 1849   0.414   2.205   1.319
  317SOL    HW1 1850   0.402   2.243   1.227
  317SOL    HW2 1851   0.326   2.174   1.354
  318SOL     OW 1852   1.119   0.273   4.770
  318SOL    HW1 1853   1.119   0.356   4.714
  318SOL    HW2 1854   1.049   0.281   4.841
  319SOL     OW 1855   0.296   0.614   3.725
  319SOL    HW1 1856   0.217   0.593   3.783
  319SOL    HW2 1857   0.269   0.678   3.653
  320SOL     OW 1858   5.339   1.948   6.994
  320SOL    HW1 1859   5.359   1.987   0.057
  320SOL    HW2 1860   5.324   2.022   6.928
  321SOL     OW 1861   4.362   3.022   1.032
  321SOL    HW1 1862   4.440   2.995   1.088
  321SOL    HW2 1863   4.347   2.954   0.961
  322SOL     OW 1864   3.278   2.663   6.431
  322SOL    HW1 1865   3.342   2.662   6.508
  322SOL    HW2 1866   3.185   2.650   6.465
  323SOL     OW 1867   1.500   3.606   2.222
  323SOL    HW1 1868   1.494   3.604   2.322
  323SOL    HW2 1869   1.595   3.590   2.194
  324SOL     OW 1870   0.694   0.092   3.304
  324SOL    HW1 1871   0.699   0.192   3.305
  324SOL    HW2 1872   0.772   0.056   3.253
  325SOL     OW 1873   6.781   3.880   0.545
  325SOL    HW1 1874   6.775   3.831   0.632
  325SOL    HW2 1875   6.790   3.815   0.470
  326SOL     OW 1876   0.614   6.202   0.368
  326SOL    HW1 1877   0.580   6.196   0.274
  326SOL    HW2 1878   0.596   6.294   0.404
  327SOL     OW 1879   4.054   5.774   5.878
  327SOL    HW1 1880   4.013   5.713   5.811
  327SOL    HW2 1881   4.034   5.869   5.853
  328SOL     OW 1882   1.288   4.659   3.252
  328SOL    HW1 1883   1.312   4.752   3.223
  328SOL    HW2 1884   1.235   4.662   3.336
  329SOL     OW 1885   3.340   3.634   1.762
  329SOL    HW1 1886   3.430   3.595   1.780
  329SOL    HW2 1887   3.341   3.732   1.783
  330SOL     OW 1888   3.079   3.782   0.341
  330SOL    HW1 1889   3.162   3.733   0.312
  330SOL    HW2 1890   3.023   3.802   0.261
  331SOL     OW 1891   5.673   5.745   5.028
  331SOL    HW1 1892   5.591   5.716   5.077
  331SOL    HW2 1893   5.755   5.718   5.079
  332SOL     OW 1894   5.386   1.995   2.790
  332SOL    HW1 1895   5.379   1.912   2.735
  332SOL    HW2 1896   5.470   2.044   2.766
  333SOL     OW 1897   3.180   0.030   4.297
  333SOL    HW1 1898   3.269   7.016   4.313
  333SOL    HW2 1899   3.188   0.100   4.226
  334SOL     OW 1900   3.525   3.878   3.159
  334SOL    HW1 1901   3.560   3.832   3.241
  334SOL    HW2 1902   3.428   3.898   3.171
  335SOL     OW 1903   3.936   1.619   1.140
  335SOL    HW1 1904   3.836   1.612   1.148
  335SOL    HW2 1905   3.978   1.583   1.223
  336SOL     OW 1906   4.193   1.703   4.416
  336SOL    HW1 1907   4.223   1.609   4.426
  336SOL    HW2 1908   4.096   1.710   4.438
  337SOL     OW 1909   0.063   1.018   5.194
  337SOL    HW1 1910   0.119   0.961   5.254
  337SOL    HW2 1911   6.993   1.009   5.219
  338SOL     OW 1912   4.132   1.518   1.527
  338SOL    HW1 1913   4.121   1.453   1.602
  338SOL    HW2 1914   4.125   1.470   1.440
  339SOL     OW 1915   4.204   5.210   5.683
  339SOL    HW1 1916   4.203   5.220   5.583
  339SOL    HW2 1917   4.255   5.128   5.708
  340SOL     OW 1918   6.302   2.641   4.394
  340SOL    HW1 1919   6.291   2.694   4.310
  340SOL    HW2 1920   6.268   2.548   4.380
  341SOL     OW 1921   0.299   6.852   2.999
  341SOL    HW1 1922   0.350   6.837   3.084
  341SOL    HW2 1923   0.337   6.930   2.950
  342SOL     OW 1924   5.115   1.899   2.544
  342SOL    HW1 1925   5.093   1.982   2.492
  342SOL    HW2 1926   5.068   1.821   2.504
  343SOL     OW 1927   6.389   6.771   1.819
  343SOL    HW1 1928   6.301   6.793   1.862
  343SOL    HW2 1929   6.390   6.674   1.795
  344SOL     OW 1930   0.208   2.609   0.947
  344SOL    HW1 1931   0.293   2.587   0.898
  344SOL    HW2 1932   0.142   2.649   0.884
  345SOL     OW 1933   6.547   2.396   4.680
  345SOL    HW1 1934   6.467   2.450   4.707
  345SOL    HW2 1935   6.614   2.456   4.636
  346SOL     OW 1936   2.666   6.171   3.319
  346SOL    HW1 1937   2.612   6.209   3.394
  346SOL    HW2 1938   2.621   6.190   3.232
  347SOL     OW 1939   2.172   4.386   0.564
  347SOL    HW1 1940   2.155   4.445   0.643
  347SOL    HW2 1941   2.182   4.443   0.482
  348SOL     OW 1942   3.959   5.517   2.067
  348SOL    HW1 1943   3.986   5.427   2.034
  348SOL    HW2 1944   3.928   5.510   2.162
  349SOL     OW 1945   5.502   4.048   0.515
  349SOL    HW1 1946   5.437   4.114   0.553
  349SOL    HW2 1947   5.474   4.022   0.423
  350SOL     OW 1948   2.953   2.045   6.808
  350SOL    HW1 1949   2.922   2.005   6.894
  350SOL    HW2 1950   3.042   2.089   6.822
  351SOL     OW 1951   3.340   4.343   0.862
  351SOL    HW1 1952   3.278   4.413   0.827
  351SOL    HW2 1953   3.306   4.253   0.834
  352SOL     OW 1954   4.169   0.431   2.501
  352SOL    HW1 1955   4.103   0.506   2.508
  352SOL    HW2 1956   4.137   0.353   2.555
  353SOL     OW 1957   1.668   0.297   0.892
  353SOL    HW1 1958   1.742   0.290   0.959
  353SOL    HW2 1959   1.705   0.329   0.804
  354SOL     OW 1960   0.898   2.686   0.314
  354SOL    HW1 1961   0.899   2.710   0.217
  354SOL    HW2 1962   0.990   2.658   0.343
  355SOL     OW 1963   1.121   2.521   2.486
  355SOL    HW1 1964   1.195   2.549   2.425
  355SOL    HW2 1965   1.134   2.563   2.576
  356SOL     OW 1966   2.613   0.244   5.156
  356SOL    HW1 1967   2.703   0.232   5.112
  356SOL    HW2 1968   2.626   0.260   5.254
  357SOL     OW 1969   6.144   0.073   4.583
  357SOL    HW1 1970   6.243   0.072   4.568
  357SOL    HW2 1971   6.105   0.154   4.540
  358SOL     OW 1972   3.348   6.361   6.042
  358SOL    HW1 1973   3.302   6.273   6.049
  358SOL    HW2 1974   3.441   6.353   6.078
  359SOL     OW 1975   1.157   1.662   2.078
  359SOL    HW1 1976   1.102   1.581   2.056
  359SOL    HW2 1977   1.218   1.640   2.154
  360SOL     OW 1978   2.132   4.398   3.971
  360SOL    HW1 1979   2.129   4.420   3.873
  360SOL    HW2 1980   2.136   4.299   3.983
  361SOL     OW 1981   6.910   1.375   2.187
  361SOL    HW1 1982   6.851   1.452   2.212
  361SOL    HW2 1983   7.005   1.399   2.206
  362SOL     OW 1984   3.460   3.501   1.480
  362SOL    HW1 1985   3.507   3.572   1.533
  362SOL    HW2 1986   3.521   3.424   1.466
  363SOL     OW 1987   4.914   5.760   1.963
  363SOL    HW1 1988   4.998   5.785   2.010
  363SOL    HW2 1989   4.896   5.663   1.975
  364SOL     OW 1990   1.180   6.873   0.159
  364SOL    HW1 1991   1.172   6.967   0.192
  364SOL    HW2 1992   1.158   6.810   0.234
  365SOL     OW 1993   5.424   1.496   3.759
  365SOL    HW1 1994   5.422   1.540   3.849
  365SOL    HW2 1995   5.345   1.525   3.705
  366SOL     OW 1996   5.723   1.803   6.724
  366SOL    HW1 1997   5.822   1.794   6.730
  366SOL    HW2 1998   5.681   1.712   6.727
  367SOL     OW 1999   6.078   1.461   6.615
  367SOL    HW1 2000   6.088   1.367   6.582
  367SOL    HW2 2001   6.022   1.512   6.550
  368SOL     OW 2002   0.732   1.717   5.784
  368SOL    HW1 2003   0.705   1.663   5.704
  368SOL    HW2 2004   0.657   1.777   5.811
  369SOL     OW 2005   6.145   4.219   0.929
  369SOL    HW1 2006   6.057   4.251   0.893
  369SOL    HW2 2007   6.192   4.166   0.859
  370SOL     OW 2008   1.851   2.575   3.609
  370SOL    HW1 2009   1.815   2.668   3.622
  370SOL    HW2 2010   1.847   2.551   3.512
  371SOL     OW 2011   0.823   5.038   6.893
  371SOL    HW1 2012   0.863   4.962   6.944
  371SOL    HW2 2013   0.730   5.054   6.924
  372SOL     OW 2014   2.708   6.215   5.797
  372SOL    HW1 2015   2.633   6.281   5.804
  372SOL    HW2 2016   2.694   6.159   5.716
  373SOL     OW 2017   6.660   4.612   3.380
  373SOL    HW1 2018   6.642   4.702   3.421
  373SOL    HW2 2019   6.577   4.557   3.382
  374SOL     OW 2020   2.944   1.486   2.817
  374SOL    HW1 2021   2.937   1.414   2.748
  374SOL    HW2 2022   3.040   1.515   2.825
  375SOL     OW 2023   1.045   5.894   4.426
  375SOL    HW1 2024   0.982   5.955   4.474
  375SOL    HW2 2025   0.997   5.810   4.400
  376SOL     OW 2026   3.987   0.755   3.563
  376SOL    HW1 2027   3.995   0.827   3.495
  376SOL    HW2 2028   3.982   0.796   3.654
  377SOL     OW 2029   1.891   2.217   6.951
  377SOL    HW1 2030   1.882   2.312   6.982
  377SOL    HW2 2031   1.982   2.204   6.911
  378SOL     OW 2032   4.414   1.701   3.010
  378SOL    HW1 2033   4.511   1.709   2.987
  378SOL    HW2 2034   4.385   1.783   3.059
  379SOL     OW 2035   4.427   2.083   6.083
  379SOL    HW1 2036   4.462   2.076   6.176
  379SOL    HW2 2037   4.503   2.079   6.018
  380SOL     OW 2038   4.148   2.475   0.251
  380SOL    HW1 2039   4.221   2.531   0.212
  380SOL    HW2 2040   4.113   2.519   0.333
  381SOL     OW 2041   2.150   3.727   2.834
  381SOL    HW1 2042   2.235   3.704   2.786
  381SOL    HW2 2043   2.072   3.699   2.779
  382SOL     OW 2044   5.952   0.716   6.375
  382SOL    HW1 2045   5.860   0.755   6.372
  382SOL    HW2 2046   6.014   0.775   6.324
  383SOL     OW 2047   5.081   2.598   0.375
  383SOL    HW1 2048   5.047   2.525   0.434
  383SOL    HW2 2049   5.096   2.563   0.283
  384SOL     OW 2050   6.329   3.766   4.957
  384SOL    HW1 2051   6.281   3.783   5.043
  384SOL    HW2 2052   6.358   3.670   4.953
  385SOL     OW 2053   4.562   3.326   0.270
  385SOL    HW1 2054   4.629   3.253   0.257
  385SOL    HW2 2055   4.609   3.411   0.295
  386SOL     OW 2056   3.906   6.217   4.336
  386SOL    HW1 2057   3.978   6.149   4.338
  386SOL    HW2 2058   3.941   6.303   4.298
  387SOL     OW 2059   2.700   5.940   4.174
  387SOL    HW1 2060   2.646   5.975   4.251
  387SOL    HW2 2061   2.655   5.963   4.088
  388SOL     OW 2062   0.872   4.479   6.877
  388SOL    HW1 2063   0.948   4.469   6.941
  388SOL    HW2 2064   0.805   4.543   6.913
  389SOL     OW 2065   3.103   3.234   1.916
  389SOL    HW1 2066   3.179   3.200   1.860
  389SOL    HW2 2067   3.019   3.188   1.889
  390SOL     OW 2068   2.662   1.102   4.319
  390SOL    HW1 2069   2.606   1.147   4.389
  390SOL    HW2 2070   2.630   1.008   4.308
  391SOL     OW 2071   1.447   2.606   6.613
  391SOL    HW1 2072   1.526   2.600   6.674
  391SOL    HW2 2073   1.370   2.557   6.655
  392SOL     OW 2074   3.194   5.553   3.695
  392SOL    HW1 2075   3.176   5.509   3.608
  392SOL    HW2 2076   3.143   5.507   3.768
  393SOL     OW 2077   6.140   3.825   4.760
  393SOL    HW1 2078   6.070   3.890   4.734
  393SOL    HW2 2079   6.148   3.822   4.860
  394SOL     OW 2080   2.249   1.409   6.425
  394SOL    HW1 2081   2.250   1.365   6.514
  394SOL    HW2 2082   2.162   1.390   6.379
  395SOL     OW 2083   6.183   3.567   1.130
  395SOL    HW1 2084   6.249   3.573   1.204
  395SOL    HW2 2085   6.099   3.615   1.157
  396SOL     OW 2086   3.459   2.959   4.790
  396SOL    HW1 2087   3.547   2.921   4.759
  396SOL    HW2 2088   3.453   2.951   4.889
  397SOL     OW 2089   4.096   2.030   6.846
  397SOL    HW1 2090   4.132   2.077   6.926
  397SOL    HW2 2091   4.083   2.095   6.771
  398SOL     OW 2092   1.037   4.641   3.101
  398SOL    HW1 2093   1.112   4.654   3.166
  398SOL    HW2 2094   1.041   4.713   3.031
  399SOL     OW 2095   5.175   4.938   2.939
  399SOL    HW1 2096   5.235   5.016   2.955
  399SOL    HW2 2097   5.155   4.892   3.026
  400SOL     OW 2098   1.774   4.880   4.562
  400SOL    HW1 2099   1.788   4.853   4.467
  400SOL    HW2 2100   1.743   4.975   4.565
  401SOL     OW 2101   5.700   1.335   6.689
  401SOL    HW1 2102   5.795   1.313   6.715
  401SOL    HW2 2103   5.661   1.258   6.638
  402SOL     OW 2104   6.178   4.744   1.526
  402SOL    HW1 2105   6.164   4.842   1.512
  402SOL    HW2 2106   6.212   4.728   1.619
  403SOL     OW 2107   5.236   3.777   0.276
  403SOL    HW1 2108   5.219   3.854   0.215
  403SOL    HW2 2109   5.162   3.772   0.344
  404SOL     OW 2110   0.498   6.857   5.014
  404SOL    HW1 2111   0.431   6.788   4.989
  404SOL    HW2 2112   0.528   6.842   5.108
  405SOL     OW 2113   1.236   2.482   0.758
  405SOL    HW1 2114   1.163   2.548   0.777
  405SOL    HW2 2115   1.259   2.484   0.661
  406SOL     OW 2116   1.298   3.171   2.708
  406SOL    HW1 2117   1.238   3.101   2.746
  406SOL    HW2 2118   1.341   3.222   2.782
  407SOL     OW 2119   2.785   1.342   3.463
  407SOL    HW1 2120   2.848   1.282   3.512
  407SOL    HW2 2121   2.819   1.436   3.466
  408SOL     OW 2122   1.918   0.719   3.244
  408SOL    HW1 2123   1.896   0.683   3.154
  408SOL    HW2 2124   1.868   0.805   3.259
  409SOL     OW 2125   6.245   2.978   4.017
  409SOL    HW1 2126   6.272   3.074   4.019
  409SOL    HW2 2127   6.147   2.970   4.036
  410SOL     OW 2128   3.270   0.868   6.282
  410SOL    HW1 2129   3.364   0.896   6.302
  410SOL    HW2 2130   3.243   0.903   6.193
  411SOL     OW 2131   0.042   3.674   5.242
  411SOL    HW1 2132   7.006   3.599   5.263
  411SOL    HW2 2133   0.107   3.685   5.318
  412SOL     OW 2134   4.143   0.481   2.216
  412SOL    HW1 2135   4.153   0.445   2.309
  412SOL    HW2 2136   4.226   0.461   2.164
  413SOL     OW 2137   3.029   0.469   1.963
  413SOL    HW1 2138   3.125   0.446   1.949
  413SOL    HW2 2139   3.005   0.456   2.060
  414SOL     OW 2140   4.463   3.837   0.138
  414SOL    HW1 2141   4.402   3.758   0.141
  414SOL    HW2 2142   4.434   3.900   0.067
  415SOL     OW 2143   3.333   6.700   1.811
  415SOL    HW1 2144   3.336   6.685   1.713
  415SOL    HW2 2145   3.282   6.626   1.855
  416SOL     OW 2146   3.591   5.771   5.874
  416SOL    HW1 2147   3.631   5.843   5.817
  416SOL    HW2 2148   3.615   5.682   5.836
  417SOL     OW 2149   4.525   5.756   1.030
  417SOL    HW1 2150   4.459   5.716   1.093
  417SOL    HW2 2151   4.532   5.699   0.948
  418SOL     OW 2152   5.676   4.656   0.620
  418SOL    HW1 2153   5.688   4.586   0.550
  418SOL    HW2 2154   5.599   4.715   0.596
  419SOL     OW 2155   6.507   6.672   1.090
  419SOL    HW1 2156   6.418   6.717   1.098
  419SOL    HW2 2157   6.520   6.641   0.996
  420SOL     OW 2158   4.418   4.213   0.082
  420SOL    HW1 2159   4.363   4.178   0.158
  420SOL    HW2 2160   4.361   4.224   0.001
  421SOL     OW 2161   1.381   5.710   6.563
  421SOL    HW1 2162   1.341   5.653   6.491
  421SOL    HW2 2163   1.308   5.755   6.615
  422SOL     OW 2164   5.847   3.175   6.234
  422SOL    HW1 2165   5.915   3.218   6.175
  422SOL    HW2 2166   5.805   3.244   6.292
  423SOL     OW 2167   1.069   3.134   5.725
  423SOL    HW1 2168   0.970   3.151   5.716
  423SOL    HW2 2169   1.084   3.048   5.772
  424SOL     OW 2170   2.447   4.205   7.022
  424SOL    HW1 2171   2.393   4.169   6.946
  424SOL    HW2 2172   2.464   4.131   0.062
  425SOL     OW 2173   3.036   0.536   0.840
  425SOL    HW1 2174   2.985   0.621   0.856
  425SOL    HW2 2175   3.021   0.474   0.917
  426SOL     OW 2176   5.756   4.192   5.259
  426SOL    HW1 2177   5.797   4.134   5.330
  426SOL    HW2 2178   5.814   4.272   5.244
  427SOL     OW 2179   4.470   3.553   1.010
  427SOL    HW1 2180   4.447   3.459   0.982
  427SOL    HW2 2181   4.417   3.577   1.092
  428SOL     OW 2182   3.496   1.190   5.255
  428SOL    HW1 2183   3.571   1.127   5.237
  428SOL    HW2 2184   3.528   1.263   5.315
  429SOL     OW 2185   2.402   5.187   0.010
  429SOL    HW1 2186   2.303   5.192   0.019
  429SOL    HW2 2187   2.445   5.240   0.084
  430SOL     OW 2188   1.878   6.721   4.831
  430SOL    HW1 2189   1.892   6.736   4.733
  430SOL    HW2 2190   1.950   6.662   4.867
  431SOL     OW 2191   3.484   1.772   6.767
  431SOL    HW1 2192   3.568   1.747   6.815
  431SOL    HW2 2193   3.469   1.710   6.690
  432SOL     OW 2194   0.253   1.621   1.036
  432SOL    HW1 2195   0.340   1.659   1.003
  432SOL    HW2 2196   0.220   1.553   0.971
  433SOL     OW 2197   2.646   5.835   4.797
  433SOL    HW1 2198   2.641   5.931   4.768
  433SOL    HW2 2199   2.564   5.787   4.767
  434SOL     OW 2200   6.760   3.749   1.251
  434SOL    HW1 2201   6.680   3.776   1.304
  434SOL    HW2 2202   6.731   3.695   1.172
  435SOL     OW 2203   3.617   4.134   0.608
  435SOL    HW1 2204   3.564   4.049   0.616
  435SOL    HW2 2205   3.703   4.116   0.560
  436SOL     OW 2206   2.747   1.167   0.271
  436SOL    HW1 2207   2.746   1.068   0.259
  436SOL    HW2 2208   2.806   1.209   0.202
  437SOL     OW 2209   6.714   6.724   6.211
  437SOL    HW1 2210   6.791   6.782   6.186
  437SOL    HW2 2211   6.638   6.782   6.241
  438SOL     OW 2212   1.965   2.863   1.841
  438SOL    HW1 2213   1.893   2.817   1.892
  438SOL    HW2 2214   2.043   2.881   1.902
  439SOL     OW 2215   6.093   4.853   2.721
  439SOL    HW1 2216   6.165   4.893   2.665
  439SOL    HW2 2217   6.105   4.754   2.725
  440SOL     OW 2218   0.752   3.180   3.620
  440SOL    HW1 2219   0.800   3.221   3.697
  440SOL    HW2 2220   0.709   3.094   3.648
  441SOL     OW 2221   1.123   0.658   3.998
  441SOL    HW1 2222   1.201   0.708   3.963
  441SOL    HW2 2223   1.061   0.720   4.044
  442SOL     OW 2224   0.118   4.518   0.183
  442SOL    HW1 2225   0.187   4.570   0.234
  442SOL    HW2 2226   0.152   4.426   0.165
  443SOL     OW 2227   0.871   4.295   5.968
  443SOL    HW1 2228   0.829   4.244   6.043
  443SOL    HW2 2229   0.964   4.261   5.953
  444SOL     OW 2230   4.655   3.062   6.038
  444SOL    HW1 2231   4.662   2.966   6.066
  444SOL    HW2 2232   4.722   3.081   5.966
  445SOL     OW 2233   1.650   4.450   3.321
  445SOL    HW1 2234   1.690   4.523   3.377
  445SOL    HW2 2235   1.639   4.368   3.378
  446SOL     OW 2236   4.400   4.943   4.069
  446SOL    HW1 2237   4.405   4.904   3.977
  446SOL    HW2 2238   4.414   4.870   4.137
  447SOL     OW 2239   6.896   5.860   0.517
  447SOL    HW1 2240   6.935   5.945   0.481
  447SOL    HW2 2241   6.968   5.791   0.523
  448SOL     OW 2242   4.663   0.470   5.542
  448SOL    HW1 2243   4.609   0.507   5.466
  448SOL    HW2 2244   4.622   0.497   5.629
  449SOL     OW 2245   6.188   0.576   4.745
  449SOL    HW1 2246   6.221   0.592   4.652
  449SOL    HW2 2247   6.114   0.509   4.744
  450SOL     OW 2248   6.948   6.436   3.606
  450SOL    HW1 2249   6.940   6.485   3.520
  450SOL    HW2 2250   0.018   6.423   3.629
  451SOL     OW 2251   0.203   2.334   3.293
  451SOL    HW1 2252   0.264   2.413   3.290
  451SOL    HW2 2253   0.130   2.350   3.359
  452SOL     OW 2254   0.101   4.621   6.560
  452SOL    HW1 2255   0.197   4.644   6.545
  452SOL    HW2 2256   0.055   4.609   6.472
  453SOL     OW 2257   2.692   0.663   5.694
  453SOL    HW1 2258   2.761   0.623   5.753
  453SOL    HW2 2259   2.702   0.763   5.693
  454SOL     OW 2260   0.984   6.354   0.211
  454SOL    HW1 2261   0.918   6.284   0.181
  454SOL    HW2 2262   0.968   6.438   0.160
  455SOL     OW 2263   5.298   1.202   5.717
  455SOL    HW1 2264   5.334   1.283   5.671
  455SOL    HW2 2265   5.235   1.154   5.656
  456SOL     OW 2266   4.606   5.813   6.531
  456SOL    HW1 2267   4.511   5.845   6.522
  456SOL    HW2 2268   4.616   5.765   6.618
  457SOL     OW 2269   1.369   5.051   2.270
  457SOL    HW1 2270   1.467   5.071   2.258
  457SOL    HW2 2271   1.336   5.002   2.189
  458SOL     OW 2272   6.283   6.132   6.677
  458SOL    HW1 2273   6.325   6.116   6.587
  458SOL    HW2 2274   6.326   6.212   6.720
  459SOL     OW 2275   2.190   0.636   2.889
  459SOL    HW1 2276   2.118   0.609   2.825
  459SOL    HW2 2277   2.175   0.592   2.978
  460SOL     OW 2278   6.645   1.794   3.194
  460SOL    HW1 2279   6.703   1.820   3.117
  460SOL    HW2 2280   6.580   1.724   3.164
  461SOL     OW 2281   4.774   6.039   5.726
  461SOL    HW1 2282   4.811   6.106   5.791
  461SOL    HW2 2283   4.790   5.947   5.760
  462SOL     OW 2284   3.105   3.440   6.950
  462SOL    HW1 2285   3.027   3.501   6.937
  462SOL    HW2 2286   3.122   3.390   6.865
  463SOL     OW 2287   6.390   5.543   1.447
  463SOL    HW1 2288   6.415   5.626   1.498
  463SOL    HW2 2289   6.342   5.568   1.363
  464SOL     OW 2290   1.669   0.919   5.977
  464SOL    HW1 2291   1.653   1.003   6.030
  464SOL    HW2 2292   1.584   0.892   5.932
  465SOL     OW 2293   6.565   2.674   4.497
  465SOL    HW1 2294   6.476   2.672   4.452
  465SOL    HW2 2295   6.600   2.768   4.497
  466SOL     OW 2296   2.009   0.323   3.415
  466SOL    HW1 2297   2.018   0.228   3.446
  466SOL    HW2 2298   2.089   0.376   3.444
  467SOL     OW 2299   2.148   0.836   5.159
  467SOL    HW1 2300   2.247   0.849   5.156
  467SOL    HW2 2301   2.115   0.847   5.253
  468SOL     OW 2302   3.035   4.514   0.831
  468SOL    HW1 2303   2.967   4.478   0.768
  468SOL    HW2 2304   3.011   4.489   0.925
  469SOL     OW 2305   2.140   5.014   0.274
  469SOL    HW1 2306   2.169   5.088   0.213
  469SOL    HW2 2307   2.181   4.928   0.243
  470SOL     OW 2308   3.702   1.127   2.618
  470SOL    HW1 2309   3.699   1.186   2.537
  470SOL    HW2 2310   3.743   1.177   2.694
  471SOL     OW 2311   2.808   2.168   4.921
  471SOL    HW1 2312   2.889   2.183   4.864
  471SOL    HW2 2313   2.766   2.081   4.895
  472SOL     OW 2314   3.653   3.894   5.756
  472SOL    HW1 2315   3.599   3.962   5.706
  472SOL    HW2 2316   3.656   3.920   5.853
  473SOL     OW 2317   0.990   4.232   2.657
  473SOL    HW1 2318   0.975   4.326   2.688
  473SOL    HW2 2319   1.074   4.228   2.603
  474SOL     OW 2320   4.124   4.886   4.835
  474SOL    HW1 2321   4.148   4.973   4.791
  474SOL    HW2 2322   4.036   4.895   4.880
  475SOL     OW 2323   0.355   6.502   6.220
  475SOL    HW1 2324   0.306   6.561   6.156
  475SOL    HW2 2325   0.364   6.549   6.308
  476SOL     OW 2326   6.850   4.550   2.423
  476SOL    HW1 2327   6.906   4.621   2.381
  476SOL    HW2 2328   6.786   4.514   2.355
  477SOL     OW 2329   1.262   5.208   4.456
  477SOL    HW1 2330   1.338   5.143   4.447
  477SOL    HW2 2331   1.181   5.170   4.413
  478SOL     OW 2332   1.905   4.996   3.395
  478SOL    HW1 2333   1.900   4.897   3.405
  478SOL    HW2 2334   1.855   5.040   3.470
  479SOL     OW 2335   3.708   2.121   1.046
  479SOL    HW1 2336   3.761   2.120   0.961
  479SOL    HW2 2337   3.732   2.041   1.101
  480SOL     OW 2338   1.384   0.346   2.885
  480SOL    HW1 2339   1.372   0.249   2.865
  480SOL    HW2 2340   1.403   0.396   2.800
  481SOL     OW 2341   3.591   0.060   1.390
  481SOL    HW1 2342   3.530   0.069   1.312
  481SOL    HW2 2343   3.582   6.995   1.430
  482SOL     OW 2344   5.695   4.443   1.928
  482SOL    HW1 2345   5.714   4.474   1.835
  482SOL    HW2 2346   5.619   4.496   1.965
  483SOL     OW 2347   5.549   1.677   1.344
  483SOL    HW1 2348   5.467   1.651   1.293
  483SOL    HW2 2349   5.629   1.669   1.284
  484SOL     OW 2350   6.604   2.438   5.134
  484SOL    HW1 2351   6.604   2.536   5.153
  484SOL    HW2 2352   6.684   2.396   5.178
  485SOL     OW 2353   3.849   5.431   2.371
  485SOL    HW1 2354   3.768   5.383   2.403
  485SOL    HW2 2355   3.926   5.366   2.367
  486SOL     OW 2356   0.565   0.239   0.601
  486SOL    HW1 2357   0.519   0.188   0.529
  486SOL    HW2 2358   0.664   0.235   0.586
  487SOL     OW 2359   6.355   2.871   6.521
  487SOL    HW1 2360   6.274   2.897   6.469
  487SOL    HW2 2361   6.402   2.953   6.554
  488SOL     OW 2362   0.397   2.317   2.546
  488SOL    HW1 2363   0.343   2.400   2.561
  488SOL    HW2 2364   0.337   2.243   2.517
  489SOL     OW 2365   3.387   6.066   6.564
  489SOL    HW1 2366   3.394   5.969   6.539
  489SOL    HW2 2367   3.463   6.116   6.524
  490SOL     OW 2368   5.339   6.320   4.380
  490SOL    HW1 2369   5.418   6.263   4.357
  490SOL    HW2 2370   5.255   6.267   4.368
  491SOL     OW 2371   0.113   2.612   3.091
  491SOL    HW1 2372   0.103   2.672   3.170
  491SOL    HW2 2373   0.033   2.552   3.084
  492SOL     OW 2374   2.151   0.605   5.497
  492SOL    HW1 2375   2.147   0.705   5.503
  492SOL    HW2 2376   2.234   0.578   5.447
  493SOL     OW 2377   6.670   4.155   4.468
  493SOL    HW1 2378   6.637   4.130   4.559
  493SOL    HW2 2379   6.703   4.073   4.421
  494SOL     OW 2380   6.512   0.685   0.984
  494SOL    HW1 2381   6.470   0.736   0.909
  494SOL    HW2 2382   6.473   0.593   0.987
  495SOL     OW 2383   4.523   4.848   1.685
  495SOL    HW1 2384   4.435   4.809   1.710
  495SOL    HW2 2385   4.558   4.802   1.603
  496SOL     OW 2386   5.910   2.895   3.791
  496SOL    HW1 2387   5.823   2.942   3.774
  496SOL    HW2 2388   5.984   2.946   3.747
  497SOL     OW 2389   4.592   0.712   4.413
  497SOL    HW1 2390   4.662   0.726   4.483
  497SOL    HW2 2391   4.531   0.791   4.411
  498SOL     OW 2392   1.690   3.348   2.433
  498SOL    HW1 2393   1.625   3.414   2.397
  498SOL    HW2 2394   1.783   3.372   2.405
  499SOL     OW 2395   3.329   1.526   4.999
  499SOL    HW1 2396   3.273   1.571   4.930
  499SOL    HW2 2397   3.272   1.496   5.075
  500SOL     OW 2398   0.861   4.068   2.216
  500SOL    HW1 2399   0.803   3.995   2.252
  500SOL    HW2 2400   0.940   4.081   2.275
  501SOL     OW 2401   0.386   4.385   6.036
  501SOL    HW1 2402   0.485   4.386   6.048
  501SOL    HW2 2403   0.347   4.310   6.089
  502SOL     OW 2404   3.105   5.167   6.969
  502SOL    HW1 2405   3.191   5.162   7.020
  502SOL    HW2 2406   3.116   5.228   6.892
  503SOL     OW 2407   5.412   5.412   5.111
  503SOL    HW1 2408   5.492   5.355   5.130
  503SOL    HW2 2409   5.428   5.464   5.027
  504SOL     OW 2410   1.960   6.144   4.203
  504SOL    HW1 2411   1.931   6.065   4.257
  504SOL    HW2 2412   1.893   6.162   4.131
  505SOL     OW 2413   4.074   6.851   5.743
  505SOL    HW1 2414   4.051   6.893   5.655
  505SOL    HW2 2415   4.149   6.901   5.786
  506SOL     OW 2416   2.207   4.143   6.508
  506SOL    HW1 2417   2.108   4.155   6.519
  506SOL    HW2 2418   2.253   4.230   6.521
  507SOL     OW 2419   3.267   1.586   4.093
  507SOL    HW1 2420   3.244   1.652   4.164
  507SOL    HW2 2421   3.364   1.592   4.071
  508SOL     OW 2422   6.420   3.982   3.826
  508SOL    HW1 2423   6.378   4.068   3.797
  508SOL    HW2 2424   6.451   3.990   3.921
  509SOL     OW 2425   4.630   2.374   1.942
  509SOL    HW1 2426   4.643   2.458   1.994
  509SOL    HW2 2427   4.628   2.296   2.004
  510SOL     OW 2428   0.542   3.781   4.051
  510SOL    HW1 2429   0.639   3.773   4.029
  510SOL    HW2 2430   0.531   3.826   4.139
  511SOL     OW 2431   0.097   6.873   0.813
  511SOL    HW1 2432   0.125   6.954   0.864
  511SOL    HW2 2433   0.170   6.805   0.816
  512SOL     OW 2434   0.538   3.600   6.847
  512SOL    HW1 2435   0.593   3.517   6.844
  512SOL    HW2 2436   0.564   3.654   6.927
  513SOL     OW 2437   6.551   5.734   4.531
  513SOL    HW1 2438   6.489   5.811   4.513
  513SOL    HW2 2439   6.641   5.768   4.557
  514SOL     OW 2440   5.689   2.126   3.464
  514SOL    HW1 2441   5.731   2.162   3.547
  514SOL    HW2 2442   5.751   2.061   3.420
  515SOL     OW 2443   1.830   6.097   0.022
  515SOL    HW1 2444   1.873   6.051   0.100
  515SOL    HW2 2445   1.740   6.130   0.049
  516SOL     OW 2446   2.070   4.983   2.166
  516SOL    HW1 2447   2.085   4.945   2.075
  516SOL    HW2 2448   1.973   5.003   2.178
  517SOL     OW 2449   5.140   0.603   0.664
  517SOL    HW1 2450   5.051   0.626   0.704
  517SOL    HW2 2451   5.209   0.598   0.736
  518SOL     OW 2452   2.354   2.694   0.708
  518SOL    HW1 2453   2.402   2.620   0.755
  518SOL    HW2 2454   2.409   2.777   0.713
  519SOL     OW 2455   0.804   6.401   0.621
  519SOL    HW1 2456   0.867   6.421   0.696
  519SOL    HW2 2457   0.820   6.308   0.588
  520SOL     OW 2458   5.769   4.849   5.076
  520SOL    HW1 2459   5.792   4.937   5.035
  520SOL    HW2 2460   5.689   4.810   5.029
  521SOL     OW 2461   6.644   1.532   0.790
  521SOL    HW1 2462   6.569   1.483   0.836
  521SOL    HW2 2463   6.700   1.578   0.859
  522SOL     OW 2464   4.139   3.580   4.622
  522SOL    HW1 2465   4.206   3.507   4.609
  522SOL    HW2 2466   4.050   3.549   4.588
  523SOL     OW 2467   0.034   6.856   5.382
  523SOL    HW1 2468   6.974   6.903   5.400
  523SOL    HW2 2469   0.098   6.919   5.339
  524SOL     OW 2470   2.817   0.929   5.604
  524SOL    HW1 2471   2.859   0.964   5.688
  524SOL    HW2 2472   2.759   0.999   5.563
  525SOL     OW 2473   2.323   3.558   6.779
  525SOL    HW1 2474   2.279   3.506   6.705
  525SOL    HW2 2475   2.322   3.504   6.863
  526SOL     OW 2476   3.571   5.833   4.720
  526SOL    HW1 2477   3.664   5.857   4.691
  526SOL    HW2 2478   3.568   5.736   4.745
  527SOL     OW 2479   0.653   2.048   6.112
  527SOL    HW1 2480   0.716   2.025   6.185
  527SOL    HW2 2481   0.563   2.067   6.151
  528SOL     OW 2482   2.400   0.236   5.412
  528SOL    HW1 2483   2.468   0.235   5.485
  528SOL    HW2 2484   2.377   0.142   5.386
  529SOL     OW 2485   0.143   4.809   3.912
  529SOL    HW1 2486   0.047   4.820   3.941
  529SOL    HW2 2487   0.147   4.800   3.813
  530SOL     OW 2488   2.116   2.837   5.724
  530SOL    HW1 2489   2.082   2.749   5.758
  530SOL    HW2 2490   2.084   2.852   5.631
  531SOL     OW 2491   6.982   0.458   1.059
  531SOL    HW1 2492   0.028   0.417   1.113
  531SOL    HW2 2493   6.946   0.391   0.994
  532SOL     OW 2494   1.706   0.759   5.528
  532SOL    HW1 2495   1.792   0.709   5.541
  532SOL    HW2 2496   1.631   0.710   5.572
  533SOL     OW 2497   5.552   6.536   4.230
  533SOL    HW1 2498   5.603   6.458   4.267
  533SOL    HW2 2499   5.523   6.516   4.136
  534SOL     OW 2500   3.954   5.999   1.535
  534SOL    HW1 2501   3.856   6.014   1.523
  534SOL    HW2 2502   3.981   5.916   1.487
  535SOL     OW 2503   0.251   3.408   3.120
  535SOL    HW1 2504   0.226   3.312   3.132
  535SOL    HW2 2505   0.335   3.427   3.171
  536SOL     OW 2506   0.971   5.767   0.936
  536SOL    HW1 2507   1.037   5.749   0.863
  536SOL    HW2 2508   0.893   5.818   0.898
  537SOL     OW 2509   2.407   0.586   2.629
  537SOL    HW1 2510   2.485   0.649   2.625
  537SOL    HW2 2511   2.383   0.569   2.724
  538SOL     OW 2512   1.326   5.399   3.742
  538SOL    HW1 2513   1.393   5.347   3.690
  538SOL    HW2 2514   1.244   5.414   3.686
  539SOL     OW 2515   1.555   4.646   1.812
  539SOL    HW1 2516   1.620   4.722   1.805
  539SOL    HW2 2517   1.605   4.561   1.824
  540SOL     OW 2518   1.341   1.869   2.204
  540SOL    HW1 2519   1.260   1.853   2.147
  540SOL    HW2 2520   1.365   1.966   2.201
  541SOL     OW 2521   3.311   5.933   5.331
  541SOL    HW1 2522   3.317   5.840   5.367
  541SOL    HW2 2523   3.215   5.959   5.320
  542SOL     OW 2524   6.196   5.347   6.954
  542SOL    HW1 2525   6.182   5.395   0.014
  542SOL    HW2 2526   6.108   5.316   6.918
  543SOL     OW 2527   0.107   6.197   0.114
  543SOL    HW1 2528   0.043   6.266   0.078
  543SOL    HW2 2529   0.063   6.108   0.115
  544SOL     OW 2530   0.756   5.402   0.367
  544SOL    HW1 2531   0.736   5.342   0.289
  544SOL    HW2 2532   0.779   5.346   0.447
  545SOL     OW 2533   3.722   2.012   3.722
  545SOL    HW1 2534   3.623   2.019   3.707
  545SOL    HW2 2535   3.742   2.019   3.819
  546SOL     OW 2536   0.834   3.996   0.542
  546SOL    HW1 2537   0.782   3.917   0.509
  546SOL    HW2 2538   0.805   4.018   0.635
  547SOL     OW 2539   2.675   3.216   0.189
  547SOL    HW1 2540   2.770   3.202   0.218
  547SOL    HW2 2541   2.665   3.305   0.146
  548SOL     OW 2542   3.256   2.923   4.121
  548SOL    HW1 2543   3.352   2.910   4.096
  548SOL    HW2 2544   3.242   2.897   4.216
  549SOL     OW 2545   6.684   3.048   1.518
  549SOL    HW1 2546   6.626   3.077   1.594
  549SOL    HW2 2547   6.772   3.094   1.523
  550SOL     OW 2548   6.933   3.874   1.770
  550SOL    HW1 2549   6.881   3.888   1.686
  550SOL    HW2 2550   7.011   3.814   1.751
  551SOL     OW 2551   6.696   1.659   6.655
  551SOL    HW1 2552   6.696   1.715   6.737
  551SOL    HW2 2553   6.610   1.607   6.650
  552SOL     OW 2554   4.779   5.931   0.751
  552SOL    HW1 2555   4.791   6.029   0.766
  552SOL    HW2 2556   4.683   5.912   0.730
  553SOL     OW 2557   1.510   1.863   1.823
  553SOL    HW1 2558   1.605   1.837   1.805
  553SOL    HW2 2559   1.456   1.781   1.840
  554SOL     OW 2560   5.426   6.141   5.077
  554SOL    HW1 2561   5.361   6.176   5.009
  554SOL    HW2 2562   5.442   6.043   5.060
  555SOL     OW 2563   1.564   4.358   4.384
  555SOL    HW1 2564   1.586   4.444   4.431
  555SOL    HW2 2565   1.557   4.284   4.451
  556SOL     OW 2566   5.502   3.576   3.063
  556SOL    HW1 2567   5.462   3.657   3.019
  556SOL    HW2 2568   5.509   3.502   2.996
  557SOL     OW 2569   0.018   6.235   6.127
  557SOL    HW1 2570   0.060   6.255   6.216
  557SOL    HW2 2571   6.974   6.165   6.139
  558SOL     OW 2572   4.352   4.016   5.388
  558SOL    HW1 2573   4.399   4.083   5.446
  558SOL    HW2 2574   4.258   4.047   5.372
  559SOL     OW 2575   6.381   5.784   6.556
  559SOL    HW1 2576   6.303   5.810   6.499
  559SOL    HW2 2577   6.449   5.737   6.500
  560SOL     OW 2578   4.158   6.916   6.706
  560SOL    HW1 2579   4.178   6.819   6.720
  560SOL    HW2 2580   4.230   6.957   6.651
  561SOL     OW 2581   5.730   6.602   1.123
  561SOL    HW1 2582   5.675   6.677   1.086
  561SOL    HW2 2583   5.720   6.522   1.065
  562SOL     OW 2584   6.512   1.397   5.829
  562SOL    HW1 2585   6.488   1.380   5.733
  562SOL    HW2 2586   6.547   1.313   5.870
  563SOL     OW 2587   3.076   6.095   4.558
  563SOL    HW1 2588   3.151   6.030   4.552
  563SOL    HW2 2589   2.989   6.046   4.571
  564SOL     OW 2590   0.601   1.638   6.738
  564SOL    HW1 2591   0.582   1.728   6.777
  564SOL    HW2 2592   0.700   1.626   6.727
  565SOL     OW 2593   4.720   4.059   5.125
  565SOL    HW1 2594   4.717   4.072   5.025
  565SOL    HW2 2595   4.686   4.142   5.170
  566SOL     OW 2596   5.318   5.189   2.910
  566SOL    HW1 2597   5.281   5.282   2.918
  566SOL    HW2 2598   5.412   5.193   2.878
  567SOL     OW 2599   4.115   3.461   4.984
  567SOL    HW1 2600   4.032   3.517   4.998
  567SOL    HW2 2601   4.155   3.483   4.895
  568SOL     OW 2602   1.943   1.707   6.617
  568SOL    HW1 2603   1.996   1.792   6.607
  568SOL    HW2 2604   2.006   1.630   6.626
  569SOL     OW 2605   2.558   3.787   0.332
  569SOL    HW1 2606   2.562   3.750   0.424
  569SOL    HW2 2607   2.644   3.769   0.284
  570SOL     OW 2608   0.014   6.348   0.998
  570SOL    HW1 2609   7.000   6.303   1.078
  570SOL    HW2 2610   7.006   6.441   0.990
  571SOL     OW 2611   4.288   5.423   2.951
  571SOL    HW1 2612   4.330   5.425   3.041
  571SOL    HW2 2613   4.199   5.378   2.957
  572SOL     OW 2614   1.569   4.156   5.024
  572SOL    HW1 2615   1.511   4.080   5.056
  572SOL    HW2 2616   1.661   4.145   5.062
  573SOL     OW 2617   3.912   2.284   5.809
  573SOL    HW1 2618   4.010   2.262   5.809
  573SOL    HW2 2619   3.865   2.228   5.877
  574SOL     OW 2620   2.802   1.719   4.464
  574SOL    HW1 2621   2.885   1.703   4.411
  574SOL    HW2 2622   2.751   1.795   4.425
  575SOL     OW 2623   5.215   2.281   0.024
  575SOL    HW1 2624   5.247   2.299   6.958
  575SOL    HW2 2625   5.135   2.222   0.022
  576SOL     OW 2626   0.609   1.993   2.229
  576SOL    HW1 2627   0.654   1.931   2.164
  576SOL    HW2 2628   0.529   1.948   2.267
  577SOL     OW 2629   3.300   2.130   3.795
  577SOL    HW1 2630   3.284   2.185   3.877
  577SOL    HW2 2631   3.241   2.163   3.721
  578SOL     OW 2632   0.493   3.177   4.307
  578SOL    HW1 2633   0.417   3.111   4.308
  578SOL    HW2 2634   0.464   3.260   4.260
  579SOL     OW 2635   4.201   3.537   0.139
  579SOL    HW1 2636   4.262   3.460   0.121
  579SOL    HW2 2637   4.143   3.516   0.217
  580SOL     OW 2638   0.275   6.158   0.324
  580SOL    HW1 2639   0.337   6.080   0.319
  580SOL    HW2 2640   0.221   6.164   0.240
  581SOL     OW 2641   3.876   3.685   2.866
  581SOL    HW1 2642   3.912   3.767   2.910
  581SOL    HW2 2643   3.783   3.668   2.899
  582SOL     OW 2644   6.029   3.695   2.882
  582SOL    HW1 2645   6.034   3.763   2.809
  582SOL    HW2 2646   6.071   3.732   2.965
  583SOL     OW 2647   2.203   5.427   6.857
  583SOL    HW1 2648   2.205   5.508   6.799
  583SOL    HW2 2649   2.159   5.351   6.809
  584SOL     OW 2650   0.985   5.420   4.498
  584SOL    HW1 2651   0.897   5.377   4.480
  584SOL    HW2 2652   1.014   5.472   4.417
  585SOL     OW 2653   0.218   1.368   5.941
  585SOL    HW1 2654   0.270   1.301   5.994
  585SOL    HW2 2655   0.208   1.452   5.994
  586SOL     OW 2656   2.342   5.926   0.448
  586SOL    HW1 2657   2.344   5.902   0.351
  586SOL    HW2 2658   2.389   6.013   0.462
  587SOL     OW 2659   1.164   3.717   5.411
  587SOL    HW1 2660   1.180   3.627   5.370
  587SOL    HW2 2661   1.246   3.773   5.401
  588SOL     OW 2662   2.457   0.088   1.333
  588SOL    HW1 2663   2.538   0.142   1.356
  588SOL    HW2 2664   2.396   0.086   1.412
  589SOL     OW 2665   4.519   5.547   2.561
  589SOL    HW1 2666   4.518   5.469   2.623
  589SOL    HW2 2667   4.468   5.623   2.601
  590SOL     OW 2668   6.826   1.996   1.559
  590SOL    HW1 2669   6.898   2.062   1.538
  590SOL    HW2 2670   6.773   2.029   1.637
  591SOL     OW 2671   3.598   6.958   3.003
  591SOL    HW1 2672   3.590   6.861   3.025
  591SOL    HW2 2673   3.693   6.987   3.014
  592SOL     OW 2674   5.394   1.245   6.972
  592SOL    HW1 2675   5.317   1.271   6.914
  592SOL    HW2 2676   5.367   1.170   0.006
  593SOL     OW 2677   5.969   1.540   3.754
  593SOL    HW1 2678   6.053   1.592   3.743
  593SOL    HW2 2679   5.918   1.539   3.668
  594SOL     OW 2680   5.212   3.233   1.953
  594SOL    HW1 2681   5.245   3.153   1.903
  594SOL    HW2 2682   5.115   3.223   1.974
  595SOL     OW 2683   3.858   6.845   4.253
  595SOL    HW1 2684   3.946   6.798   4.244
  595SOL    HW2 2685   3.843   6.904   4.173
  596SOL     OW 2686   1.114   4.549   2.374
  596SOL    HW1 2687   1.018   4.529   2.393
  596SOL    HW2 2688   1.171   4.474   2.406
  597SOL     OW 2689   3.871   1.877   5.815
  597SOL    HW1 2690   3.837   1.857   5.723
  597SOL    HW2 2691   3.818   1.951   5.855
  598SOL     OW 2692   3.319   4.012   0.939
  598SOL    HW1 2693   3.286   3.965   1.021
  598SOL    HW2 2694   3.419   4.012   0.939
  599SOL     OW 2695   6.813   6.503   2.872
  599SOL    HW1 2696   6.882   6.570   2.901
  599SOL    HW2 2697   6.850   6.411   2.881
  600SOL     OW 2698   2.473   0.783   1.014
  600SOL    HW1 2699   2.514   0.756   1.101
  600SOL    HW2 2700   2.440   0.701   0.966
  601SOL     OW 2701   3.235   4.905   3.697
  601SOL    HW1 2702   3.275   4.992   3.726
  601SOL    HW2 2703   3.306   4.847   3.656
  602SOL     OW 2704   0.643   0.614   1.265
  602SOL    HW1 2705   0.672   0.708   1.247
  602SOL    HW2 2706   0.638   0.599   1.364
  603SOL     OW 2707   3.987   2.188   3.267
  603SOL    HW1 2708   4.035   2.248   3.203
  603SOL    HW2 2709   4.043   2.107   3.285
  604SOL     OW 2710   0.696   4.203   5.768
  604SOL    HW1 2711   0.759   4.257   5.824
  604SOL    HW2 2712   0.662   4.259   5.692
  605SOL     OW 2713   5.936   0.434   4.800
  605SOL    HW1 2714   5.915   0.492   4.879
  605SOL    HW2 2715   5.867   0.449   4.729
  606SOL     OW 2716   3.793   0.208   3.281
  606SOL    HW1 2717   3.730   0.132   3.295
  606SOL    HW2 2718   3.877   0.175   3.237
  607SOL     OW 2719   4.744   1.031   3.436
  607SOL    HW1 2720   4.758   0.944   3.390
  607SOL    HW2 2721   4.673   1.020   3.506
  608SOL     OW 2722   4.445   2.001   1.610
  608SOL    HW1 2723   4.478   1.939   1.539
  608SOL    HW2 2724   4.410   2.084   1.567
  609SOL     OW 2725   3.008   3.769   4.168
  609SOL    HW1 2726   3.009   3.820   4.254
  609SOL    HW2 2727   3.034   3.674   4.185
  610SOL     OW 2728   5.493   2.013   4.533
  610SOL    HW1 2729   5.499   2.073   4.454
  610SOL    HW2 2730   5.528   1.922   4.509
  611SOL     OW 2731   6.531   0.108   0.701
  611SOL    HW1 2732   6.557   0.018   0.735
  611SOL    HW2 2733   6.608   0.150   0.652
  612SOL     OW 2734   3.025   5.836   5.727
  612SOL    HW1 2735   2.993   5.830   5.632
  612SOL    HW2 2736   3.053   5.746   5.758
  613SOL     OW 2737   3.455   2.334   6.972
  613SOL    HW1 2738   3.422   2.249   7.014
  613SOL    HW2 2739   3.425   2.412   0.000
  614SOL     OW 2740   5.109   4.131   0.975
  614SOL    HW1 2741   5.067   4.147   1.064
  614SOL    HW2 2742   5.170   4.208   0.952
  615SOL     OW 2743   5.974   6.461   1.241
  615SOL    HW1 2744   5.891   6.517   1.237
  615SOL    HW2 2745   6.018   6.474   1.330
  616SOL     OW 2746   5.888   0.573   5.026
  616SOL    HW1 2747   5.963   0.542   5.084
  616SOL    HW2 2748   5.877   0.672   5.036
  617SOL     OW 2749   6.832   5.538   5.939
  617SOL    HW1 2750   6.891   5.499   5.868
  617SOL    HW2 2751   6.889   5.568   6.016
  618SOL     OW 2752   6.095   4.002   0.160
  618SOL    HW1 2753   6.125   4.096   0.143
  618SOL    HW2 2754   6.043   3.997   0.245
  619SOL     OW 2755   2.881   6.922   6.601
  619SOL    HW1 2756   2.853   6.946   6.509
  619SOL    HW2 2757   2.972   6.958   6.620
  620SOL     OW 2758   5.560   1.340   2.133
  620SOL    HW1 2759   5.484   1.385   2.086
  620SOL    HW2 2760   5.643   1.394   2.124
  621SOL     OW 2761   2.973   0.635   6.563
  621SOL    HW1 2762   3.024   0.716   6.595
  621SOL    HW2 2763   2.964   0.570   6.638
  622SOL     OW 2764   0.588   2.482   4.984
  622SOL    HW1 2765   0.686   2.474   5.000
  622SOL    HW2 2766   0.550   2.554   5.041
  623SOL     OW 2767   5.846   0.343   3.923
  623SOL    HW1 2768   5.928   0.398   3.938
  623SOL    HW2 2769   5.791   0.341   4.006
  624SOL     OW 2770   6.988   0.379   6.360
  624SOL    HW1 2771   0.010   0.440   6.422
  624SOL    HW2 2772   7.003   0.409   6.265
  625SOL     OW 2773   3.267   1.726   0.877
  625SOL    HW1 2774   3.314   1.779   0.807
  625SOL    HW2 2775   3.317   1.732   0.963
  626SOL     OW 2776   6.978   6.339   4.115
  626SOL    HW1 2777   0.040   6.337   4.068
  626SOL    HW2 2778   6.973   6.262   4.179
  627SOL     OW 2779   6.412   6.889   0.200
  627SOL    HW1 2780   6.487   6.833   0.233
  627SOL    HW2 2781   6.428   6.913   0.104
  628SOL     OW 2782   4.387   4.322   6.134
  628SOL    HW1 2783   4.337   4.335   6.219
  628SOL    HW2 2784   4.457   4.394   6.126
  629SOL     OW 2785   1.550   6.666   6.863
  629SOL    HW1 2786   1.618   6.719   6.813
  629SOL    HW2 2787   1.528   6.712   6.949
  630SOL     OW 2788   5.893   1.534   1.332
  630SOL    HW1 2789   5.936   1.610   1.284
  630SOL    HW2 2790   5.808   1.509   1.286
  631SOL     OW 2791   1.633   2.162   4.059
  631SOL    HW1 2792   1.648   2.063   4.050
  631SOL    HW2 2793   1.720   2.210   4.053
  632SOL     OW 2794   2.840   4.020   0.269
  632SOL    HW1 2795   2.751   3.979   0.252
  632SOL    HW2 2796   2.908   3.979   0.209
  633SOL     OW 2797   1.441   5.547   1.193
  633SOL    HW1 2798   1.384   5.467   1.171
  633SOL    HW2 2799   1.528   5.516   1.230
  634SOL     OW 2800   2.994   3.214   4.508
  634SOL    HW1 2801   2.997   3.135   4.570
  634SOL    HW2 2802   2.976   3.297   4.561
  635SOL     OW 2803   6.048   0.234   6.593
  635SOL    HW1 2804   6.113   0.294   6.546
  635SOL    HW2 2805   6.035   0.267   6.686
  636SOL     OW 2806   2.804   0.551   5.463
  636SOL    HW1 2807   2.747   0.602   5.527
  636SOL    HW2 2808   2.823   0.607   5.382
  637SOL     OW 2809   7.017   0.859   2.497
  637SOL    HW1 2810   0.062   0.916   2.456
  637SOL    HW2 2811   6.975   0.803   2.426
  638SOL     OW 2812   6.803   2.919   4.988
  638SOL    HW1 2813   6.717   2.958   5.022
  638SOL    HW2 2814   6.800   2.819   4.998
  639SOL     OW 2815   5.747   4.394   2.378
  639SOL    HW1 2816   5.780   4.482   2.413
  639SOL    HW2 2817   5.652   4.381   2.405
  640SOL     OW 2818   0.364   2.503   2.121
  640SOL    HW1 2819   0.288   2.564   2.145
  640SOL    HW2 2820   0.402   2.462   2.204
  641SOL     OW 2821   2.166   4.869   4.026
  641SOL    HW1 2822   2.231   4.899   4.096
  641SOL    HW2 2823   2.211   4.806   3.963
  642SOL     OW 2824   0.875   4.603   4.608
  642SOL    HW1 2825   0.853   4.543   4.685
  642SOL    HW2 2826   0.917   4.687   4.642
  643SOL     OW 2827   4.078   5.033   0.659
  643SOL    HW1 2828   4.168   4.998   0.631
  643SOL    HW2 2829   4.081   5.057   0.756
  644SOL     OW 2830   0.290   6.660   5.260
  644SOL    HW1 2831   0.377   6.673   5.306
  644SOL    HW2 2832   0.220   6.718   5.302
  645SOL     OW 2833   4.200   5.378   2.647
  645SOL    HW1 2834   4.284   5.418   2.685
  645SOL    HW2 2835   4.192   5.404   2.550
  646SOL     OW 2836   3.895   2.054   4.428
  646SOL    HW1 2837   3.894   1.957   4.448
  646SOL    HW2 2838   3.989   2.084   4.411
  647SOL     OW 2839   3.465   2.479   5.934
  647SOL    HW1 2840   3.438   2.571   5.907
  647SOL    HW2 2841   3.486   2.477   6.032
  648SOL     OW 2842   6.193   0.973   3.097
  648SOL    HW1 2843   6.106   1.018   3.076
  648SOL    HW2 2844   6.222   0.917   3.020
  649SOL     OW 2845   2.091   5.102   0.547
  649SOL    HW1 2846   2.064   5.197   0.561
  649SOL    HW2 2847   2.127   5.091   0.454
  650SOL     OW 2848   6.756   3.305   1.001
  650SOL    HW1 2849   6.801   3.264   0.921
  650SOL    HW2 2850   6.825   3.337   1.066
  651SOL     OW 2851   0.846   0.633   4.228
  651SOL    HW1 2852   0.750   0.656   4.211
  651SOL    HW2 2853   0.895   0.715   4.261
  652SOL     OW 2854   4.426   6.051   1.374
  652SOL    HW1 2855   4.359   6.107   1.423
  652SOL    HW2 2856   4.509   6.105   1.358
  653SOL     OW 2857   1.563   0.118   2.418
  653SOL    HW1 2858   1.557   0.060   2.337
  653SOL    HW2 2859   1.596   0.064   2.496
  654SOL     OW 2860   1.127   6.969   5.934
  654SOL    HW1 2861   1.195   6.924   5.991
  654SOL    HW2 2862   1.151   6.959   5.837
  655SOL     OW 2863   0.230   4.007   1.562
  655SOL    HW1 2864   0.203   4.037   1.654
  655SOL    HW2 2865   0.312   4.057   1.534
  656SOL     OW 2866   3.011   6.124   0.305
  656SOL    HW1 2867   3.002   6.177   0.389
  656SOL    HW2 2868   2.948   6.046   0.307
  657SOL     OW 2869   3.834   3.613   3.371
  657SOL    HW1 2870   3.922   3.602   3.418
  657SOL    HW2 2871   3.787   3.694   3.405
  658SOL     OW 2872   1.143   1.541   4.623
  658SOL    HW1 2873   1.218   1.602   4.597
  658SOL    HW2 2874   1.180   1.450   4.644
  659SOL     OW 2875   1.741   5.538   6.467
  659SOL    HW1 2876   1.715   5.629   6.437
  659SOL    HW2 2877   1.663   5.476   6.456
  660SOL     OW 2878   4.711   4.826   3.230
  660SOL    HW1 2879   4.728   4.744   3.175
  660SOL    HW2 2880   4.764   4.902   3.194
  661SOL     OW 2881   4.184   5.104   4.082
  661SOL    HW1 2882   4.274   5.065   4.063
  661SOL    HW2 2883   4.157   5.082   4.175
  662SOL     OW 2884   4.686   3.539   0.320
  662SOL    HW1 2885   4.776   3.523   0.359
  662SOL    HW2 2886   4.694   3.603   0.243
  663SOL     OW 2887   6.823   4.517   0.020
  663SOL    HW1 2888   6.841   4.472   0.107
  663SOL    HW2 2889   6.865   4.608   0.021
  664SOL     OW 2890   2.049   6.681   6.509
  664SOL    HW1 2891   2.090   6.738   6.437
  664SOL    HW2 2892   2.004   6.603   6.467
  665SOL     OW 2893   3.715   4.986   2.450
  665SOL    HW1 2894   3.651   4.970   2.375
  665SOL    HW2 2895   3.689   5.068   2.500
  666SOL     OW 2896   3.053   0.965   0.219
  666SOL    HW1 2897   3.050   1.044   0.158
  666SOL    HW2 2898   2.991   0.981   0.296
  667SOL     OW 2899   0.916   3.455   2.397
  667SOL    HW1 2900   1.002   3.504   2.411
  667SOL    HW2 2901   0.903   3.438   2.299
  668SOL     OW 2902   5.183   6.884   0.433
  668SOL    HW1 2903   5.232   6.934   0.361
  668SOL    HW2 2904   5.248   6.850   0.501
  669SOL     OW 2905   1.743   5.714   2.669
  669SOL    HW1 2906   1.781   5.624   2.645
  669SOL    HW2 2907   1.720   5.716   2.766
  670SOL     OW 2908   3.160   3.362   3.190
  670SOL    HW1 2909   3.102   3.406   3.122
  670SOL    HW2 2910   3.200   3.432   3.250
  671SOL     OW 2911   1.900   0.050   6.740
  671SOL    HW1 2912   1.836   0.095   6.677
  671SOL    HW2 2913   1.963   0.118   6.777
  672SOL     OW 2914   1.424   1.913   2.941
  672SOL    HW1 2915   1.391   1.980   3.009
  672SOL    HW2 2916   1.495   1.956   2.885
  673SOL     OW 2917   4.980   0.217   0.299
  673SOL    HW1 2918   4.955   0.146   0.365
  673SOL    HW2 2919   5.010   0.299   0.349
  674SOL     OW 2920   0.005   1.587   4.262
  674SOL    HW1 2921   6.948   1.544   4.230
  674SOL    HW2 2922   0.071   1.594   4.187
  675SOL     OW 2923   5.830   0.369   4.318
  675SOL    HW1 2924   5.876   0.440   4.265
  675SOL    HW2 2925   5.779   0.310   4.256
  676SOL     OW 2926   2.192   4.526   4.197
  676SOL    HW1 2927   2.125   4.599   4.209
  676SOL    HW2 2928   2.177   4.481   4.109
  677SOL     OW 2929   5.311   7.011   0.806
  677SOL    HW1 2930   5.321   6.968   0.895
  677SOL    HW2 2931   5.342   6.948   0.734
  678SOL     OW 2932   2.426   1.481   5.941
  678SOL    HW1 2933   2.515   1.445   5.967
  678SOL    HW2 2934   2.367   1.406   5.912
  679SOL     OW 2935   6.341   0.529   2.432
  679SOL    HW1 2936   6.348   0.615   2.382
  679SOL    HW2 2937   6.376   0.454   2.377
  680SOL     OW 2938   5.884   4.419   5.145
  680SOL    HW1 2939   5.802   4.453   5.191
  680SOL    HW2 2940   5.958   4.486   5.157
  681SOL     OW 2941   1.194   6.911   1.955
  681SOL    HW1 2942   1.162   6.874   1.868
  681SOL    HW2 2943   1.217   6.835   2.017
  682SOL     OW 2944   0.530   6.528   6.697
  682SOL    HW1 2945   0.493   6.616   6.725
  682SOL    HW2 2946   0.610   6.543   6.639
  683SOL     OW 2947   5.710   2.155   0.250
  683SOL    HW1 2948   5.732   2.253   0.252
  683SOL    HW2 2949   5.611   2.144   0.241
  684SOL     OW 2950   0.251   5.899   6.663
  684SOL    HW1 2951   0.330   5.844   6.633
  684SOL    HW2 2952   0.272   5.996   6.653
  685SOL     OW 2953   5.802   1.513   6.156
  685SOL    HW1 2954   5.729   1.459   6.197
  685SOL    HW2 2955   5.878   1.453   6.130
  686SOL     OW 2956   5.345   4.806   3.334
  686SOL    HW1 2957   5.408   4.874   3.373
  686SOL    HW2 2958   5.305   4.752   3.407
  687SOL     OW 2959   6.035   2.292   5.251
  687SOL    HW1 2960   6.097   2.222   5.214
  687SOL    HW2 2961   6.025   2.366   5.185
  688SOL     OW 2962   0.251   3.296   4.677
  688SOL    HW1 2963   0.179   3.249   4.626
  688SOL    HW2 2964   0.336   3.243   4.671
  689SOL     OW 2965   6.011   4.065   4.859
  689SOL    HW1 2966   5.977   4.159   4.867
  689SOL    HW2 2967   5.993   4.016   4.945
  690SOL     OW 2968   0.419   3.060   3.672
  690SOL    HW1 2969   0.450   3.026   3.760
  690SOL    HW2 2970   0.347   3.000   3.637
  691SOL     OW 2971   6.793   3.191   6.895
  691SOL    HW1 2972   6.719   3.126   6.912
  691SOL    HW2 2973   6.754   3.282   6.878
  692SOL     OW 2974   2.533   0.232   3.198
  692SOL    HW1 2975   2.592   0.164   3.241
  692SOL    HW2 2976   2.459   0.186   3.149
  693SOL     OW 2977   6.686   1.335   2.400
  693SOL    HW1 2978   6.655   1.311   2.492
  693SOL    HW2 2979   6.786   1.325   2.395
  694SOL     OW 2980   1.279   0.688   2.258
  694SOL    HW1 2981   1.219   0.626   2.309
  694SOL    HW2 2982   1.303   0.766   2.315
  695SOL     OW 2983   4.510   5.436   6.398
  695SOL    HW1 2984   4.601   5.403   6.423
  695SOL    HW2 2985   4.517   5.529   6.361
  696SOL     OW 2986   4.840   5.877   2.794
  696SOL    HW1 2987   4.886   5.894   2.881
  696SOL    HW2 2988   4.864   5.950   2.729
  697SOL     OW 2989   1.588   3.796   3.731
  697SOL    HW1 2990   1.495   3.758   3.724
  697SOL    HW2 2991   1.595   3.853   3.812
  698SOL     OW 2992   4.321   6.549   3.806
  698SOL    HW1 2993   4.258   6.550   3.729
  698SOL    HW2 2994   4.277   6.508   3.885
  699SOL     OW 2995   1.007   4.353   0.104
  699SOL    HW1 2996   1.045   4.280   0.047
  699SOL    HW2 2997   0.939   4.314   0.167
  700SOL     OW 2998   2.424   1.141   4.020
  700SOL    HW1 2999   2.389   1.215   4.076
  700SOL    HW2 3000   2.522   1.130   4.036
  701SOL     OW 3001   0.913   4.564   6.007
  701SOL    HW1 3002   0.864   4.626   5.946
  701SOL    HW2 3003   0.911   4.472   5.969
  702SOL     OW 3004   5.442   5.839   4.717
  702SOL    HW1 3005   5.444   5.931   4.757
  702SOL    HW2 3006   5.364   5.831   4.655
  703SOL     OW 3007   4.331   3.944   6.938
  703SOL    HW1 3008   4.315   3.845   6.935
  703SOL    HW2 3009   4.365   3.974   6.849
  704SOL     OW 3010   2.675   0.239   1.488
  704SOL    HW1 3011   2.627   0.271   1.570
  704SOL    HW2 3012   2.773   0.234   1.507
  705SOL     OW 3013   6.956   1.843   3.705
  705SOL    HW1 3014   6.932   1.850   3.608
  705SOL    HW2 3015   6.958   1.934   3.746
  706SOL     OW 3016   4.867   2.173   4.060
  706SOL    HW1 3017   4.790   2.237   4.057
  706SOL    HW2 3018   4.866   2.123   4.147
  707SOL     OW 3019   4.695   2.198   1.705
  707SOL    HW1 3020   4.613   2.152   1.669
  707SOL    HW2 3021   4.668   2.261   1.778
  708SOL     OW 3022   4.062   0.608   1.797
  708SOL    HW1 3023   4.126   0.573   1.728
  708SOL    HW2 3024   4.006   0.680   1.757
  709SOL     OW 3025   0.355   5.364   7.021
  709SOL    HW1 3026   0.367   5.405   6.931
  709SOL    HW2 3027   0.264   5.322   7.026
  710SOL     OW 3028   3.233   3.493   2.339
  710SOL    HW1 3029   3.151   3.549   2.341
  710SOL    HW2 3030   3.217   3.408   2.388
  711SOL     OW 3031   1.628   0.358   4.525
  711SOL    HW1 3032   1.532   0.384   4.534
  711SOL    HW2 3033   1.635   0.267   4.485
  712SOL     OW 3034   1.103   3.995   1.537
  712SOL    HW1 3035   1.111   3.978   1.635
  712SOL    HW2 3036   1.150   4.081   1.514
  713SOL     OW 3037   3.889   3.890   3.184
  713SOL    HW1 3038   3.830   3.970   3.171
  713SOL    HW2 3039   3.839   3.820   3.235
  714SOL     OW 3040   4.626   4.821   5.570
  714SOL    HW1 3041   4.554   4.807   5.637
  714SOL    HW2 3042   4.679   4.903   5.594
  715SOL     OW 3043   4.691   1.031   6.495
  715SOL    HW1 3044   4.711   1.072   6.584
  715SOL    HW2 3045   4.595   1.048   6.471
  716SOL     OW 3046   6.847   5.055   2.094
  716SOL    HW1 3047   6.748   5.058   2.086
  716SOL    HW2 3048   6.888   5.121   2.031
  717SOL     OW 3049   5.500   3.091   0.128
  717SOL    HW1 3050   5.519   3.173   0.181
  717SOL    HW2 3051   5.410   3.098   0.085
  718SOL     OW 3052   3.163   3.842   6.838
  718SOL    HW1 3053   3.224   3.765   6.819
  718SOL    HW2 3054   3.069   3.817   6.815
  719SOL     OW 3055   5.289   4.909   0.042
  719SOL    HW1 3056   5.321   4.982   0.103
  719SOL    HW2 3057   5.356   4.892   6.997
  720SOL     OW 3058   2.550   0.441   6.610
  720SOL    HW1 3059   2.543   0.344   6.585
  720SOL    HW2 3060   2.548   0.497   6.527
  721SOL     OW 3061   1.468   6.522   5.547
  721SOL    HW1 3062   1.530   6.498   5.621
  721SOL    HW2 3063   1.449   6.620   5.550
  722SOL     OW 3064   4.594   6.466   6.368
  722SOL    HW1 3065   4.621   6.487   6.461
  722SOL    HW2 3066   4.667   6.493   6.305
  723SOL     OW 3067   1.864   3.388   1.851
  723SOL    HW1 3068   1.860   3.288   1.852
  723SOL    HW2 3069   1.792   3.425   1.910
  724SOL     OW 3070   6.892   0.709   4.716
  724SOL    HW1 3071   6.849   0.619   4.718
  724SOL    HW2 3072   6.857   0.764   4.793
  725SOL     OW 3073   2.625   4.636   0.592
  725SOL    HW1 3074   2.653   4.689   0.672
  725SOL    HW2 3075   2.653   4.541   0.603
  726SOL     OW 3076   4.401   0.190   6.281
  726SOL    HW1 3077   4.336   0.117   6.303
  726SOL    HW2 3078   4.487   0.150   6.251
  727SOL     OW 3079   2.551   4.493   3.857
  727SOL    HW1 3080   2.518   4.430   3.928
  727SOL    HW2 3081   2.557   4.444   3.770
  728SOL     OW 3082   6.966   3.180   5.190
  728SOL    HW1 3083   6.998   3.222   5.275
  728SOL    HW2 3084   7.000   3.086   5.184
  729SOL     OW 3085   2.907   0.670   0.327
  729SOL    HW1 3086   2.816   0.634   0.304
  729SOL    HW2 3087   2.921   0.666   0.425
  730SOL     OW 3088   6.019   0.411   5.315
  730SOL    HW1 3089   5.928   0.376   5.298
  730SOL    HW2 3090   6.085   0.365   5.256
  731SOL     OW 3091   6.427   3.349   3.645
  731SOL    HW1 3092   6.341   3.361   3.694
  731SOL    HW2 3093   6.492   3.419   3.673
  732SOL     OW 3094   6.509   2.770   2.263
  732SOL    HW1 3095   6.514   2.670   2.273
  732SOL    HW2 3096   6.555   2.812   2.341
  733SOL     OW 3097   4.255   4.653   3.718
  733SOL    HW1 3098   4.163   4.662   3.756
  733SOL    HW2 3099   4.317   4.718   3.763
  734SOL     OW 3100   6.847   4.762   0.833
  734SOL    HW1 3101   6.893   4.674   0.821
  734SOL    HW2 3102   6.765   4.765   0.776
  735SOL     OW 3103   1.995   4.966   6.581
  735SOL    HW1 3104   2.079   4.912   6.571
  735SOL    HW2 3105   1.948   4.940   6.666
  736SOL     OW 3106   6.123   0.826   3.332
  736SOL    HW1 3107   6.130   0.727   3.330
  736SOL    HW2 3108   6.193   0.867   3.274
  737SOL     OW 3109   5.807   4.110   0.493
  737SOL    HW1 3110   5.818   4.138   0.398
  737SOL    HW2 3111   5.710   4.118   0.519
  738SOL     OW 3112   1.049   4.465   2.822
  738SOL    HW1 3113   1.032   4.539   2.887
  738SOL    HW2 3114   1.128   4.488   2.765
  739SOL     OW 3115   4.664   6.042   6.793
  739SOL    HW1 3116   4.749   6.079   6.755
  739SOL    HW2 3117   4.667   5.942   6.791
  740SOL     OW 3118   5.611   0.247   0.906
  740SOL    HW1 3119   5.710   0.255   0.897
  740SOL    HW2 3120   5.586   0.151   0.919
  741SOL     OW 3121   2.646   0.512   3.639
  741SOL    HW1 3122   2.700   0.588   3.677
  741SOL    HW2 3123   2.624   0.448   3.712
  742SOL     OW 3124   1.670   0.388   3.061
  742SOL    HW1 3125   1.657   0.295   3.095
  742SOL    HW2 3126   1.582   0.433   3.053
  743SOL     OW 3127   2.071   3.550   3.913
  743SOL    HW1 3128   1.971   3.548   3.907
  743SOL    HW2 3129   2.102   3.488   3.985
  744SOL     OW 3130   0.495   6.430   1.364
  744SOL    HW1 3131   0.505   6.526   1.337
  744SOL    HW2 3132   0.453   6.379   1.289
  745SOL     OW 3133   1.694   6.575   3.077
  745SOL    HW1 3134   1.738   6.638   3.012
  745SOL    HW2 3135   1.686   6.620   3.166
  746SOL     OW 3136   3.159   0.675   4.537
  746SOL    HW1 3137   3.249   0.653   4.574
  746SOL    HW2 3138   3.135   0.770   4.560
  747SOL     OW 3139   5.855   4.886   2.284
  747SOL    HW1 3140   5.774   4.856   2.234
  747SOL    HW2 3141   5.830   4.960   2.347
  748SOL     OW 3142   4.001   3.114   1.777
  748SOL    HW1 3143   3.986   3.117   1.876
  748SOL    HW2 3144   4.061   3.037   1.755
  749SOL     OW 3145   7.018   1.384   5.265
  749SOL    HW1 3146   0.006   1.482   5.255
  749SOL    HW2 3147   7.007   1.342   5.175
  750SOL     OW 3148   2.607   4.338   0.731
  750SOL    HW1 3149   2.560   4.261   0.774
  750SOL    HW2 3150   2.650   4.308   0.646
  751SOL     OW 3151   4.615   1.069   0.564
  751SOL    HW1 3152   4.700   1.016   0.572
  751SOL    HW2 3153   4.635   1.158   0.524
  752SOL     OW 3154   5.294   1.177   1.684
  752SOL    HW1 3155   5.270   1.205   1.591
  752SOL    HW2 3156   5.393   1.169   1.692
  753SOL     OW 3157   2.113   1.806   2.940
  753SOL    HW1 3158   2.142   1.796   3.035
  753SOL    HW2 3159   2.192   1.833   2.884
  754SOL     OW 3160   5.107   5.608   6.820
  754SOL    HW1 3161   5.086   5.514   6.792
  754SOL    HW2 3162   5.108   5.667   6.740
  755SOL     OW 3163   0.580   6.379   2.659
  755SOL    HW1 3164   0.507   6.447   2.660
  755SOL    HW2 3165   0.631   6.386   2.574
  756SOL     OW 3166   4.225   0.415   3.483
  756SOL    HW1 3167   4.170   0.483   3.435
  756SOL    HW2 3168   4.237   0.335   3.426
  757SOL     OW 3169   6.928   0.878   4.483
  757SOL    HW1 3170   7.012   0.863   4.430
  757SOL    HW2 3171   6.922   0.810   4.556
  758SOL     OW 3172   4.461   2.415   1.740
  758SOL    HW1 3173   4.500   2.464   1.662
  758SOL    HW2 3174   4.531   2.403   1.810
  759SOL     OW 3175   1.694   1.150   0.065
  759SOL    HW1 3176   1.632   1.227   0.079
  759SOL    HW2 3177   1.680   1.082   0.137
  760SOL     OW 3178   4.442   1.376   6.092
  760SOL    HW1 3179   4.361   1.319   6.080
  760SOL    HW2 3180   4.452   1.437   6.014
  761SOL     OW 3181   5.915   2.788   6.546
  761SOL    HW1 3182   5.848   2.816   6.615
  761SOL    HW2 3183   5.928   2.689   6.551
  762SOL     OW 3184   2.610   5.371   4.108
  762SOL    HW1 3185   2.628   5.273   4.100
  762SOL    HW2 3186   2.696   5.422   4.105
  763SOL     OW 3187   5.596   4.676   6.209
  763SOL    HW1 3188   5.640   4.622   6.282
  763SOL    HW2 3189   5.507   4.708   6.241
  764SOL     OW 3190   4.425   1.176   2.512
  764SOL    HW1 3191   4.515   1.170   2.468
  764SOL    HW2 3192   4.374   1.252   2.473
  765SOL     OW 3193   0.257   0.090   3.519
  765SOL    HW1 3194   0.171   0.122   3.481
  765SOL    HW2 3195   0.331   0.153   3.494
  766SOL     OW 3196   0.602   6.458   0.463
  766SOL    HW1 3197   0.524   6.477   0.523
  766SOL    HW2 3198   0.682   6.434   0.518
  767SOL     OW 3199   6.126   6.758   1.962
  767SOL    HW1 3200   6.067   6.812   2.021
  767SOL    HW2 3201   6.210   6.734   2.010
  768SOL     OW 3202   3.692   6.600   3.482
  768SOL    HW1 3203   3.622   6.615   3.413
  768SOL    HW2 3204   3.720   6.504   3.480
  769SOL     OW 3205   3.429   0.852   6.565
  769SOL    HW1 3206   3.432   0.919   6.491
  769SOL    HW2 3207   3.451   0.762   6.528
  770SOL     OW 3208   3.718   4.872   4.100
  770SOL    HW1 3209   3.737   4.921   4.014
  770SOL    HW2 3210   3.620   4.852   4.106
  771SOL     OW 3211   0.419   5.917   3.456
  771SOL    HW1 3212   0.426   5.955   3.364
  771SOL    HW2 3213   0.431   5.818   3.453
  772SOL     OW 3214   6.767   4.543   5.028
  772SOL    HW1 3215   6.719   4.561   4.942
  772SOL    HW2 3216   6.865   4.548   5.013
  773SOL     OW 3217   0.210   4.189   2.056
  773SOL    HW1 3218   0.143   4.260   2.035
  773SOL    HW2 3219   0.235   4.141   1.971
  774SOL     OW 3220   1.470   1.056   1.946
  774SOL    HW1 3221   1.405   1.059   2.023
  774SOL    HW2 3222   1.437   0.991   1.878
  775SOL     OW 3223   1.241   1.849   4.234
  775SOL    HW1 3224   1.301   1.929   4.232
  775SOL    HW2 3225   1.162   1.868   4.292
  776SOL     OW 3226   2.211   0.766   6.115
  776SOL    HW1 3227   2.199   0.748   6.213
  776SOL    HW2 3228   2.188   0.861   6.096
  777SOL     OW 3229   4.633   0.432   0.851
  777SOL    HW1 3230   4.629   0.368   0.774
  777SOL    HW2 3231   4.549   0.487   0.853
  778SOL     OW 3232   4.538   6.693   3.844
  778SOL    HW1 3233   4.585   6.668   3.929
  778SOL    HW2 3234   4.453   6.641   3.837
  779SOL     OW 3235   0.778   1.074   2.327
  779SOL    HW1 3236   0.789   1.070   2.228
  779SOL    HW2 3237   0.864   1.049   2.371
  780SOL     OW 3238   5.128   3.508   5.108
  780SOL    HW1 3239   5.095   3.413   5.109
  780SOL    HW2 3240   5.164   3.529   5.017
  781SOL     OW 3241   0.763   1.455   5.992
  781SOL    HW1 3242   0.836   1.517   5.964
  781SOL    HW2 3243   0.801   1.365   6.010
  782SOL     OW 3244   0.566   3.661   1.043
  782SOL    HW1 3245   0.544   3.611   0.959
  782SOL    HW2 3246   0.626   3.605   1.100
  783SOL     OW 3247   2.760   4.291   0.483
  783SOL    HW1 3248   2.722   4.202   0.457
  783SOL    HW2 3249   2.774   4.346   0.401
  784SOL     OW 3250   5.519   7.023   4.035
  784SOL    HW1 3251   5.543   6.939   4.084
  784SOL    HW2 3252   5.467   0.056   4.097
  785SOL     OW 3253   6.722   2.097   3.755
  785SOL    HW1 3254   6.651   2.165   3.734
  785SOL    HW2 3255   6.808   2.145   3.774
  786SOL     OW 3256   6.756   7.022   6.992
  786SOL    HW1 3257   6.672   0.000   6.938
  786SOL    HW2 3258   6.735   0.011   0.062
  787SOL     OW 3259   3.563   1.144   6.627
  787SOL    HW1 3260   3.625   1.208   6.582
  787SOL    HW2 3261   3.473   1.150   6.586
  788SOL     OW 3262   0.945   4.337   3.691
  788SOL    HW1 3263   0.966   4.411   3.626
  788SOL    HW2 3264   1.010   4.339   3.766
  789SOL     OW 3265   5.987   3.816   0.967
  789SOL    HW1 3266   5.991   3.911   0.999
  789SOL    HW2 3267   5.975   3.755   1.046
  790SOL     OW 3268   3.377   1.293   4.204
  790SOL    HW1 3269   3.360   1.373   4.146
  790SOL    HW2 3270   3.456   1.311   4.263
  791SOL     OW 3271   4.162   1.893   4.026
  791SOL    HW1 3272   4.209   1.809   4.052
  791SOL    HW2 3273   4.213   1.972   4.059
  792SOL     OW 3274   5.856   0.797   3.359
  792SOL    HW1 3275   5.956   0.795   3.358
  792SOL    HW2 3276   5.823   0.744   3.437
  793SOL     OW 3277   6.782   0.000   6.452
  793SOL    HW1 3278   6.787   0.073   6.521
  793SOL    HW2 3279   6.830   6.946   6.486
  794SOL     OW 3280   2.480   5.253   5.248
  794SOL    HW1 3281   2.463   5.169   5.196
  794SOL    HW2 3282   2.408   5.265   5.317
  795SOL     OW 3283   4.856   4.727   6.166
  795SOL    HW1 3284   4.790   4.786   6.118
  795SOL    HW2 3285   4.826   4.715   6.261
  796SOL     OW 3286   1.035   2.250   5.659
  796SOL    HW1 3287   0.962   2.223   5.597
  796SOL    HW2 3288   1.122   2.250   5.610
  797SOL     OW 3289   5.845   2.793   4.696
  797SOL    HW1 3290   5.920   2.790   4.629
  797SOL    HW2 3291   5.881   2.825   4.784
  798SOL     OW 3292   6.156   0.709   5.772
  798SOL    HW1 3293   6.227   0.694   5.703
  798SOL    HW2 3294   6.086   0.770   5.735
  799SOL     OW 3295   6.614   3.431   3.012
  799SOL    HW1 3296   6.711   3.426   3.038
  799SOL    HW2 3297   6.560   3.372   3.073
  800SOL     OW 3298   6.749   1.442   1.678
  800SOL    HW1 3299   6.743   1.354   1.725
  800SOL    HW2 3300   6.680   1.445   1.605
  801SOL     OW 3301   6.962   2.482   3.848
  801SOL    HW1 3302   6.937   2.521   3.936
  801SOL    HW2 3303   6.998   2.390   3.861
  802SOL     OW 3304   6.175   1.214   0.593
  802SOL    HW1 3305   6.107   1.223   0.666
  802SOL    HW2 3306   6.261   1.179   0.631
  803SOL     OW 3307   1.374   6.632   4.931
  803SOL    HW1 3308   1.305   6.704   4.936
  803SOL    HW2 3309   1.459   6.669   4.893
  804SOL     OW 3310   6.767   0.636   0.648
  804SOL    HW1 3311   6.797   0.676   0.561
  804SOL    HW2 3312   6.848   0.613   0.703
  805SOL     OW 3313   1.519   3.090   6.058
  805SOL    HW1 3314   1.547   3.184   6.039
  805SOL    HW2 3315   1.586   3.046   6.117
  806SOL     OW 3316   5.803   0.979   0.657
  806SOL    HW1 3317   5.845   1.067   0.680
  806SOL    HW2 3318   5.706   0.992   0.639
  807SOL     OW 3319   1.724   0.376   3.369
  807SOL    HW1 3320   1.822   0.365   3.357
  807SOL    HW2 3321   1.687   0.430   3.294
  808SOL     OW 3322   5.517   3.118   4.458
  808SOL    HW1 3323   5.540   3.213   4.438
  808SOL    HW2 3324   5.601   3.066   4.475
  809SOL     OW 3325   0.630   4.730   6.169
  809SOL    HW1 3326   0.616   4.631   6.163
  809SOL    HW2 3327   0.551   4.773   6.212
  810SOL     OW 3328   6.147   4.635   6.561
  810SOL    HW1 3329   6.076   4.607   6.496
  810SOL    HW2 3330   6.152   4.735   6.565
  811SOL     OW 3331   5.015   5.131   3.859
  811SOL    HW1 3332   5.016   5.231   3.860
  811SOL    HW2 3333   4.970   5.099   3.775
  812SOL     OW 3334   0.796   0.281   2.518
  812SOL    HW1 3335   0.785   0.252   2.613
  812SOL    HW2 3336   0.785   0.202   2.457
  813SOL     OW 3337   6.292   5.443   2.295
  813SOL    HW1 3338   6.232   5.477   2.222
  813SOL    HW2 3339   6.296   5.343   2.291
  814SOL     OW 3340   5.342   5.663   1.276
  814SOL    HW1 3341   5.273   5.734   1.258
  814SOL    HW2 3342   5.391   5.643   1.191
  815SOL     OW 3343   0.425   2.386   0.297
  815SOL    HW1 3344   0.513   2.429   0.318
  815SOL    HW2 3345   0.417   2.301   0.349
  816SOL     OW 3346   6.349   0.807   1.188
  816SOL    HW1 3347   6.291   0.725   1.184
  816SOL    HW2 3348   6.429   0.794   1.130
  817SOL     OW 3349   1.722   2.127   2.569
  817SOL    HW1 3350   1.712   2.035   2.533
  817SOL    HW2 3351   1.710   2.193   2.495
  818SOL     OW 3352   6.756   1.994   1.200
  818SOL    HW1 3353   6.663   2.030   1.205
  818SOL    HW2 3354   6.762   1.910   1.253
  819SOL     OW 3355   0.210   4.314   3.486
  819SOL    HW1 3356   0.115   4.291   3.511
  819SOL    HW2 3357   0.269   4.237   3.508
  820SOL     OW 3358   0.858   3.579   4.980
  820SOL    HW1 3359   0.933   3.584   4.913
  820SOL    HW2 3360   0.807   3.665   4.979
  821SOL     OW 3361   1.209   3.676   0.298
  821SOL    HW1 3362   1.227   3.710   0.206
  821SOL    HW2 3363   1.153   3.742   0.348
  822SOL     OW 3364   1.685   3.428   4.784
  822SOL    HW1 3365   1.693   3.503   4.850
  822SOL    HW2 3366   1.712   3.460   4.693
  823SOL     OW 3367   3.069   3.460   0.941
  823SOL    HW1 3368   3.070   3.398   0.862
  823SOL    HW2 3369   3.053   3.553   0.909
  824SOL     OW 3370   6.111   2.214   5.662
  824SOL    HW1 3371   6.198   2.261   5.670
  824SOL    HW2 3372   6.038   2.271   5.700
  825SOL     OW 3373   1.484   4.104   2.237
  825SOL    HW1 3374   1.466   4.059   2.325
  825SOL    HW2 3375   1.397   4.121   2.190
  826SOL     OW 3376   0.259   4.186   5.855
  826SOL    HW1 3377   0.230   4.230   5.770
  826SOL    HW2 3378   0.307   4.253   5.912
  827SOL     OW 3379   4.108   6.073   0.365
  827SOL    HW1 3380   4.158   6.159   0.352
  827SOL    HW2 3381   4.172   5.997   0.357
  828SOL     OW 3382   6.018   6.769   6.687
  828SOL    HW1 3383   5.976   6.682   6.714
  828SOL    HW2 3384   5.954   6.844   6.705
  829SOL     OW 3385   3.786   2.933   4.772
  829SOL    HW1 3386   3.824   3.024   4.780
  829SOL    HW2 3387   3.835   2.870   4.832
  830SOL     OW 3388   4.575   3.860   5.426
  830SOL    HW1 3389   4.604   3.938   5.481
  830SOL    HW2 3390   4.491   3.883   5.378
  831SOL     OW 3391   6.210   0.536   5.067
  831SOL    HW1 3392   6.210   0.605   4.994
  831SOL    HW2 3393   6.250   0.451   5.032
  832SOL     OW 3394   2.213   1.463   5.674
  832SOL    HW1 3395   2.161   1.442   5.592
  832SOL    HW2 3396   2.218   1.381   5.732
  833SOL     OW 3397   0.904   6.826   5.938
  833SOL    HW1 3398   0.937   6.744   5.984
  833SOL    HW2 3399   0.982   6.878   5.902
  834SOL     OW 3400   3.222   4.298   5.805
  834SOL    HW1 3401   3.254   4.308   5.711
  834SOL    HW2 3402   3.140   4.354   5.818
  835SOL     OW 3403   4.207   0.643   2.849
  835SOL    HW1 3404   4.303   0.636   2.877
  835SOL    HW2 3405   4.163   0.554   2.860
  836SOL     OW 3406   2.298   0.817   0.592
  836SOL    HW1 3407   2.375   0.862   0.547
  836SOL    HW2 3408   2.281   0.729   0.547
  837SOL     OW 3409   3.851   0.215   5.745
  837SOL    HW1 3410   3.801   0.163   5.675
  837SOL    HW2 3411   3.812   0.307   5.753
  838SOL     OW 3412   2.036   4.367   2.538
  838SOL    HW1 3413   2.135   4.363   2.549
  838SOL    HW2 3414   1.994   4.404   2.621
  839SOL     OW 3415   3.485   1.396   1.732
  839SOL    HW1 3416   3.527   1.432   1.649
  839SOL    HW2 3417   3.518   1.303   1.747
  840SOL     OW 3418   0.805   1.979   6.327
  840SOL    HW1 3419   0.806   1.888   6.368
  840SOL    HW2 3420   0.768   2.045   6.392
  841SOL     OW 3421   0.139   3.780   0.628
  841SOL    HW1 3422   0.044   3.769   0.602
  841SOL    HW2 3423   0.187   3.693   0.621
  842SOL     OW 3424   3.705   5.221   4.015
  842SOL    HW1 3425   3.774   5.153   3.992
  842SOL    HW2 3426   3.690   5.281   3.936
  843SOL     OW 3427   6.808   3.208   2.531
  843SOL    HW1 3428   6.746   3.262   2.587
  843SOL    HW2 3429   6.881   3.267   2.495
  844SOL     OW 3430   5.301   5.587   0.778
  844SOL    HW1 3431   5.290   5.500   0.730
  844SOL    HW2 3432   5.345   5.571   0.866
  845SOL     OW 3433   0.991   4.910   4.630
  845SOL    HW1 3434   0.915   4.952   4.582
  845SOL    HW2 3435   1.052   4.866   4.564
  846SOL     OW 3436   5.715   2.670   0.243
  846SOL    HW1 3437   5.810   2.688   0.218
  846SOL    HW2 3438   5.654   2.709   0.173
  847SOL     OW 3439   5.477   3.495   2.128
  847SOL    HW1 3440   5.496   3.418   2.067
  847SOL    HW2 3441   5.472   3.580   2.075
  848SOL     OW 3442   6.667   7.007   5.666
  848SOL    HW1 3443   6.663   6.932   5.732
  848SOL    HW2 3444   6.574   0.016   5.650
  849SOL     OW 3445   0.794   5.282   4.353
  849SOL    HW1 3446   0.720   5.347   4.367
  849SOL    HW2 3447   0.761   5.204   4.301
  850SOL     OW 3448   3.716   0.724   2.888
  850SOL    HW1 3449   3.697   0.770   2.801
  850SOL    HW2 3450   3.726   0.792   2.960
  851SOL     OW 3451   0.794   0.237   5.776
  851SOL    HW1 3452   0.771   0.146   5.740
  851SOL    HW2 3453   0.710   0.288   5.794
  852SOL     OW 3454   2.651   4.279   6.312
  852SOL    HW1 3455   2.581   4.312   6.248
  852SOL    HW2 3456   2.698   4.200   6.272
  853SOL     OW 3457   1.481   3.426   1.266
  853SOL    HW1 3458   1.389   3.449   1.298
  853SOL    HW2 3459   1.543   3.420   1.344
  854SOL     OW 3460   5.532   4.832   2.452
  854SOL    HW1 3461   5.609   4.865   2.506
  854SOL    HW2 3462   5.548   4.851   2.355
  855SOL     OW 3463   5.643   0.512   1.416
  855SOL    HW1 3464   5.691   0.580   1.472
  855SOL    HW2 3465   5.572   0.557   1.362
  856SOL     OW 3466   1.853   0.447   4.823
  856SOL    HW1 3467   1.824   0.352   4.813
  856SOL    HW2 3468   1.949   0.449   4.853
  857SOL     OW 3469   6.737   3.651   1.726
  857SOL    HW1 3470   6.776   3.736   1.689
  857SOL    HW2 3471   6.809   3.599   1.771
  858SOL     OW 3472   3.245   3.989   1.249
  858SOL    HW1 3473   3.191   4.016   1.328
  858SOL    HW2 3474   3.201   3.911   1.204
  859SOL     OW 3475   6.996   5.033   0.545
  859SOL    HW1 3476   7.020   5.047   0.641
  859SOL    HW2 3477   0.052   5.006   0.494
  860SOL     OW 3478   1.756   4.858   1.798
  860SOL    HW1 3479   1.737   4.913   1.716
  860SOL    HW2 3480   1.702   4.893   1.874
  861SOL     OW 3481   3.800   5.405   5.953
  861SOL    HW1 3482   3.749   5.405   6.039
  861SOL    HW2 3483   3.883   5.459   5.963
  862SOL     OW 3484   4.566   4.473   4.417
  862SOL    HW1 3485   4.641   4.504   4.358
  862SOL    HW2 3486   4.529   4.388   4.382
  863SOL     OW 3487   5.895   1.206   0.724
  863SOL    HW1 3488   5.867   1.207   0.820
  863SOL    HW2 3489   5.920   1.299   0.696
  864SOL     OW 3490   6.265   4.501   2.837
  864SOL    HW1 3491   6.319   4.585   2.825
  864SOL    HW2 3492   6.297   4.452   2.918
  865SOL     OW 3493   1.415   0.571   4.352
  865SOL    HW1 3494   1.342   0.518   4.310
  865SOL    HW2 3495   1.420   0.661   4.309
  866SOL     OW 3496   3.775   1.264   1.621
  866SOL    HW1 3497   3.726   1.338   1.575
  866SOL    HW2 3498   3.785   1.186   1.559
  867SOL     OW 3499   1.596   2.397   6.262
  867SOL    HW1 3500   1.521   2.332   6.251
  867SOL    HW2 3501   1.561   2.490   6.251
  868SOL     OW 3502   5.374   2.757   3.257
  868SOL    HW1 3503   5.459   2.732   3.305
  868SOL    HW2 3504   5.394   2.827   3.188
  869SOL     OW 3505   6.266   4.234   2.588
  869SOL    HW1 3506   6.289   4.300   2.660
  869SOL    HW2 3507   6.344   4.225   2.526
  870SOL     OW 3508   0.132   2.699   0.573
  870SOL    HW1 3509   0.087   2.641   0.504
  870SOL    HW2 3510   0.099   2.793   0.565
  871SOL     OW 3511   5.806   4.302   1.026
  871SOL    HW1 3512   5.853   4.291   0.938
  871SOL    HW2 3513   5.708   4.286   1.015
  872SOL     OW 3514   5.518   2.590   2.545
  872SOL    HW1 3515   5.519   2.661   2.474
  872SOL    HW2 3516   5.426   2.550   2.551
  873SOL     OW 3517   4.573   6.691   5.474
  873SOL    HW1 3518   4.631   6.752   5.419
  873SOL    HW2 3519   4.580   6.598   5.439
  874SOL     OW 3520   0.234   3.577   6.392
  874SOL    HW1 3521   0.222   3.663   6.443
  874SOL    HW2 3522   0.148   3.526   6.393
  875SOL     OW 3523   6.327   4.880   6.240
  875SOL    HW1 3524   6.409   4.843   6.284
  875SOL    HW2 3525   6.278   4.938   6.305
  876SOL     OW 3526   0.838   2.687   1.322
  876SOL    HW1 3527   0.784   2.742   1.385
  876SOL    HW2 3528   0.892   2.620   1.373
  877SOL     OW 3529   5.784   5.715   0.675
  877SOL    HW1 3530   5.761   5.617   0.672
  877SOL    HW2 3531   5.704   5.769   0.649
  878SOL     OW 3532   3.420   2.962   0.021
  878SOL    HW1 3533   3.387   2.872   0.047
  878SOL    HW2 3534   3.456   3.010   0.101
  879SOL     OW 3535   3.839   1.983   2.759
  879SOL    HW1 3536   3.822   2.034   2.674
  879SOL    HW2 3537   3.782   1.901   2.760
  880SOL     OW 3538   4.089   5.160   0.918
  880SOL    HW1 3539   3.998   5.174   0.957
  880SOL    HW2 3540   4.130   5.248   0.896
  881SOL     OW 3541   4.113   5.493   4.332
  881SOL    HW1 3542   4.163   5.558   4.276
  881SOL    HW2 3543   4.070   5.424   4.274
  882SOL     OW 3544   0.968   1.517   4.345
  882SOL    HW1 3545   0.913   1.454   4.291
  882SOL    HW2 3546   0.964   1.490   4.442
  883SOL     OW 3547   3.057   4.410   0.007
  883SOL    HW1 3548   3.008   4.497   0.016
  883SOL    HW2 3549   3.155   4.427   0.004
  884SOL     OW 3550   4.246   3.644   1.656
  884SOL    HW1 3551   4.191   3.602   1.728
  884SOL    HW2 3552   4.253   3.582   1.578
  885SOL     OW 3553   4.578   6.261   6.614
  885SOL    HW1 3554   4.485   6.282   6.642
  885SOL    HW2 3555   4.595   6.162   6.623
  886SOL     OW 3556   4.137   1.274   6.307
  886SOL    HW1 3557   4.050   1.273   6.257
  886SOL    HW2 3558   4.204   1.217   6.260
  887SOL     OW 3559   5.750   0.093   6.488
  887SOL    HW1 3560   5.665   0.088   6.437
  887SOL    HW2 3561   5.820   0.139   6.432
  888SOL     OW 3562   6.747   6.525   3.774
  888SOL    HW1 3563   6.658   6.531   3.730
  888SOL    HW2 3564   6.817   6.505   3.704
  889SOL     OW 3565   1.232   0.048   4.647
  889SOL    HW1 3566   1.326   0.080   4.634
  889SOL    HW2 3567   1.185   0.110   4.709
  890SOL     OW 3568   2.216   4.684   2.499
  890SOL    HW1 3569   2.293   4.705   2.559
  890SOL    HW2 3570   2.162   4.767   2.484
  891SOL     OW 3571   5.472   3.305   5.923
  891SOL    HW1 3572   5.524   3.384   5.892
  891SOL    HW2 3573   5.535   3.231   5.948
  892SOL     OW 3574   2.381   5.734   1.690
  892SOL    HW1 3575   2.450   5.689   1.746
  892SOL    HW2 3576   2.290   5.700   1.715
  893SOL     OW 3577   1.848   6.608   0.807
  893SOL    HW1 3578   1.904   6.561   0.876
  893SOL    HW2 3579   1.861   6.566   0.718
  894SOL     OW 3580   1.221   5.059   4.109
  894SOL    HW1 3581   1.239   5.133   4.045
  894SOL    HW2 3582   1.157   5.090   4.180
  895SOL     OW 3583   2.094   0.357   4.857
  895SOL    HW1 3584   2.135   0.354   4.949
  895SOL    HW2 3585   2.128   0.280   4.804
  896SOL     OW 3586   5.418   6.803   3.624
  896SOL    HW1 3587   5.341   6.774   3.682
  896SOL    HW2 3588   5.504   6.778   3.669
  897SOL     OW 3589   5.135   1.891   5.921
  897SOL    HW1 3590   5.223   1.842   5.924
  897SOL    HW2 3591   5.061   1.827   5.937
  898SOL     OW 3592   6.212   5.840   3.888
  898SOL    HW1 3593   6.245   5.851   3.794
  898SOL    HW2 3594   6.281   5.876   3.952
  899SOL     OW 3595   1.450   4.341   6.805
  899SOL    HW1 3596   1.424   4.433   6.774
  899SOL    HW2 3597   1.516   4.302   6.742
  900SOL     OW 3598   0.422   5.651   3.731
  900SOL    HW1 3599   0.375   5.651   3.642
  900SOL    HW2 3600   0.409   5.740   3.775
  901SOL     OW 3601   5.820   1.908   3.389
  901SOL    HW1 3602   5.891   1.838   3.396
  901SOL    HW2 3603   5.773   1.900   3.301
  902SOL     OW 3604   0.729   6.018   0.524
  902SOL    HW1 3605   0.807   5.991   0.467
  902SOL    HW2 3606   0.679   6.092   0.478
  903SOL     OW 3607   0.539   4.876   6.853
  903SOL    HW1 3608   0.447   4.841   6.874
  903SOL    HW2 3609   0.556   4.869   6.755
  904SOL     OW 3610   1.653   1.320   3.656
  904SOL    HW1 3611   1.705   1.379   3.718
  904SOL    HW2 3612   1.679   1.224   3.671
  905SOL     OW 3613   6.603   1.901   5.719
  905SOL    HW1 3614   6.697   1.898   5.687
  905SOL    HW2 3615   6.541   1.877   5.644
  906SOL     OW 3616   6.170   3.727   5.230
  906SOL    HW1 3617   6.105   3.694   5.161
  906SOL    HW2 3618   6.134   3.810   5.272
  907SOL     OW 3619   0.174   3.458   1.420
  907SOL    HW1 3620   0.197   3.468   1.517
  907SOL    HW2 3621   0.230   3.521   1.367
  908SOL     OW 3622   2.034   1.044   3.043
  908SOL    HW1 3623   2.013   0.951   3.073
  908SOL    HW2 3624   2.113   1.078   3.094
  909SOL     OW 3625   4.299   0.370   1.277
  909SOL    HW1 3626   4.303   0.439   1.349
  909SOL    HW2 3627   4.345   0.287   1.308
  910SOL     OW 3628   1.793   1.579   2.000
  910SOL    HW1 3629   1.710   1.609   2.047
  910SOL    HW2 3630   1.866   1.646   2.015
  911SOL     OW 3631   0.246   4.401   1.401
  911SOL    HW1 3632   0.175   4.451   1.450
  911SOL    HW2 3633   0.318   4.375   1.465
  912SOL     OW 3634   0.926   0.420   6.506
  912SOL    HW1 3635   0.867   0.369   6.444
  912SOL    HW2 3636   1.019   0.382   6.503
  913SOL     OW 3637   2.060   1.384   1.838
  913SOL    HW1 3638   1.962   1.381   1.855
  913SOL    HW2 3639   2.109   1.342   1.914
  914SOL     OW 3640   2.933   5.939   2.795
  914SOL    HW1 3641   3.018   5.920   2.746
  914SOL    HW2 3642   2.904   5.857   2.845
  915SOL     OW 3643   1.403   2.792   6.980
  915SOL    HW1 3644   1.369   2.698   6.971
  915SOL    HW2 3645   1.328   2.856   6.968
  916SOL     OW 3646   1.220   3.293   2.463
  916SOL    HW1 3647   1.235   3.234   2.542
  916SOL    HW2 3648   1.232   3.388   2.490
  917SOL     OW 3649   3.704   2.202   6.883
  917SOL    HW1 3650   3.658   2.286   6.913
  917SOL    HW2 3651   3.657   2.166   6.803
  918SOL     OW 3652   1.171   0.792   5.669
  918SOL    HW1 3653   1.178   0.692   5.672
  918SOL    HW2 3654   1.110   0.824   5.742
  919SOL     OW 3655   1.856   0.237   1.072
  919SOL    HW1 3656   1.816   0.151   1.103
  919SOL    HW2 3657   1.881   0.293   1.151
  920SOL     OW 3658   1.896   0.982   3.401
  920SOL    HW1 3659   1.960   0.967   3.477
  920SOL    HW2 3660   1.903   1.077   3.371
  921SOL     OW 3661   4.504   4.483   6.586
  921SOL    HW1 3662   4.504   4.552   6.513
  921SOL    HW2 3663   4.483   4.528   6.673
  922SOL     OW 3664   1.940   4.009   6.369
  922SOL    HW1 3665   2.008   3.943   6.337
  922SOL    HW2 3666   1.944   4.091   6.311
  923SOL     OW 3667   3.804   1.284   6.525
  923SOL    HW1 3668   3.877   1.287   6.593
  923SOL    HW2 3669   3.844   1.289   6.433
  924SOL     OW 3670   6.565   4.520   2.997
  924SOL    HW1 3671   6.645   4.504   3.055
  924SOL    HW2 3672   6.483   4.486   3.043
  925SOL     OW 3673   6.846   1.860   2.783
  925SOL    HW1 3674   6.904   1.783   2.810
  925SOL    HW2 3675   6.874   1.942   2.833
  926SOL     OW 3676   5.595   6.162   0.926
  926SOL    HW1 3677   5.535   6.137   1.002
  926SOL    HW2 3678   5.559   6.123   0.841
  927SOL     OW 3679   5.112   5.082   4.901
  927SOL    HW1 3680   5.193   5.123   4.943
  927SOL    HW2 3681   5.039   5.074   4.969
  928SOL     OW 3682   0.513   1.357   1.214
  928SOL    HW1 3683   0.589   1.420   1.195
  928SOL    HW2 3684   0.546   1.263   1.212
  929SOL     OW 3685   0.532   2.440   2.363
  929SOL    HW1 3686   0.510   2.375   2.436
  929SOL    HW2 3687   0.612   2.407   2.313
  930SOL     OW 3688   5.614   5.439   2.938
  930SOL    HW1 3689   5.613   5.344   2.908
  930SOL    HW2 3690   5.524   5.480   2.923
  931SOL     OW 3691   1.781   2.948   2.139
  931SOL    HW1 3692   1.704   2.921   2.198
  931SOL    HW2 3693   1.833   2.867   2.114
  932SOL     OW 3694   4.705   6.541   1.335
  932SOL    HW1 3695   4.794   6.571   1.302
  932SOL    HW2 3696   4.717   6.481   1.415
  933SOL     OW 3697   1.723   5.651   4.103
  933SOL    HW1 3698   1.669   5.705   4.167
  933SOL    HW2 3699   1.804   5.614   4.150
  934SOL     OW 3700   3.105   0.677   5.666
  934SOL    HW1 3701   3.203   0.681   5.685
  934SOL    HW2 3702   3.087   0.712   5.574
  935SOL     OW 3703   1.868   3.363   6.413
  935SOL    HW1 3704   1.794   3.360   6.480
  935SOL    HW2 3705   1.859   3.285   6.350
  936SOL     OW 3706   0.313   1.802   1.660
  936SOL    HW1 3707   0.299   1.704   1.671
  936SOL    HW2 3708   0.226   1.850   1.672
  937SOL     OW 3709   5.371   2.055   3.573
  937SOL    HW1 3710   5.377   2.022   3.479
  937SOL    HW2 3711   5.313   2.137   3.576
  938SOL     OW 3712   6.294   1.702   0.190
  938SOL    HW1 3713   6.341   1.783   0.155
  938SOL    HW2 3714   6.277   1.638   0.115
  939SOL     OW 3715   6.376   0.628   5.610
  939SOL    HW1 3716   6.384   0.670   5.520
  939SOL    HW2 3717   6.461   0.581   5.633
  940SOL     OW 3718   0.562   0.408   4.060
  940SOL    HW1 3719   0.526   0.390   4.152
  940SOL    HW2 3720   0.510   0.482   4.018
  941SOL     OW 3721   5.820   2.889   4.954
  941SOL    HW1 3722   5.747   2.821   4.954
  941SOL    HW2 3723   5.785   2.975   4.917
  942SOL     OW 3724   4.323   0.679   5.153
  942SOL    HW1 3725   4.249   0.645   5.095
  942SOL    HW2 3726   4.399   0.613   5.153
  943SOL     OW 3727   5.635   2.137   6.853
  943SOL    HW1 3728   5.627   2.059   6.914
  943SOL    HW2 3729   5.649   2.220   6.907
  944SOL     OW 3730   5.358   3.673   4.665
  944SOL    HW1 3731   5.301   3.754   4.675
  944SOL    HW2 3732   5.452   3.701   4.646
  945SOL     OW 3733   5.409   3.610   5.178
  945SOL    HW1 3734   5.404   3.693   5.122
  945SOL    HW2 3735   5.317   3.581   5.202
  946SOL     OW 3736   5.564   3.091   6.257
  946SOL    HW1 3737   5.568   3.113   6.160
  946SOL    HW2 3738   5.656   3.071   6.291
  947SOL     OW 3739   1.197   2.454   5.250
  947SOL    HW1 3740   1.115   2.495   5.210
  947SOL    HW2 3741   1.256   2.419   5.177
  948SOL     OW 3742   4.066   1.714   0.785
  948SOL    HW1 3743   4.008   1.794   0.796
  948SOL    HW2 3744   4.032   1.639   0.842
  949SOL     OW 3745   5.605   5.607   6.762
  949SOL    HW1 3746   5.603   5.707   6.753
  949SOL    HW2 3747   5.679   5.570   6.704
  950SOL     OW 3748   3.633   5.529   0.603
  950SOL    HW1 3749   3.696   5.451   0.612
  950SOL    HW2 3750   3.563   5.524   0.674
  951SOL     OW 3751   0.465   2.537   3.469
  951SOL    HW1 3752   0.418   2.461   3.515
  951SOL    HW2 3753   0.521   2.501   3.394
  952SOL     OW 3754   5.167   0.880   1.247
  952SOL    HW1 3755   5.141   0.977   1.242
  952SOL    HW2 3756   5.187   0.856   1.342
  953SOL     OW 3757   3.702   6.461   5.772
  953SOL    HW1 3758   3.656   6.373   5.786
  953SOL    HW2 3759   3.633   6.533   5.764
  954SOL     OW 3760   0.168   6.861   1.492
  954SOL    HW1 3761   0.154   6.765   1.466
  954SOL    HW2 3762   0.113   6.920   1.433
  955SOL     OW 3763   6.952   6.894   2.506
  955SOL    HW1 3764   6.928   6.968   2.443
  955SOL    HW2 3765   6.888   6.818   2.494
  956SOL     OW 3766   0.967   2.739   0.044
  956SOL    HW1 3767   0.952   2.641   0.062
  956SOL    HW2 3768   1.025   2.748   6.990
  957SOL     OW 3769   2.394   6.506   4.810
  957SOL    HW1 3770   2.374   6.506   4.712
  957SOL    HW2 3771   2.487   6.542   4.824
  958SOL     OW 3772   4.857   1.947   0.456
  958SOL    HW1 3773   4.775   1.922   0.509
  958SOL    HW2 3774   4.938   1.938   0.514
  959SOL     OW 3775   1.454   3.843   2.086
  959SOL    HW1 3776   1.469   3.922   2.145
  959SOL    HW2 3777   1.430   3.764   2.142
  960SOL     OW 3778   1.487   5.496   5.681
  960SOL    HW1 3779   1.409   5.453   5.636
  960SOL    HW2 3780   1.520   5.436   5.755
  961SOL     OW 3781   3.450   6.857   1.079
  961SOL    HW1 3782   3.428   6.783   1.142
  961SOL    HW2 3783   3.392   6.936   1.099
  962SOL     OW 3784   1.751   6.160   4.023
  962SOL    HW1 3785   1.723   6.093   3.954
  962SOL    HW2 3786   1.822   6.220   3.986
  963SOL     OW 3787   5.863   0.057   2.363
  963SOL    HW1 3788   5.958   0.051   2.396
  963SOL    HW2 3789   5.816   6.997   2.379
  964SOL     OW 3790   5.213   3.558   1.025
  964SOL    HW1 3791   5.247   3.543   0.932
  964SOL    HW2 3792   5.137   3.623   1.023
  965SOL     OW 3793   1.517   2.251   0.529
  965SOL    HW1 3794   1.588   2.184   0.506
  965SOL    HW2 3795   1.560   2.338   0.553
  966SOL     OW 3796   6.813   2.619   1.588
  966SOL    HW1 3797   6.864   2.680   1.527
  966SOL    HW2 3798   6.873   2.586   1.661
  967SOL     OW 3799   1.174   5.908   2.345
  967SOL    HW1 3800   1.223   5.825   2.317
  967SOL    HW2 3801   1.153   5.903   2.443
  968SOL     OW 3802   6.552   4.448   1.641
  968SOL    HW1 3803   6.578   4.417   1.550
  968SOL    HW2 3804   6.549   4.369   1.704
  969SOL     OW 3805   3.969   6.324   6.932
  969SOL    HW1 3806   4.028   6.360   7.004
  969SOL    HW2 3807   3.986   6.226   6.920
  970SOL     OW 3808   4.466   2.370   5.300
  970SOL    HW1 3809   4.561   2.359   5.271
  970SOL    HW2 3810   4.460   2.367   5.399
  971SOL     OW 3811   0.416   2.822   0.712
  971SOL    HW1 3812   0.327   2.794   0.676
  971SOL    HW2 3813   0.478   2.840   0.636
  972SOL     OW 3814   6.136   5.881   1.175
  972SOL    HW1 3815   6.039   5.858   1.166
  972SOL    HW2 3816   6.155   5.907   1.270
  973SOL     OW 3817   5.652   3.923   5.143
  973SOL    HW1 3818   5.599   3.875   5.212
  973SOL    HW2 3819   5.661   4.020   5.168
  974SOL     OW 3820   3.094   1.548   4.445
  974SOL    HW1 3821   3.099   1.598   4.532
  974SOL    HW2 3822   3.178   1.563   4.393
  975SOL     OW 3823   3.407   6.459   5.455
  975SOL    HW1 3824   3.496   6.430   5.420
  975SOL    HW2 3825   3.361   6.381   5.497
  976SOL     OW 3826   0.119   6.394   3.837
  976SOL    HW1 3827   0.058   6.321   3.808
  976SOL    HW2 3828   0.180   6.419   3.761
  977SOL     OW 3829   1.655   2.537   2.219
  977SOL    HW1 3830   1.662   2.448   2.265
  977SOL    HW2 3831   1.566   2.544   2.174
  978SOL     OW 3832   5.775   3.192   4.239
  978SOL    HW1 3833   5.766   3.093   4.244
  978SOL    HW2 3834   5.866   3.215   4.204
  979SOL     OW 3835   5.965   1.670   3.316
  979SOL    HW1 3836   5.973   1.741   3.247
  979SOL    HW2 3837   6.003   1.584   3.282
  980SOL     OW 3838   6.520   0.744   4.729
  980SOL    HW1 3839   6.607   0.726   4.682
  980SOL    HW2 3840   6.537   0.753   4.827
  981SOL     OW 3841   6.678   3.570   5.030
  981SOL    HW1 3842   6.735   3.535   4.956
  981SOL    HW2 3843   6.582   3.550   5.010
  982SOL     OW 3844   1.750   2.598   1.359
  982SOL    HW1 3845   1.701   2.653   1.427
  982SOL    HW2 3846   1.848   2.611   1.370
  983SOL     OW 3847   6.144   1.686   2.649
  983SOL    HW1 3848   6.180   1.655   2.737
  983SOL    HW2 3849   6.155   1.614   2.581
  984SOL     OW 3850   4.857   1.900   5.002
  984SOL    HW1 3851   4.867   1.828   4.933
  984SOL    HW2 3852   4.900   1.870   5.087
  985SOL     OW 3853   2.896   5.015   1.308
  985SOL    HW1 3854   2.890   4.918   1.330
  985SOL    HW2 3855   2.932   5.065   1.386
  986SOL     OW 3856   4.077   5.138   6.518
  986SOL    HW1 3857   4.028   5.163   6.434
  986SOL    HW2 3858   4.054   5.202   6.591
  987SOL     OW 3859   3.438   6.764   2.220
  987SOL    HW1 3860   3.526   6.802   2.190
  987SOL    HW2 3861   3.407   6.814   2.301
  988SOL     OW 3862   3.466   3.901   1.937
  988SOL    HW1 3863   3.493   3.959   2.015
  988SOL    HW2 3864   3.438   3.811   1.971
  989SOL     OW 3865   0.507   6.699   4.702
  989SOL    HW1 3866   0.409   6.679   4.701
  989SOL    HW2 3867   0.558   6.615   4.686
  990SOL     OW 3868   5.074   6.077   3.137
  990SOL    HW1 3869   5.053   6.108   3.045
  990SOL    HW2 3870   5.119   6.151   3.188
  991SOL     OW 3871   6.664   1.639   4.982
  991SOL    HW1 3872   6.704   1.552   4.951
  991SOL    HW2 3873   6.718   1.676   5.057
  992SOL     OW 3874   0.004   2.811   1.082
  992SOL    HW1 3875   0.074   2.839   1.148
  992SOL    HW2 3876   7.001   2.890   1.029
  993SOL     OW 3877   3.441   5.272   4.046
  993SOL    HW1 3878   3.363   5.250   4.105
  993SOL    HW2 3879   3.524   5.230   4.083
  994SOL     OW 3880   2.891   3.572   2.053
  994SOL    HW1 3881   2.795   3.597   2.046
  994SOL    HW2 3882   2.912   3.497   1.990
  995SOL     OW 3883   0.157   0.933   4.750
  995SOL    HW1 3884   0.086   0.862   4.748
  995SOL    HW2 3885   0.118   1.017   4.787
  996SOL     OW 3886   1.262   3.784   1.393
  996SOL    HW1 3887   1.208   3.832   1.462
  996SOL    HW2 3888   1.319   3.850   1.343
  997SOL     OW 3889   0.198   0.811   1.038
  997SOL    HW1 3890   0.226   0.793   1.132
  997SOL    HW2 3891   0.225   0.734   0.980
  998SOL     OW 3892   4.813   0.246   3.729
  998SOL    HW1 3893   4.780   0.174   3.669
  998SOL    HW2 3894   4.874   0.307   3.678
  999SOL     OW 3895   6.822   5.406   1.718
  999SOL    HW1 3896   6.733   5.385   1.678
  999SOL    HW2 3897   6.812   5.480   1.784
 1000SOL     OW 3898   4.130   2.261   4.135
 1000SOL    HW1 3899   4.202   2.329   4.153
 1000SOL    HW2 3900   4.110   2.258   4.037
 1001SOL     OW 3901   4.289   0.590   5.728
 1001SOL    HW1 3902   4.328   0.647   5.655
 1001SOL    HW2 3903   4.190   0.603   5.731
 1002SOL     OW 3904   6.837   1.262   0.364
 1002SOL    HW1 3905   6.838   1.176   0.415
 1002SOL    HW2 3906   6.877   1.334   0.421
 1003SOL     OW 3907   4.741   4.658   3.017
 1003SOL    HW1 3908   4.746   4.561   3.044
 1003SOL    HW2 3909   4.805   4.675   2.942
 1004SOL     OW 3910   5.711   5.510   0.901
 1004SOL    HW1 3911   5.620   5.522   0.861
 1004SOL    HW2 3912   5.702   5.488   0.998
 1005SOL     OW 3913   6.601   6.069   3.911
 1005SOL    HW1 3914   6.591   6.098   4.006
 1005SOL    HW2 3915   6.511   6.060   3.869
 1006SOL     OW 3916   2.372   4.423   0.962
 1006SOL    HW1 3917   2.349   4.402   0.867
 1006SOL    HW2 3918   2.403   4.339   1.008
 1007SOL     OW 3919   1.257   0.512   3.652
 1007SOL    HW1 3920   1.327   0.516   3.724
 1007SOL    HW2 3921   1.290   0.558   3.570
 1008SOL     OW 3922   2.802   2.287   4.216
 1008SOL    HW1 3923   2.734   2.262   4.285
 1008SOL    HW2 3924   2.780   2.378   4.179
 1009SOL     OW 3925   1.836   5.461   4.802
 1009SOL    HW1 3926   1.758   5.400   4.815
 1009SOL    HW2 3927   1.884   5.473   4.889
 1010SOL     OW 3928   4.243   0.974   6.625
 1010SOL    HW1 3929   4.320   1.029   6.594
 1010SOL    HW2 3930   4.160   1.001   6.577
 1011SOL     OW 3931   3.154   5.674   4.037
 1011SOL    HW1 3932   3.125   5.715   4.123
 1011SOL    HW2 3933   3.074   5.656   3.980
 1012SOL     OW 3934   4.596   5.819   0.057
 1012SOL    HW1 3935   4.692   5.846   0.067
 1012SOL    HW2 3936   4.539   5.901   0.055
 1013SOL     OW 3937   6.961   1.351   1.031
 1013SOL    HW1 3938   6.962   1.449   1.051
 1013SOL    HW2 3939   0.025   1.313   1.046
 1014SOL     OW 3940   5.362   0.612   6.636
 1014SOL    HW1 3941   5.376   0.670   6.556
 1014SOL    HW2 3942   5.271   0.572   6.633
 1015SOL     OW 3943   2.992   6.106   4.279
 1015SOL    HW1 3944   3.067   6.041   4.294
 1015SOL    HW2 3945   3.013   6.192   4.327
 1016SOL     OW 3946   4.782   2.552   1.640
 1016SOL    HW1 3947   4.692   2.533   1.600
 1016SOL    HW2 3948   4.774   2.624   1.709
 1017SOL     OW 3949   4.714   2.028   6.990
 1017SOL    HW1 3950   4.728   1.931   7.009
 1017SOL    HW2 3951   4.712   2.043   6.891
 1018SOL     OW 3952   1.571   2.882   1.941
 1018SOL    HW1 3953   1.473   2.874   1.958
 1018SOL    HW2 3954   1.614   2.932   2.017
 1019SOL     OW 3955   6.246   0.733   0.230
 1019SOL    HW1 3956   6.150   0.752   0.250
 1019SOL    HW2 3957   6.290   0.817   0.197
 1020SOL     OW 3958   3.144   2.100   1.088
 1020SOL    HW1 3959   3.232   2.052   1.092
 1020SOL    HW2 3960   3.145   2.177   1.151
 1021SOL     OW 3961   6.361   1.890   0.899
 1021SOL    HW1 3962   6.449   1.851   0.925
 1021SOL    HW2 3963   6.289   1.821   0.911
 1022SOL     OW 3964   3.753   2.668   6.878
 1022SOL    HW1 3965   3.732   2.586   6.932
 1022SOL    HW2 3966   3.723   2.653   6.784
 1023SOL     OW 3967   5.595   1.329   4.342
 1023SOL    HW1 3968   5.533   1.354   4.268
 1023SOL    HW2 3969   5.558   1.360   4.430
 1024SOL     OW 3970   6.276   1.541   3.475
 1024SOL    HW1 3971   6.288   1.580   3.566
 1024SOL    HW2 3972   6.284   1.441   3.481
 1025SOL     OW 3973   2.976   4.354   1.107
 1025SOL    HW1 3974   2.967   4.268   1.157
 1025SOL    HW2 3975   2.972   4.431   1.170
 1026SOL     OW 3976   0.776   3.004   6.699
 1026SOL    HW1 3977   0.752   3.037   6.608
 1026SOL    HW2 3978   0.788   3.081   6.761
 1027SOL     OW 3979   2.611   5.246   2.230
 1027SOL    HW1 3980   2.607   5.336   2.186
 1027SOL    HW2 3981   2.612   5.174   2.161
 1028SOL     OW 3982   1.465   6.049   0.990
 1028SOL    HW1 3983   1.436   6.128   0.937
 1028SOL    HW2 3984   1.405   5.971   0.969
 1029SOL     OW 3985   3.174   0.038   5.400
 1029SOL    HW1 3986   3.251   7.019   5.354
 1029SOL    HW2 3987   3.189   0.038   5.499
 1030SOL     OW 3988   3.397   4.172   5.178
 1030SOL    HW1 3989   3.318   4.209   5.130
 1030SOL    HW2 3990   3.437   4.097   5.125
 1031SOL     OW 3991   2.151   5.447   1.507
 1031SOL    HW1 3992   2.165   5.484   1.415
 1031SOL    HW2 3993   2.184   5.353   1.511
 1032SOL     OW 3994   2.008   1.162   4.642
 1032SOL    HW1 3995   1.987   1.069   4.669
 1032SOL    HW2 3996   1.980   1.176   4.547
 1033SOL     OW 3997   2.599   5.829   3.325
 1033SOL    HW1 3998   2.602   5.890   3.404
 1033SOL    HW2 3999   2.554   5.743   3.351
 1034SOL     OW 4000   1.510   6.424   2.940
 1034SOL    HW1 4001   1.577   6.465   3.002
 1034SOL    HW2 4002   1.434   6.387   2.993
 1035SOL     OW 4003   2.968   0.641   3.985
 1035SOL    HW1 4004   2.872   0.658   4.006
 1035SOL    HW2 4005   3.025   0.693   4.049
 1036SOL     OW 4006   3.959   0.188   6.529
 1036SOL    HW1 4007   4.039   0.173   6.588
 1036SOL    HW2 4008   3.972   0.272   6.476
 1037SOL     OW 4009   2.857   1.769   6.363
 1037SOL    HW1 4010   2.765   1.742   6.393
 1037SOL    HW2 4011   2.897   1.833   6.430
 1038SOL     OW 4012   2.990   1.327   4.781
 1038SOL    HW1 4013   2.966   1.376   4.865
 1038SOL    HW2 4014   2.911   1.327   4.719
 1039SOL     OW 4015   4.223   1.479   3.741
 1039SOL    HW1 4016   4.225   1.578   3.751
 1039SOL    HW2 4017   4.129   1.449   3.722
 1040SOL     OW 4018   6.264   3.257   3.961
 1040SOL    HW1 4019   6.208   3.324   3.911
 1040SOL    HW2 4020   6.360   3.268   3.934
 1041SOL     OW 4021   1.401   6.869   4.297
 1041SOL    HW1 4022   1.469   6.837   4.363
 1041SOL    HW2 4023   1.390   6.968   4.305
 1042SOL     OW 4024   4.845   3.854   1.149
 1042SOL    HW1 4025   4.906   3.820   1.220
 1042SOL    HW2 4026   4.844   3.954   1.151
 1043SOL     OW 4027   3.331   0.473   6.530
 1043SOL    HW1 4028   3.406   0.413   6.503
 1043SOL    HW2 4029   3.342   0.501   6.625
 1044SOL     OW 4030   3.718   4.174   1.888
 1044SOL    HW1 4031   3.772   4.093   1.866
 1044SOL    HW2 4032   3.681   4.213   1.804
 1045SOL     OW 4033   3.950   1.523   3.420
 1045SOL    HW1 4034   3.960   1.616   3.456
 1045SOL    HW2 4035   3.878   1.521   3.350
 1046SOL     OW 4036   3.940   1.137   2.375
 1046SOL    HW1 4037   3.981   1.072   2.311
 1046SOL    HW2 4038   3.990   1.134   2.462
 1047SOL     OW 4039   0.170   5.259   2.153
 1047SOL    HW1 4040   0.150   5.215   2.066
 1047SOL    HW2 4041   0.217   5.346   2.136
 1048SOL     OW 4042   6.418   4.742   5.019
 1048SOL    HW1 4043   6.331   4.697   5.037
 1048SOL    HW2 4044   6.457   4.775   5.105
 1049SOL     OW 4045   0.547   3.410   5.154
 1049SOL    HW1 4046   0.630   3.379   5.108
 1049SOL    HW2 4047   0.508   3.335   5.208
 1050SOL     OW 4048   3.549   0.515   0.105
 1050SOL    HW1 4049   3.578   0.557   0.191
 1050SOL    HW2 4050   3.451   0.497   0.107
 1051SOL     OW 4051   5.072   5.258   2.304
 1051SOL    HW1 4052   5.132   5.319   2.253
 1051SOL    HW2 4053   5.014   5.311   2.365
 1052SOL     OW 4054   3.401   0.000   4.049
 1052SOL    HW1 4055   3.467   0.030   4.118
 1052SOL    HW2 4056   3.397   0.067   3.975
 1053SOL     OW 4057   4.049   4.801   3.194
 1053SOL    HW1 4058   3.951   4.783   3.187
 1053SOL    HW2 4059   4.069   4.890   3.154
 1054SOL     OW 4060   3.659   6.143   4.388
 1054SOL    HW1 4061   3.631   6.071   4.325
 1054SOL    HW2 4062   3.753   6.169   4.370
 1055SOL     OW 4063   4.562   5.577   4.477
 1055SOL    HW1 4064   4.564   5.477   4.465
 1055SOL    HW2 4065   4.519   5.598   4.565
 1056SOL     OW 4066   1.629   5.732   5.629
 1056SOL    HW1 4067   1.597   5.645   5.667
 1056SOL    HW2 4068   1.685   5.715   5.548
 1057SOL     OW 4069   3.643   4.237   1.123
 1057SOL    HW1 4070   3.592   4.174   1.183
 1057SOL    HW2 4071   3.673   4.188   1.041
 1058SOL     OW 4072   3.305   0.380   1.389
 1058SOL    HW1 4073   3.208   0.388   1.365
 1058SOL    HW2 4074   3.341   0.293   1.353
 1059SOL     OW 4075   3.296   1.323   0.917
 1059SOL    HW1 4076   3.224   1.314   0.848
 1059SOL    HW2 4077   3.260   1.295   1.006
 1060SOL     OW 4078   2.477   2.051   4.595
 1060SOL    HW1 4079   2.439   2.072   4.506
 1060SOL    HW2 4080   2.423   2.096   4.666
 1061SOL     OW 4081   3.181   5.998   1.645
 1061SOL    HW1 4082   3.251   6.069   1.650
 1061SOL    HW2 4083   3.198   5.940   1.565
 1062SOL     OW 4084   4.915   4.362   5.390
 1062SOL    HW1 4085   4.822   4.332   5.372
 1062SOL    HW2 4086   4.930   4.367   5.489
 1063SOL     OW 4087   1.729   3.197   5.576
 1063SOL    HW1 4088   1.645   3.187   5.629
 1063SOL    HW2 4089   1.764   3.290   5.585
 1064SOL     OW 4090   0.119   3.761   1.630
 1064SOL    HW1 4091   0.157   3.853   1.617
 1064SOL    HW2 4092   0.069   3.734   1.547
 1065SOL     OW 4093   4.918   5.141   5.071
 1065SOL    HW1 4094   4.993   5.156   5.135
 1065SOL    HW2 4095   4.837   5.191   5.102
 1066SOL     OW 4096   4.139   0.378   3.737
 1066SOL    HW1 4097   4.183   0.363   3.648
 1066SOL    HW2 4098   4.184   0.455   3.783
 1067SOL     OW 4099   2.029   3.397   1.088
 1067SOL    HW1 4100   2.076   3.482   1.110
 1067SOL    HW2 4101   2.093   3.335   1.042
 1068SOL     OW 4102   0.646   4.365   0.862
 1068SOL    HW1 4103   0.566   4.416   0.830
 1068SOL    HW2 4104   0.617   4.276   0.897
 1069SOL     OW 4105   3.752   4.081   1.462
 1069SOL    HW1 4106   3.731   4.032   1.547
 1069SOL    HW2 4107   3.668   4.096   1.411
 1070SOL     OW 4108   1.959   0.271   0.546
 1070SOL    HW1 4109   1.961   0.217   0.631
 1070SOL    HW2 4110   2.053   0.291   0.517
 1071SOL     OW 4111   4.501   6.129   3.840
 1071SOL    HW1 4112   4.448   6.056   3.798
 1071SOL    HW2 4113   4.578   6.153   3.780
 1072SOL     OW 4114   3.933   5.670   3.107
 1072SOL    HW1 4115   3.985   5.639   3.028
 1072SOL    HW2 4116   3.898   5.762   3.091
 1073SOL     OW 4117   2.772   5.242   3.213
 1073SOL    HW1 4118   2.758   5.335   3.249
 1073SOL    HW2 4119   2.855   5.241   3.157
 1074SOL     OW 4120   1.697   5.160   1.861
 1074SOL    HW1 4121   1.657   5.081   1.907
 1074SOL    HW2 4122   1.797   5.157   1.871
 1075SOL     OW 4123   0.569   4.009   2.835
 1075SOL    HW1 4124   0.645   4.025   2.773
 1075SOL    HW2 4125   0.527   4.096   2.860
 1076SOL     OW 4126   0.039   4.174   2.839
 1076SOL    HW1 4127   0.019   4.094   2.782
 1076SOL    HW2 4128   7.012   4.252   2.807
 1077SOL     OW 4129   4.999   1.065   1.014
 1077SOL    HW1 4130   4.970   1.016   0.932
 1077SOL    HW2 4131   4.929   1.058   1.085
 1078SOL     OW 4132   1.133   3.364   1.265
 1078SOL    HW1 4133   1.171   3.407   1.346
 1078SOL    HW2 4134   1.099   3.434   1.202
 1079SOL     OW 4135   2.551   5.494   3.042
 1079SOL    HW1 4136   2.536   5.592   3.025
 1079SOL    HW2 4137   2.486   5.441   2.988
 1080SOL     OW 4138   1.585   5.836   4.246
 1080SOL    HW1 4139   1.572   5.853   4.343
 1080SOL    HW2 4140   1.514   5.883   4.194
 1081SOL     OW 4141   1.483   1.609   0.450
 1081SOL    HW1 4142   1.438   1.698   0.464
 1081SOL    HW2 4143   1.568   1.622   0.399
 1082SOL     OW 4144   2.227   6.729   0.295
 1082SOL    HW1 4145   2.276   6.776   0.368
 1082SOL    HW2 4146   2.169   6.794   0.246
 1083SOL     OW 4147   4.012   2.454   1.611
 1083SOL    HW1 4148   3.984   2.388   1.681
 1083SOL    HW2 4149   3.931   2.494   1.568
 1084SOL     OW 4150   6.516   3.584   0.449
 1084SOL    HW1 4151   6.436   3.532   0.478
 1084SOL    HW2 4152   6.581   3.522   0.404
 1085SOL     OW 4153   1.741   4.452   3.039
 1085SOL    HW1 4154   1.714   4.457   3.135
 1085SOL    HW2 4155   1.782   4.362   3.020
 1086SOL     OW 4156   4.407   5.082   2.300
 1086SOL    HW1 4157   4.362   5.082   2.211
 1086SOL    HW2 4158   4.351   5.031   2.366
 1087SOL     OW 4159   3.883   3.438   5.190
 1087SOL    HW1 4160   3.784   3.431   5.197
 1087SOL    HW2 4161   3.923   3.347   5.180
 1088SOL     OW 4162   6.013   4.664   3.274
 1088SOL    HW1 4163   6.063   4.745   3.245
 1088SOL    HW2 4164   5.924   4.691   3.311
 1089SOL     OW 4165   6.082   0.107   3.213
 1089SOL    HW1 4166   5.992   0.105   3.170
 1089SOL    HW2 4167   6.089   0.034   3.280
 1090SOL     OW 4168   1.422   2.029   5.503
 1090SOL    HW1 4169   1.395   2.008   5.596
 1090SOL    HW2 4170   1.383   2.116   5.475
 1091SOL     OW 4171   1.262   2.826   5.147
 1091SOL    HW1 4172   1.246   2.854   5.052
 1091SOL    HW2 4173   1.360   2.813   5.162
 1092SOL     OW 4174   1.955   4.488   0.986
 1092SOL    HW1 4175   1.862   4.503   0.954
 1092SOL    HW2 4176   1.958   4.411   1.048
 1093SOL     OW 4177   0.431   1.899   2.454
 1093SOL    HW1 4178   0.456   1.809   2.418
 1093SOL    HW2 4179   0.331   1.908   2.454
 1094SOL     OW 4180   0.801   6.197   2.158
 1094SOL    HW1 4181   0.755   6.111   2.137
 1094SOL    HW2 4182   0.858   6.185   2.239
 1095SOL     OW 4183   5.863   3.499   6.047
 1095SOL    HW1 4184   5.949   3.458   6.015
 1095SOL    HW2 4185   5.790   3.480   5.982
 1096SOL     OW 4186   3.442   4.182   1.638
 1096SOL    HW1 4187   3.496   4.098   1.646
 1096SOL    HW2 4188   3.503   4.261   1.648
 1097SOL     OW 4189   1.792   4.666   5.124
 1097SOL    HW1 4190   1.700   4.655   5.162
 1097SOL    HW2 4191   1.857   4.683   5.198
 1098SOL     OW 4192   4.189   1.055   3.028
 1098SOL    HW1 4193   4.092   1.035   3.021
 1098SOL    HW2 4194   4.213   1.131   2.968
 1099SOL     OW 4195   4.160   1.453   2.675
 1099SOL    HW1 4196   4.113   1.540   2.661
 1099SOL    HW2 4197   4.127   1.411   2.760
 1100SOL     OW 4198   0.427   0.548   0.287
 1100SOL    HW1 4199   0.424   0.502   0.198
 1100SOL    HW2 4200   0.374   0.495   0.353
 1101SOL     OW 4201   5.926   3.113   0.834
 1101SOL    HW1 4202   5.880   3.044   0.890
 1101SOL    HW2 4203   5.878   3.200   0.841
 1102SOL     OW 4204   0.396   4.203   3.862
 1102SOL    HW1 4205   0.420   4.286   3.911
 1102SOL    HW2 4206   0.312   4.217   3.809
 1103SOL     OW 4207   0.767   3.234   1.184
 1103SOL    HW1 4208   0.762   3.217   1.086
 1103SOL    HW2 4209   0.842   3.179   1.223
 1104SOL     OW 4210   2.733   5.610   6.102
 1104SOL    HW1 4211   2.691   5.605   6.011
 1104SOL    HW2 4212   2.768   5.702   6.118
 1105SOL     OW 4213   4.315   5.301   0.528
 1105SOL    HW1 4214   4.330   5.397   0.502
 1105SOL    HW2 4215   4.218   5.280   0.525
 1106SOL     OW 4216   1.436   0.783   5.839
 1106SOL    HW1 4217   1.496   0.717   5.793
 1106SOL    HW2 4218   1.353   0.796   5.784
 1107SOL     OW 4219   0.776   6.601   1.600
 1107SOL    HW1 4220   0.795   6.667   1.527
 1107SOL    HW2 4221   0.681   6.572   1.595
 1108SOL     OW 4222   1.359   0.979   6.510
 1108SOL    HW1 4223   1.272   1.025   6.489
 1108SOL    HW2 4224   1.427   1.047   6.535
 1109SOL     OW 4225   4.871   1.346   3.767
 1109SOL    HW1 4226   4.838   1.251   3.767
 1109SOL    HW2 4227   4.957   1.352   3.818
 1110SOL     OW 4228   3.529   2.762   1.912
 1110SOL    HW1 4229   3.552   2.675   1.869
 1110SOL    HW2 4230   3.597   2.831   1.886
 1111SOL     OW 4231   5.472   0.036   6.633
 1111SOL    HW1 4232   5.482   7.008   6.550
 1111SOL    HW2 4233   5.511   0.127   6.618
 1112SOL     OW 4234   0.727   1.257   3.227
 1112SOL    HW1 4235   0.688   1.165   3.231
 1112SOL    HW2 4236   0.825   1.252   3.242
 1113SOL     OW 4237   6.006   3.785   2.213
 1113SOL    HW1 4238   6.101   3.754   2.210
 1113SOL    HW2 4239   6.002   3.874   2.260
 1114SOL     OW 4240   6.193   1.542   5.848
 1114SOL    HW1 4241   6.144   1.629   5.838
 1114SOL    HW2 4242   6.288   1.561   5.875
 1115SOL     OW 4243   3.078   3.974   0.523
 1115SOL    HW1 4244   3.079   3.903   0.452
 1115SOL    HW2 4245   3.104   4.062   0.483
 1116SOL     OW 4246   3.700   6.031   6.089
 1116SOL    HW1 4247   3.633   5.956   6.079
 1116SOL    HW2 4248   3.752   6.017   6.173
 1117SOL     OW 4249   2.582   3.202   0.561
 1117SOL    HW1 4250   2.515   3.255   0.613
 1117SOL    HW2 4251   2.537   3.158   0.483
 1118SOL     OW 4252   1.631   3.399   2.733
 1118SOL    HW1 4253   1.563   3.350   2.787
 1118SOL    HW2 4254   1.610   3.391   2.636
 1119SOL     OW 4255   3.012   3.106   2.417
 1119SOL    HW1 4256   2.945   3.035   2.400
 1119SOL    HW2 4257   2.985   3.190   2.370
 1120SOL     OW 4258   4.988   0.541   4.634
 1120SOL    HW1 4259   5.076   0.578   4.664
 1120SOL    HW2 4260   5.000   0.447   4.602
 1121SOL     OW 4261   5.237   3.192   2.226
 1121SOL    HW1 4262   5.152   3.243   2.239
 1121SOL    HW2 4263   5.259   3.189   2.128
 1122SOL     OW 4264   4.707   5.120   0.350
 1122SOL    HW1 4265   4.682   5.156   0.261
 1122SOL    HW2 4266   4.627   5.081   0.395
 1123SOL     OW 4267   3.896   0.881   1.963
 1123SOL    HW1 4268   3.943   0.842   2.042
 1123SOL    HW2 4269   3.960   0.886   1.886
 1124SOL     OW 4270   0.694   4.765   4.858
 1124SOL    HW1 4271   0.609   4.728   4.820
 1124SOL    HW2 4272   0.757   4.689   4.876
 1125SOL     OW 4273   3.543   3.533   4.673
 1125SOL    HW1 4274   3.580   3.496   4.588
 1125SOL    HW2 4275   3.588   3.489   4.751
 1126SOL     OW 4276   6.124   0.057   2.446
 1126SOL    HW1 4277   6.152   7.014   2.380
 1126SOL    HW2 4278   6.143   0.025   2.539
 1127SOL     OW 4279   1.417   5.056   6.495
 1127SOL    HW1 4280   1.460   4.992   6.431
 1127SOL    HW2 4281   1.488   5.099   6.552
 1128SOL     OW 4282   2.544   1.695   3.954
 1128SOL    HW1 4283   2.572   1.765   4.019
 1128SOL    HW2 4284   2.624   1.659   3.907
 1129SOL     OW 4285   4.780   0.233   6.452
 1129SOL    HW1 4286   4.879   0.228   6.441
 1129SOL    HW2 4287   4.757   0.237   6.549
 1130SOL     OW 4288   6.933   4.993   5.831
 1130SOL    HW1 4289   6.886   4.912   5.798
 1130SOL    HW2 4290   6.878   5.075   5.813
 1131SOL     OW 4291   0.419   5.217   5.735
 1131SOL    HW1 4292   0.459   5.199   5.645
 1131SOL    HW2 4293   0.396   5.130   5.779
 1132SOL     OW 4294   4.765   0.437   4.871
 1132SOL    HW1 4295   4.826   0.469   4.799
 1132SOL    HW2 4296   4.814   0.435   4.958
 1133SOL     OW 4297   0.243   2.366   0.633
 1133SOL    HW1 4298   0.314   2.394   0.697
 1133SOL    HW2 4299   0.277   2.376   0.539
 1134SOL     OW 4300   6.569   2.446   6.009
 1134SOL    HW1 4301   6.626   2.381   6.059
 1134SOL    HW2 4302   6.615   2.534   6.004
 1135SOL     OW 4303   5.538   1.767   3.544
 1135SOL    HW1 4304   5.591   1.843   3.581
 1135SOL    HW2 4305   5.443   1.774   3.577
 1136SOL     OW 4306   3.754   5.404   4.456
 1136SOL    HW1 4307   3.811   5.399   4.539
 1136SOL    HW2 4308   3.803   5.362   4.380
 1137SOL     OW 4309   1.416   0.758   6.142
 1137SOL    HW1 4310   1.331   0.796   6.178
 1137SOL    HW2 4311   1.419   0.768   6.043
 1138SOL     OW 4312   0.381   4.466   5.376
 1138SOL    HW1 4313   0.405   4.563   5.380
 1138SOL    HW2 4314   0.434   4.421   5.305
 1139SOL     OW 4315   0.786   6.100   1.406
 1139SOL    HW1 4316   0.693   6.137   1.404
 1139SOL    HW2 4317   0.845   6.154   1.346
 1140SOL     OW 4318   3.717   1.669   3.688
 1140SOL    HW1 4319   3.784   1.681   3.761
 1140SOL    HW2 4320   3.743   1.724   3.609
 1141SOL     OW 4321   6.647   6.003   5.819
 1141SOL    HW1 4322   6.726   6.009   5.759
 1141SOL    HW2 4323   6.645   6.082   5.880
 1142SOL     OW 4324   5.836   0.855   4.225
 1142SOL    HW1 4325   5.758   0.918   4.223
 1142SOL    HW2 4326   5.901   0.881   4.154
 1143SOL     OW 4327   4.079   2.229   2.626
 1143SOL    HW1 4328   3.987   2.191   2.630
 1143SOL    HW2 4329   4.104   2.246   2.531
 1144SOL     OW 4330   1.398   6.838   5.857
 1144SOL    HW1 4331   1.408   6.895   5.939
 1144SOL    HW2 4332   1.480   6.847   5.801
 1145SOL     OW 4333   1.709   5.007   5.192
 1145SOL    HW1 4334   1.677   5.001   5.098
 1145SOL    HW2 4335   1.804   5.037   5.194
 1146SOL     OW 4336   6.207   2.340   0.892
 1146SOL    HW1 4337   6.164   2.291   0.815
 1146SOL    HW2 4338   6.297   2.372   0.864
 1147SOL     OW 4339   6.437   2.825   1.835
 1147SOL    HW1 4340   6.499   2.812   1.757
 1147SOL    HW2 4341   6.366   2.754   1.833
 1148SOL     OW 4342   4.749   0.813   6.895
 1148SOL    HW1 4343   4.836   0.763   6.892
 1148SOL    HW2 4344   4.681   0.765   6.839
 1149SOL     OW 4345   0.005   2.798   2.772
 1149SOL    HW1 4346   6.999   2.742   2.695
 1149SOL    HW2 4347   0.088   2.757   2.810
 1150SOL     OW 4348   0.939   4.968   5.526
 1150SOL    HW1 4349   0.915   5.010   5.614
 1150SOL    HW2 4350   0.922   4.870   5.529
 1151SOL     OW 4351   4.386   5.595   6.991
 1151SOL    HW1 4352   4.302   5.650   6.983
 1151SOL    HW2 4353   4.460   5.652   7.024
 1152SOL     OW 4354   0.257   0.987   4.506
 1152SOL    HW1 4355   0.221   0.966   4.597
 1152SOL    HW2 4356   0.220   0.921   4.440
 1153SOL     OW 4357   2.657   5.045   2.548
 1153SOL    HW1 4358   2.743   5.085   2.579
 1153SOL    HW2 4359   2.673   4.997   2.461
 1154SOL     OW 4360   1.675   4.191   1.948
 1154SOL    HW1 4361   1.691   4.278   1.902
 1154SOL    HW2 4362   1.578   4.182   1.971
 1155SOL     OW 4363   3.818   6.316   2.242
 1155SOL    HW1 4364   3.909   6.274   2.241
 1155SOL    HW2 4365   3.763   6.277   2.167
 1156SOL     OW 4366   1.668   1.094   4.367
 1156SOL    HW1 4367   1.621   1.045   4.441
 1156SOL    HW2 4368   1.716   1.028   4.309
 1157SOL     OW 4369   0.586   2.924   4.171
 1157SOL    HW1 4370   0.625   3.013   4.194
 1157SOL    HW2 4371   0.565   2.874   4.255
 1158SOL     OW 4372   4.601   5.663   6.296
 1158SOL    HW1 4373   4.608   5.727   6.373
 1158SOL    HW2 4374   4.677   5.679   6.233
 1159SOL     OW 4375   5.151   5.557   3.119
 1159SOL    HW1 4376   5.203   5.617   3.180
 1159SOL    HW2 4377   5.171   5.462   3.141
 1160SOL     OW 4378   2.574   2.667   0.476
 1160SOL    HW1 4379   2.549   2.751   0.524
 1160SOL    HW2 4380   2.517   2.591   0.508
 1161SOL     OW 4381   4.165   0.278   4.539
 1161SOL    HW1 4382   4.192   0.200   4.482
 1161SOL    HW2 4383   4.077   0.258   4.583
 1162SOL     OW 4384   3.890   4.663   1.726
 1162SOL    HW1 4385   3.941   4.579   1.706
 1162SOL    HW2 4386   3.954   4.734   1.757
 1163SOL     OW 4387   4.762   1.873   2.319
 1163SOL    HW1 4388   4.674   1.831   2.342
 1163SOL    HW2 4389   4.758   1.971   2.338
 1164SOL     OW 4390   5.518   3.407   3.895
 1164SOL    HW1 4391   5.595   3.471   3.884
 1164SOL    HW2 4392   5.471   3.397   3.808
 1165SOL     OW 4393   1.297   4.704   1.939
 1165SOL    HW1 4394   1.294   4.694   2.038
 1165SOL    HW2 4395   1.392   4.695   1.907
 1166SOL     OW 4396   3.728   2.539   6.601
 1166SOL    HW1 4397   3.723   2.440   6.616
 1166SOL    HW2 4398   3.823   2.569   6.606
 1167SOL     OW 4399   4.569   1.875   4.922
 1167SOL    HW1 4400   4.639   1.927   4.970
 1167SOL    HW2 4401   4.591   1.873   4.824
 1168SOL     OW 4402   6.304   6.488   3.812
 1168SOL    HW1 4403   6.390   6.529   3.782
 1168SOL    HW2 4404   6.254   6.553   3.869
 1169SOL     OW 4405   0.893   4.276   1.292
 1169SOL    HW1 4406   0.955   4.302   1.366
 1169SOL    HW2 4407   0.895   4.177   1.280
 1170SOL     OW 4408   2.954   0.831   0.933
 1170SOL    HW1 4409   2.913   0.918   0.908
 1170SOL    HW2 4410   2.969   0.828   1.032
 1171SOL     OW 4411   2.657   0.406   0.532
 1171SOL    HW1 4412   2.708   0.432   0.614
 1171SOL    HW2 4413   2.700   0.325   0.491
 1172SOL     OW 4414   3.102   3.185   4.787
 1172SOL    HW1 4415   3.130   3.102   4.836
 1172SOL    HW2 4416   3.172   3.255   4.796
 1173SOL     OW 4417   5.299   0.382   6.253
 1173SOL    HW1 4418   5.321   0.367   6.157
 1173SOL    HW2 4419   5.375   0.430   6.297
 1174SOL     OW 4420   3.501   6.624   0.905
 1174SOL    HW1 4421   3.583   6.642   0.851
 1174SOL    HW2 4422   3.466   6.710   0.942
 1175SOL     OW 4423   6.699   5.382   4.846
 1175SOL    HW1 4424   6.699   5.319   4.768
 1175SOL    HW2 4425   6.645   5.463   4.824
 1176SOL     OW 4426   6.407   3.971   0.952
 1176SOL    HW1 4427   6.362   3.886   0.922
 1176SOL    HW2 4428   6.373   3.997   1.042
 1177SOL     OW 4429   6.386   3.381   0.172
 1177SOL    HW1 4430   6.348   3.432   0.095
 1177SOL    HW2 4431   6.329   3.396   0.253
 1178SOL     OW 4432   5.358   4.095   1.766
 1178SOL    HW1 4433   5.266   4.093   1.806
 1178SOL    HW2 4434   5.398   4.003   1.772
 1179SOL     OW 4435   2.157   5.546   6.083
 1179SOL    HW1 4436   2.158   5.471   6.016
 1179SOL    HW2 4437   2.083   5.531   6.149
 1180SOL     OW 4438   2.293   1.123   3.783
 1180SOL    HW1 4439   2.262   1.218   3.776
 1180SOL    HW2 4440   2.340   1.109   3.870
 1181SOL     OW 4441   1.861   4.019   2.760
 1181SOL    HW1 4442   1.904   3.931   2.739
 1181SOL    HW2 4443   1.855   4.073   2.676
 1182SOL     OW 4444   1.226   3.833   2.815
 1182SOL    HW1 4445   1.294   3.906   2.820
 1182SOL    HW2 4446   1.256   3.763   2.751
 1183SOL     OW 4447   4.326   5.568   0.488
 1183SOL    HW1 4448   4.316   5.648   0.547
 1183SOL    HW2 4449   4.322   5.597   0.392
 1184SOL     OW 4450   2.959   3.002   5.806
 1184SOL    HW1 4451   2.923   3.075   5.749
 1184SOL    HW2 4452   2.886   2.964   5.862
 1185SOL     OW 4453   2.656   1.814   0.497
 1185SOL    HW1 4454   2.700   1.728   0.476
 1185SOL    HW2 4455   2.556   1.802   0.496
 1186SOL     OW 4456   3.814   1.322   5.317
 1186SOL    HW1 4457   3.748   1.330   5.392
 1186SOL    HW2 4458   3.775   1.264   5.245
 1187SOL     OW 4459   0.692   0.923   5.301
 1187SOL    HW1 4460   0.727   1.014   5.321
 1187SOL    HW2 4461   0.768   0.859   5.289
 1188SOL     OW 4462   1.332   6.926   5.242
 1188SOL    HW1 4463   1.417   6.920   5.295
 1188SOL    HW2 4464   1.293   7.018   5.251
 1189SOL     OW 4465   6.657   0.991   0.883
 1189SOL    HW1 4466   6.605   1.061   0.834
 1189SOL    HW2 4467   6.680   0.917   0.820
 1190SOL     OW 4468   4.330   4.664   3.169
 1190SOL    HW1 4469   4.230   4.671   3.166
 1190SOL    HW2 4470   4.364   4.635   3.080
 1191SOL     OW 4471   2.892   5.121   1.034
 1191SOL    HW1 4472   2.893   5.041   0.973
 1191SOL    HW2 4473   2.922   5.094   1.125
 1192SOL     OW 4474   4.701   5.495   2.203
 1192SOL    HW1 4475   4.677   5.582   2.247
 1192SOL    HW2 4476   4.656   5.420   2.251
 1193SOL     OW 4477   3.836   6.987   3.994
 1193SOL    HW1 4478   3.764   0.019   3.957
 1193SOL    HW2 4479   3.924   7.010   3.952
 1194SOL     OW 4480   6.379   0.881   1.642
 1194SOL    HW1 4481   6.477   0.859   1.644
 1194SOL    HW2 4482   6.359   0.932   1.559
 1195SOL     OW 4483   3.207   6.525   0.144
 1195SOL    HW1 4484   3.221   6.431   0.176
 1195SOL    HW2 4485   3.126   6.528   0.086
 1196SOL     OW 4486   0.336   5.417   3.146
 1196SOL    HW1 4487   0.417   5.393   3.093
 1196SOL    HW2 4488   0.264   5.452   3.085
 1197SOL     OW 4489   3.103   5.433   6.370
 1197SOL    HW1 4490   3.059   5.435   6.460
 1197SOL    HW2 4491   3.190   5.383   6.376
 1198SOL     OW 4492   3.406   1.486   2.603
 1198SOL    HW1 4493   3.388   1.513   2.508
 1198SOL    HW2 4494   3.479   1.542   2.641
 1199SOL     OW 4495   2.991   3.951   3.367
 1199SOL    HW1 4496   2.976   3.977   3.271
 1199SOL    HW2 4497   3.003   3.852   3.374
 1200SOL     OW 4498   3.845   3.494   0.485
 1200SOL    HW1 4499   3.757   3.530   0.516
 1200SOL    HW2 4500   3.860   3.403   0.525
 1201SOL     OW 4501   1.295   0.964   4.597
 1201SOL    HW1 4502   1.323   1.036   4.661
 1201SOL    HW2 4503   1.289   0.876   4.646
 1202SOL     OW 4504   5.288   0.204   4.821
 1202SOL    HW1 4505   5.345   0.138   4.772
 1202SOL    HW2 4506   5.344   0.254   4.887
 1203SOL     OW 4507   6.003   6.612   1.768
 1203SOL    HW1 4508   5.918   6.663   1.778
 1203SOL    HW2 4509   6.074   6.655   1.826
 1204SOL     OW 4510   2.469   6.692   6.773
 1204SOL    HW1 4511   2.559   6.660   6.745
 1204SOL    HW2 4512   2.409   6.695   6.693
 1205SOL     OW 4513   0.831   2.172   5.034
 1205SOL    HW1 4514   0.844   2.265   4.998
 1205SOL    HW2 4515   0.736   2.144   5.020
 1206SOL     OW 4516   0.599   1.393   4.359
 1206SOL    HW1 4517   0.586   1.487   4.392
 1206SOL    HW2 4518   0.514   1.342   4.373
 1207SOL     OW 4519   5.987   6.300   6.522
 1207SOL    HW1 4520   6.039   6.284   6.438
 1207SOL    HW2 4521   6.038   6.265   6.600
 1208SOL     OW 4522   3.540   4.179   3.445
 1208SOL    HW1 4523   3.465   4.157   3.507
 1208SOL    HW2 4524   3.514   4.154   3.351
 1209SOL     OW 4525   6.432   4.282   5.017
 1209SOL    HW1 4526   6.427   4.183   5.025
 1209SOL    HW2 4527   6.497   4.306   4.944
 1210SOL     OW 4528   3.162   6.717   2.065
 1210SOL    HW1 4529   3.219   6.650   2.112
 1210SOL    HW2 4530   3.217   6.796   2.038
 1211SOL     OW 4531   1.371   3.171   3.481
 1211SOL    HW1 4532   1.386   3.230   3.561
 1211SOL    HW2 4533   1.278   3.133   3.484
 1212SOL     OW 4534   1.765   3.816   4.198
 1212SOL    HW1 4535   1.715   3.840   4.281
 1212SOL    HW2 4536   1.858   3.788   4.221
 1213SOL     OW 4537   5.932   2.442   5.451
 1213SOL    HW1 4538   5.938   2.399   5.541
 1213SOL    HW2 4539   5.957   2.375   5.381
 1214SOL     OW 4540   1.969   2.487   2.707
 1214SOL    HW1 4541   1.994   2.574   2.665
 1214SOL    HW2 4542   2.048   2.450   2.755
 1215SOL     OW 4543   6.971   5.196   2.296
 1215SOL    HW1 4544   6.888   5.182   2.242
 1215SOL    HW2 4545   0.021   5.218   2.236
 1216SOL     OW 4546   2.984   0.460   1.675
 1216SOL    HW1 4547   3.023   0.472   1.766
 1216SOL    HW2 4548   2.889   0.492   1.676
 1217SOL     OW 4549   1.951   1.452   2.639
 1217SOL    HW1 4550   1.875   1.405   2.595
 1217SOL    HW2 4551   1.985   1.396   2.715
 1218SOL     OW 4552   0.496   3.521   3.557
 1218SOL    HW1 4553   0.486   3.447   3.623
 1218SOL    HW2 4554   0.568   3.498   3.492
 1219SOL     OW 4555   2.743   5.854   3.746
 1219SOL    HW1 4556   2.691   5.917   3.804
 1219SOL    HW2 4557   2.810   5.905   3.693
 1220SOL     OW 4558   6.039   4.446   3.108
 1220SOL    HW1 4559   5.960   4.445   3.046
 1220SOL    HW2 4560   6.034   4.527   3.166
 1221SOL     OW 4561   4.872   3.934   5.981
 1221SOL    HW1 4562   4.876   3.901   5.887
 1221SOL    HW2 4563   4.963   3.932   6.022
 1222SOL     OW 4564   5.247   5.041   1.756
 1222SOL    HW1 4565   5.230   5.073   1.663
 1222SOL    HW2 4566   5.296   5.112   1.807
 1223SOL     OW 4567   5.979   4.967   4.623
 1223SOL    HW1 4568   5.988   4.867   4.623
 1223SOL    HW2 4569   6.065   5.008   4.652
 1224SOL     OW 4570   4.895   5.234   1.911
 1224SOL    HW1 4571   4.920   5.184   1.994
 1224SOL    HW2 4572   4.846   5.173   1.849
 1225SOL     OW 4573   4.219   1.310   6.597
 1225SOL    HW1 4574   4.212   1.264   6.509
 1225SOL    HW2 4575   4.263   1.249   6.663
 1226SOL     OW 4576   5.482   5.122   1.086
 1226SOL    HW1 4577   5.405   5.158   1.138
 1226SOL    HW2 4578   5.454   5.103   0.992
 1227SOL     OW 4579   4.871   4.433   7.004
 1227SOL    HW1 4580   4.867   4.469   0.071
 1227SOL    HW2 4581   4.944   4.480   6.954
 1228SOL     OW 4582   3.905   4.058   4.501
 1228SOL    HW1 4583   3.932   3.964   4.523
 1228SOL    HW2 4584   3.925   4.077   4.405
 1229SOL     OW 4585   2.669   6.055   2.672
 1229SOL    HW1 4586   2.702   6.088   2.584
 1229SOL    HW2 4587   2.746   6.023   2.727
 1230SOL     OW 4588   5.606   4.725   1.747
 1230SOL    HW1 4589   5.538   4.733   1.820
 1230SOL    HW2 4590   5.564   4.751   1.659
 1231SOL     OW 4591   2.022   1.742   6.114
 1231SOL    HW1 4592   2.056   1.699   6.031
 1231SOL    HW2 4593   2.085   1.723   6.190
 1232SOL     OW 4594   2.946   0.941   5.212
 1232SOL    HW1 4595   3.007   1.007   5.256
 1232SOL    HW2 4596   2.989   0.906   5.129
 1233SOL     OW 4597   0.448   5.908   5.153
 1233SOL    HW1 4598   0.526   5.849   5.135
 1233SOL    HW2 4599   0.464   5.961   5.236
 1234SOL     OW 4600   5.935   4.225   6.677
 1234SOL    HW1 4601   5.855   4.279   6.702
 1234SOL    HW2 4602   6.013   4.286   6.662
 1235SOL     OW 4603   6.402   4.791   1.190
 1235SOL    HW1 4604   6.400   4.890   1.202
 1235SOL    HW2 4605   6.399   4.746   1.280
 1236SOL     OW 4606   1.434   1.477   1.990
 1236SOL    HW1 4607   1.458   1.412   1.918
 1236SOL    HW2 4608   1.391   1.428   2.066
 1237SOL     OW 4609   0.721   6.870   4.624
 1237SOL    HW1 4610   0.809   6.845   4.664
 1237SOL    HW2 4611   0.649   6.811   4.661
 1238SOL     OW 4612   0.781   0.869   4.899
 1238SOL    HW1 4613   0.754   0.775   4.876
 1238SOL    HW2 4614   0.708   0.913   4.950
 1239SOL     OW 4615   5.350   5.168   3.541
 1239SOL    HW1 4616   5.295   5.141   3.620
 1239SOL    HW2 4617   5.324   5.260   3.512
 1240SOL     OW 4618   0.834   3.544   1.501
 1240SOL    HW1 4619   0.896   3.499   1.564
 1240SOL    HW2 4620   0.825   3.641   1.526
 1241SOL     OW 4621   3.879   5.190   5.621
 1241SOL    HW1 4622   3.910   5.125   5.552
 1241SOL    HW2 4623   3.855   5.277   5.577
 1242SOL     OW 4624   2.387   4.686   1.073
 1242SOL    HW1 4625   2.391   4.603   1.017
 1242SOL    HW2 4626   2.425   4.668   1.163
 1243SOL     OW 4627   1.085   3.417   3.438
 1243SOL    HW1 4628   1.024   3.470   3.498
 1243SOL    HW2 4629   1.178   3.452   3.447
 1244SOL     OW 4630   6.442   0.139   5.731
 1244SOL    HW1 4631   6.357   0.167   5.687
 1244SOL    HW2 4632   6.423   0.108   5.824
 1245SOL     OW 4633   4.822   6.203   0.797
 1245SOL    HW1 4634   4.739   6.197   0.853
 1245SOL    HW2 4635   4.886   6.266   0.839
 1246SOL     OW 4636   4.955   1.593   1.115
 1246SOL    HW1 4637   4.868   1.582   1.068
 1246SOL    HW2 4638   5.025   1.537   1.069
 1247SOL     OW 4639   6.608   0.100   3.458
 1247SOL    HW1 4640   6.552   0.017   3.464
 1247SOL    HW2 4641   6.684   0.093   3.523
 1248SOL     OW 4642   1.240   6.546   4.426
 1248SOL    HW1 4643   1.315   6.588   4.476
 1248SOL    HW2 4644   1.161   6.535   4.487
 1249SOL     OW 4645   5.833   5.550   6.617
 1249SOL    HW1 4646   5.897   5.557   6.693
 1249SOL    HW2 4647   5.866   5.482   6.551
 1250SOL     OW 4648   0.267   3.666   5.428
 1250SOL    HW1 4649   0.248   3.737   5.496
 1250SOL    HW2 4650   0.360   3.631   5.442
 1251SOL     OW 4651   3.058   0.427   2.533
 1251SOL    HW1 4652   2.978   0.482   2.558
 1251SOL    HW2 4653   3.120   0.481   2.478
 1252SOL     OW 4654   2.053   5.257   6.552
 1252SOL    HW1 4655   2.068   5.160   6.571
 1252SOL    HW2 4656   1.994   5.296   6.623
 1253SOL     OW 4657   3.173   6.754   0.293
 1253SOL    HW1 4658   3.099   6.772   0.228
 1253SOL    HW2 4659   3.231   6.681   0.257
 1254SOL     OW 4660   5.947   1.038   3.036
 1254SOL    HW1 4661   5.902   1.124   3.057
 1254SOL    HW2 4662   5.879   0.968   3.014
 1255SOL     OW 4663   6.148   1.352   5.687
 1255SOL    HW1 4664   6.204   1.271   5.704
 1255SOL    HW2 4665   6.162   1.418   5.761
 1256SOL     OW 4666   0.137   5.694   4.808
 1256SOL    HW1 4667   0.195   5.766   4.847
 1256SOL    HW2 4668   0.193   5.633   4.752
 1257SOL     OW 4669   0.228   6.258   3.013
 1257SOL    HW1 4670   0.269   6.205   2.939
 1257SOL    HW2 4671   0.182   6.196   3.077
 1258SOL     OW 4672   4.554   6.200   6.298
 1258SOL    HW1 4673   4.612   6.137   6.350
 1258SOL    HW2 4674   4.582   6.294   6.318
 1259SOL     OW 4675   5.403   0.684   5.594
 1259SOL    HW1 4676   5.373   0.750   5.664
 1259SOL    HW2 4677   5.413   0.731   5.506
 1260SOL     OW 4678   2.943   1.590   1.543
 1260SOL    HW1 4679   3.006   1.513   1.543
 1260SOL    HW2 4680   2.856   1.563   1.584
 1261SOL     OW 4681   6.817   5.089   4.718
 1261SOL    HW1 4682   6.900   5.131   4.753
 1261SOL    HW2 4683   6.770   5.040   4.791
 1262SOL     OW 4684   3.958   5.327   1.302
 1262SOL    HW1 4685   4.016   5.255   1.264
 1262SOL    HW2 4686   3.883   5.286   1.353
 1263SOL     OW 4687   6.361   2.609   1.060
 1263SOL    HW1 4688   6.410   2.579   0.978
 1263SOL    HW2 4689   6.374   2.542   1.133
 1264SOL     OW 4690   6.689   2.557   4.227
 1264SOL    HW1 4691   6.656   2.545   4.321
 1264SOL    HW2 4692   6.621   2.523   4.163
 1265SOL     OW 4693   6.666   5.988   4.860
 1265SOL    HW1 4694   6.599   5.946   4.922
 1265SOL    HW2 4695   6.712   6.063   4.907
 1266SOL     OW 4696   2.537   0.854   4.236
 1266SOL    HW1 4697   2.556   0.796   4.315
 1266SOL    HW2 4698   2.441   0.844   4.209
 1267SOL     OW 4699   6.953   4.766   2.941
 1267SOL    HW1 4700   6.904   4.746   3.026
 1267SOL    HW2 4701   0.013   4.716   2.941
 1268SOL     OW 4702   6.047   3.706   6.901
 1268SOL    HW1 4703   5.954   3.743   6.909
 1268SOL    HW2 4704   6.085   3.733   6.812
 1269SOL     OW 4705   6.748   5.002   6.317
 1269SOL    HW1 4706   6.725   4.905   6.309
 1269SOL    HW2 4707   6.685   5.046   6.382
 1270SOL     OW 4708   1.620   2.068   5.126
 1270SOL    HW1 4709   1.650   2.161   5.107
 1270SOL    HW2 4710   1.601   2.020   5.040
 1271SOL     OW 4711   4.986   2.435   3.036
 1271SOL    HW1 4712   5.067   2.494   3.044
 1271SOL    HW2 4713   4.912   2.473   3.092
 1272SOL     OW 4714   6.752   6.753   1.579
 1272SOL    HW1 4715   6.763   6.777   1.676
 1272SOL    HW2 4716   6.742   6.836   1.525
 1273SOL     OW 4717   2.169   6.344   6.295
 1273SOL    HW1 4718   2.224   6.265   6.267
 1273SOL    HW2 4719   2.159   6.346   6.394
 1274SOL     OW 4720   5.339   2.852   1.414
 1274SOL    HW1 4721   5.348   2.942   1.371
 1274SOL    HW2 4722   5.244   2.821   1.405
 1275SOL     OW 4723   3.792   1.770   4.118
 1275SOL    HW1 4724   3.710   1.782   4.174
 1275SOL    HW2 4725   3.820   1.674   4.120
 1276SOL     OW 4726   6.012   0.293   3.481
 1276SOL    HW1 4727   5.984   0.296   3.385
 1276SOL    HW2 4728   6.094   0.237   3.490
 1277SOL     OW 4729   0.383   1.152   5.281
 1277SOL    HW1 4730   0.360   1.066   5.326
 1277SOL    HW2 4731   0.335   1.228   5.326
 1278SOL     OW 4732   3.182   2.185   5.350
 1278SOL    HW1 4733   3.198   2.253   5.278
 1278SOL    HW2 4734   3.258   2.186   5.415
 1279SOL     OW 4735   2.832   5.120   0.710
 1279SOL    HW1 4736   2.733   5.130   0.710
 1279SOL    HW2 4737   2.857   5.029   0.742
 1280SOL     OW 4738   1.887   6.095   3.311
 1280SOL    HW1 4739   1.916   6.187   3.286
 1280SOL    HW2 4740   1.962   6.048   3.358
 1281SOL     OW 4741   0.866   6.733   3.910
 1281SOL    HW1 4742   0.839   6.707   4.003
 1281SOL    HW2 4743   0.944   6.795   3.915
 1282SOL     OW 4744   1.273   0.137   2.092
 1282SOL    HW1 4745   1.300   0.200   2.019
 1282SOL    HW2 4746   1.263   0.045   2.054
 1283SOL     OW 4747   5.333   4.538   5.198
 1283SOL    HW1 4748   5.401   4.466   5.186
 1283SOL    HW2 4749   5.241   4.501   5.185
 1284SOL     OW 4750   2.405   1.900   2.815
 1284SOL    HW1 4751   2.376   1.987   2.855
 1284SOL    HW2 4752   2.409   1.909   2.716
 1285SOL     OW 4753   5.768   2.605   5.650
 1285SOL    HW1 4754   5.828   2.570   5.579
 1285SOL    HW2 4755   5.815   2.677   5.701
 1286SOL     OW 4756   6.045   5.937   1.623
 1286SOL    HW1 4757   6.047   5.991   1.538
 1286SOL    HW2 4758   6.039   5.840   1.601
 1287SOL     OW 4759   5.922   4.984   6.164
 1287SOL    HW1 4760   5.961   4.922   6.096
 1287SOL    HW2 4761   5.937   4.947   6.255
 1288SOL     OW 4762   6.721   2.521   2.880
 1288SOL    HW1 4763   6.759   2.546   2.969
 1288SOL    HW2 4764   6.796   2.512   2.814
 1289SOL     OW 4765   6.576   5.816   2.999
 1289SOL    HW1 4766   6.558   5.718   3.010
 1289SOL    HW2 4767   6.664   5.839   3.040
 1290SOL     OW 4768   0.483   6.558   1.631
 1290SOL    HW1 4769   0.452   6.497   1.558
 1290SOL    HW2 4770   0.414   6.564   1.702
 1291SOL     OW 4771   1.932   0.156   0.775
 1291SOL    HW1 4772   1.946   0.231   0.840
 1291SOL    HW2 4773   1.944   0.068   0.823
 1292SOL     OW 4774   1.006   6.161   6.876
 1292SOL    HW1 4775   1.103   6.171   6.857
 1292SOL    HW2 4776   0.977   6.068   6.855
 1293SOL     OW 4777   7.022   2.604   5.634
 1293SOL    HW1 4778   0.014   2.580   5.729
 1293SOL    HW2 4779   6.976   2.692   5.630
 1294SOL     OW 4780   7.011   1.678   2.899
 1294SOL    HW1 4781   0.040   1.733   2.962
 1294SOL    HW2 4782   0.033   1.593   2.879
 1295SOL     OW 4783   5.819   3.420   2.148
 1295SOL    HW1 4784   5.917   3.404   2.134
 1295SOL    HW2 4785   5.776   3.337   2.184
 1296SOL     OW 4786   3.573   2.572   6.358
 1296SOL    HW1 4787   3.640   2.571   6.433
 1296SOL    HW2 4788   3.552   2.666   6.333
 1297SOL     OW 4789   6.500   1.444   6.662
 1297SOL    HW1 4790   6.509   1.380   6.585
 1297SOL    HW2 4791   6.513   1.394   6.748
 1298SOL     OW 4792   5.908   2.822   3.360
 1298SOL    HW1 4793   5.917   2.899   3.423
 1298SOL    HW2 4794   5.951   2.741   3.399
 1299SOL     OW 4795   1.116   3.962   4.086
 1299SOL    HW1 4796   1.215   3.976   4.082
 1299SOL    HW2 4797   1.069   4.041   4.046
 1300SOL     OW 4798   2.970   3.294   1.222
 1300SOL    HW1 4799   3.041   3.236   1.181
 1300SOL    HW2 4800   2.942   3.254   1.309
 1301SOL     OW 4801   0.823   0.533   3.107
 1301SOL    HW1 4802   0.918   0.521   3.136
 1301SOL    HW2 4803   0.774   0.591   3.172
 1302SOL     OW 4804   2.663   5.621   5.438
 1302SOL    HW1 4805   2.611   5.572   5.508
 1302SOL    HW2 4806   2.747   5.572   5.417
 1303SOL     OW 4807   3.729   0.887   1.212
 1303SOL    HW1 4808   3.729   0.793   1.246
 1303SOL    HW2 4809   3.676   0.946   1.274
 1304SOL     OW 4810   2.974   0.658   6.133
 1304SOL    HW1 4811   2.942   0.752   6.145
 1304SOL    HW2 4812   3.034   0.633   6.209
 1305SOL     OW 4813   5.326   6.851   4.819
 1305SOL    HW1 4814   5.293   6.924   4.760
 1305SOL    HW2 4815   5.426   6.848   4.815
 1306SOL     OW 4816   0.741   4.494   3.796
 1306SOL    HW1 4817   0.810   4.447   3.740
 1306SOL    HW2 4818   0.785   4.565   3.850
 1307SOL     OW 4819   2.307   1.557   4.085
 1307SOL    HW1 4820   2.370   1.623   4.044
 1307SOL    HW2 4821   2.359   1.486   4.133
 1308SOL     OW 4822   4.837   5.372   2.483
 1308SOL    HW1 4823   4.828   5.471   2.493
 1308SOL    HW2 4824   4.763   5.338   2.425
 1309SOL     OW 4825   6.030   2.463   4.635
 1309SOL    HW1 4826   5.951   2.482   4.576
 1309SOL    HW2 4827   6.030   2.367   4.661
 1310SOL     OW 4828   5.026   3.611   5.391
 1310SOL    HW1 4829   5.017   3.563   5.477
 1310SOL    HW2 4830   5.101   3.677   5.397
 1311SOL     OW 4831   5.161   5.559   5.363
 1311SOL    HW1 4832   5.256   5.573   5.391
 1311SOL    HW2 4833   5.159   5.516   5.273
 1312SOL     OW 4834   6.976   6.729   2.150
 1312SOL    HW1 4835   6.883   6.752   2.120
 1312SOL    HW2 4836   7.025   6.686   2.074
 1313SOL     OW 4837   3.456   5.030   5.358
 1313SOL    HW1 4838   3.361   5.036   5.389
 1313SOL    HW2 4839   3.504   4.964   5.416
 1314SOL     OW 4840   6.027   1.433   5.094
 1314SOL    HW1 4841   5.937   1.471   5.073
 1314SOL    HW2 4842   6.090   1.506   5.119
 1315SOL     OW 4843   2.254   0.906   2.893
 1315SOL    HW1 4844   2.239   0.809   2.874
 1315SOL    HW2 4845   2.167   0.951   2.911
 1316SOL     OW 4846   3.409   6.285   2.376
 1316SOL    HW1 4847   3.394   6.227   2.456
 1316SOL    HW2 4848   3.440   6.228   2.299
 1317SOL     OW 4849   0.136   4.810   3.648
 1317SOL    HW1 4850   0.133   4.714   3.620
 1317SOL    HW2 4851   0.046   4.837   3.683
 1318SOL     OW 4852   0.209   6.377   1.245
 1318SOL    HW1 4853   0.279   6.340   1.183
 1318SOL    HW2 4854   0.132   6.411   1.192
 1319SOL     OW 4855   6.055   1.120   0.173
 1319SOL    HW1 4856   6.114   1.189   0.131
 1319SOL    HW2 4857   6.097   1.088   0.258
 1320SOL     OW 4858   5.329   5.708   5.998
 1320SOL    HW1 4859   5.396   5.634   5.997
 1320SOL    HW2 4860   5.374   5.793   6.027
 1321SOL     OW 4861   3.442   2.112   6.499
 1321SOL    HW1 4862   3.346   2.139   6.490
 1321SOL    HW2 4863   3.463   2.095   6.595
 1322SOL     OW 4864   5.703   1.199   5.048
 1322SOL    HW1 4865   5.790   1.172   5.090
 1322SOL    HW2 4866   5.684   1.140   4.970
 1323SOL     OW 4867   5.911   1.310   4.775
 1323SOL    HW1 4868   5.843   1.244   4.743
 1323SOL    HW2 4869   5.865   1.388   4.818
 1324SOL     OW 4870   0.998   3.970   0.851
 1324SOL    HW1 4871   0.931   3.954   0.924
 1324SOL    HW2 4872   0.982   4.060   0.810
 1325SOL     OW 4873   3.609   5.521   2.954
 1325SOL    HW1 4874   3.567   5.611   2.960
 1325SOL    HW2 4875   3.645   5.495   3.044
 1326SOL     OW 4876   5.347   4.158   4.449
 1326SOL    HW1 4877   5.311   4.180   4.359
 1326SOL    HW2 4878   5.327   4.062   4.471
 1327SOL     OW 4879   3.439   5.711   3.124
 1327SOL    HW1 4880   3.421   5.620   3.162
 1327SOL    HW2 4881   3.361   5.771   3.139
 1328SOL     OW 4882   1.912   2.333   6.612
 1328SOL    HW1 4883   1.935   2.275   6.534
 1328SOL    HW2 4884   1.821   2.309   6.645
 1329SOL     OW 4885   0.575   0.347   1.421
 1329SOL    HW1 4886   0.599   0.403   1.342
 1329SOL    HW2 4887   0.570   0.251   1.394
 1330SOL     OW 4888   5.955   6.763   1.096
 1330SOL    HW1 4889   5.859   6.742   1.081
 1330SOL    HW2 4890   6.009   6.736   1.016
 1331SOL     OW 4891   6.723   0.789   2.562
 1331SOL    HW1 4892   6.744   0.736   2.480
 1331SOL    HW2 4893   6.730   0.730   2.642
 1332SOL     OW 4894   4.384   1.417   1.170
 1332SOL    HW1 4895   4.384   1.343   1.238
 1332SOL    HW2 4896   4.402   1.504   1.216
 1333SOL     OW 4897   3.804   4.158   5.228
 1333SOL    HW1 4898   3.738   4.165   5.153
 1333SOL    HW2 4899   3.793   4.070   5.274
 1334SOL     OW 4900   1.100   4.093   3.232
 1334SOL    HW1 4901   1.158   4.116   3.310
 1334SOL    HW2 4902   1.107   4.164   3.163
 1335SOL     OW 4903   2.690   4.919   2.316
 1335SOL    HW1 4904   2.709   4.834   2.364
 1335SOL    HW2 4905   2.627   4.901   2.240
 1336SOL     OW 4906   0.733   0.129   4.800
 1336SOL    HW1 4907   0.724   0.067   4.721
 1336SOL    HW2 4908   0.661   0.198   4.796
 1337SOL     OW 4909   2.614   0.539   6.354
 1337SOL    HW1 4910   2.569   0.555   6.266
 1337SOL    HW2 4911   2.675   0.615   6.375
 1338SOL     OW 4912   3.220   5.872   0.552
 1338SOL    HW1 4913   3.128   5.855   0.518
 1338SOL    HW2 4914   3.274   5.917   0.481
 1339SOL     OW 4915   0.050   4.839   4.612
 1339SOL    HW1 4916   0.044   4.809   4.517
 1339SOL    HW2 4917   7.004   4.797   4.666
 1340SOL     OW 4918   2.059   1.400   6.228
 1340SOL    HW1 4919   2.008   1.360   6.152
 1340SOL    HW2 4920   2.146   1.437   6.194
 1341SOL     OW 4921   4.919   1.458   3.522
 1341SOL    HW1 4922   4.942   1.365   3.492
 1341SOL    HW2 4923   4.905   1.458   3.621
 1342SOL     OW 4924   0.451   5.817   1.349
 1342SOL    HW1 4925   0.439   5.718   1.352
 1342SOL    HW2 4926   0.362   5.861   1.335
 1343SOL     OW 4927   3.919   5.244   3.361
 1343SOL    HW1 4928   3.900   5.243   3.459
 1343SOL    HW2 4929   3.922   5.339   3.329
 1344SOL     OW 4930   6.075   1.306   2.291
 1344SOL    HW1 4931   6.103   1.323   2.196
 1344SOL    HW2 4932   6.134   1.237   2.331
 1345SOL     OW 4933   1.374   6.792   3.720
 1345SOL    HW1 4934   1.439   6.867   3.703
 1345SOL    HW2 4935   1.382   6.762   3.815
 1346SOL     OW 4936   0.390   0.646   4.010
 1346SOL    HW1 4937   0.382   0.745   4.015
 1346SOL    HW2 4938   0.318   0.604   4.065
 1347SOL     OW 4939   5.931   0.277   2.962
 1347SOL    HW1 4940   5.938   0.309   2.867
 1347SOL    HW2 4941   5.851   0.218   2.971
 1348SOL     OW 4942   4.046   5.606   4.592
 1348SOL    HW1 4943   4.089   5.521   4.623
 1348SOL    HW2 4944   4.048   5.610   4.492
 1349SOL     OW 4945   4.657   2.823   0.146
 1349SOL    HW1 4946   4.723   2.899   0.156
 1349SOL    HW2 4947   4.668   2.781   0.056
 1350SOL     OW 4948   3.108   6.794   5.608
 1350SOL    HW1 4949   3.076   6.813   5.701
 1350SOL    HW2 4950   3.030   6.792   5.546
 1351SOL     OW 4951   0.835   1.169   4.503
 1351SOL    HW1 4952   0.795   1.081   4.528
 1351SOL    HW2 4953   0.764   1.239   4.505
 1352SOL     OW 4954   0.456   6.941   4.111
 1352SOL    HW1 4955   0.403   6.866   4.072
 1352SOL    HW2 4956   0.529   6.967   4.047
 1353SOL     OW 4957   1.794   3.524   3.876
 1353SOL    HW1 4958   1.748   3.498   3.961
 1353SOL    HW2 4959   1.812   3.443   3.821
 1354SOL     OW 4960   0.057   0.023   1.303
 1354SOL    HW1 4961   6.987   0.045   1.321
 1354SOL    HW2 4962   0.064   7.001   1.216
 1355SOL     OW 4963   4.370   3.353   0.084
 1355SOL    HW1 4964   4.443   3.332   0.149
 1355SOL    HW2 4965   4.409   3.389   7.026
 1356SOL     OW 4966   3.082   3.633   1.684
 1356SOL    HW1 4967   3.176   3.599   1.692
 1356SOL    HW2 4968   3.024   3.589   1.752
 1357SOL     OW 4969   2.773   2.642   6.049
 1357SOL    HW1 4970   2.754   2.623   6.146
 1357SOL    HW2 4971   2.760   2.740   6.032
 1358SOL     OW 4972   2.489   3.053   5.838
 1358SOL    HW1 4973   2.475   3.060   5.739
 1358SOL    HW2 4974   2.414   3.099   5.885
 1359SOL     OW 4975   0.002   0.914   0.054
 1359SOL    HW1 4976   7.011   0.816   0.064
 1359SOL    HW2 4977   6.946   0.965   0.076
 1360SOL     OW 4978   2.922   3.411   3.693
 1360SOL    HW1 4979   2.908   3.364   3.780
 1360SOL    HW2 4980   2.922   3.345   3.619
 1361SOL     OW 4981   1.114   5.557   1.266
 1361SOL    HW1 4982   1.056   5.551   1.185
 1361SOL    HW2 4983   1.209   5.537   1.241
 1362SOL     OW 4984   3.186   2.388   6.660
 1362SOL    HW1 4985   3.283   2.414   6.660
 1362SOL    HW2 4986   3.162   2.347   6.748
 1363SOL     OW 4987   6.389   6.480   1.737
 1363SOL    HW1 4988   6.367   6.454   1.831
 1363SOL    HW2 4989   6.390   6.398   1.680
 1364SOL     OW 4990   0.890   3.499   0.703
 1364SOL    HW1 4991   0.901   3.452   0.790
 1364SOL    HW2 4992   0.953   3.577   0.698
 1365SOL     OW 4993   0.117   4.130   5.286
 1365SOL    HW1 4994   0.166   4.074   5.220
 1365SOL    HW2 4995   0.019   4.119   5.274
 1366SOL     OW 4996   5.421   0.467   0.936
 1366SOL    HW1 4997   5.465   0.380   0.913
 1366SOL    HW2 4998   5.344   0.450   0.997
 1367SOL     OW 4999   1.463   6.627   4.552
 1367SOL    HW1 5000   1.479   6.699   4.620
 1367SOL    HW2 5001   1.498   6.540   4.588
 1368SOL     OW 5002   1.244   6.339   5.513
 1368SOL    HW1 5003   1.334   6.381   5.507
 1368SOL    HW2 5004   1.177   6.397   5.467
 1369SOL     OW 5005   2.992   6.242   3.250
 1369SOL    HW1 5006   2.918   6.181   3.281
 1369SOL    HW2 5007   3.010   6.310   3.321
 1370SOL     OW 5008   6.970   2.279   2.545
 1370SOL    HW1 5009   6.931   2.188   2.538
 1370SOL    HW2 5010   6.978   2.305   2.641
 1371SOL     OW 5011   6.153   2.041   5.860
 1371SOL    HW1 5012   6.110   2.114   5.912
 1371SOL    HW2 5013   6.175   2.074   5.768
 1372SOL     OW 5014   6.604   3.079   0.990
 1372SOL    HW1 5015   6.519   3.116   0.952
 1372SOL    HW2 5016   6.652   3.151   1.041
 1373SOL     OW 5017   5.354   2.256   1.484
 1373SOL    HW1 5018   5.333   2.353   1.474
 1373SOL    HW2 5019   5.447   2.239   1.451
 1374SOL     OW 5020   4.198   4.156   0.843
 1374SOL    HW1 5021   4.238   4.103   0.917
 1374SOL    HW2 5022   4.209   4.254   0.862
 1375SOL     OW 5023   5.812   5.232   3.784
 1375SOL    HW1 5024   5.837   5.321   3.821
 1375SOL    HW2 5025   5.744   5.189   3.843
 1376SOL     OW 5026   3.196   4.922   6.078
 1376SOL    HW1 5027   3.152   4.997   6.127
 1376SOL    HW2 5028   3.258   4.874   6.139
 1377SOL     OW 5029   1.703   1.646   3.020
 1377SOL    HW1 5030   1.738   1.556   2.995
 1377SOL    HW2 5031   1.736   1.714   2.955
 1378SOL     OW 5032   5.206   2.994   4.271
 1378SOL    HW1 5033   5.118   3.028   4.238
 1378SOL    HW2 5034   5.279   3.055   4.241
 1379SOL     OW 5035   4.986   5.407   1.389
 1379SOL    HW1 5036   5.049   5.416   1.466
 1379SOL    HW2 5037   4.903   5.361   1.420
 1380SOL     OW 5038   6.927   5.987   2.181
 1380SOL    HW1 5039   6.932   5.936   2.267
 1380SOL    HW2 5040   6.897   6.080   2.200
 1381SOL     OW 5041   6.333   2.574   5.817
 1381SOL    HW1 5042   6.272   2.610   5.888
 1381SOL    HW2 5043   6.295   2.594   5.727
 1382SOL     OW 5044   4.466   3.030   0.020
 1382SOL    HW1 5045   4.385   2.987   0.058
 1382SOL    HW2 5046   4.539   3.030   0.089
 1383SOL     OW 5047   0.369   0.537   1.440
 1383SOL    HW1 5048   0.308   0.563   1.515
 1383SOL    HW2 5049   0.435   0.470   1.472
 1384SOL     OW 5050   6.223   1.725   1.783
 1384SOL    HW1 5051   6.181   1.815   1.775
 1384SOL    HW2 5052   6.295   1.728   1.852
 1385SOL     OW 5053   0.470   5.415   1.011
 1385SOL    HW1 5054   0.527   5.336   0.988
 1385SOL    HW2 5055   0.527   5.486   1.052
 1386SOL     OW 5056   1.959   5.636   4.248
 1386SOL    HW1 5057   1.920   5.567   4.308
 1386SOL    HW2 5058   2.053   5.656   4.276
 1387SOL     OW 5059   2.893   6.222   2.037
 1387SOL    HW1 5060   2.975   6.190   1.989
 1387SOL    HW2 5061   2.920   6.263   2.124
 1388SOL     OW 5062   6.966   0.677   1.677
 1388SOL    HW1 5063   0.031   0.634   1.679
 1388SOL    HW2 5064   6.939   0.700   1.771
 1389SOL     OW 5065   6.436   0.945   2.271
 1389SOL    HW1 5066   6.409   1.029   2.225
 1389SOL    HW2 5067   6.376   0.870   2.242
 1390SOL     OW 5068   1.337   1.622   5.535
 1390SOL    HW1 5069   1.364   1.609   5.440
 1390SOL    HW2 5070   1.417   1.645   5.591
 1391SOL     OW 5071   0.552   3.074   3.412
 1391SOL    HW1 5072   0.506   3.050   3.498
 1391SOL    HW2 5073   0.604   3.159   3.424
 1392SOL     OW 5074   5.063   4.468   5.193
 1392SOL    HW1 5075   5.025   4.408   5.263
 1392SOL    HW2 5076   4.996   4.539   5.171
 1393SOL     OW 5077   3.328   6.475   5.811
 1393SOL    HW1 5078   3.276   6.559   5.826
 1393SOL    HW2 5079   3.351   6.434   5.899
 1394SOL     OW 5080   1.630   6.171   6.483
 1394SOL    HW1 5081   1.583   6.251   6.521
 1394SOL    HW2 5082   1.585   6.087   6.515
 1395SOL     OW 5083   3.482   4.097   5.672
 1395SOL    HW1 5084   3.540   4.175   5.693
 1395SOL    HW2 5085   3.450   4.104   5.578
 1396SOL     OW 5086   5.660   5.738   3.963
 1396SOL    HW1 5087   5.615   5.663   4.012
 1396SOL    HW2 5088   5.658   5.820   4.019
 1397SOL     OW 5089   4.603   6.018   5.521
 1397SOL    HW1 5090   4.659   6.008   5.439
 1397SOL    HW2 5091   4.662   6.022   5.602
 1398SOL     OW 5092   2.178   1.299   4.413
 1398SOL    HW1 5093   2.240   1.238   4.364
 1398SOL    HW2 5094   2.083   1.274   4.392
 1399SOL     OW 5095   2.665   6.653   1.531
 1399SOL    HW1 5096   2.627   6.593   1.602
 1399SOL    HW2 5097   2.668   6.747   1.566
 1400SOL     OW 5098   1.232   6.701   2.125
 1400SOL    HW1 5099   1.297   6.692   2.200
 1400SOL    HW2 5100   1.154   6.642   2.141
 1401SOL     OW 5101   6.410   1.145   4.767
 1401SOL    HW1 5102   6.375   1.096   4.687
 1401SOL    HW2 5103   6.340   1.208   4.800
 1402SOL     OW 5104   0.242   3.175   0.761
 1402SOL    HW1 5105   0.306   3.192   0.687
 1402SOL    HW2 5106   0.225   3.261   0.810
 1403SOL     OW 5107   2.892   0.906   2.457
 1403SOL    HW1 5108   2.909   0.824   2.512
 1403SOL    HW2 5109   2.888   0.881   2.360
 1404SOL     OW 5110   5.257   1.057   0.162
 1404SOL    HW1 5111   5.207   1.121   0.222
 1404SOL    HW2 5112   5.199   0.977   0.145
 1405SOL     OW 5113   2.452   3.464   1.083
 1405SOL    HW1 5114   2.422   3.375   1.048
 1405SOL    HW2 5115   2.521   3.450   1.154
 1406SOL     OW 5116   1.369   4.048   1.088
 1406SOL    HW1 5117   1.442   4.039   1.020
 1406SOL    HW2 5118   1.399   4.010   1.175
 1407SOL     OW 5119   6.542   2.412   2.705
 1407SOL    HW1 5120   6.564   2.466   2.623
 1407SOL    HW2 5121   6.609   2.431   2.776
 1408SOL     OW 5122   6.593   0.528   6.682
 1408SOL    HW1 5123   6.606   0.546   6.584
 1408SOL    HW2 5124   6.496   0.513   6.701
 1409SOL     OW 5125   0.579   1.068   4.209
 1409SOL    HW1 5126   0.607   1.107   4.296
 1409SOL    HW2 5127   0.587   0.969   4.212
 1410SOL     OW 5128   0.628   2.810   0.035
 1410SOL    HW1 5129   0.637   2.828   6.963
 1410SOL    HW2 5130   0.535   2.780   0.054
 1411SOL     OW 5131   1.915   0.106   1.638
 1411SOL    HW1 5132   1.830   0.098   1.587
 1411SOL    HW2 5133   1.980   0.037   1.606
 1412SOL     OW 5134   1.106   2.963   0.182
 1412SOL    HW1 5135   1.110   2.955   0.281
 1412SOL    HW2 5136   1.078   2.876   0.142
 1413SOL     OW 5137   2.696   0.271   4.169
 1413SOL    HW1 5138   2.700   0.171   4.169
 1413SOL    HW2 5139   2.788   0.308   4.173
 1414SOL     OW 5140   2.042   1.520   1.616
 1414SOL    HW1 5141   2.053   1.498   1.713
 1414SOL    HW2 5142   1.993   1.607   1.607
 1415SOL     OW 5143   4.052   6.136   6.271
 1415SOL    HW1 5144   4.070   6.081   6.190
 1415SOL    HW2 5145   4.129   6.129   6.334
 1416SOL     OW 5146   4.352   5.598   2.127
 1416SOL    HW1 5147   4.440   5.641   2.150
 1416SOL    HW2 5148   4.290   5.667   2.089
 1417SOL     OW 5149   3.147   1.715   5.928
 1417SOL    HW1 5150   3.246   1.710   5.918
 1417SOL    HW2 5151   3.124   1.768   6.010
 1418SOL     OW 5152   3.550   4.148   2.502
 1418SOL    HW1 5153   3.457   4.164   2.469
 1418SOL    HW2 5154   3.610   4.130   2.424
 1419SOL     OW 5155   4.543   6.929   4.990
 1419SOL    HW1 5156   4.498   6.991   5.054
 1419SOL    HW2 5157   4.561   6.841   5.035
 1420SOL     OW 5158   0.760   5.881   2.094
 1420SOL    HW1 5159   0.757   5.875   1.994
 1420SOL    HW2 5160   0.807   5.800   2.130
 1421SOL     OW 5161   3.241   0.956   2.728
 1421SOL    HW1 5162   3.148   0.984   2.752
 1421SOL    HW2 5163   3.297   1.037   2.713
 1422SOL     OW 5164   2.853   6.356   0.236
 1422SOL    HW1 5165   2.916   6.279   0.237
 1422SOL    HW2 5166   2.886   6.427   0.299
 1423SOL     OW 5167   4.683   0.006   2.609
 1423SOL    HW1 5168   4.764   0.045   2.652
 1423SOL    HW2 5169   4.662   0.056   2.525
 1424SOL     OW 5170   6.763   4.876   4.250
 1424SOL    HW1 5171   6.731   4.970   4.261
 1424SOL    HW2 5172   6.771   4.833   4.340
 1425SOL     OW 5173   2.644   6.769   4.050
 1425SOL    HW1 5174   2.553   6.812   4.052
 1425SOL    HW2 5175   2.703   6.820   3.988
 1426SOL     OW 5176   1.123   1.692   5.676
 1426SOL    HW1 5177   1.042   1.678   5.620
 1426SOL    HW2 5178   1.205   1.667   5.624
 1427SOL     OW 5179   6.125   0.814   4.436
 1427SOL    HW1 5180   6.031   0.843   4.418
 1427SOL    HW2 5181   6.188   0.864   4.375
 1428SOL     OW 5182   5.409   1.518   6.975
 1428SOL    HW1 5183   5.384   1.424   6.953
 1428SOL    HW2 5184   5.331   1.578   6.955
 1429SOL     OW 5185   6.532   0.824   0.374
 1429SOL    HW1 5186   6.500   0.730   0.359
 1429SOL    HW2 5187   6.473   0.888   0.324
 1430SOL     OW 5188   2.137   5.177   3.867
 1430SOL    HW1 5189   2.046   5.216   3.856
 1430SOL    HW2 5190   2.138   5.083   3.832
 1431SOL     OW 5191   1.828   0.996   0.622
 1431SOL    HW1 5192   1.914   0.997   0.571
 1431SOL    HW2 5193   1.846   0.981   0.719
 1432SOL     OW 5194   1.873   1.062   1.947
 1432SOL    HW1 5195   1.862   1.041   2.044
 1432SOL    HW2 5196   1.851   1.158   1.930
 1433SOL     OW 5197   4.527   0.879   4.119
 1433SOL    HW1 5198   4.567   0.788   4.132
 1433SOL    HW2 5199   4.462   0.898   4.193
 1434SOL     OW 5200   1.042   0.374   5.163
 1434SOL    HW1 5201   1.128   0.424   5.151
 1434SOL    HW2 5202   1.015   0.334   5.075
 1435SOL     OW 5203   6.572   1.806   2.841
 1435SOL    HW1 5204   6.540   1.736   2.777
 1435SOL    HW2 5205   6.667   1.829   2.820
 1436SOL     OW 5206   3.903   3.485   0.808
 1436SOL    HW1 5207   3.942   3.552   0.745
 1436SOL    HW2 5208   3.974   3.452   0.870
 1437SOL     OW 5209   3.696   0.975   2.334
 1437SOL    HW1 5210   3.616   0.997   2.391
 1437SOL    HW2 5211   3.769   1.040   2.354
 1438SOL     OW 5212   2.201   0.376   1.101
 1438SOL    HW1 5213   2.134   0.355   1.029
 1438SOL    HW2 5214   2.211   0.297   1.161
 1439SOL     OW 5215   0.392   5.606   2.771
 1439SOL    HW1 5216   0.418   5.681   2.832
 1439SOL    HW2 5217   0.305   5.628   2.727
 1440SOL     OW 5218   2.500   3.383   1.489
 1440SOL    HW1 5219   2.470   3.375   1.584
 1440SOL    HW2 5220   2.525   3.292   1.454
 1441SOL     OW 5221   5.738   6.402   0.945
 1441SOL    HW1 5222   5.837   6.387   0.946
 1441SOL    HW2 5223   5.691   6.316   0.926
 1442SOL     OW 5224   5.946   5.388   0.907
 1442SOL    HW1 5225   5.995   5.347   0.830
 1442SOL    HW2 5226   5.864   5.435   0.872
 1443SOL     OW 5227   0.499   2.802   2.818
 1443SOL    HW1 5228   0.448   2.828   2.736
 1443SOL    HW2 5229   0.566   2.873   2.839
 1444SOL     OW 5230   6.182   4.899   6.669
 1444SOL    HW1 5231   6.152   4.993   6.654
 1444SOL    HW2 5232   6.268   4.900   6.720
 1445SOL     OW 5233   1.241   3.014   1.775
 1445SOL    HW1 5234   1.329   3.031   1.731
 1445SOL    HW2 5235   1.256   2.977   1.867
 1446SOL     OW 5236   6.928   0.266   6.846
 1446SOL    HW1 5237   7.007   0.205   6.855
 1446SOL    HW2 5238   6.897   0.293   6.937
 1447SOL     OW 5239   6.128   5.097   4.349
 1447SOL    HW1 5240   6.035   5.126   4.326
 1447SOL    HW2 5241   6.190   5.175   4.341
 1448SOL     OW 5242   1.363   2.754   5.606
 1448SOL    HW1 5243   1.388   2.806   5.687
 1448SOL    HW2 5244   1.409   2.793   5.526
 1449SOL     OW 5245   2.014   3.536   3.637
 1449SOL    HW1 5246   2.051   3.453   3.596
 1449SOL    HW2 5247   2.039   3.540   3.734
 1450SOL     OW 5248   2.161   2.754   4.136
 1450SOL    HW1 5249   2.242   2.723   4.086
 1450SOL    HW2 5250   2.121   2.678   4.186
 1451SOL     OW 5251   2.362   0.601   2.185
 1451SOL    HW1 5252   2.449   0.552   2.197
 1451SOL    HW2 5253   2.346   0.660   2.263
 1452SOL     OW 5254   5.048   2.973   6.014
 1452SOL    HW1 5255   4.955   2.990   5.979
 1452SOL    HW2 5256   5.056   3.012   6.105
 1453SOL     OW 5257   6.793   5.227   5.056
 1453SOL    HW1 5258   6.698   5.210   5.081
 1453SOL    HW2 5259   6.796   5.283   4.974
 1454SOL     OW 5260   3.754   2.131   3.952
 1454SOL    HW1 5261   3.762   2.098   4.046
 1454SOL    HW2 5262   3.687   2.206   3.949
 1455SOL     OW 5263   0.531   5.684   1.703
 1455SOL    HW1 5264   0.615   5.731   1.676
 1455SOL    HW2 5265   0.554   5.591   1.732
 1456SOL     OW 5266   6.364   4.859   4.661
 1456SOL    HW1 5267   6.330   4.920   4.731
 1456SOL    HW2 5268   6.316   4.877   4.575
 1457SOL     OW 5269   1.251   4.394   6.217
 1457SOL    HW1 5270   1.257   4.402   6.316
 1457SOL    HW2 5271   1.277   4.480   6.174
 1458SOL     OW 5272   4.898   4.956   5.342
 1458SOL    HW1 5273   4.863   4.864   5.360
 1458SOL    HW2 5274   4.829   5.010   5.294
 1459SOL     OW 5275   5.164   6.479   5.048
 1459SOL    HW1 5276   5.083   6.499   4.993
 1459SOL    HW2 5277   5.219   6.562   5.058
 1460SOL     OW 5278   1.207   6.044   5.547
 1460SOL    HW1 5279   1.266   6.123   5.559
 1460SOL    HW2 5280   1.262   5.961   5.544
 1461SOL     OW 5281   6.832   3.223   3.459
 1461SOL    HW1 5282   6.845   3.272   3.545
 1461SOL    HW2 5283   6.758   3.157   3.469
 1462SOL     OW 5284   0.371   0.370   1.907
 1462SOL    HW1 5285   0.450   0.383   1.847
 1462SOL    HW2 5286   0.401   0.325   1.992
 1463SOL     OW 5287   1.514   5.524   0.133
 1463SOL    HW1 5288   1.569   5.553   0.054
 1463SOL    HW2 5289   1.500   5.602   0.194
 1464SOL     OW 5290   1.211   4.144   3.467
 1464SOL    HW1 5291   1.246   4.130   3.560
 1464SOL    HW2 5292   1.244   4.232   3.432
 1465SOL     OW 5293   0.773   2.570   3.398
 1465SOL    HW1 5294   0.723   2.497   3.351
 1465SOL    HW2 5295   0.779   2.549   3.496
 1466SOL     OW 5296   4.986   2.337   2.169
 1466SOL    HW1 5297   4.972   2.421   2.116
 1466SOL    HW2 5298   4.916   2.331   2.241
 1467SOL     OW 5299   1.330   1.300   4.357
 1467SOL    HW1 5300   1.236   1.267   4.352
 1467SOL    HW2 5301   1.331   1.400   4.349
 1468SOL     OW 5302   2.226   5.534   2.636
 1468SOL    HW1 5303   2.203   5.438   2.649
 1468SOL    HW2 5304   2.150   5.591   2.668
 1469SOL     OW 5305   6.411   4.160   3.197
 1469SOL    HW1 5306   6.404   4.114   3.108
 1469SOL    HW2 5307   6.488   4.122   3.248
 1470SOL     OW 5308   6.390   1.616   1.099
 1470SOL    HW1 5309   6.336   1.674   1.160
 1470SOL    HW2 5310   6.487   1.627   1.120
 1471SOL     OW 5311   5.443   6.604   1.785
 1471SOL    HW1 5312   5.418   6.522   1.837
 1471SOL    HW2 5313   5.494   6.666   1.845
 1472SOL     OW 5314   1.751   0.086   6.076
 1472SOL    HW1 5315   1.743   7.016   6.103
 1472SOL    HW2 5316   1.669   0.135   6.104
 1473SOL     OW 5317   1.955   5.606   3.893
 1473SOL    HW1 5318   2.036   5.546   3.897
 1473SOL    HW2 5319   1.907   5.602   3.980
 1474SOL     OW 5320   2.970   5.145   1.623
 1474SOL    HW1 5321   2.901   5.208   1.659
 1474SOL    HW2 5322   3.043   5.134   1.691
 1475SOL     OW 5323   5.725   0.243   6.752
 1475SOL    HW1 5324   5.768   0.214   6.666
 1475SOL    HW2 5325   5.793   0.288   6.810
 1476SOL     OW 5326   4.884   0.529   1.228
 1476SOL    HW1 5327   4.882   0.628   1.223
 1476SOL    HW2 5328   4.859   0.499   1.321
 1477SOL     OW 5329   3.571   4.994   1.777
 1477SOL    HW1 5330   3.488   4.991   1.722
 1477SOL    HW2 5331   3.563   4.930   1.853
 1478SOL     OW 5332   5.154   5.350   6.411
 1478SOL    HW1 5333   5.063   5.383   6.385
 1478SOL    HW2 5334   5.168   5.259   6.372
 1479SOL     OW 5335   4.113   3.833   1.125
 1479SOL    HW1 5336   4.014   3.825   1.119
 1479SOL    HW2 5337   4.147   3.886   1.047
 1480SOL     OW 5338   3.305   0.157   4.971
 1480SOL    HW1 5339   3.242   0.195   5.038
 1480SOL    HW2 5340   3.309   0.058   4.982
 1481SOL     OW 5341   5.247   2.518   5.909
 1481SOL    HW1 5342   5.226   2.597   5.853
 1481SOL    HW2 5343   5.346   2.509   5.919
 1482SOL     OW 5344   4.877   1.262   0.783
 1482SOL    HW1 5345   4.881   1.163   0.795
 1482SOL    HW2 5346   4.804   1.299   0.841
 1483SOL     OW 5347   5.423   1.444   5.928
 1483SOL    HW1 5348   5.369   1.425   5.845
 1483SOL    HW2 5349   5.376   1.514   5.982
 1484SOL     OW 5350   3.524   5.787   5.133
 1484SOL    HW1 5351   3.494   5.734   5.054
 1484SOL    HW2 5352   3.444   5.812   5.188
 1485SOL     OW 5353   5.270   2.208   2.913
 1485SOL    HW1 5354   5.172   2.215   2.895
 1485SOL    HW2 5355   5.307   2.127   2.866
 1486SOL     OW 5356   4.869   6.891   3.789
 1486SOL    HW1 5357   4.955   6.910   3.742
 1486SOL    HW2 5358   4.799   6.956   3.760
 1487SOL     OW 5359   6.779   0.678   1.093
 1487SOL    HW1 5360   6.821   0.588   1.101
 1487SOL    HW2 5361   6.699   0.672   1.034
 1488SOL     OW 5362   6.492   1.695   2.587
 1488SOL    HW1 5363   6.472   1.598   2.597
 1488SOL    HW2 5364   6.407   1.745   2.569
 1489SOL     OW 5365   3.456   4.327   0.465
 1489SOL    HW1 5366   3.399   4.408   0.475
 1489SOL    HW2 5367   3.480   4.292   0.556
 1490SOL     OW 5368   6.830   2.569   2.176
 1490SOL    HW1 5369   6.905   2.530   2.123
 1490SOL    HW2 5370   6.755   2.503   2.182
 1491SOL     OW 5371   6.278   2.530   3.750
 1491SOL    HW1 5372   6.321   2.558   3.836
 1491SOL    HW2 5373   6.330   2.568   3.673
 1492SOL     OW 5374   6.255   1.250   3.366
 1492SOL    HW1 5375   6.176   1.189   3.371
 1492SOL    HW2 5376   6.307   1.243   3.451
 1493SOL     OW 5377   4.566   2.659   5.932
 1493SOL    HW1 5378   4.481   2.634   5.978
 1493SOL    HW2 5379   4.619   2.576   5.915
 1494SOL     OW 5380   6.514   4.523   5.412
 1494SOL    HW1 5381   6.553   4.472   5.335
 1494SOL    HW2 5382   6.492   4.460   5.486
 1495SOL     OW 5383   6.921   4.266   4.519
 1495SOL    HW1 5384   6.846   4.211   4.481
 1495SOL    HW2 5385   6.994   4.205   4.550
 1496SOL     OW 5386   6.643   5.336   6.203
 1496SOL    HW1 5387   6.740   5.309   6.211
 1496SOL    HW2 5388   6.637   5.428   6.164
 1497SOL     OW 5389   5.801   2.710   2.580
 1497SOL    HW1 5390   5.828   2.710   2.676
 1497SOL    HW2 5391   5.748   2.628   2.560
 1498SOL     OW 5392   3.358   3.944   0.660
 1498SOL    HW1 5393   3.332   3.967   0.754
 1498SOL    HW2 5394   3.275   3.928   0.606
 1499SOL     OW 5395   0.631   4.096   5.152
 1499SOL    HW1 5396   0.720   4.052   5.145
 1499SOL    HW2 5397   0.560   4.027   5.163
 1500SOL     OW 5398   0.978   5.627   1.670
 1500SOL    HW1 5399   0.933   5.597   1.585
 1500SOL    HW2 5400   1.070   5.660   1.649
 1501SOL     OW 5401   6.044   2.728   0.325
 1501SOL    HW1 5402   5.989   2.673   0.387
 1501SOL    HW2 5403   6.141   2.705   0.338
 1502SOL     OW 5404   6.640   0.201   6.297
 1502SOL    HW1 5405   6.689   0.210   6.210
 1502SOL    HW2 5406   6.702   0.163   6.366
 1503SOL     OW 5407   6.526   4.809   1.921
 1503SOL    HW1 5408   6.586   4.730   1.933
 1503SOL    HW2 5409   6.507   4.851   2.010
 1504SOL     OW 5410   1.294   0.186   2.368
 1504SOL    HW1 5411   1.368   0.122   2.389
 1504SOL    HW2 5412   1.275   0.184   2.270
 1505SOL     OW 5413   5.105   5.951   5.060
 1505SOL    HW1 5414   5.077   5.981   5.152
 1505SOL    HW2 5415   5.199   5.916   5.064
 1506SOL     OW 5416   0.546   1.756   0.888
 1506SOL    HW1 5417   0.635   1.798   0.868
 1506SOL    HW2 5418   0.507   1.719   0.804
 1507SOL     OW 5419   1.295   2.974   4.301
 1507SOL    HW1 5420   1.375   2.991   4.359
 1507SOL    HW2 5421   1.324   2.956   4.208
 1508SOL     OW 5422   1.195   0.570   0.998
 1508SOL    HW1 5423   1.217   0.485   1.045
 1508SOL    HW2 5424   1.162   0.638   1.064
 1509SOL     OW 5425   4.987   0.349   4.325
 1509SOL    HW1 5426   4.914   0.299   4.371
 1509SOL    HW2 5427   5.018   0.297   4.245
 1510SOL     OW 5428   3.631   5.611   4.327
 1510SOL    HW1 5429   3.545   5.601   4.277
 1510SOL    HW2 5430   3.665   5.520   4.352
 1511SOL     OW 5431   2.971   3.585   4.457
 1511SOL    HW1 5432   2.928   3.668   4.423
 1511SOL    HW2 5433   3.025   3.543   4.384
 1512SOL     OW 5434   5.855   6.073   1.013
 1512SOL    HW1 5435   5.927   6.106   0.952
 1512SOL    HW2 5436   5.767   6.075   0.964
 1513SOL     OW 5437   3.057   6.700   6.175
 1513SOL    HW1 5438   2.975   6.750   6.147
 1513SOL    HW2 5439   3.074   6.716   6.272
 1514SOL     OW 5440   3.167   2.567   5.668
 1514SOL    HW1 5441   3.150   2.662   5.696
 1514SOL    HW2 5442   3.198   2.566   5.573
 1515SOL     OW 5443   5.162   1.820   1.691
 1515SOL    HW1 5444   5.166   1.745   1.757
 1515SOL    HW2 5445   5.193   1.788   1.602
 1516SOL     OW 5446   5.945   0.055   5.287
 1516SOL    HW1 5447   6.029   0.101   5.315
 1516SOL    HW2 5448   5.870   0.085   5.346
 1517SOL     OW 5449   3.664   6.146   3.884
 1517SOL    HW1 5450   3.570   6.156   3.916
 1517SOL    HW2 5451   3.706   6.066   3.927
 1518SOL     OW 5452   0.808   3.007   0.104
 1518SOL    HW1 5453   0.886   2.963   0.149
 1518SOL    HW2 5454   0.745   2.937   0.071
 1519SOL     OW 5455   0.450   4.432   6.641
 1519SOL    HW1 5456   0.383   4.500   6.610
 1519SOL    HW2 5457   0.402   4.352   6.677
 1520SOL     OW 5458   0.386   5.800   2.495
 1520SOL    HW1 5459   0.448   5.784   2.572
 1520SOL    HW2 5460   0.432   5.775   2.409
 1521SOL     OW 5461   2.214   4.963   5.967
 1521SOL    HW1 5462   2.296   4.993   6.016
 1521SOL    HW2 5463   2.221   4.866   5.946
 1522SOL     OW 5464   4.921   5.911   3.774
 1522SOL    HW1 5465   4.977   5.937   3.695
 1522SOL    HW2 5466   4.974   5.853   3.835
 1523SOL     OW 5467   3.779   6.440   0.629
 1523SOL    HW1 5468   3.689   6.407   0.660
 1523SOL    HW2 5469   3.810   6.383   0.553
 1524SOL     OW 5470   2.243   1.527   3.040
 1524SOL    HW1 5471   2.152   1.494   3.063
 1524SOL    HW2 5472   2.236   1.619   3.002
 1525SOL     OW 5473   5.488   3.015   6.837
 1525SOL    HW1 5474   5.560   2.968   6.786
 1525SOL    HW2 5475   5.420   2.949   6.867
 1526SOL     OW 5476   0.927   1.109   0.174
 1526SOL    HW1 5477   0.894   1.017   0.192
 1526SOL    HW2 5478   0.997   1.106   0.103
 1527SOL     OW 5479   3.912   1.125   4.039
 1527SOL    HW1 5480   3.919   1.026   4.037
 1527SOL    HW2 5481   3.957   1.163   3.958
 1528SOL     OW 5482   4.138   4.014   1.443
 1528SOL    HW1 5483   4.222   3.960   1.434
 1528SOL    HW2 5484   4.084   3.979   1.520
 1529SOL     OW 5485   4.675   1.233   5.835
 1529SOL    HW1 5486   4.634   1.142   5.830
 1529SOL    HW2 5487   4.631   1.293   5.768
 1530SOL     OW 5488   3.279   5.908   1.393
 1530SOL    HW1 5489   3.376   5.898   1.373
 1530SOL    HW2 5490   3.228   5.832   1.353
 1531SOL     OW 5491   3.872   6.709   4.000
 1531SOL    HW1 5492   3.840   6.803   3.986
 1531SOL    HW2 5493   3.944   6.708   4.070
 1532SOL     OW 5494   2.986   5.683   6.384
 1532SOL    HW1 5495   3.037   5.746   6.325
 1532SOL    HW2 5496   3.042   5.602   6.403
 1533SOL     OW 5497   6.091   5.031   1.684
 1533SOL    HW1 5498   6.145   4.962   1.732
 1533SOL    HW2 5499   6.144   5.070   1.609
 1534SOL     OW 5500   3.682   5.544   6.309
 1534SOL    HW1 5501   3.649   5.590   6.227
 1534SOL    HW2 5502   3.614   5.555   6.382
 1535SOL     OW 5503   5.906   5.830   4.221
 1535SOL    HW1 5504   5.987   5.880   4.253
 1535SOL    HW2 5505   5.931   5.774   4.143
 1536SOL     OW 5506   4.639   3.301   6.138
 1536SOL    HW1 5507   4.605   3.367   6.071
 1536SOL    HW2 5508   4.640   3.210   6.097
 1537SOL     OW 5509   3.477   5.207   3.211
 1537SOL    HW1 5510   3.567   5.201   3.169
 1537SOL    HW2 5511   3.408   5.173   3.148
 1538SOL     OW 5512   2.977   1.635   6.686
 1538SOL    HW1 5513   2.897   1.695   6.687
 1538SOL    HW2 5514   3.060   1.690   6.694
 1539SOL     OW 5515   5.812   3.433   0.806
 1539SOL    HW1 5516   5.895   3.452   0.858
 1539SOL    HW2 5517   5.832   3.441   0.708
 1540SOL     OW 5518   3.631   6.563   4.645
 1540SOL    HW1 5519   3.609   6.584   4.740
 1540SOL    HW2 5520   3.598   6.471   4.623
 1541SOL     OW 5521   3.645   3.371   4.868
 1541SOL    HW1 5522   3.725   3.312   4.860
 1541SOL    HW2 5523   3.576   3.327   4.926
 1542SOL     OW 5524   0.314   0.274   2.637
 1542SOL    HW1 5525   0.320   0.210   2.561
 1542SOL    HW2 5526   0.317   0.224   2.724
 1543SOL     OW 5527   2.855   4.589   7.024
 1543SOL    HW1 5528   2.805   4.674   7.011
 1543SOL    HW2 5529   2.793   4.512   7.010
 1544SOL     OW 5530   3.635   3.594   4.284
 1544SOL    HW1 5531   3.551   3.574   4.233
 1544SOL    HW2 5532   3.709   3.614   4.220
 1545SOL     OW 5533   5.935   6.079   2.226
 1545SOL    HW1 5534   5.996   6.006   2.195
 1545SOL    HW2 5535   5.967   6.114   2.314
 1546SOL     OW 5536   5.377   6.754   5.600
 1546SOL    HW1 5537   5.411   6.679   5.542
 1546SOL    HW2 5538   5.337   6.825   5.542
 1547SOL     OW 5539   1.898   3.549   6.804
 1547SOL    HW1 5540   1.919   3.605   6.884
 1547SOL    HW2 5541   1.807   3.573   6.769
 1548SOL     OW 5542   6.383   1.928   6.490
 1548SOL    HW1 5543   6.354   1.993   6.420
 1548SOL    HW2 5544   6.346   1.955   6.579
 1549SOL     OW 5545   4.483   0.550   4.914
 1549SOL    HW1 5546   4.579   0.524   4.904
 1549SOL    HW2 5547   4.443   0.566   4.824
 1550SOL     OW 5548   4.012   3.155   3.368
 1550SOL    HW1 5549   3.951   3.157   3.289
 1550SOL    HW2 5550   4.092   3.212   3.349
 1551SOL     OW 5551   6.432   4.655   5.880
 1551SOL    HW1 5552   6.436   4.555   5.881
 1551SOL    HW2 5553   6.505   4.691   5.937
 1552SOL     OW 5554   1.380   4.319   1.693
 1552SOL    HW1 5555   1.328   4.400   1.663
 1552SOL    HW2 5556   1.447   4.347   1.761
 1553SOL     OW 5557   1.549   1.469   5.874
 1553SOL    HW1 5558   1.571   1.555   5.922
 1553SOL    HW2 5559   1.603   1.463   5.790
 1554SOL     OW 5560   2.928   1.288   4.188
 1554SOL    HW1 5561   2.954   1.372   4.140
 1554SOL    HW2 5562   2.847   1.249   4.144
 1555SOL     OW 5563   6.422   4.118   6.157
 1555SOL    HW1 5564   6.438   4.048   6.086
 1555SOL    HW2 5565   6.510   4.157   6.185
 1556SOL     OW 5566   2.174   1.041   6.098
 1556SOL    HW1 5567   2.271   1.064   6.087
 1556SOL    HW2 5568   2.145   1.065   6.190
 1557SOL     OW 5569   0.313   2.543   6.557
 1557SOL    HW1 5570   0.288   2.604   6.482
 1557SOL    HW2 5571   0.407   2.512   6.545
 1558SOL     OW 5572   0.352   0.063   5.055
 1558SOL    HW1 5573   0.421   7.023   5.027
 1558SOL    HW2 5574   0.387   0.156   5.038
 1559SOL     OW 5575   1.192   1.786   6.314
 1559SOL    HW1 5576   1.199   1.735   6.400
 1559SOL    HW2 5577   1.258   1.749   6.248
 1560SOL     OW 5578   6.772   0.201   6.649
 1560SOL    HW1 5579   6.677   0.220   6.676
 1560SOL    HW2 5580   6.834   0.244   6.714
 1561SOL     OW 5581   5.752   5.678   3.014
 1561SOL    HW1 5582   5.661   5.640   3.034
 1561SOL    HW2 5583   5.821   5.607   3.026
 1562SOL     OW 5584   5.777   1.242   3.850
 1562SOL    HW1 5585   5.776   1.304   3.772
 1562SOL    HW2 5586   5.718   1.164   3.831
 1563SOL     OW 5587   4.186   7.018   5.204
 1563SOL    HW1 5588   4.188   7.008   5.104
 1563SOL    HW2 5589   4.269   0.038   5.235
 1564SOL     OW 5590   1.642   1.817   2.537
 1564SOL    HW1 5591   1.636   1.746   2.607
 1564SOL    HW2 5592   1.703   1.785   2.464
 1565SOL     OW 5593   5.510   4.198   2.034
 1565SOL    HW1 5594   5.559   4.223   1.950
 1565SOL    HW2 5595   5.536   4.262   2.107
 1566SOL     OW 5596   6.100   4.426   3.406
 1566SOL    HW1 5597   6.050   4.502   3.365
 1566SOL    HW2 5598   6.168   4.462   3.470
 1567SOL     OW 5599   6.551   5.906   5.514
 1567SOL    HW1 5600   6.494   5.824   5.509
 1567SOL    HW2 5601   6.539   5.950   5.603
 1568SOL     OW 5602   0.647   6.811   0.505
 1568SOL    HW1 5603   0.709   6.734   0.492
 1568SOL    HW2 5604   0.662   6.851   0.596
 1569SOL     OW 5605   3.605   6.073   5.025
 1569SOL    HW1 5606   3.534   6.041   4.963
 1569SOL    HW2 5607   3.688   6.021   5.011
 1570SOL     OW 5608   3.653   1.830   1.705
 1570SOL    HW1 5609   3.736   1.866   1.664
 1570SOL    HW2 5610   3.670   1.737   1.740
 1571SOL     OW 5611   6.387   4.584   1.422
 1571SOL    HW1 5612   6.445   4.574   1.503
 1571SOL    HW2 5613   6.309   4.643   1.443
 1572SOL     OW 5614   1.652   6.264   2.316
 1572SOL    HW1 5615   1.623   6.223   2.402
 1572SOL    HW2 5616   1.619   6.208   2.240
 1573SOL     OW 5617   4.117   0.330   1.071
 1573SOL    HW1 5618   4.177   0.324   1.150
 1573SOL    HW2 5619   4.122   0.421   1.031
 1574SOL     OW 5620   6.158   2.619   2.153
 1574SOL    HW1 5621   6.098   2.637   2.231
 1574SOL    HW2 5622   6.211   2.702   2.133
 1575SOL     OW 5623   2.484   2.896   0.897
 1575SOL    HW1 5624   2.389   2.882   0.923
 1575SOL    HW2 5625   2.542   2.826   0.939
 1576SOL     OW 5626   6.944   6.121   4.292
 1576SOL    HW1 5627   6.924   6.027   4.266
 1576SOL    HW2 5628   6.956   6.127   4.391
 1577SOL     OW 5629   1.722   0.628   0.260
 1577SOL    HW1 5630   1.820   0.634   0.275
 1577SOL    HW2 5631   1.685   0.548   0.308
 1578SOL     OW 5632   5.434   5.458   4.834
 1578SOL    HW1 5633   5.497   5.526   4.798
 1578SOL    HW2 5634   5.424   5.383   4.768
 1579SOL     OW 5635   0.987   0.105   3.671
 1579SOL    HW1 5636   1.002   0.102   3.770
 1579SOL    HW2 5637   0.888   0.107   3.653
 1580SOL     OW 5638   3.143   3.981   5.630
 1580SOL    HW1 5639   3.203   3.944   5.560
 1580SOL    HW2 5640   3.193   3.992   5.716
 1581SOL     OW 5641   6.977   3.743   4.459
 1581SOL    HW1 5642   0.012   3.701   4.392
 1581SOL    HW2 5643   7.013   3.727   4.551
 1582SOL     OW 5644   5.897   5.221   4.281
 1582SOL    HW1 5645   5.905   5.320   4.273
 1582SOL    HW2 5646   5.813   5.190   4.237
 1583SOL     OW 5647   1.646   2.550   3.040
 1583SOL    HW1 5648   1.659   2.646   3.061
 1583SOL    HW2 5649   1.654   2.536   2.941
 1584SOL     OW 5650   2.439   0.530   6.834
 1584SOL    HW1 5651   2.516   0.578   6.875
 1584SOL    HW2 5652   2.470   0.480   6.753
 1585SOL     OW 5653   5.761   1.973   5.831
 1585SOL    HW1 5654   5.744   1.899   5.766
 1585SOL    HW2 5655   5.715   2.056   5.798
 1586SOL     OW 5656   3.649   4.100   2.754
 1586SOL    HW1 5657   3.593   4.110   2.671
 1586SOL    HW2 5658   3.591   4.111   2.835
 1587SOL     OW 5659   2.696   6.080   6.813
 1587SOL    HW1 5660   2.770   6.021   6.781
 1587SOL    HW2 5661   2.715   6.109   6.907
 1588SOL     OW 5662   6.075   3.813   1.844
 1588SOL    HW1 5663   5.992   3.832   1.896
 1588SOL    HW2 5664   6.066   3.725   1.797
 1589SOL     OW 5665   5.456   4.135   3.946
 1589SOL    HW1 5666   5.425   4.086   3.865
 1589SOL    HW2 5667   5.429   4.084   4.028
 1590SOL     OW 5668   1.887   0.760   5.977
 1590SOL    HW1 5669   1.961   0.791   5.917
 1590SOL    HW2 5670   1.815   0.829   5.978
 1591SOL     OW 5671   0.496   4.497   1.631
 1591SOL    HW1 5672   0.571   4.454   1.581
 1591SOL    HW2 5673   0.532   4.569   1.690
 1592SOL     OW 5674   3.235   3.260   2.505
 1592SOL    HW1 5675   3.297   3.209   2.565
 1592SOL    HW2 5676   3.161   3.200   2.475
 1593SOL     OW 5677   0.668   5.521   5.505
 1593SOL    HW1 5678   0.748   5.504   5.562
 1593SOL    HW2 5679   0.696   5.531   5.410
 1594SOL     OW 5680   6.999   5.259   3.524
 1594SOL    HW1 5681   0.029   5.283   3.445
 1594SOL    HW2 5682   6.956   5.342   3.560
 1595SOL     OW 5683   0.652   4.746   5.884
 1595SOL    HW1 5684   0.662   4.768   5.981
 1595SOL    HW2 5685   0.561   4.706   5.868
 1596SOL     OW 5686   2.555   5.233   6.835
 1596SOL    HW1 5687   2.536   5.329   6.813
 1596SOL    HW2 5688   2.515   5.210   6.923
 1597SOL     OW 5689   2.525   0.077   0.838
 1597SOL    HW1 5690   2.524   0.096   0.936
 1597SOL    HW2 5691   2.431   0.069   0.805
 1598SOL     OW 5692   0.150   5.536   1.673
 1598SOL    HW1 5693   0.051   5.546   1.680
 1598SOL    HW2 5694   0.194   5.617   1.713
 1599SOL     OW 5695   3.565   5.205   6.934
 1599SOL    HW1 5696   3.657   5.172   6.952
 1599SOL    HW2 5697   3.508   5.193   7.016
 1600SOL     OW 5698   3.961   1.518   4.708
 1600SOL    HW1 5699   3.890   1.541   4.641
 1600SOL    HW2 5700   3.923   1.520   4.800
 1601SOL     OW 5701   1.045   5.124   4.322
 1601SOL    HW1 5702   0.960   5.159   4.283
 1601SOL    HW2 5703   1.035   5.026   4.341
 1602SOL     OW 5704   1.001   4.510   3.463
 1602SOL    HW1 5705   1.097   4.541   3.468
 1602SOL    HW2 5706   0.971   4.513   3.368
 1603SOL     OW 5707   6.802   6.951   1.099
 1603SOL    HW1 5708   6.713   6.988   1.124
 1603SOL    HW2 5709   6.857   7.022   1.055
 1604SOL     OW 5710   0.380   5.614   5.699
 1604SOL    HW1 5711   0.307   5.667   5.655
 1604SOL    HW2 5712   0.411   5.542   5.636
 1605SOL     OW 5713   5.372   6.447   3.171
 1605SOL    HW1 5714   5.286   6.497   3.174
 1605SOL    HW2 5715   5.446   6.507   3.201
 1606SOL     OW 5716   5.046   6.830   6.055
 1606SOL    HW1 5717   5.117   6.763   6.074
 1606SOL    HW2 5718   4.994   6.801   5.974
 1607SOL     OW 5719   4.177   2.213   0.956
 1607SOL    HW1 5720   4.240   2.280   0.917
 1607SOL    HW2 5721   4.103   2.195   0.891
 1608SOL     OW 5722   2.672   0.392   0.812
 1608SOL    HW1 5723   2.606   0.317   0.808
 1608SOL    HW2 5724   2.648   0.453   0.888
 1609SOL     OW 5725   4.669   1.686   5.352
 1609SOL    HW1 5726   4.678   1.645   5.261
 1609SOL    HW2 5727   4.737   1.647   5.413
 1610SOL     OW 5728   5.478   5.752   4.282
 1610SOL    HW1 5729   5.564   5.776   4.327
 1610SOL    HW2 5730   5.424   5.693   4.342
 1611SOL     OW 5731   3.129   3.558   1.207
 1611SOL    HW1 5732   3.098   3.492   1.137
 1611SOL    HW2 5733   3.111   3.520   1.298
 1612SOL     OW 5734   3.555   1.028   4.289
 1612SOL    HW1 5735   3.650   1.010   4.316
 1612SOL    HW2 5736   3.552   1.048   4.191
 1613SOL     OW 5737   1.651   5.905   0.635
 1613SOL    HW1 5738   1.595   5.986   0.620
 1613SOL    HW2 5739   1.676   5.899   0.731
 1614SOL     OW 5740   0.081   2.665   6.672
 1614SOL    HW1 5741   0.151   2.596   6.685
 1614SOL    HW2 5742   0.018   2.636   6.599
 1615SOL     OW 5743   6.541   4.770   6.363
 1615SOL    HW1 5744   6.632   4.735   6.340
 1615SOL    HW2 5745   6.517   4.739   6.455
 1616SOL     OW 5746   2.798   1.648   5.424
 1616SOL    HW1 5747   2.881   1.686   5.466
 1616SOL    HW2 5748   2.720   1.661   5.485
 1617SOL     OW 5749   4.618   0.639   4.084
 1617SOL    HW1 5750   4.575   0.555   4.052
 1617SOL    HW2 5751   4.625   0.637   4.184
 1618SOL     OW 5752   5.656   2.685   0.740
 1618SOL    HW1 5753   5.683   2.605   0.794
 1618SOL    HW2 5754   5.584   2.658   0.676
 1619SOL     OW 5755   1.831   3.173   4.575
 1619SOL    HW1 5756   1.817   3.272   4.577
 1619SOL    HW2 5757   1.849   3.140   4.668
 1620SOL     OW 5758   3.700   5.160   1.593
 1620SOL    HW1 5759   3.621   5.134   1.648
 1620SOL    HW2 5760   3.670   5.189   1.502
 1621SOL     OW 5761   1.538   1.200   1.505
 1621SOL    HW1 5762   1.596   1.128   1.466
 1621SOL    HW2 5763   1.445   1.166   1.515
 1622SOL     OW 5764   2.306   2.499   4.231
 1622SOL    HW1 5765   2.277   2.434   4.301
 1622SOL    HW2 5766   2.240   2.498   4.156
 1623SOL     OW 5767   2.965   2.058   5.181
 1623SOL    HW1 5768   2.989   2.116   5.258
 1623SOL    HW2 5769   2.998   2.099   5.096
 1624SOL     OW 5770   2.407   0.452   0.666
 1624SOL    HW1 5771   2.436   0.504   0.747
 1624SOL    HW2 5772   2.482   0.452   0.599
 1625SOL     OW 5773   6.483   5.540   1.927
 1625SOL    HW1 5774   6.409   5.608   1.928
 1625SOL    HW2 5775   6.504   5.516   1.833
 1626SOL     OW 5776   2.235   2.749   5.951
 1626SOL    HW1 5777   2.321   2.700   5.963
 1626SOL    HW2 5778   2.231   2.787   5.859
 1627SOL     OW 5779   5.110   3.189   3.831
 1627SOL    HW1 5780   5.014   3.206   3.853
 1627SOL    HW2 5781   5.168   3.233   3.900
 1628SOL     OW 5782   2.927   3.222   0.450
 1628SOL    HW1 5783   2.850   3.195   0.508
 1628SOL    HW2 5784   2.992   3.146   0.443
 1629SOL     OW 5785   4.708   2.104   3.533
 1629SOL    HW1 5786   4.634   2.053   3.577
 1629SOL    HW2 5787   4.678   2.138   3.444
 1630SOL     OW 5788   0.053   4.996   4.348
 1630SOL    HW1 5789   0.086   4.988   4.254
 1630SOL    HW2 5790   0.025   4.906   4.381
 1631SOL     OW 5791   0.728   6.545   5.627
 1631SOL    HW1 5792   0.817   6.558   5.670
 1631SOL    HW2 5793   0.684   6.464   5.666
 1632SOL     OW 5794   6.091   0.373   1.776
 1632SOL    HW1 5795   6.082   0.444   1.706
 1632SOL    HW2 5796   6.188   0.351   1.790
 1633SOL     OW 5797   5.618   2.778   3.504
 1633SOL    HW1 5798   5.715   2.761   3.489
 1633SOL    HW2 5799   5.602   2.876   3.512
 1634SOL     OW 5800   3.413   0.775   0.089
 1634SOL    HW1 5801   3.446   0.855   0.139
 1634SOL    HW2 5802   3.428   0.789   7.017
 1635SOL     OW 5803   0.600   5.248   3.541
 1635SOL    HW1 5804   0.635   5.160   3.574
 1635SOL    HW2 5805   0.544   5.291   3.612
 1636SOL     OW 5806   2.428   6.240   1.550
 1636SOL    HW1 5807   2.351   6.177   1.557
 1636SOL    HW2 5808   2.512   6.188   1.538
 1637SOL     OW 5809   6.981   3.391   2.456
 1637SOL    HW1 5810   6.944   3.424   2.369
 1637SOL    HW2 5811   0.045   3.430   2.471
 1638SOL     OW 5812   1.930   3.006   5.046
 1638SOL    HW1 5813   1.962   2.971   4.958
 1638SOL    HW2 5814   2.008   3.045   5.096
 1639SOL     OW 5815   4.865   4.440   2.535
 1639SOL    HW1 5816   4.927   4.362   2.535
 1639SOL    HW2 5817   4.919   4.525   2.528
 1640SOL     OW 5818   6.191   0.562   1.198
 1640SOL    HW1 5819   6.128   0.521   1.266
 1640SOL    HW2 5820   6.268   0.500   1.184
 1641SOL     OW 5821   6.368   2.748   5.367
 1641SOL    HW1 5822   6.296   2.814   5.386
 1641SOL    HW2 5823   6.448   2.768   5.423
 1642SOL     OW 5824   0.619   2.378   1.259
 1642SOL    HW1 5825   0.541   2.323   1.291
 1642SOL    HW2 5826   0.612   2.391   1.160
 1643SOL     OW 5827   3.958   0.664   5.774
 1643SOL    HW1 5828   3.889   0.722   5.820
 1643SOL    HW2 5829   3.990   0.594   5.838
 1644SOL     OW 5830   3.484   1.253   1.345
 1644SOL    HW1 5831   3.489   1.153   1.344
 1644SOL    HW2 5832   3.447   1.285   1.257
 1645SOL     OW 5833   2.080   6.766   6.240
 1645SOL    HW1 5834   2.095   6.846   6.182
 1645SOL    HW2 5835   2.162   6.708   6.239
 1646SOL     OW 5836   0.910   3.712   1.049
 1646SOL    HW1 5837   0.930   3.659   0.967
 1646SOL    HW2 5838   0.860   3.655   1.115
 1647SOL     OW 5839   6.092   2.621   3.468
 1647SOL    HW1 5840   6.189   2.620   3.489
 1647SOL    HW2 5841   6.040   2.643   3.551
 1648SOL     OW 5842   4.435   6.932   2.209
 1648SOL    HW1 5843   4.455   0.003   2.215
 1648SOL    HW2 5844   4.511   6.880   2.249
 1649SOL     OW 5845   3.501   0.383   3.101
 1649SOL    HW1 5846   3.473   0.354   3.192
 1649SOL    HW2 5847   3.600   0.376   3.092
 1650SOL     OW 5848   2.943   6.395   3.859
 1650SOL    HW1 5849   2.984   6.306   3.840
 1650SOL    HW2 5850   2.971   6.425   3.951
 1651SOL     OW 5851   1.621   6.485   0.710
 1651SOL    HW1 5852   1.538   6.529   0.744
 1651SOL    HW2 5853   1.701   6.519   0.759
 1652SOL     OW 5854   2.693   2.813   1.690
 1652SOL    HW1 5855   2.758   2.744   1.719
 1652SOL    HW2 5856   2.628   2.773   1.625
 1653SOL     OW 5857   0.910   5.251   0.586
 1653SOL    HW1 5858   0.935   5.189   0.512
 1653SOL    HW2 5859   0.862   5.200   0.658
 1654SOL     OW 5860   0.371   2.650   3.172
 1654SOL    HW1 5861   0.290   2.618   3.124
 1654SOL    HW2 5862   0.453   2.612   3.128
 1655SOL     OW 5863   4.965   4.738   5.782
 1655SOL    HW1 5864   4.980   4.829   5.820
 1655SOL    HW2 5865   5.002   4.669   5.844
 1656SOL     OW 5866   0.748   4.268   3.026
 1656SOL    HW1 5867   0.692   4.230   3.100
 1656SOL    HW2 5868   0.807   4.197   2.990
 1657SOL     OW 5869   0.994   0.116   5.545
 1657SOL    HW1 5870   1.014   0.156   5.635
 1657SOL    HW2 5871   0.931   0.176   5.496
 1658SOL     OW 5872   5.977   6.198   2.738
 1658SOL    HW1 5873   5.992   6.213   2.835
 1658SOL    HW2 5874   5.948   6.103   2.723
 1659SOL     OW 5875   4.486   2.034   5.634
 1659SOL    HW1 5876   4.430   1.953   5.617
 1659SOL    HW2 5877   4.529   2.063   5.549
 1660SOL     OW 5878   1.726   5.699   3.264
 1660SOL    HW1 5879   1.693   5.733   3.353
 1660SOL    HW2 5880   1.649   5.693   3.200
 1661SOL     OW 5881   2.807   0.170   2.269
 1661SOL    HW1 5882   2.824   0.231   2.192
 1661SOL    HW2 5883   2.893   0.128   2.298
 1662SOL     OW 5884   0.685   0.361   3.648
 1662SOL    HW1 5885   0.669   0.284   3.587
 1662SOL    HW2 5886   0.601   0.383   3.698
 1663SOL     OW 5887   3.102   0.000   3.550
 1663SOL    HW1 5888   3.101   0.025   3.646
 1663SOL    HW2 5889   3.056   6.939   3.537
 1664SOL     OW 5890   2.280   5.838   4.489
 1664SOL    HW1 5891   2.234   5.783   4.558
 1664SOL    HW2 5892   2.259   5.802   4.398
 1665SOL     OW 5893   0.711   6.618   4.990
 1665SOL    HW1 5894   0.641   6.651   4.928
 1665SOL    HW2 5895   0.767   6.694   5.023
 1666SOL     OW 5896   5.904   2.930   6.110
 1666SOL    HW1 5897   5.984   2.879   6.139
 1666SOL    HW2 5898   5.884   3.002   6.177
 1667SOL     OW 5899   6.758   0.660   6.181
 1667SOL    HW1 5900   6.800   0.619   6.099
 1667SOL    HW2 5901   6.783   0.757   6.185
 1668SOL     OW 5902   3.155   1.091   5.322
 1668SOL    HW1 5903   3.095   1.166   5.352
 1668SOL    HW2 5904   3.234   1.129   5.275
 1669SOL     OW 5905   5.735   6.722   6.477
 1669SOL    HW1 5906   5.797   6.758   6.407
 1669SOL    HW2 5907   5.692   6.798   6.526
 1670SOL     OW 5908   5.585   4.225   5.724
 1670SOL    HW1 5909   5.654   4.267   5.784
 1670SOL    HW2 5910   5.590   4.267   5.634
 1671SOL     OW 5911   5.334   4.527   0.050
 1671SOL    HW1 5912   5.269   4.451   0.046
 1671SOL    HW2 5913   5.347   4.556   0.145
 1672SOL     OW 5914   2.162   5.284   2.703
 1672SOL    HW1 5915   2.194   5.191   2.685
 1672SOL    HW2 5916   2.066   5.292   2.677
 1673SOL     OW 5917   6.842   1.854   4.038
 1673SOL    HW1 5918   6.877   1.776   3.986
 1673SOL    HW2 5919   6.832   1.829   4.134
 1674SOL     OW 5920   1.092   4.904   6.223
 1674SOL    HW1 5921   1.017   4.839   6.236
 1674SOL    HW2 5922   1.179   4.857   6.233
 1675SOL     OW 5923   4.599   2.677   6.933
 1675SOL    HW1 5924   4.516   2.726   6.905
 1675SOL    HW2 5925   4.575   2.585   6.964
 1676SOL     OW 5926   2.252   0.813   3.349
 1676SOL    HW1 5927   2.330   0.807   3.411
 1676SOL    HW2 5928   2.171   0.778   3.394
 1677SOL     OW 5929   6.292   0.999   5.406
 1677SOL    HW1 5930   6.381   1.035   5.435
 1677SOL    HW2 5931   6.239   1.071   5.363
 1678SOL     OW 5932   5.335   6.926   1.132
 1678SOL    HW1 5933   5.315   7.024   1.142
 1678SOL    HW2 5934   5.308   6.878   1.215
 1679SOL     OW 5935   6.976   4.074   6.947
 1679SOL    HW1 5936   6.910   4.141   6.914
 1679SOL    HW2 5937   6.952   4.045   0.013
 1680SOL     OW 5938   1.114   1.720   5.061
 1680SOL    HW1 5939   1.074   1.796   5.113
 1680SOL    HW2 5940   1.212   1.734   5.051
 1681SOL     OW 5941   6.002   5.445   1.391
 1681SOL    HW1 5942   5.911   5.407   1.404
 1681SOL    HW2 5943   6.006   5.492   1.303
 1682SOL     OW 5944   6.212   3.320   5.451
 1682SOL    HW1 5945   6.128   3.305   5.400
 1682SOL    HW2 5946   6.209   3.411   5.494
 1683SOL     OW 5947   5.824   5.463   0.320
 1683SOL    HW1 5948   5.807   5.378   0.270
 1683SOL    HW2 5949   5.755   5.531   0.294
 1684SOL     OW 5950   0.692   5.946   4.596
 1684SOL    HW1 5951   0.714   5.849   4.591
 1684SOL    HW2 5952   0.765   6.000   4.555
 1685SOL     OW 5953   1.422   1.821   6.902
 1685SOL    HW1 5954   1.480   1.873   6.965
 1685SOL    HW2 5955   1.468   1.736   6.878
 1686SOL     OW 5956   1.735   5.845   6.710
 1686SOL    HW1 5957   1.761   5.757   6.749
 1686SOL    HW2 5958   1.809   5.879   6.651
 1687SOL     OW 5959   1.478   0.232   1.720
 1687SOL    HW1 5960   1.442   0.280   1.801
 1687SOL    HW2 5961   1.571   0.265   1.702
 1688SOL     OW 5962   0.440   1.947   3.549
 1688SOL    HW1 5963   0.461   1.948   3.647
 1688SOL    HW2 5964   0.468   1.860   3.509
 1689SOL     OW 5965   2.745   1.154   2.450
 1689SOL    HW1 5966   2.822   1.090   2.452
 1689SOL    HW2 5967   2.668   1.111   2.402
 1690SOL     OW 5968   0.577   2.352   0.980
 1690SOL    HW1 5969   0.479   2.337   0.982
 1690SOL    HW2 5970   0.597   2.436   0.929
 1691SOL     OW 5971   4.755   5.246   2.802
 1691SOL    HW1 5972   4.843   5.290   2.784
 1691SOL    HW2 5973   4.717   5.210   2.717
 1692SOL     OW 5974   1.426   0.778   4.143
 1692SOL    HW1 5975   1.456   0.859   4.193
 1692SOL    HW2 5976   1.397   0.805   4.051
 1693SOL     OW 5977   2.736   2.375   3.772
 1693SOL    HW1 5978   2.679   2.312   3.825
 1693SOL    HW2 5979   2.779   2.325   3.696
 1694SOL     OW 5980   4.763   6.218   5.956
 1694SOL    HW1 5981   4.674   6.211   5.912
 1694SOL    HW2 5982   4.782   6.133   6.006
 1695SOL     OW 5983   2.399   1.996   5.903
 1695SOL    HW1 5984   2.494   1.968   5.892
 1695SOL    HW2 5985   2.395   2.082   5.954
 1696SOL     OW 5986   3.217   5.441   1.116
 1696SOL    HW1 5987   3.129   5.434   1.068
 1696SOL    HW2 5988   3.271   5.515   1.076
 1697SOL     OW 5989   1.017   1.385   1.721
 1697SOL    HW1 5990   1.001   1.287   1.723
 1697SOL    HW2 5991   1.115   1.402   1.711
 1698SOL     OW 5992   5.071   1.899   0.606
 1698SOL    HW1 5993   5.171   1.900   0.602
 1698SOL    HW2 5994   5.041   1.843   0.683
 1699SOL     OW 5995   2.218   3.880   1.152
 1699SOL    HW1 5996   2.178   3.955   1.204
 1699SOL    HW2 5997   2.310   3.904   1.122
 1700SOL     OW 5998   6.390   3.001   4.350
 1700SOL    HW1 5999   6.484   2.981   4.377
 1700SOL    HW2 6000   6.362   2.938   4.277
 1701SOL     OW 6001   5.846   3.468   4.529
 1701SOL    HW1 6002   5.840   3.559   4.489
 1701SOL    HW2 6003   5.943   3.446   4.546
 1702SOL     OW 6004   4.601   2.763   1.353
 1702SOL    HW1 6005   4.651   2.826   1.294
 1702SOL    HW2 6006   4.555   2.814   1.425
 1703SOL     OW 6007   1.785   4.271   0.385
 1703SOL    HW1 6008   1.745   4.182   0.409
 1703SOL    HW2 6009   1.826   4.266   0.294
 1704SOL     OW 6010   1.043   1.244   2.312
 1704SOL    HW1 6011   1.050   1.208   2.219
 1704SOL    HW2 6012   1.047   1.167   2.377
 1705SOL     OW 6013   3.836   3.433   1.715
 1705SOL    HW1 6014   3.912   3.447   1.778
 1705SOL    HW2 6015   3.864   3.369   1.643
 1706SOL     OW 6016   2.744   0.932   6.720
 1706SOL    HW1 6017   2.818   0.997   6.699
 1706SOL    HW2 6018   2.656   0.975   6.700
 1707SOL     OW 6019   6.308   1.613   2.862
 1707SOL    HW1 6020   6.330   1.522   2.828
 1707SOL    HW2 6021   6.381   1.646   2.922
 1708SOL     OW 6022   7.015   4.715   2.324
 1708SOL    HW1 6023   0.058   4.782   2.348
 1708SOL    HW2 6024   6.990   4.725   2.228
 1709SOL     OW 6025   3.548   5.419   3.846
 1709SOL    HW1 6026   3.482   5.448   3.777
 1709SOL    HW2 6027   3.500   5.401   3.932
 1710SOL     OW 6028   0.089   5.910   3.971
 1710SOL    HW1 6029   7.018   5.904   3.995
 1710SOL    HW2 6030   0.144   5.896   4.053
 1711SOL     OW 6031   1.622   4.559   5.454
 1711SOL    HW1 6032   1.718   4.545   5.479
 1711SOL    HW2 6033   1.613   4.647   5.406
 1712SOL     OW 6034   1.249   4.813   0.991
 1712SOL    HW1 6035   1.259   4.735   0.930
 1712SOL    HW2 6036   1.310   4.802   1.070
 1713SOL     OW 6037   1.475   3.539   0.298
 1713SOL    HW1 6038   1.430   3.453   0.277
 1713SOL    HW2 6039   1.407   3.610   0.315
 1714SOL     OW 6040   3.685   1.639   0.318
 1714SOL    HW1 6041   3.625   1.594   0.252
 1714SOL    HW2 6042   3.698   1.735   0.291
 1715SOL     OW 6043   0.302   3.290   3.646
 1715SOL    HW1 6044   0.362   3.212   3.667
 1715SOL    HW2 6045   0.228   3.293   3.712
 1716SOL     OW 6046   0.288   6.750   0.218
 1716SOL    HW1 6047   0.206   6.712   0.174
 1716SOL    HW2 6048   0.342   6.675   0.257
 1717SOL     OW 6049   3.569   0.274   0.266
 1717SOL    HW1 6050   3.548   0.312   0.356
 1717SOL    HW2 6051   3.579   0.349   0.200
 1718SOL     OW 6052   0.934   4.983   5.129
 1718SOL    HW1 6053   1.002   5.056   5.131
 1718SOL    HW2 6054   0.915   4.958   5.034
 1719SOL     OW 6055   2.143   3.351   1.430
 1719SOL    HW1 6056   2.161   3.321   1.524
 1719SOL    HW2 6057   2.136   3.270   1.371
 1720SOL     OW 6058   6.528   1.715   1.534
 1720SOL    HW1 6059   6.517   1.638   1.472
 1720SOL    HW2 6060   6.609   1.768   1.508
 1721SOL     OW 6061   2.205   6.316   3.505
 1721SOL    HW1 6062   2.131   6.260   3.542
 1721SOL    HW2 6063   2.259   6.262   3.440
 1722SOL     OW 6064   5.540   6.761   1.986
 1722SOL    HW1 6065   5.565   6.857   1.999
 1722SOL    HW2 6066   5.565   6.708   2.067
 1723SOL     OW 6067   6.178   1.300   2.019
 1723SOL    HW1 6068   6.166   1.250   1.934
 1723SOL    HW2 6069   6.152   1.395   2.006
 1724SOL     OW 6070   4.961   0.650   6.816
 1724SOL    HW1 6071   4.987   0.556   6.836
 1724SOL    HW2 6072   4.922   0.654   6.724
 1725SOL     OW 6073   4.273   5.005   1.704
 1725SOL    HW1 6074   4.248   4.909   1.720
 1725SOL    HW2 6075   4.349   5.030   1.764
 1726SOL     OW 6076   0.333   5.041   4.536
 1726SOL    HW1 6077   0.404   4.973   4.517
 1726SOL    HW2 6078   0.256   5.027   4.474
 1727SOL     OW 6079   3.626   3.501   5.207
 1727SOL    HW1 6080   3.574   3.537   5.285
 1727SOL    HW2 6081   3.586   3.414   5.178
 1728SOL     OW 6082   4.794   4.177   3.461
 1728SOL    HW1 6083   4.808   4.168   3.362
 1728SOL    HW2 6084   4.773   4.088   3.500
 1729SOL     OW 6085   1.835   3.155   2.623
 1729SOL    HW1 6086   1.769   3.219   2.584
 1729SOL    HW2 6087   1.928   3.185   2.603
 1730SOL     OW 6088   5.834   2.046   4.553
 1730SOL    HW1 6089   5.818   2.022   4.457
 1730SOL    HW2 6090   5.777   1.989   4.612
 1731SOL     OW 6091   1.160   5.380   0.231
 1731SOL    HW1 6092   1.193   5.472   0.250
 1731SOL    HW2 6093   1.236   5.323   0.198
 1732SOL     OW 6094   0.436   4.842   0.099
 1732SOL    HW1 6095   0.403   4.770   0.038
 1732SOL    HW2 6096   0.504   4.805   0.161
 1733SOL     OW 6097   1.249   3.942   0.751
 1733SOL    HW1 6098   1.152   3.939   0.775
 1733SOL    HW2 6099   1.299   3.874   0.806
 1734SOL     OW 6100   4.854   3.182   1.006
 1734SOL    HW1 6101   4.809   3.269   1.031
 1734SOL    HW2 6102   4.813   3.148   0.922
 1735SOL     OW 6103   5.611   5.321   1.975
 1735SOL    HW1 6104   5.680   5.253   1.951
 1735SOL    HW2 6105   5.652   5.389   2.037
 1736SOL     OW 6106   3.077   3.647   0.582
 1736SOL    HW1 6107   3.060   3.695   0.496
 1736SOL    HW2 6108   3.007   3.575   0.594
 1737SOL     OW 6109   1.655   6.011   3.822
 1737SOL    HW1 6110   1.559   6.038   3.814
 1737SOL    HW2 6111   1.663   5.912   3.817
 1738SOL     OW 6112   1.093   2.165   1.732
 1738SOL    HW1 6113   1.034   2.100   1.683
 1738SOL    HW2 6114   1.152   2.213   1.667
 1739SOL     OW 6115   4.113   1.722   5.747
 1739SOL    HW1 6116   4.057   1.736   5.828
 1739SOL    HW2 6117   4.089   1.634   5.705
 1740SOL     OW 6118   0.852   1.177   5.957
 1740SOL    HW1 6119   0.885   1.085   5.974
 1740SOL    HW2 6120   0.891   1.211   5.871
 1741SOL     OW 6121   1.614   0.536   2.618
 1741SOL    HW1 6122   1.544   0.490   2.564
 1741SOL    HW2 6123   1.686   0.472   2.642
 1742SOL     OW 6124   5.745   0.488   4.541
 1742SOL    HW1 6125   5.754   0.588   4.539
 1742SOL    HW2 6126   5.799   0.449   4.467
 1743SOL     OW 6127   4.552   1.028   0.859
 1743SOL    HW1 6128   4.582   0.936   0.885
 1743SOL    HW2 6129   4.575   1.045   0.763
 1744SOL     OW 6130   3.109   0.814   1.546
 1744SOL    HW1 6131   3.042   0.770   1.486
 1744SOL    HW2 6132   3.179   0.748   1.571
 1745SOL     OW 6133   6.895   2.840   4.335
 1745SOL    HW1 6134   6.953   2.777   4.388
 1745SOL    HW2 6135   6.913   2.828   4.238
 1746SOL     OW 6136   2.744   0.376   5.951
 1746SOL    HW1 6137   2.810   0.432   5.900
 1746SOL    HW2 6138   2.652   0.413   5.937
 1747SOL     OW 6139   4.406   0.445   0.656
 1747SOL    HW1 6140   4.356   0.524   0.691
 1747SOL    HW2 6141   4.419   0.454   0.557
 1748SOL     OW 6142   5.799   2.026   1.705
 1748SOL    HW1 6143   5.782   1.981   1.618
 1748SOL    HW2 6144   5.721   2.012   1.766
 1749SOL     OW 6145   4.570   7.014   6.130
 1749SOL    HW1 6146   4.629   6.937   6.153
 1749SOL    HW2 6147   4.537   7.004   6.036
 1750SOL     OW 6148   5.094   0.708   3.518
 1750SOL    HW1 6149   5.147   0.678   3.597
 1750SOL    HW2 6150   5.036   0.785   3.544
 1751SOL     OW 6151   2.254   5.547   3.876
 1751SOL    HW1 6152   2.218   5.503   3.958
 1751SOL    HW2 6153   2.353   5.543   3.877
 1752SOL     OW 6154   6.264   2.417   0.255
 1752SOL    HW1 6155   6.204   2.419   0.175
 1752SOL    HW2 6156   6.249   2.499   0.310
 1753SOL     OW 6157   2.649   0.441   2.215
 1753SOL    HW1 6158   2.622   0.346   2.197
 1753SOL    HW2 6159   2.686   0.448   2.308
 1754SOL     OW 6160   3.539   2.765   0.876
 1754SOL    HW1 6161   3.590   2.685   0.907
 1754SOL    HW2 6162   3.570   2.846   0.926
 1755SOL     OW 6163   4.984   3.416   0.707
 1755SOL    HW1 6164   5.042   3.409   0.788
 1755SOL    HW2 6165   4.995   3.334   0.651
 1756SOL     OW 6166   5.825   5.534   4.208
 1756SOL    HW1 6167   5.754   5.508   4.273
 1756SOL    HW2 6168   5.855   5.628   4.226
 1757SOL     OW 6169   2.982   6.641   4.578
 1757SOL    HW1 6170   2.893   6.686   4.586
 1757SOL    HW2 6171   2.980   6.553   4.625
 1758SOL     OW 6172   2.646   1.004   3.212
 1758SOL    HW1 6173   2.569   0.992   3.150
 1758SOL    HW2 6174   2.617   1.057   3.292
 1759SOL     OW 6175   0.413   5.536   6.022
 1759SOL    HW1 6176   0.379   5.630   6.030
 1759SOL    HW2 6177   0.366   5.491   5.946
 1760SOL     OW 6178   5.818   0.680   2.638
 1760SOL    HW1 6179   5.882   0.644   2.571
 1760SOL    HW2 6180   5.724   0.668   2.605
 1761SOL     OW 6181   6.275   2.844   1.191
 1761SOL    HW1 6182   6.334   2.872   1.267
 1761SOL    HW2 6183   6.309   2.759   1.152
 1762SOL     OW 6184   5.944   2.454   6.631
 1762SOL    HW1 6185   5.936   2.356   6.650
 1762SOL    HW2 6186   5.875   2.481   6.564
 1763SOL     OW 6187   2.136   3.786   3.595
 1763SOL    HW1 6188   2.164   3.690   3.605
 1763SOL    HW2 6189   2.041   3.796   3.623
 1764SOL     OW 6190   6.614   2.826   4.152
 1764SOL    HW1 6191   6.668   2.742   4.155
 1764SOL    HW2 6192   6.673   2.904   4.170
 1765SOL     OW 6193   2.734   2.538   6.316
 1765SOL    HW1 6194   2.781   2.619   6.352
 1765SOL    HW2 6195   2.796   2.460   6.319
 1766SOL     OW 6196   5.608   3.004   5.141
 1766SOL    HW1 6197   5.658   2.933   5.091
 1766SOL    HW2 6198   5.577   3.074   5.077
 1767SOL     OW 6199   5.772   3.665   2.234
 1767SOL    HW1 6200   5.766   3.567   2.214
 1767SOL    HW2 6201   5.865   3.696   2.216
 1768SOL     OW 6202   5.574   6.215   3.917
 1768SOL    HW1 6203   5.632   6.136   3.900
 1768SOL    HW2 6204   5.507   6.193   3.988
 1769SOL     OW 6205   5.366   1.434   2.993
 1769SOL    HW1 6206   5.293   1.489   3.031
 1769SOL    HW2 6207   5.409   1.379   3.065
 1770SOL     OW 6208   2.755   5.247   5.153
 1770SOL    HW1 6209   2.663   5.287   5.154
 1770SOL    HW2 6210   2.775   5.207   5.242
 1771SOL     OW 6211   4.759   6.021   6.430
 1771SOL    HW1 6212   4.836   6.017   6.494
 1771SOL    HW2 6213   4.698   5.944   6.447
 1772SOL     OW 6214   3.336   6.577   2.850
 1772SOL    HW1 6215   3.391   6.517   2.792
 1772SOL    HW2 6216   3.371   6.574   2.944
 1773SOL     OW 6217   0.399   5.377   0.259
 1773SOL    HW1 6218   0.384   5.373   0.161
 1773SOL    HW2 6219   0.478   5.435   0.279
 1774SOL     OW 6220   3.630   5.374   2.084
 1774SOL    HW1 6221   3.604   5.431   2.006
 1774SOL    HW2 6222   3.699   5.307   2.056
 1775SOL     OW 6223   0.608   4.700   1.807
 1775SOL    HW1 6224   0.700   4.676   1.778
 1775SOL    HW2 6225   0.608   4.721   1.905
 1776SOL     OW 6226   2.893   5.471   5.353
 1776SOL    HW1 6227   2.941   5.482   5.266
 1776SOL    HW2 6228   2.927   5.390   5.400
 1777SOL     OW 6229   3.725   5.885   0.247
 1777SOL    HW1 6230   3.780   5.811   0.208
 1777SOL    HW2 6231   3.681   5.853   0.331
 1778SOL     OW 6232   5.523   3.427   5.405
 1778SOL    HW1 6233   5.593   3.370   5.448
 1778SOL    HW2 6234   5.499   3.390   5.315
 1779SOL     OW 6235   3.121   6.584   5.086
 1779SOL    HW1 6236   3.165   6.495   5.072
 1779SOL    HW2 6237   3.125   6.608   5.182
 1780SOL     OW 6238   3.333   3.293   6.579
 1780SOL    HW1 6239   3.427   3.327   6.579
 1780SOL    HW2 6240   3.275   3.353   6.525
 1781SOL     OW 6241   3.720   5.481   3.203
 1781SOL    HW1 6242   3.770   5.557   3.162
 1781SOL    HW2 6243   3.707   5.498   3.301
 1782SOL     OW 6244   3.452   1.988   4.172
 1782SOL    HW1 6245   3.390   2.026   4.240
 1782SOL    HW2 6246   3.531   2.048   4.161
 1783SOL     OW 6247   1.324   5.475   0.516
 1783SOL    HW1 6248   1.344   5.548   0.582
 1783SOL    HW2 6249   1.280   5.514   0.436
 1784SOL     OW 6250   3.566   6.603   5.060
 1784SOL    HW1 6251   3.570   6.649   5.149
 1784SOL    HW2 6252   3.615   6.516   5.065
 1785SOL     OW 6253   6.606   4.276   2.835
 1785SOL    HW1 6254   6.616   4.318   2.925
 1785SOL    HW2 6255   6.529   4.212   2.836
 1786SOL     OW 6256   3.294   2.565   1.416
 1786SOL    HW1 6257   3.313   2.545   1.512
 1786SOL    HW2 6258   3.371   2.615   1.377
 1787SOL     OW 6259   3.509   0.287   5.788
 1787SOL    HW1 6260   3.424   0.261   5.741
 1787SOL    HW2 6261   3.513   0.244   5.878
 1788SOL     OW 6262   1.988   5.107   5.142
 1788SOL    HW1 6263   2.034   5.024   5.112
 1788SOL    HW2 6264   2.037   5.187   5.108
 1789SOL     OW 6265   6.300   1.544   6.966
 1789SOL    HW1 6266   6.202   1.552   6.949
 1789SOL    HW2 6267   6.349   1.614   6.914
 1790SOL     OW 6268   4.213   6.659   3.132
 1790SOL    HW1 6269   4.117   6.644   3.106
 1790SOL    HW2 6270   4.273   6.615   3.066
 1791SOL     OW 6271   0.132   6.600   2.740
 1791SOL    HW1 6272   0.230   6.600   2.719
 1791SOL    HW2 6273   0.089   6.676   2.692
 1792SOL     OW 6274   1.354   3.200   5.249
 1792SOL    HW1 6275   1.434   3.215   5.306
 1792SOL    HW2 6276   1.292   3.135   5.294
 1793SOL     OW 6277   0.422   0.381   3.741
 1793SOL    HW1 6278   0.379   0.343   3.659
 1793SOL    HW2 6279   0.388   0.474   3.756
 1794SOL     OW 6280   4.158   5.929   6.122
 1794SOL    HW1 6281   4.152   5.849   6.062
 1794SOL    HW2 6282   4.250   5.935   6.160
 1795SOL     OW 6283   0.948   3.135   0.477
 1795SOL    HW1 6284   1.030   3.078   0.471
 1795SOL    HW2 6285   0.867   3.079   0.457
 1796SOL     OW 6286   3.295   0.599   6.248
 1796SOL    HW1 6287   3.282   0.693   6.278
 1796SOL    HW2 6288   3.240   0.538   6.305
 1797SOL     OW 6289   0.962   6.995   1.004
 1797SOL    HW1 6290   0.941   0.066   1.008
 1797SOL    HW2 6291   1.003   6.973   0.915
 1798SOL     OW 6292   5.230   2.522   2.833
 1798SOL    HW1 6293   5.245   2.491   2.927
 1798SOL    HW2 6294   5.163   2.597   2.833
 1799SOL     OW 6295   1.519   1.713   6.468
 1799SOL    HW1 6296   1.581   1.703   6.547
 1799SOL    HW2 6297   1.545   1.793   6.414
 1800SOL     OW 6298   4.279   5.143   2.048
 1800SOL    HW1 6299   4.346   5.089   1.997
 1800SOL    HW2 6300   4.289   5.240   2.023
 1801SOL     OW 6301   6.401   6.796   0.784
 1801SOL    HW1 6302   6.333   6.850   0.833
 1801SOL    HW2 6303   6.489   6.843   0.787
 1802SOL     OW 6304   5.349   5.620   3.859
 1802SOL    HW1 6305   5.387   5.610   3.951
 1802SOL    HW2 6306   5.389   5.701   3.816
 1803SOL     OW 6307   6.486   5.344   1.260
 1803SOL    HW1 6308   6.559   5.327   1.326
 1803SOL    HW2 6309   6.433   5.424   1.288
 1804SOL     OW 6310   3.142   2.970   4.972
 1804SOL    HW1 6311   3.048   2.962   5.006
 1804SOL    HW2 6312   3.206   2.961   5.048
 1805SOL     OW 6313   4.634   3.402   6.612
 1805SOL    HW1 6314   4.616   3.480   6.672
 1805SOL    HW2 6315   4.630   3.317   6.665
 1806SOL     OW 6316   0.287   6.539   1.833
 1806SOL    HW1 6317   0.208   6.599   1.845
 1806SOL    HW2 6318   0.299   6.481   1.915
 1807SOL     OW 6319   5.890   1.177   5.351
 1807SOL    HW1 6320   5.951   1.129   5.287
 1807SOL    HW2 6321   5.822   1.114   5.386
 1808SOL     OW 6322   1.740   4.974   3.881
 1808SOL    HW1 6323   1.799   4.915   3.936
 1808SOL    HW2 6324   1.654   4.927   3.863
 1809SOL     OW 6325   3.535   0.292   6.509
 1809SOL    HW1 6326   3.608   0.296   6.577
 1809SOL    HW2 6327   3.575   0.285   6.418
 1810SOL     OW 6328   3.383   6.314   3.218
 1810SOL    HW1 6329   3.302   6.281   3.169
 1810SOL    HW2 6330   3.372   6.293   3.316
 1811SOL     OW 6331   5.874   5.246   3.527
 1811SOL    HW1 6332   5.782   5.266   3.493
 1811SOL    HW2 6333   5.869   5.218   3.623
 1812SOL     OW 6334   4.242   5.390   6.096
 1812SOL    HW1 6335   4.179   5.325   6.052
 1812SOL    HW2 6336   4.191   5.471   6.125
 1813SOL     OW 6337   5.992   4.749   6.011
 1813SOL    HW1 6338   5.917   4.683   6.003
 1813SOL    HW2 6339   6.068   4.707   6.061
 1814SOL     OW 6340   4.769   6.787   1.997
 1814SOL    HW1 6341   4.818   6.816   2.079
 1814SOL    HW2 6342   4.711   6.861   1.964
 1815SOL     OW 6343   0.529   0.534   3.458
 1815SOL    HW1 6344   0.578   0.585   3.387
 1815SOL    HW2 6345   0.541   0.579   3.546
 1816SOL     OW 6346   0.405   4.375   0.219
 1816SOL    HW1 6347   0.491   4.331   0.246
 1816SOL    HW2 6348   0.396   4.462   0.267
 1817SOL     OW 6349   2.144   6.231   2.134
 1817SOL    HW1 6350   2.101   6.160   2.079
 1817SOL    HW2 6351   2.149   6.316   2.082
 1818SOL     OW 6352   2.604   1.457   2.967
 1818SOL    HW1 6353   2.629   1.520   2.894
 1818SOL    HW2 6354   2.682   1.446   3.030
 1819SOL     OW 6355   1.801   4.718   2.038
 1819SOL    HW1 6356   1.791   4.734   1.940
 1819SOL    HW2 6357   1.799   4.620   2.057
 1820SOL     OW 6358   4.976   0.395   2.544
 1820SOL    HW1 6359   4.881   0.418   2.563
 1820SOL    HW2 6360   5.031   0.479   2.543
 1821SOL     OW 6361   2.956   2.236   3.086
 1821SOL    HW1 6362   2.969   2.254   2.989
 1821SOL    HW2 6363   3.019   2.163   3.115
 1822SOL     OW 6364   3.566   3.088   1.534
 1822SOL    HW1 6365   3.622   3.099   1.616
 1822SOL    HW2 6366   3.577   3.168   1.475
 1823SOL     OW 6367   4.007   6.718   2.523
 1823SOL    HW1 6368   4.042   6.811   2.511
 1823SOL    HW2 6369   3.916   6.712   2.483
 1824SOL     OW 6370   5.087   2.759   1.423
 1824SOL    HW1 6371   5.122   2.675   1.464
 1824SOL    HW2 6372   5.079   2.747   1.324
 1825SOL     OW 6373   1.247   0.947   1.784
 1825SOL    HW1 6374   1.246   0.856   1.743
 1825SOL    HW2 6375   1.197   0.946   1.871
 1826SOL     OW 6376   3.318   6.619   6.683
 1826SOL    HW1 6377   3.347   6.527   6.712
 1826SOL    HW2 6378   3.241   6.612   6.621
 1827SOL     OW 6379   6.638   6.333   1.430
 1827SOL    HW1 6380   6.590   6.396   1.369
 1827SOL    HW2 6381   6.616   6.239   1.405
 1828SOL     OW 6382   1.666   2.245   6.725
 1828SOL    HW1 6383   1.612   2.171   6.685
 1828SOL    HW2 6384   1.697   2.218   6.816
 1829SOL     OW 6385   5.527   5.012   1.941
 1829SOL    HW1 6386   5.472   4.997   1.859
 1829SOL    HW2 6387   5.618   5.042   1.915
 1830SOL     OW 6388   4.768   6.431   3.755
 1830SOL    HW1 6389   4.690   6.464   3.701
 1830SOL    HW2 6390   4.738   6.413   3.848
 1831SOL     OW 6391   4.920   0.153   2.685
 1831SOL    HW1 6392   4.949   0.236   2.638
 1831SOL    HW2 6393   4.947   0.158   2.781
 1832SOL     OW 6394   4.933   2.729   0.862
 1832SOL    HW1 6395   5.032   2.740   0.865
 1832SOL    HW2 6396   4.910   2.631   0.859
 1833SOL     OW 6397   6.000   1.833   5.877
 1833SOL    HW1 6398   6.077   1.890   5.903
 1833SOL    HW2 6399   5.921   1.891   5.855
 1834SOL     OW 6400   2.907   3.427   0.658
 1834SOL    HW1 6401   2.879   3.389   0.747
 1834SOL    HW2 6402   2.897   3.357   0.588
 1835SOL     OW 6403   1.576   4.541   0.118
 1835SOL    HW1 6404   1.534   4.631   0.116
 1835SOL    HW2 6405   1.632   4.529   0.036
 1836SOL     OW 6406   0.392   6.278   1.070
 1836SOL    HW1 6407   0.409   6.329   0.986
 1836SOL    HW2 6408   0.462   6.208   1.081
 1837SOL     OW 6409   0.951   2.731   4.786
 1837SOL    HW1 6410   0.950   2.813   4.843
 1837SOL    HW2 6411   1.046   2.702   4.770
 1838SOL     OW 6412   6.398   2.406   4.141
 1838SOL    HW1 6413   6.339   2.406   4.222
 1838SOL    HW2 6414   6.370   2.331   4.080
 1839SOL     OW 6415   6.976   2.257   5.943
 1839SOL    HW1 6416   6.929   2.201   5.875
 1839SOL    HW2 6417   7.024   2.197   6.008
 1840SOL     OW 6418   1.477   4.856   1.230
 1840SOL    HW1 6419   1.540   4.824   1.301
 1840SOL    HW2 6420   1.529   4.896   1.155
 1841SOL     OW 6421   1.465   2.420   3.553
 1841SOL    HW1 6422   1.532   2.450   3.485
 1841SOL    HW2 6423   1.503   2.345   3.606
 1842SOL     OW 6424   0.841   4.661   0.337
 1842SOL    HW1 6425   0.848   4.609   0.251
 1842SOL    HW2 6426   0.933   4.677   0.373
 1843SOL     OW 6427   3.175   1.902   4.544
 1843SOL    HW1 6428   3.098   1.845   4.574
 1843SOL    HW2 6429   3.190   1.975   4.611
 1844SOL     OW 6430   4.818   2.988   3.913
 1844SOL    HW1 6431   4.821   2.906   3.856
 1844SOL    HW2 6432   4.780   3.064   3.861
 1845SOL     OW 6433   4.194   0.597   0.243
 1845SOL    HW1 6434   4.095   0.605   0.229
 1845SOL    HW2 6435   4.228   0.682   0.284
 1846SOL     OW 6436   3.472   1.252   5.743
 1846SOL    HW1 6437   3.424   1.312   5.807
 1846SOL    HW2 6438   3.564   1.232   5.778
 1847SOL     OW 6439   0.714   6.965   0.817
 1847SOL    HW1 6440   0.649   0.010   0.841
 1847SOL    HW2 6441   0.807   7.003   0.816
 1848SOL     OW 6442   2.936   6.760   2.206
 1848SOL    HW1 6443   3.011   6.750   2.141
 1848SOL    HW2 6444   2.862   6.814   2.165
 1849SOL     OW 6445   2.340   1.704   6.508
 1849SOL    HW1 6446   2.356   1.761   6.589
 1849SOL    HW2 6447   2.297   1.618   6.536
 1850SOL     OW 6448   5.557   1.925   1.835
 1850SOL    HW1 6449   5.567   1.847   1.773
 1850SOL    HW2 6450   5.463   1.960   1.830
 1851SOL     OW 6451   6.916   2.670   2.552
 1851SOL    HW1 6452   6.910   2.755   2.499
 1851SOL    HW2 6453   6.983   2.609   2.509
 1852SOL     OW 6454   5.257   3.079   0.029
 1852SOL    HW1 6455   5.275   3.040   6.965
 1852SOL    HW2 6456   5.159   3.078   0.046
 1853SOL     OW 6457   1.750   4.751   0.521
 1853SOL    HW1 6458   1.704   4.820   0.577
 1853SOL    HW2 6459   1.846   4.775   0.510
 1854SOL     OW 6460   2.502   5.995   4.464
 1854SOL    HW1 6461   2.428   5.930   4.482
 1854SOL    HW2 6462   2.545   6.021   4.550
 1855SOL     OW 6463   4.891   4.842   1.893
 1855SOL    HW1 6464   4.880   4.797   1.982
 1855SOL    HW2 6465   4.983   4.881   1.886
 1856SOL     OW 6466   5.032   2.155   5.515
 1856SOL    HW1 6467   5.020   2.060   5.544
 1856SOL    HW2 6468   5.130   2.173   5.501
 1857SOL     OW 6469   4.954   0.991   3.120
 1857SOL    HW1 6470   4.880   0.988   3.187
 1857SOL    HW2 6471   5.023   1.056   3.149
 1858SOL     OW 6472   5.176   3.705   3.673
 1858SOL    HW1 6473   5.150   3.789   3.722
 1858SOL    HW2 6474   5.099   3.673   3.618
 1859SOL     OW 6475   5.170   1.693   2.780
 1859SOL    HW1 6476   5.262   1.655   2.771
 1859SOL    HW2 6477   5.143   1.736   2.695
 1860SOL     OW 6478   4.998   1.199   4.836
 1860SOL    HW1 6479   4.978   1.111   4.792
 1860SOL    HW2 6480   5.096   1.203   4.859
 1861SOL     OW 6481   5.745   6.491   2.570
 1861SOL    HW1 6482   5.662   6.455   2.529
 1861SOL    HW2 6483   5.722   6.559   2.639
 1862SOL     OW 6484   2.022   1.874   0.254
 1862SOL    HW1 6485   2.120   1.890   0.247
 1862SOL    HW2 6486   1.974   1.927   0.185
 1863SOL     OW 6487   2.888   3.129   1.459
 1863SOL    HW1 6488   2.812   3.102   1.518
 1863SOL    HW2 6489   2.871   3.098   1.366
 1864SOL     OW 6490   1.389   6.077   3.807
 1864SOL    HW1 6491   1.329   6.156   3.822
 1864SOL    HW2 6492   1.379   6.044   3.714
 1865SOL     OW 6493   4.233   2.287   6.676
 1865SOL    HW1 6494   4.256   2.369   6.623
 1865SOL    HW2 6495   4.220   2.313   6.772
 1866SOL     OW 6496   4.478   5.349   2.734
 1866SOL    HW1 6497   4.422   5.352   2.817
 1866SOL    HW2 6498   4.483   5.255   2.701
 1867SOL     OW 6499   0.937   4.033   6.734
 1867SOL    HW1 6500   0.954   4.003   6.828
 1867SOL    HW2 6501   0.948   4.133   6.728
 1868SOL     OW 6502   5.846   3.866   4.722
 1868SOL    HW1 6503   5.865   3.946   4.778
 1868SOL    HW2 6504   5.809   3.793   4.780
 1869SOL     OW 6505   6.224   1.247   5.252
 1869SOL    HW1 6506   6.228   1.317   5.323
 1869SOL    HW2 6507   6.136   1.253   5.205
 1870SOL     OW 6508   1.621   5.478   4.399
 1870SOL    HW1 6509   1.617   5.551   4.468
 1870SOL    HW2 6510   1.715   5.443   4.395
 1871SOL     OW 6511   1.439   6.880   0.820
 1871SOL    HW1 6512   1.421   6.978   0.826
 1871SOL    HW2 6513   1.522   6.858   0.871
 1872SOL     OW 6514   2.471   4.711   0.277
 1872SOL    HW1 6515   2.498   4.772   0.351
 1872SOL    HW2 6516   2.547   4.701   0.213
 1873SOL     OW 6517   4.497   1.700   6.965
 1873SOL    HW1 6518   4.526   1.745   6.881
 1873SOL    HW2 6519   4.410   1.654   6.950
 1874SOL     OW 6520   1.195   2.233   2.342
 1874SOL    HW1 6521   1.238   2.272   2.423
 1874SOL    HW2 6522   1.154   2.306   2.287
 1875SOL     OW 6523   0.763   6.988   0.309
 1875SOL    HW1 6524   0.730   6.910   0.362
 1875SOL    HW2 6525   0.837   0.008   0.359
 1876SOL     OW 6526   2.642   7.021   4.247
 1876SOL    HW1 6527   2.638   7.015   4.347
 1876SOL    HW2 6528   2.700   6.947   4.212
 1877SOL     OW 6529   0.895   6.606   3.663
 1877SOL    HW1 6530   0.944   6.682   3.622
 1877SOL    HW2 6531   0.862   6.632   3.753
 1878SOL     OW 6532   6.156   2.660   5.610
 1878SOL    HW1 6533   6.087   2.732   5.597
 1878SOL    HW2 6534   6.200   2.639   5.522
 1879SOL     OW 6535   1.328   4.365   4.791
 1879SOL    HW1 6536   1.344   4.278   4.745
 1879SOL    HW2 6537   1.234   4.395   4.775
 1880SOL     OW 6538   5.996   0.398   5.792
 1880SOL    HW1 6539   5.990   0.490   5.830
 1880SOL    HW2 6540   6.053   0.398   5.711
 1881SOL     OW 6541   6.667   2.355   0.154
 1881SOL    HW1 6542   6.719   2.391   0.231
 1881SOL    HW2 6543   6.596   2.293   0.189
 1882SOL     OW 6544   0.594   5.341   6.353
 1882SOL    HW1 6545   0.589   5.438   6.374
 1882SOL    HW2 6546   0.503   5.307   6.328
 1883SOL     OW 6547   0.112   1.871   4.177
 1883SOL    HW1 6548   0.038   1.938   4.173
 1883SOL    HW2 6549   0.125   1.840   4.272
 1884SOL     OW 6550   0.282   2.608   1.293
 1884SOL    HW1 6551   0.279   2.577   1.198
 1884SOL    HW2 6552   0.361   2.567   1.340
 1885SOL     OW 6553   2.011   1.824   4.341
 1885SOL    HW1 6554   1.975   1.732   4.332
 1885SOL    HW2 6555   2.083   1.825   4.411
 1886SOL     OW 6556   1.378   6.916   3.060
 1886SOL    HW1 6557   1.374   6.841   2.994
 1886SOL    HW2 6558   1.321   6.893   3.140
 1887SOL     OW 6559   1.931   5.914   6.531
 1887SOL    HW1 6560   1.868   5.972   6.480
 1887SOL    HW2 6561   1.943   5.827   6.482
 1888SOL     OW 6562   2.897   0.918   1.699
 1888SOL    HW1 6563   2.923   0.992   1.760
 1888SOL    HW2 6564   2.979   0.883   1.653
 1889SOL     OW 6565   0.233   3.086   3.367
 1889SOL    HW1 6566   0.311   3.116   3.421
 1889SOL    HW2 6567   0.254   3.095   3.269
 1890SOL     OW 6568   0.326   5.884   3.827
 1890SOL    HW1 6569   0.255   5.889   3.898
 1890SOL    HW2 6570   0.297   5.938   3.748
 1891SOL     OW 6571   3.398   3.174   3.337
 1891SOL    HW1 6572   3.331   3.239   3.302
 1891SOL    HW2 6573   3.352   3.095   3.376
 1892SOL     OW 6574   0.684   0.666   2.723
 1892SOL    HW1 6575   0.613   0.722   2.766
 1892SOL    HW2 6576   0.645   0.578   2.695
 1893SOL     OW 6577   3.599   2.927   4.400
 1893SOL    HW1 6578   3.618   2.914   4.303
 1893SOL    HW2 6579   3.536   3.004   4.411
 1894SOL     OW 6580   2.931   3.644   3.921
 1894SOL    HW1 6581   2.954   3.662   4.017
 1894SOL    HW2 6582   2.854   3.580   3.917
 1895SOL     OW 6583   1.998   5.674   6.440
 1895SOL    HW1 6584   1.962   5.587   6.405
 1895SOL    HW2 6585   2.091   5.659   6.475
 1896SOL     OW 6586   5.211   2.721   0.815
 1896SOL    HW1 6587   5.221   2.729   0.716
 1896SOL    HW2 6588   5.288   2.767   0.860
 1897SOL     OW 6589   1.972   4.664   4.264
 1897SOL    HW1 6590   2.023   4.657   4.350
 1897SOL    HW2 6591   1.938   4.758   4.254
 1898SOL     OW 6592   1.630   6.148   3.399
 1898SOL    HW1 6593   1.620   6.245   3.375
 1898SOL    HW2 6594   1.721   6.116   3.373
 1899SOL     OW 6595   0.327   0.528   2.483
 1899SOL    HW1 6596   0.302   0.436   2.512
 1899SOL    HW2 6597   0.245   0.585   2.475
 1900SOL     OW 6598   2.488   6.906   0.068
 1900SOL    HW1 6599   2.409   6.909   0.007
 1900SOL    HW2 6600   2.496   6.814   0.107
 1901SOL     OW 6601   2.749   3.744   1.318
 1901SOL    HW1 6602   2.748   3.799   1.401
 1901SOL    HW2 6603   2.782   3.800   1.241
 1902SOL     OW 6604   1.475   6.563   4.250
 1902SOL    HW1 6605   1.471   6.593   4.345
 1902SOL    HW2 6606   1.382   6.543   4.218
 1903SOL     OW 6607   0.524   2.378   4.348
 1903SOL    HW1 6608   0.554   2.439   4.421
 1903SOL    HW2 6609   0.601   2.361   4.286
 1904SOL     OW 6610   5.557   5.735   1.902
 1904SOL    HW1 6611   5.597   5.731   1.994
 1904SOL    HW2 6612   5.458   5.725   1.908
 1905SOL     OW 6613   6.966   0.830   3.890
 1905SOL    HW1 6614   6.933   0.841   3.797
 1905SOL    HW2 6615   7.018   0.911   3.917
 1906SOL     OW 6616   1.574   0.127   5.519
 1906SOL    HW1 6617   1.569   0.041   5.467
 1906SOL    HW2 6618   1.508   0.124   5.594
 1907SOL     OW 6619   5.930   2.887   0.135
 1907SOL    HW1 6620   5.998   2.956   0.108
 1907SOL    HW2 6621   5.962   2.839   0.217
 1908SOL     OW 6622   3.163   1.206   1.359
 1908SOL    HW1 6623   3.071   1.211   1.399
 1908SOL    HW2 6624   3.157   1.217   1.260
 1909SOL     OW 6625   6.376   4.619   4.767
 1909SOL    HW1 6626   6.414   4.691   4.709
 1909SOL    HW2 6627   6.380   4.648   4.862
 1910SOL     OW 6628   7.003   6.403   5.570
 1910SOL    HW1 6629   6.911   6.368   5.587
 1910SOL    HW2 6630   7.024   6.399   5.473
 1911SOL     OW 6631   0.117   5.021   4.084
 1911SOL    HW1 6632   0.166   4.965   4.017
 1911SOL    HW2 6633   0.099   5.111   4.046
 1912SOL     OW 6634   2.866   5.127   2.222
 1912SOL    HW1 6635   2.789   5.073   2.256
 1912SOL    HW2 6636   2.851   5.223   2.246
 1913SOL     OW 6637   3.543   4.525   6.371
 1913SOL    HW1 6638   3.538   4.578   6.286
 1913SOL    HW2 6639   3.543   4.428   6.350
 1914SOL     OW 6640   2.468   4.983   6.089
 1914SOL    HW1 6641   2.475   4.886   6.113
 1914SOL    HW2 6642   2.479   5.039   6.171
 1915SOL     OW 6643   4.289   2.512   5.498
 1915SOL    HW1 6644   4.340   2.595   5.476
 1915SOL    HW2 6645   4.264   2.512   5.595
 1916SOL     OW 6646   4.091   0.993   2.218
 1916SOL    HW1 6647   4.131   1.011   2.128
 1916SOL    HW2 6648   4.068   0.896   2.225
 1917SOL     OW 6649   2.414   4.046   1.557
 1917SOL    HW1 6650   2.392   4.035   1.460
 1917SOL    HW2 6651   2.366   4.127   1.592
 1918SOL     OW 6652   5.449   2.977   3.804
 1918SOL    HW1 6653   5.500   2.892   3.816
 1918SOL    HW2 6654   5.351   2.958   3.809
 1919SOL     OW 6655   0.019   2.273   0.390
 1919SOL    HW1 6656   0.063   2.271   0.480
 1919SOL    HW2 6657   0.019   2.181   0.351
 1920SOL     OW 6658   4.707   2.848   0.757
 1920SOL    HW1 6659   4.795   2.813   0.787
 1920SOL    HW2 6660   4.717   2.944   0.731
 1921SOL     OW 6661   2.047   2.711   0.013
 1921SOL    HW1 6662   2.131   2.743   0.055
 1921SOL    HW2 6663   2.061   2.701   6.941
 1922SOL     OW 6664   3.282   3.005   2.183
 1922SOL    HW1 6665   3.378   3.023   2.164
 1922SOL    HW2 6666   3.229   3.088   2.165
 1923SOL     OW 6667   3.787   0.216   4.972
 1923SOL    HW1 6668   3.689   0.198   4.974
 1923SOL    HW2 6669   3.807   0.300   5.023
 1924SOL     OW 6670   4.539   0.653   6.805
 1924SOL    HW1 6671   4.502   0.588   6.738
 1924SOL    HW2 6672   4.464   0.689   6.861
 1925SOL     OW 6673   1.551   4.051   0.664
 1925SOL    HW1 6674   1.577   3.959   0.693
 1925SOL    HW2 6675   1.553   4.112   0.743
 1926SOL     OW 6676   3.877   0.362   1.542
 1926SOL    HW1 6677   3.964   0.381   1.588
 1926SOL    HW2 6678   3.894   0.299   1.465
 1927SOL     OW 6679   2.388   5.285   1.495
 1927SOL    HW1 6680   2.349   5.197   1.522
 1927SOL    HW2 6681   2.477   5.270   1.452
 1928SOL     OW 6682   5.065   4.676   3.800
 1928SOL    HW1 6683   5.057   4.579   3.778
 1928SOL    HW2 6684   4.994   4.728   3.753
 1929SOL     OW 6685   3.477   7.001   2.751
 1929SOL    HW1 6686   3.507   6.982   2.844
 1929SOL    HW2 6687   3.431   6.920   2.713
 1930SOL     OW 6688   4.147   3.200   6.854
 1930SOL    HW1 6689   4.195   3.247   6.779
 1930SOL    HW2 6690   4.125   3.106   6.826
 1931SOL     OW 6691   6.874   1.931   4.802
 1931SOL    HW1 6692   6.790   1.948   4.854
 1931SOL    HW2 6693   6.948   1.908   4.864
 1932SOL     OW 6694   4.220   2.063   2.052
 1932SOL    HW1 6695   4.201   2.157   2.080
 1932SOL    HW2 6696   4.135   2.019   2.023
 1933SOL     OW 6697   0.853   0.800   1.471
 1933SOL    HW1 6698   0.911   0.812   1.551
 1933SOL    HW2 6699   0.903   0.745   1.403
 1934SOL     OW 6700   0.270   0.689   6.941
 1934SOL    HW1 6701   0.204   0.742   6.888
 1934SOL    HW2 6702   0.357   0.738   6.944
 1935SOL     OW 6703   6.582   5.388   4.152
 1935SOL    HW1 6704   6.578   5.291   4.174
 1935SOL    HW2 6705   6.508   5.411   4.089
 1936SOL     OW 6706   4.639   2.667   5.597
 1936SOL    HW1 6707   4.635   2.734   5.671
 1936SOL    HW2 6708   4.609   2.710   5.512
 1937SOL     OW 6709   5.742   4.988   6.698
 1937SOL    HW1 6710   5.660   5.036   6.667
 1937SOL    HW2 6711   5.720   4.933   6.778
 1938SOL     OW 6712   6.885   3.244   6.552
 1938SOL    HW1 6713   6.808   3.181   6.556
 1938SOL    HW2 6714   6.903   3.280   6.644
 1939SOL     OW 6715   1.247   0.732   4.696
 1939SOL    HW1 6716   1.263   0.736   4.795
 1939SOL    HW2 6717   1.183   0.657   4.676
 1940SOL     OW 6718   6.874   5.093   0.313
 1940SOL    HW1 6719   6.908   5.075   0.405
 1940SOL    HW2 6720   6.789   5.145   0.318
 1941SOL     OW 6721   5.033   1.716   4.239
 1941SOL    HW1 6722   5.073   1.766   4.316
 1941SOL    HW2 6723   5.060   1.759   4.153
 1942SOL     OW 6724   6.415   4.121   2.894
 1942SOL    HW1 6725   6.315   4.128   2.897
 1942SOL    HW2 6726   6.441   4.025   2.887
 1943SOL     OW 6727   0.854   2.105   2.577
 1943SOL    HW1 6728   0.931   2.040   2.584
 1943SOL    HW2 6729   0.775   2.067   2.624
 1944SOL     OW 6730   0.221   2.855   3.638
 1944SOL    HW1 6731   0.151   2.927   3.642
 1944SOL    HW2 6732   0.183   2.769   3.671
 1945SOL     OW 6733   4.845   1.787   2.021
 1945SOL    HW1 6734   4.778   1.789   2.094
 1945SOL    HW2 6735   4.830   1.865   1.960
 1946SOL     OW 6736   6.661   5.515   1.091
 1946SOL    HW1 6737   6.740   5.479   1.043
 1946SOL    HW2 6738   6.650   5.467   1.178
 1947SOL     OW 6739   6.526   4.864   3.449
 1947SOL    HW1 6740   6.535   4.960   3.476
 1947SOL    HW2 6741   6.431   4.835   3.460
 1948SOL     OW 6742   5.241   3.610   3.212
 1948SOL    HW1 6743   5.334   3.587   3.181
 1948SOL    HW2 6744   5.244   3.636   3.308
 1949SOL     OW 6745   3.348   5.193   0.087
 1949SOL    HW1 6746   3.304   5.238   0.165
 1949SOL    HW2 6747   3.367   5.098   0.110
 1950SOL     OW 6748   3.323   3.597   3.283
 1950SOL    HW1 6749   3.412   3.597   3.237
 1950SOL    HW2 6750   3.334   3.562   3.376
 1951SOL     OW 6751   5.866   5.085   5.429
 1951SOL    HW1 6752   5.856   5.175   5.472
 1951SOL    HW2 6753   5.855   5.014   5.499
 1952SOL     OW 6754   6.105   5.320   0.655
 1952SOL    HW1 6755   6.041   5.386   0.615
 1952SOL    HW2 6756   6.193   5.327   0.609
 1953SOL     OW 6757   0.520   1.281   6.955
 1953SOL    HW1 6758   0.470   1.365   6.976
 1953SOL    HW2 6759   0.570   1.293   6.869
 1954SOL     OW 6760   4.057   0.136   2.110
 1954SOL    HW1 6761   4.082   0.218   2.058
 1954SOL    HW2 6762   3.977   0.156   2.167
 1955SOL     OW 6763   6.977   2.203   3.837
 1955SOL    HW1 6764   0.031   2.160   3.796
 1955SOL    HW2 6765   6.969   2.174   3.932
 1956SOL     OW 6766   5.963   0.587   1.955
 1956SOL    HW1 6767   5.914   0.541   2.030
 1956SOL    HW2 6768   6.042   0.532   1.928
 1957SOL     OW 6769   6.067   2.174   4.604
 1957SOL    HW1 6770   6.151   2.147   4.557
 1957SOL    HW2 6771   5.991   2.120   4.569
 1958SOL     OW 6772   4.152   1.579   0.570
 1958SOL    HW1 6773   4.107   1.618   0.651
 1958SOL    HW2 6774   4.197   1.494   0.596
 1959SOL     OW 6775   0.825   1.600   5.530
 1959SOL    HW1 6776   0.776   1.669   5.477
 1959SOL    HW2 6777   0.910   1.575   5.483
 1960SOL     OW 6778   5.804   4.227   4.052
 1960SOL    HW1 6779   5.747   4.167   3.995
 1960SOL    HW2 6780   5.829   4.179   4.136
 1961SOL     OW 6781   0.098   3.802   4.176
 1961SOL    HW1 6782   0.127   3.793   4.080
 1961SOL    HW2 6783   0.159   3.865   4.224
 1962SOL     OW 6784   0.960   0.550   2.856
 1962SOL    HW1 6785   0.964   0.456   2.822
 1962SOL    HW2 6786   0.893   0.555   2.930
 1963SOL     OW 6787   0.211   2.469   0.160
 1963SOL    HW1 6788   0.286   2.444   0.220
 1963SOL    HW2 6789   0.171   2.387   0.119
 1964SOL     OW 6790   5.901   3.823   0.703
 1964SOL    HW1 6791   5.808   3.857   0.692
 1964SOL    HW2 6792   5.926   3.824   0.800
 1965SOL     OW 6793   6.336   4.251   3.892
 1965SOL    HW1 6794   6.432   4.254   3.920
 1965SOL    HW2 6795   6.323   4.309   3.811
 1966SOL     OW 6796   1.226   4.782   0.156
 1966SOL    HW1 6797   1.326   4.781   0.162
 1966SOL    HW2 6798   1.189   4.841   0.228
 1967SOL     OW 6799   6.517   2.961   3.919
 1967SOL    HW1 6800   6.419   2.947   3.928
 1967SOL    HW2 6801   6.566   2.901   3.982
 1968SOL     OW 6802   2.932   1.459   5.009
 1968SOL    HW1 6803   2.861   1.413   5.063
 1968SOL    HW2 6804   3.003   1.494   5.071
 1969SOL     OW 6805   1.961   6.113   0.670
 1969SOL    HW1 6806   1.900   6.183   0.634
 1969SOL    HW2 6807   2.010   6.070   0.594
 1970SOL     OW 6808   5.855   5.584   4.566
 1970SOL    HW1 6809   5.785   5.569   4.496
 1970SOL    HW2 6810   5.814   5.574   4.657
 1971SOL     OW 6811   1.563   5.404   5.091
 1971SOL    HW1 6812   1.532   5.345   5.165
 1971SOL    HW2 6813   1.530   5.497   5.107
 1972SOL     OW 6814   5.708   2.780   2.187
 1972SOL    HW1 6815   5.746   2.692   2.158
 1972SOL    HW2 6816   5.724   2.848   2.115
 1973SOL     OW 6817   2.622   2.724   1.049
 1973SOL    HW1 6818   2.698   2.773   1.091
 1973SOL    HW2 6819   2.585   2.658   1.114
 1974SOL     OW 6820   2.551   5.470   5.103
 1974SOL    HW1 6821   2.512   5.422   5.181
 1974SOL    HW2 6822   2.551   5.569   5.122
 1975SOL     OW 6823   2.062   2.626   3.258
 1975SOL    HW1 6824   2.105   2.546   3.218
 1975SOL    HW2 6825   1.965   2.609   3.275
 1976SOL     OW 6826   0.816   0.302   5.425
 1976SOL    HW1 6827   0.865   0.320   5.340
 1976SOL    HW2 6828   0.747   0.231   5.409
 1977SOL     OW 6829   1.944   4.468   5.852
 1977SOL    HW1 6830   2.011   4.449   5.780
 1977SOL    HW2 6831   1.869   4.403   5.845
 1978SOL     OW 6832   3.321   0.145   1.635
 1978SOL    HW1 6833   3.227   0.171   1.614
 1978SOL    HW2 6834   3.380   0.226   1.631
 1979SOL     OW 6835   6.317   4.432   6.174
 1979SOL    HW1 6836   6.258   4.384   6.109
 1979SOL    HW2 6837   6.408   4.391   6.174
 1980SOL     OW 6838   3.628   1.278   1.049
 1980SOL    HW1 6839   3.694   1.230   0.991
 1980SOL    HW2 6840   3.639   1.377   1.036
 1981SOL     OW 6841   3.425   1.932   2.983
 1981SOL    HW1 6842   3.390   2.007   3.038
 1981SOL    HW2 6843   3.379   1.931   2.894
 1982SOL     OW 6844   0.921   3.069   5.398
 1982SOL    HW1 6845   0.993   3.006   5.428
 1982SOL    HW2 6846   0.842   3.062   5.460
 1983SOL     OW 6847   0.540   0.684   2.416
 1983SOL    HW1 6848   0.544   0.760   2.481
 1983SOL    HW2 6849   0.482   0.611   2.453
 1984SOL     OW 6850   4.223   3.342   5.532
 1984SOL    HW1 6851   4.171   3.280   5.474
 1984SOL    HW2 6852   4.318   3.309   5.540
 1985SOL     OW 6853   6.498   2.693   2.988
 1985SOL    HW1 6854   6.543   2.623   2.932
 1985SOL    HW2 6855   6.433   2.744   2.932
 1986SOL     OW 6856   3.817   2.931   2.166
 1986SOL    HW1 6857   3.810   2.899   2.072
 1986SOL    HW2 6858   3.893   2.885   2.212
 1987SOL     OW 6859   2.723   1.650   1.067
 1987SOL    HW1 6860   2.748   1.709   1.144
 1987SOL    HW2 6861   2.650   1.588   1.095
 1988SOL     OW 6862   0.217   2.254   1.618
 1988SOL    HW1 6863   0.212   2.196   1.537
 1988SOL    HW2 6864   0.308   2.249   1.657
 1989SOL     OW 6865   2.832   4.812   4.747
 1989SOL    HW1 6866   2.826   4.721   4.787
 1989SOL    HW2 6867   2.743   4.837   4.709
 1990SOL     OW 6868   4.360   0.373   0.185
 1990SOL    HW1 6869   4.356   0.309   0.262
 1990SOL    HW2 6870   4.324   0.462   0.213
 1991SOL     OW 6871   2.558   5.670   1.184
 1991SOL    HW1 6872   2.525   5.578   1.209
 1991SOL    HW2 6873   2.654   5.679   1.210
 1992SOL     OW 6874   0.947   6.403   2.674
 1992SOL    HW1 6875   0.897   6.417   2.589
 1992SOL    HW2 6876   1.027   6.346   2.656
 1993SOL     OW 6877   2.309   2.144   3.220
 1993SOL    HW1 6878   2.238   2.077   3.199
 1993SOL    HW2 6879   2.278   2.204   3.293
 1994SOL     OW 6880   3.496   2.749   1.349
 1994SOL    HW1 6881   3.500   2.782   1.444
 1994SOL    HW2 6882   3.434   2.807   1.296
 1995SOL     OW 6883   5.231   2.097   4.280
 1995SOL    HW1 6884   5.168   2.146   4.339
 1995SOL    HW2 6885   5.325   2.118   4.307
 1996SOL     OW 6886   4.525   0.580   1.181
 1996SOL    HW1 6887   4.622   0.593   1.196
 1996SOL    HW2 6888   4.497   0.492   1.221
 1997SOL     OW 6889   4.015   0.818   4.099
 1997SOL    HW1 6890   4.068   0.737   4.074
 1997SOL    HW2 6891   4.042   0.848   4.191
 1998SOL     OW 6892   1.955   3.574   1.494
 1998SOL    HW1 6893   1.911   3.484   1.501
 1998SOL    HW2 6894   1.956   3.618   1.584
 1999SOL     OW 6895   1.021   6.981   0.716
 1999SOL    HW1 6896   1.061   6.891   0.699
 1999SOL    HW2 6897   1.089   0.025   0.699
 2000SOL     OW 6898   4.145   4.536   5.991
 2000SOL    HW1 6899   4.070   4.583   6.038
 2000SOL    HW2 6900   4.142   4.439   6.013
 2001SOL     OW 6901   2.333   1.985   1.403
 2001SOL    HW1 6902   2.301   2.074   1.437
 2001SOL    HW2 6903   2.425   1.996   1.364
 2002SOL     OW 6904   6.940   5.451   0.507
 2002SOL    HW1 6905   7.019   5.404   0.467
 2002SOL    HW2 6906   6.970   5.508   0.583
 2003SOL     OW 6907   6.249   4.940   2.514
 2003SOL    HW1 6908   6.157   4.975   2.499
 2003SOL    HW2 6909   6.312   5.016   2.529
 2004SOL     OW 6910   4.063   0.136   3.136
 2004SOL    HW1 6911   4.106   0.182   3.214
 2004SOL    HW2 6912   4.128   0.072   3.096
 2005SOL     OW 6913   1.624   5.933   0.211
 2005SOL    HW1 6914   1.579   5.965   0.127
 2005SOL    HW2 6915   1.675   6.009   0.252
 2006SOL     OW 6916   5.522   6.240   2.050
 2006SOL    HW1 6917   5.473   6.327   2.058
 2006SOL    HW2 6918   5.614   6.251   2.089
 2007SOL     OW 6919   5.016   4.527   6.773
 2007SOL    HW1 6920   4.991   4.623   6.759
 2007SOL    HW2 6921   4.940   4.468   6.746
 2008SOL     OW 6922   2.036   3.119   3.393
 2008SOL    HW1 6923   2.042   3.205   3.342
 2008SOL    HW2 6924   2.062   3.043   3.334
 2009SOL     OW 6925   6.497   0.031   3.012
 2009SOL    HW1 6926   6.401   0.022   2.987
 2009SOL    HW2 6927   6.548   6.978   2.980
 2010SOL     OW 6928   0.025   1.820   1.622
 2010SOL    HW1 6929   6.961   1.862   1.622
 2010SOL    HW2 6930   0.018   1.725   1.652
 2011SOL     OW 6931   1.225   6.848   4.974
 2011SOL    HW1 6932   1.125   6.852   4.983
 2011SOL    HW2 6933   1.267   6.896   5.051
 2012SOL     OW 6934   0.951   2.969   1.545
 2012SOL    HW1 6935   1.040   2.925   1.534
 2012SOL    HW2 6936   0.936   2.991   1.641
 2013SOL     OW 6937   0.447   2.866   1.735
 2013SOL    HW1 6938   0.380   2.846   1.663
 2013SOL    HW2 6939   0.437   2.798   1.808
 2014SOL     OW 6940   3.829   0.950   4.675
 2014SOL    HW1 6941   3.872   1.023   4.728
 2014SOL    HW2 6942   3.782   0.886   4.737
 2015SOL     OW 6943   4.143   0.114   1.475
 2015SOL    HW1 6944   4.093   0.067   1.547
 2015SOL    HW2 6945   4.080   0.141   1.402
 2016SOL     OW 6946   2.025   0.854   4.696
 2016SOL    HW1 6947   2.073   0.766   4.708
 2016SOL    HW2 6948   1.946   0.841   4.637
 2017SOL     OW 6949   4.184   6.419   3.990
 2017SOL    HW1 6950   4.180   6.320   4.005
 2017SOL    HW2 6951   4.107   6.448   3.933
 2018SOL     OW 6952   1.234   0.383   4.300
 2018SOL    HW1 6953   1.237   0.365   4.202
 2018SOL    HW2 6954   1.144   0.419   4.324
 2019SOL     OW 6955   5.417   5.286   6.133
 2019SOL    HW1 6956   5.390   5.259   6.041
 2019SOL    HW2 6957   5.370   5.371   6.157
 2020SOL     OW 6958   1.966   6.372   0.094
 2020SOL    HW1 6959   1.892   6.369   0.027
 2020SOL    HW2 6960   2.006   6.280   0.103
 2021SOL     OW 6961   6.959   6.407   4.521
 2021SOL    HW1 6962   6.948   6.439   4.615
 2021SOL    HW2 6963   6.997   6.314   4.522
 2022SOL     OW 6964   1.893   3.550   4.188
 2022SOL    HW1 6965   1.959   3.590   4.252
 2022SOL    HW2 6966   1.928   3.464   4.153
 2023SOL     OW 6967   6.773   6.186   0.064
 2023SOL    HW1 6968   6.779   6.087   0.054
 2023SOL    HW2 6969   6.802   6.212   0.156
 2024SOL     OW 6970   0.610   6.061   3.984
 2024SOL    HW1 6971   0.593   6.048   3.886
 2024SOL    HW2 6972   0.605   5.972   4.030
 2025SOL     OW 6973   1.550   5.887   4.752
 2025SOL    HW1 6974   1.525   5.979   4.783
 2025SOL    HW2 6975   1.510   5.820   4.814
 2026SOL     OW 6976   0.552   0.330   5.780
 2026SOL    HW1 6977   0.561   0.429   5.786
 2026SOL    HW2 6978   0.470   0.301   5.829
 2027SOL     OW 6979   6.590   6.250   2.031
 2027SOL    HW1 6980   6.522   6.183   2.063
 2027SOL    HW2 6981   6.677   6.234   2.078
 2028SOL     OW 6982   3.183   5.310   4.866
 2028SOL    HW1 6983   3.106   5.315   4.803
 2028SOL    HW2 6984   3.151   5.319   4.960
 2029SOL     OW 6985   6.504   3.223   6.413
 2029SOL    HW1 6986   6.408   3.250   6.414
 2029SOL    HW2 6987   6.561   3.304   6.430
 2030SOL     OW 6988   2.488   6.828   2.355
 2030SOL    HW1 6989   2.502   6.758   2.424
 2030SOL    HW2 6990   2.426   6.793   2.284
 2031SOL     OW 6991   0.494   6.206   4.311
 2031SOL    HW1 6992   0.441   6.269   4.254
 2031SOL    HW2 6993   0.564   6.258   4.360
 2032SOL     OW 6994   2.415   2.814   5.724
 2032SOL    HW1 6995   2.468   2.868   5.790
 2032SOL    HW2 6996   2.323   2.852   5.716
 2033SOL     OW 6997   2.373   1.903   0.803
 2033SOL    HW1 6998   2.467   1.890   0.835
 2033SOL    HW2 6999   2.312   1.842   0.854
 2034SOL     OW 7000   0.507   4.340   5.177
 2034SOL    HW1 7001   0.424   4.340   5.122
 2034SOL    HW2 7002   0.558   4.255   5.160
 2035SOL     OW 7003   5.139   0.060   3.419
 2035SOL    HW1 7004   5.097   0.144   3.386
 2035SOL    HW2 7005   5.197   0.080   3.498
 2036SOL     OW 7006   0.593   4.795   6.606
 2036SOL    HW1 7007   0.533   4.723   6.572
 2036SOL    HW2 7008   0.547   4.884   6.595
 2037SOL     OW 7009   0.904   2.412   6.839
 2037SOL    HW1 7010   0.851   2.333   6.806
 2037SOL    HW2 7011   0.966   2.443   6.767
 2038SOL     OW 7012   1.104   1.048   6.386
 2038SOL    HW1 7013   1.070   1.132   6.344
 2038SOL    HW2 7014   1.039   1.015   6.453
 2039SOL     OW 7015   5.127   6.296   3.314
 2039SOL    HW1 7016   5.060   6.323   3.383
 2039SOL    HW2 7017   5.162   6.378   3.268
 2040SOL     OW 7018   2.474   2.248   0.455
 2040SOL    HW1 7019   2.516   2.309   0.389
 2040SOL    HW2 7020   2.520   2.258   0.544
 2041SOL     OW 7021   2.755   0.769   6.425
 2041SOL    HW1 7022   2.687   0.810   6.487
 2041SOL    HW2 7023   2.830   0.731   6.478
 2042SOL     OW 7024   6.204   1.056   5.811
 2042SOL    HW1 7025   6.120   1.033   5.761
 2042SOL    HW2 7026   6.279   0.997   5.780
 2043SOL     OW 7027   0.544   4.150   1.045
 2043SOL    HW1 7028   0.467   4.213   1.062
 2043SOL    HW2 7029   0.528   4.064   1.092
 2044SOL     OW 7030   4.050   0.628   1.334
 2044SOL    HW1 7031   4.077   0.543   1.379
 2044SOL    HW2 7032   4.131   0.674   1.298
 2045SOL     OW 7033   1.628   6.411   4.629
 2045SOL    HW1 7034   1.654   6.324   4.587
 2045SOL    HW2 7035   1.618   6.398   4.728
 2046SOL     OW 7036   0.957   2.946   4.987
 2046SOL    HW1 7037   1.029   2.995   5.035
 2046SOL    HW2 7038   0.920   3.003   4.914
 2047SOL     OW 7039   6.794   0.429   0.447
 2047SOL    HW1 7040   6.768   0.503   0.510
 2047SOL    HW2 7041   6.716   0.408   0.388
 2048SOL     OW 7042   1.345   1.819   3.771
 2048SOL    HW1 7043   1.434   1.774   3.756
 2048SOL    HW2 7044   1.353   1.916   3.748
 2049SOL     OW 7045   4.562   2.245   4.847
 2049SOL    HW1 7046   4.630   2.315   4.865
 2049SOL    HW2 7047   4.529   2.208   4.934
 2050SOL     OW 7048   0.901   1.062   3.813
 2050SOL    HW1 7049   0.866   1.117   3.738
 2050SOL    HW2 7050   0.934   1.122   3.886
 2051SOL     OW 7051   2.674   6.352   0.546
 2051SOL    HW1 7052   2.773   6.353   0.530
 2051SOL    HW2 7053   2.639   6.260   0.533
 2052SOL     OW 7054   1.011   4.195   0.416
 2052SOL    HW1 7055   0.938   4.128   0.432
 2052SOL    HW2 7056   1.085   4.178   0.481
 2053SOL     OW 7057   6.755   5.353   2.901
 2053SOL    HW1 7058   6.806   5.360   2.816
 2053SOL    HW2 7059   6.770   5.435   2.956
 2054SOL     OW 7060   2.951   3.736   2.805
 2054SOL    HW1 7061   3.015   3.730   2.728
 2054SOL    HW2 7062   2.861   3.763   2.771
 2055SOL     OW 7063   3.657   2.630   5.319
 2055SOL    HW1 7064   3.754   2.610   5.310
 2055SOL    HW2 7065   3.637   2.655   5.414
 2056SOL     OW 7066   3.394   4.995   1.530
 2056SOL    HW1 7067   3.454   4.988   1.451
 2056SOL    HW2 7068   3.343   4.910   1.541
 2057SOL     OW 7069   5.320   3.279   4.034
 2057SOL    HW1 7070   5.369   3.196   4.059
 2057SOL    HW2 7071   5.382   3.343   3.988
 2058SOL     OW 7072   6.287   7.010   3.833
 2058SOL    HW1 7073   6.323   0.057   3.890
 2058SOL    HW2 7074   6.324   6.923   3.864
 2059SOL     OW 7075   1.677   1.270   5.383
 2059SOL    HW1 7076   1.774   1.248   5.380
 2059SOL    HW2 7077   1.637   1.255   5.293
 2060SOL     OW 7078   1.804   3.013   6.934
 2060SOL    HW1 7079   1.814   2.963   7.020
 2060SOL    HW2 7080   1.735   2.967   6.877
 2061SOL     OW 7081   1.739   2.605   2.786
 2061SOL    HW1 7082   1.759   2.703   2.794
 2061SOL    HW2 7083   1.822   2.556   2.758
 2062SOL     OW 7084   6.614   5.123   4.281
 2062SOL    HW1 7085   6.609   5.097   4.378
 2062SOL    HW2 7086   6.533   5.089   4.234
 2063SOL     OW 7087   0.674   1.805   4.234
 2063SOL    HW1 7088   0.674   1.802   4.334
 2063SOL    HW2 7089   0.603   1.867   4.202
 2064SOL     OW 7090   0.735   3.192   4.021
 2064SOL    HW1 7091   0.731   3.125   3.947
 2064SOL    HW2 7092   0.753   3.146   4.108
 2065SOL     OW 7093   4.011   3.657   5.796
 2065SOL    HW1 7094   3.938   3.702   5.744
 2065SOL    HW2 7095   4.025   3.565   5.760
 2066SOL     OW 7096   1.429   3.416   5.482
 2066SOL    HW1 7097   1.523   3.432   5.454
 2066SOL    HW2 7098   1.425   3.407   5.582
 2067SOL     OW 7099   6.279   4.783   1.764
 2067SOL    HW1 7100   6.211   4.812   1.832
 2067SOL    HW2 7101   6.369   4.780   1.807
 2068SOL     OW 7102   4.092   0.819   4.601
 2068SOL    HW1 7103   4.036   0.894   4.635
 2068SOL    HW2 7104   4.059   0.733   4.639
 2069SOL     OW 7105   0.156   1.037   3.416
 2069SOL    HW1 7106   0.149   1.134   3.438
 2069SOL    HW2 7107   0.083   1.011   3.353
 2070SOL     OW 7108   1.274   5.219   1.464
 2070SOL    HW1 7109   1.357   5.241   1.515
 2070SOL    HW2 7110   1.213   5.165   1.521
 2071SOL     OW 7111   0.329   2.043   5.926
 2071SOL    HW1 7112   0.338   2.123   5.867
 2071SOL    HW2 7113   0.239   2.043   5.969
 2072SOL     OW 7114   5.260   4.309   5.422
 2072SOL    HW1 7115   5.184   4.291   5.359
 2072SOL    HW2 7116   5.293   4.403   5.408
 2073SOL     OW 7117   3.180   5.614   6.956
 2073SOL    HW1 7118   3.169   5.604   6.857
 2073SOL    HW2 7119   3.225   5.532   6.992
 2074SOL     OW 7120   1.862   4.626   6.108
 2074SOL    HW1 7121   1.879   4.571   6.027
 2074SOL    HW2 7122   1.916   4.590   6.185
 2075SOL     OW 7123   5.806   2.969   1.166
 2075SOL    HW1 7124   5.777   2.924   1.081
 2075SOL    HW2 7125   5.888   2.924   1.201
 2076SOL     OW 7126   6.339   6.758   4.566
 2076SOL    HW1 7127   6.304   6.685   4.507
 2076SOL    HW2 7128   6.341   6.727   4.661
 2077SOL     OW 7129   6.345   4.750   0.903
 2077SOL    HW1 7130   6.352   4.734   1.001
 2077SOL    HW2 7131   6.347   4.848   0.885
 2078SOL     OW 7132   0.767   3.748   5.684
 2078SOL    HW1 7133   0.840   3.701   5.635
 2078SOL    HW2 7134   0.790   3.753   5.781
 2079SOL     OW 7135   5.349   0.835   2.599
 2079SOL    HW1 7136   5.330   0.858   2.695
 2079SOL    HW2 7137   5.344   0.918   2.544
 2080SOL     OW 7138   2.490   3.493   6.167
 2080SOL    HW1 7139   2.399   3.515   6.200
 2080SOL    HW2 7140   2.557   3.513   6.238
 2081SOL     OW 7141   5.935   5.910   1.913
 2081SOL    HW1 7142   5.846   5.954   1.925
 2081SOL    HW2 7143   5.963   5.916   1.817
 2082SOL     OW 7144   6.563   6.141   4.173
 2082SOL    HW1 7145   6.521   6.221   4.215
 2082SOL    HW2 7146   6.639   6.110   4.230
 2083SOL     OW 7147   6.999   6.712   4.283
 2083SOL    HW1 7148   0.000   6.656   4.361
 2083SOL    HW2 7149   0.041   6.784   4.268
 2084SOL     OW 7150   6.584   2.157   0.626
 2084SOL    HW1 7151   6.641   2.228   0.667
 2084SOL    HW2 7152   6.640   2.076   0.607
 2085SOL     OW 7153   6.377   6.053   0.823
 2085SOL    HW1 7154   6.312   5.987   0.787
 2085SOL    HW2 7155   6.458   6.004   0.857
 2086SOL     OW 7156   4.848   0.970   0.175
 2086SOL    HW1 7157   4.788   1.050   0.187
 2086SOL    HW2 7158   4.839   0.935   0.082
 2087SOL     OW 7159   3.980   1.622   6.842
 2087SOL    HW1 7160   4.000   1.690   6.912
 2087SOL    HW2 7161   3.947   1.668   6.760
 2088SOL     OW 7162   0.771   5.179   5.359
 2088SOL    HW1 7163   0.823   5.231   5.427
 2088SOL    HW2 7164   0.777   5.082   5.380
 2089SOL     OW 7165   2.222   3.529   6.241
 2089SOL    HW1 7166   2.143   3.583   6.271
 2089SOL    HW2 7167   2.214   3.436   6.277
 2090SOL     OW 7168   5.316   3.087   5.819
 2090SOL    HW1 7169   5.218   3.099   5.812
 2090SOL    HW2 7170   5.360   3.174   5.842
 2091SOL     OW 7171   5.498   6.034   0.724
 2091SOL    HW1 7172   5.431   5.965   0.696
 2091SOL    HW2 7173   5.549   6.066   0.644
 2092SOL     OW 7174   3.635   3.686   1.594
 2092SOL    HW1 7175   3.734   3.681   1.580
 2092SOL    HW2 7176   3.612   3.646   1.682
 2093SOL     OW 7177   4.384   1.215   1.359
 2093SOL    HW1 7178   4.370   1.211   1.457
 2093SOL    HW2 7179   4.381   1.123   1.320
 2094SOL     OW 7180   5.522   2.277   6.646
 2094SOL    HW1 7181   5.480   2.211   6.584
 2094SOL    HW2 7182   5.584   2.229   6.708
 2095SOL     OW 7183   5.549   5.417   3.715
 2095SOL    HW1 7184   5.632   5.472   3.706
 2095SOL    HW2 7185   5.479   5.469   3.764
 2096SOL     OW 7186   3.909   6.301   1.422
 2096SOL    HW1 7187   3.866   6.389   1.444
 2096SOL    HW2 7188   3.894   6.237   1.497
 2097SOL     OW 7189   0.770   5.891   5.980
 2097SOL    HW1 7190   0.826   5.821   6.024
 2097SOL    HW2 7191   0.702   5.847   5.921
 2098SOL     OW 7192   3.289   6.666   3.680
 2098SOL    HW1 7193   3.315   6.732   3.750
 2098SOL    HW2 7194   3.223   6.601   3.718
 2099SOL     OW 7195   4.483   2.198   6.646
 2099SOL    HW1 7196   4.516   2.292   6.654
 2099SOL    HW2 7197   4.383   2.197   6.652
 2100SOL     OW 7198   5.292   0.183   1.197
 2100SOL    HW1 7199   5.238   0.260   1.233
 2100SOL    HW2 7200   5.389   0.198   1.218
 2101SOL     OW 7201   1.144   0.512   3.172
 2101SOL    HW1 7202   1.203   0.590   3.195
 2101SOL    HW2 7203   1.152   0.442   3.242
 2102SOL     OW 7204   3.955   2.314   1.220
 2102SOL    HW1 7205   3.982   2.335   1.126
 2102SOL    HW2 7206   3.855   2.315   1.227
 2103SOL     OW 7207   2.032   6.174   0.939
 2103SOL    HW1 7208   2.129   6.169   0.961
 2103SOL    HW2 7209   2.017   6.145   0.844
 2104SOL     OW 7210   1.915   3.797   3.304
 2104SOL    HW1 7211   1.871   3.743   3.376
 2104SOL    HW2 7212   2.014   3.781   3.306
 2105SOL     OW 7213   5.694   0.180   4.997
 2105SOL    HW1 7214   5.633   0.246   4.954
 2105SOL    HW2 7215   5.789   0.209   4.983
 2106SOL     OW 7216   4.263   3.236   1.355
 2106SOL    HW1 7217   4.218   3.197   1.275
 2106SOL    HW2 7218   4.361   3.247   1.336
 2107SOL     OW 7219   5.382   5.075   4.991
 2107SOL    HW1 7220   5.347   4.983   4.974
 2107SOL    HW2 7221   5.413   5.082   5.085
 2108SOL     OW 7222   4.831   0.268   4.555
 2108SOL    HW1 7223   4.913   0.242   4.606
 2108SOL    HW2 7224   4.752   0.267   4.616
 2109SOL     OW 7225   3.234   6.446   1.931
 2109SOL    HW1 7226   3.249   6.347   1.928
 2109SOL    HW2 7227   3.268   6.482   2.018
 2110SOL     OW 7228   3.523   6.364   0.288
 2110SOL    HW1 7229   3.430   6.368   0.251
 2110SOL    HW2 7230   3.555   6.457   0.305
 2111SOL     OW 7231   1.157   2.584   5.681
 2111SOL    HW1 7232   1.241   2.635   5.660
 2111SOL    HW2 7233   1.089   2.646   5.719
 2112SOL     OW 7234   1.470   0.146   7.017
 2112SOL    HW1 7235   1.392   0.095   6.982
 2112SOL    HW2 7236   1.542   0.082   0.018
 2113SOL     OW 7237   6.740   1.379   4.469
 2113SOL    HW1 7238   6.671   1.408   4.402
 2113SOL    HW2 7239   6.718   1.418   4.558
 2114SOL     OW 7240   2.258   1.264   5.856
 2114SOL    HW1 7241   2.161   1.271   5.880
 2114SOL    HW2 7242   2.296   1.181   5.897
 2115SOL     OW 7243   6.616   5.837   3.607
 2115SOL    HW1 7244   6.556   5.891   3.548
 2115SOL    HW2 7245   6.676   5.899   3.658
 2116SOL     OW 7246   1.853   1.727   6.897
 2116SOL    HW1 7247   1.920   1.742   6.824
 2116SOL    HW2 7248   1.841   1.812   6.949
 2117SOL     OW 7249   7.008   1.508   2.533
 2117SOL    HW1 7250   6.941   1.541   2.466
 2117SOL    HW2 7251   0.019   1.586   2.583
 2118SOL     OW 7252   0.161   1.876   2.550
 2118SOL    HW1 7253   0.195   1.818   2.624
 2118SOL    HW2 7254   0.148   1.969   2.583
 2119SOL     OW 7255   0.756   2.353   0.542
 2119SOL    HW1 7256   0.798   2.431   0.587
 2119SOL    HW2 7257   0.725   2.379   0.451
 2120SOL     OW 7258   5.622   1.901   0.667
 2120SOL    HW1 7259   5.633   1.978   0.605
 2120SOL    HW2 7260   5.564   1.831   0.625
 2121SOL     OW 7261   1.788   6.888   0.811
 2121SOL    HW1 7262   1.771   6.914   0.716
 2121SOL    HW2 7263   1.846   6.806   0.813
 2122SOL     OW 7264   6.439   0.443   4.722
 2122SOL    HW1 7265   6.368   0.509   4.695
 2122SOL    HW2 7266   6.462   0.457   4.818
 2123SOL     OW 7267   1.578   5.278   2.957
 2123SOL    HW1 7268   1.628   5.347   3.010
 2123SOL    HW2 7269   1.522   5.324   2.888
 2124SOL     OW 7270   4.434   3.704   6.513
 2124SOL    HW1 7271   4.435   3.795   6.472
 2124SOL    HW2 7272   4.524   3.683   6.550
 2125SOL     OW 7273   1.843   5.951   4.356
 2125SOL    HW1 7274   1.867   5.855   4.370
 2125SOL    HW2 7275   1.757   5.957   4.305
 2126SOL     OW 7276   2.554   3.847   6.932
 2126SOL    HW1 7277   2.535   3.890   7.020
 2126SOL    HW2 7278   2.470   3.845   6.877
 2127SOL     OW 7279   0.860   3.062   4.230
 2127SOL    HW1 7280   0.956   3.075   4.208
 2127SOL    HW2 7281   0.835   3.120   4.308
 2128SOL     OW 7282   5.255   2.745   2.053
 2128SOL    HW1 7283   5.179   2.809   2.041
 2128SOL    HW2 7284   5.337   2.795   2.081
 2129SOL     OW 7285   5.089   4.872   4.405
 2129SOL    HW1 7286   5.045   4.959   4.385
 2129SOL    HW2 7287   5.124   4.873   4.499
 2130SOL     OW 7288   2.434   1.348   0.895
 2130SOL    HW1 7289   2.418   1.375   0.800
 2130SOL    HW2 7290   2.351   1.307   0.932
 2131SOL     OW 7291   5.574   0.488   5.736
 2131SOL    HW1 7292   5.522   0.534   5.664
 2131SOL    HW2 7293   5.620   0.408   5.699
 2132SOL     OW 7294   2.489   2.677   0.017
 2132SOL    HW1 7295   2.515   2.752   6.983
 2132SOL    HW2 7296   2.524   2.591   7.008
 2133SOL     OW 7297   3.650   2.335   1.189
 2133SOL    HW1 7298   3.595   2.300   1.265
 2133SOL    HW2 7299   3.674   2.259   1.129
 2134SOL     OW 7300   2.344   6.495   5.258
 2134SOL    HW1 7301   2.307   6.430   5.323
 2134SOL    HW2 7302   2.313   6.587   5.281
 2135SOL     OW 7303   1.058   5.886   3.658
 2135SOL    HW1 7304   1.134   5.887   3.594
 2135SOL    HW2 7305   1.043   5.793   3.692
 2136SOL     OW 7306   1.564   5.017   3.454
 2136SOL    HW1 7307   1.572   5.013   3.354
 2136SOL    HW2 7308   1.655   5.006   3.495
 2137SOL     OW 7309   0.845   1.347   4.882
 2137SOL    HW1 7310   0.885   1.325   4.970
 2137SOL    HW2 7311   0.876   1.438   4.853
 2138SOL     OW 7312   0.979   2.792   5.557
 2138SOL    HW1 7313   1.010   2.819   5.648
 2138SOL    HW2 7314   1.057   2.757   5.505
 2139SOL     OW 7315   2.796   0.262   4.499
 2139SOL    HW1 7316   2.861   0.302   4.435
 2139SOL    HW2 7317   2.713   0.236   4.450
 2140SOL     OW 7318   1.562   5.865   3.411
 2140SOL    HW1 7319   1.595   5.959   3.409
 2140SOL    HW2 7320   1.484   5.855   3.349
 2141SOL     OW 7321   6.713   1.524   0.026
 2141SOL    HW1 7322   6.812   1.518   0.017
 2141SOL    HW2 7323   6.685   1.620   0.029
 2142SOL     OW 7324   2.984   1.186   3.617
 2142SOL    HW1 7325   3.042   1.252   3.665
 2142SOL    HW2 7326   3.034   1.101   3.604
 2143SOL     OW 7327   4.166   6.422   0.100
 2143SOL    HW1 7328   4.169   6.518   0.130
 2143SOL    HW2 7329   4.259   6.391   0.082
 2144SOL     OW 7330   0.551   0.730   2.061
 2144SOL    HW1 7331   0.511   0.822   2.062
 2144SOL    HW2 7332   0.558   0.697   2.155
 2145SOL     OW 7333   3.586   5.673   2.581
 2145SOL    HW1 7334   3.623   5.739   2.646
 2145SOL    HW2 7335   3.491   5.697   2.560
 2146SOL     OW 7336   3.017   2.311   0.617
 2146SOL    HW1 7337   3.049   2.302   0.523
 2146SOL    HW2 7338   3.080   2.264   0.679
 2147SOL     OW 7339   0.515   0.712   5.380
 2147SOL    HW1 7340   0.578   0.651   5.428
 2147SOL    HW2 7341   0.556   0.803   5.372
 2148SOL     OW 7342   5.337   3.169   3.472
 2148SOL    HW1 7343   5.322   3.185   3.375
 2148SOL    HW2 7344   5.290   3.240   3.525
 2149SOL     OW 7345   3.419   0.246   2.657
 2149SOL    HW1 7346   3.331   0.284   2.687
 2149SOL    HW2 7347   3.418   0.147   2.669
 2150SOL     OW 7348   3.893   1.027   2.805
 2150SOL    HW1 7349   3.838   0.954   2.763
 2150SOL    HW2 7350   3.948   1.072   2.736
 2151SOL     OW 7351   3.165   3.609   5.744
 2151SOL    HW1 7352   3.107   3.601   5.664
 2151SOL    HW2 7353   3.109   3.602   5.827
 2152SOL     OW 7354   6.174   6.229   2.124
 2152SOL    HW1 7355   6.092   6.196   2.171
 2152SOL    HW2 7356   6.157   6.320   2.087
 2153SOL     OW 7357   4.795   2.364   2.623
 2153SOL    HW1 7358   4.747   2.447   2.652
 2153SOL    HW2 7359   4.731   2.288   2.621
 2154SOL     OW 7360   3.996   6.113   5.233
 2154SOL    HW1 7361   4.072   6.126   5.169
 2154SOL    HW2 7362   3.995   6.019   5.265
 2155SOL     OW 7363   5.540   3.946   6.452
 2155SOL    HW1 7364   5.570   3.860   6.409
 2155SOL    HW2 7365   5.620   4.000   6.477
 2156SOL     OW 7366   0.537   0.901   1.161
 2156SOL    HW1 7367   0.592   0.954   1.225
 2156SOL    HW2 7368   0.457   0.864   1.208
 2157SOL     OW 7369   6.527   1.369   4.266
 2157SOL    HW1 7370   6.469   1.439   4.308
 2157SOL    HW2 7371   6.500   1.279   4.299
 2158SOL     OW 7372   4.638   6.565   2.960
 2158SOL    HW1 7373   4.716   6.613   2.920
 2158SOL    HW2 7374   4.649   6.467   2.947
 2159SOL     OW 7375   2.293   6.835   5.287
 2159SOL    HW1 7376   2.376   6.890   5.300
 2159SOL    HW2 7377   2.214   6.887   5.321
 2160SOL     OW 7378   3.038   2.899   1.009
 2160SOL    HW1 7379   3.053   2.887   0.911
 2160SOL    HW2 7380   3.110   2.958   1.046
 2161SOL     OW 7381   5.212   2.306   3.605
 2161SOL    HW1 7382   5.258   2.390   3.574
 2161SOL    HW2 7383   5.157   2.326   3.686
 2162SOL     OW 7384   1.622   1.351   0.795
 2162SOL    HW1 7385   1.671   1.276   0.750
 2162SOL    HW2 7386   1.540   1.374   0.741
 2163SOL     OW 7387   2.528   1.471   1.139
 2163SOL    HW1 7388   2.499   1.443   1.048
 2163SOL    HW2 7389   2.553   1.391   1.193
 2164SOL     OW 7390   0.150   0.513   1.294
 2164SOL    HW1 7391   0.234   0.528   1.345
 2164SOL    HW2 7392   0.150   0.421   1.254
 2165SOL     OW 7393   2.978   0.006   1.056
 2165SOL    HW1 7394   3.021   0.068   0.990
 2165SOL    HW2 7395   3.035   6.951   1.067
 2166SOL     OW 7396   6.124   2.780   6.200
 2166SOL    HW1 7397   6.125   2.851   6.270
 2166SOL    HW2 7398   6.217   2.744   6.187
 2167SOL     OW 7399   2.758   0.694   1.783
 2167SOL    HW1 7400   2.739   0.641   1.701
 2167SOL    HW2 7401   2.818   0.771   1.760
 2168SOL     OW 7402   5.724   6.292   4.722
 2168SOL    HW1 7403   5.655   6.322   4.656
 2168SOL    HW2 7404   5.684   6.290   4.814
 2169SOL     OW 7405   6.772   1.669   5.423
 2169SOL    HW1 7406   6.773   1.754   5.475
 2169SOL    HW2 7407   6.686   1.621   5.439
 2170SOL     OW 7408   5.422   4.416   4.433
 2170SOL    HW1 7409   5.393   4.431   4.339
 2170SOL    HW2 7410   5.415   4.319   4.456
 2171SOL     OW 7411   6.728   3.480   0.310
 2171SOL    HW1 7412   6.760   3.435   0.393
 2171SOL    HW2 7413   6.744   3.419   0.232
 2172SOL     OW 7414   2.800   0.567   1.261
 2172SOL    HW1 7415   2.721   0.621   1.231
 2172SOL    HW2 7416   2.815   0.492   1.197
 2173SOL     OW 7417   4.871   2.153   5.090
 2173SOL    HW1 7418   4.889   2.187   4.998
 2173SOL    HW2 7419   4.878   2.054   5.091
 2174SOL     OW 7420   1.152   5.483   5.056
 2174SOL    HW1 7421   1.106   5.457   4.971
 2174SOL    HW2 7422   1.198   5.571   5.043
 2175SOL     OW 7423   1.724   6.027   6.049
 2175SOL    HW1 7424   1.755   5.952   5.992
 2175SOL    HW2 7425   1.785   6.106   6.037
 2176SOL     OW 7426   1.643   2.799   2.327
 2176SOL    HW1 7427   1.564   2.833   2.379
 2176SOL    HW2 7428   1.632   2.701   2.310
 2177SOL     OW 7429   0.145   1.321   2.444
 2177SOL    HW1 7430   0.081   1.376   2.497
 2177SOL    HW2 7431   0.164   1.367   2.357
 2178SOL     OW 7432   0.131   5.665   0.892
 2178SOL    HW1 7433   0.142   5.566   0.880
 2178SOL    HW2 7434   0.084   5.703   0.812
 2179SOL     OW 7435   1.208   3.658   4.167
 2179SOL    HW1 7436   1.249   3.749   4.166
 2179SOL    HW2 7437   1.123   3.660   4.219
 2180SOL     OW 7438   3.926   2.869   1.518
 2180SOL    HW1 7439   3.911   2.949   1.460
 2180SOL    HW2 7440   4.002   2.887   1.580
 2181SOL     OW 7441   3.963   6.484   1.000
 2181SOL    HW1 7442   3.989   6.575   1.032
 2181SOL    HW2 7443   4.033   6.451   0.936
 2182SOL     OW 7444   5.633   2.188   0.544
 2182SOL    HW1 7445   5.678   2.187   0.454
 2182SOL    HW2 7446   5.688   2.241   0.608
 2183SOL     OW 7447   2.727   2.916   0.338
 2183SOL    HW1 7448   2.663   2.915   0.414
 2183SOL    HW2 7449   2.782   2.832   0.341
 2184SOL     OW 7450   4.366   3.066   6.214
 2184SOL    HW1 7451   4.427   3.026   6.145
 2184SOL    HW2 7452   4.397   3.158   6.236
 2185SOL     OW 7453   0.312   6.962   1.881
 2185SOL    HW1 7454   0.232   6.913   1.847
 2185SOL    HW2 7455   0.395   6.911   1.859
 2186SOL     OW 7456   0.135   4.568   2.886
 2186SOL    HW1 7457   0.052   4.512   2.891
 2186SOL    HW2 7458   0.205   4.531   2.947
 2187SOL     OW 7459   6.381   1.392   6.206
 2187SOL    HW1 7460   6.383   1.334   6.125
 2187SOL    HW2 7461   6.335   1.478   6.184
 2188SOL     OW 7462   4.946   1.222   3.386
 2188SOL    HW1 7463   4.879   1.149   3.395
 2188SOL    HW2 7464   4.992   1.215   3.297
 2189SOL     OW 7465   2.980   0.449   6.797
 2189SOL    HW1 7466   2.975   0.525   6.863
 2189SOL    HW2 7467   3.073   0.413   6.796
 2190SOL     OW 7468   5.110   2.458   0.801
 2190SOL    HW1 7469   5.107   2.550   0.840
 2190SOL    HW2 7470   5.205   2.428   0.794
 2191SOL     OW 7471   2.815   1.900   7.013
 2191SOL    HW1 7472   2.794   1.924   0.081
 2191SOL    HW2 7473   2.860   1.811   7.010
 2192SOL     OW 7474   3.844   5.159   2.854
 2192SOL    HW1 7475   3.942   5.154   2.835
 2192SOL    HW2 7476   3.796   5.091   2.799
 2193SOL     OW 7477   6.840   5.974   5.128
 2193SOL    HW1 7478   6.819   5.888   5.081
 2193SOL    HW2 7479   6.932   6.004   5.104
 2194SOL     OW 7480   3.070   0.214   1.296
 2194SOL    HW1 7481   3.062   0.219   1.395
 2194SOL    HW2 7482   2.980   0.221   1.254
 2195SOL     OW 7483   1.092   5.064   2.301
 2195SOL    HW1 7484   1.185   5.098   2.293
 2195SOL    HW2 7485   1.049   5.059   2.211
 2196SOL     OW 7486   4.229   2.879   0.071
 2196SOL    HW1 7487   4.263   2.791   0.105
 2196SOL    HW2 7488   4.130   2.882   0.080
 2197SOL     OW 7489   4.632   4.286   6.945
 2197SOL    HW1 7490   4.706   4.329   6.997
 2197SOL    HW2 7491   4.570   4.239   7.008
 2198SOL     OW 7492   6.096   4.311   0.398
 2198SOL    HW1 7493   6.192   4.334   0.414
 2198SOL    HW2 7494   6.074   4.225   0.444
 2199SOL     OW 7495   4.337   0.738   2.600
 2199SOL    HW1 7496   4.286   0.712   2.682
 2199SOL    HW2 7497   4.299   0.821   2.561
 2200SOL     OW 7498   2.286   6.606   3.791
 2200SOL    HW1 7499   2.287   6.702   3.819
 2200SOL    HW2 7500   2.205   6.562   3.828
 2201SOL     OW 7501   4.740   4.132   3.892
 2201SOL    HW1 7502   4.810   4.195   3.925
 2201SOL    HW2 7503   4.669   4.183   3.844
 2202SOL     OW 7504   4.998   6.143   4.010
 2202SOL    HW1 7505   5.043   6.140   3.921
 2202SOL    HW2 7506   4.899   6.148   3.998
 2203SOL     OW 7507   3.077   1.958   3.101
 2203SOL    HW1 7508   3.084   1.911   3.013
 2203SOL    HW2 7509   3.167   1.988   3.131
 2204SOL     OW 7510   2.608   3.124   1.006
 2204SOL    HW1 7511   2.550   3.050   0.972
 2204SOL    HW2 7512   2.563   3.212   0.989
 2205SOL     OW 7513   2.477   0.914   2.072
 2205SOL    HW1 7514   2.460   0.932   1.975
 2205SOL    HW2 7515   2.523   0.994   2.112
 2206SOL     OW 7516   2.090   3.122   0.302
 2206SOL    HW1 7517   2.016   3.158   0.244
 2206SOL    HW2 7518   2.169   3.101   0.245
 2207SOL     OW 7519   0.329   4.483   4.628
 2207SOL    HW1 7520   0.307   4.578   4.651
 2207SOL    HW2 7521   0.278   4.422   4.688
 2208SOL     OW 7522   6.710   4.825   2.251
 2208SOL    HW1 7523   6.772   4.748   2.239
 2208SOL    HW2 7524   6.763   4.911   2.254
 2209SOL     OW 7525   0.989   6.742   1.683
 2209SOL    HW1 7526   0.900   6.698   1.688
 2209SOL    HW2 7527   1.059   6.675   1.659
 2210SOL     OW 7528   2.365   4.988   3.529
 2210SOL    HW1 7529   2.355   5.034   3.617
 2210SOL    HW2 7530   2.298   5.026   3.464
 2211SOL     OW 7531   0.067   1.923   5.464
 2211SOL    HW1 7532   0.138   1.876   5.412
 2211SOL    HW2 7533   0.109   1.971   5.541
 2212SOL     OW 7534   2.267   0.115   6.369
 2212SOL    HW1 7535   2.176   0.106   6.327
 2212SOL    HW2 7536   2.314   0.027   6.364
 2213SOL     OW 7537   3.663   0.737   3.306
 2213SOL    HW1 7538   3.683   0.640   3.304
 2213SOL    HW2 7539   3.599   0.757   3.380
 2214SOL     OW 7540   4.432   0.091   5.200
 2214SOL    HW1 7541   4.409   0.166   5.138
 2214SOL    HW2 7542   4.466   0.128   5.286
 2215SOL     OW 7543   5.865   2.318   5.727
 2215SOL    HW1 7544   5.801   2.241   5.720
 2215SOL    HW2 7545   5.834   2.381   5.797
 2216SOL     OW 7546   2.862   0.816   2.211
 2216SOL    HW1 7547   2.950   0.796   2.168
 2216SOL    HW2 7548   2.801   0.860   2.144
 2217SOL     OW 7549   4.036   0.841   1.644
 2217SOL    HW1 7550   4.119   0.848   1.589
 2217SOL    HW2 7551   4.025   0.924   1.699
 2218SOL     OW 7552   1.642   0.153   3.172
 2218SOL    HW1 7553   1.542   0.157   3.174
 2218SOL    HW2 7554   1.676   0.102   3.250
 2219SOL     OW 7555   1.401   2.343   2.487
 2219SOL    HW1 7556   1.491   2.324   2.447
 2219SOL    HW2 7557   1.385   2.442   2.488
 2220SOL     OW 7558   0.401   0.039   2.167
 2220SOL    HW1 7559   0.363   0.011   2.079
 2220SOL    HW2 7560   0.486   7.017   2.184
 2221SOL     OW 7561   1.159   1.424   6.579
 2221SOL    HW1 7562   1.138   1.518   6.552
 2221SOL    HW2 7563   1.259   1.412   6.581
 2222SOL     OW 7564   6.238   6.212   3.022
 2222SOL    HW1 7565   6.296   6.255   2.953
 2222SOL    HW2 7566   6.203   6.126   2.987
 2223SOL     OW 7567   6.269   6.026   1.726
 2223SOL    HW1 7568   6.331   5.993   1.654
 2223SOL    HW2 7569   6.175   6.000   1.703
 2224SOL     OW 7570   0.895   4.664   1.839
 2224SOL    HW1 7571   0.903   4.584   1.899
 2224SOL    HW2 7572   0.930   4.641   1.748
 2225SOL     OW 7573   0.008   4.543   1.243
 2225SOL    HW1 7574   0.042   4.455   1.275
 2225SOL    HW2 7575   6.955   4.571   1.298
 2226SOL     OW 7576   4.035   3.841   1.658
 2226SOL    HW1 7577   4.125   3.801   1.676
 2226SOL    HW2 7578   3.997   3.878   1.742
 2227SOL     OW 7579   0.714   2.791   4.596
 2227SOL    HW1 7580   0.698   2.832   4.686
 2227SOL    HW2 7581   0.813   2.784   4.580
 2228SOL     OW 7582   3.280   4.889   4.539
 2228SOL    HW1 7583   3.252   4.815   4.477
 2228SOL    HW2 7584   3.212   4.899   4.612
 2229SOL     OW 7585   5.826   7.012   3.361
 2229SOL    HW1 7586   5.914   6.976   3.393
 2229SOL    HW2 7587   5.802   0.067   3.413
 2230SOL     OW 7588   2.648   5.361   1.753
 2230SOL    HW1 7589   2.719   5.333   1.818
 2230SOL    HW2 7590   2.673   5.327   1.662
 2231SOL     OW 7591   2.646   6.132   1.224
 2231SOL    HW1 7592   2.650   6.153   1.322
 2231SOL    HW2 7593   2.577   6.062   1.208
 2232SOL     OW 7594   5.561   3.043   3.545
 2232SOL    HW1 7595   5.583   3.065   3.640
 2232SOL    HW2 7596   5.476   3.088   3.519
 2233SOL     OW 7597   2.432   1.838   6.166
 2233SOL    HW1 7598   2.462   1.924   6.124
 2233SOL    HW2 7599   2.335   1.846   6.191
 2234SOL     OW 7600   3.718   2.575   1.308
 2234SOL    HW1 7601   3.704   2.478   1.288
 2234SOL    HW2 7602   3.629   2.620   1.315
 2235SOL     OW 7603   2.578   1.975   1.310
 2235SOL    HW1 7604   2.636   2.024   1.245
 2235SOL    HW2 7605   2.635   1.927   1.376
 2236SOL     OW 7606   0.903   4.718   6.252
 2236SOL    HW1 7607   0.917   4.670   6.165
 2236SOL    HW2 7608   0.806   4.744   6.260
 2237SOL     OW 7609   6.539   3.345   3.979
 2237SOL    HW1 7610   6.620   3.302   3.939
 2237SOL    HW2 7611   6.542   3.337   4.078
 2238SOL     OW 7612   6.471   6.496   1.267
 2238SOL    HW1 7613   6.387   6.510   1.319
 2238SOL    HW2 7614   6.480   6.567   1.198
 2239SOL     OW 7615   5.634   6.076   2.350
 2239SOL    HW1 7616   5.616   5.996   2.408
 2239SOL    HW2 7617   5.728   6.072   2.315
 2240SOL     OW 7618   5.763   4.142   1.829
 2240SOL    HW1 7619   5.773   4.066   1.765
 2240SOL    HW2 7620   5.831   4.134   1.901
 2241SOL     OW 7621   1.213   6.882   2.681
 2241SOL    HW1 7622   1.232   6.797   2.730
 2241SOL    HW2 7623   1.240   6.872   2.585
 2242SOL     OW 7624   3.582   2.107   2.681
 2242SOL    HW1 7625   3.482   2.110   2.683
 2242SOL    HW2 7626   3.618   2.149   2.765
 2243SOL     OW 7627   2.481   6.689   5.133
 2243SOL    HW1 7628   2.429   6.763   5.174
 2243SOL    HW2 7629   2.453   6.602   5.173
 2244SOL     OW 7630   3.247   1.144   4.913
 2244SOL    HW1 7631   3.195   1.158   4.829
 2244SOL    HW2 7632   3.320   1.212   4.919
 2245SOL     OW 7633   0.286   2.184   2.106
 2245SOL    HW1 7634   0.363   2.179   2.042
 2245SOL    HW2 7635   0.242   2.273   2.099
 2246SOL     OW 7636   1.581   4.921   4.931
 2246SOL    HW1 7637   1.642   4.907   4.852
 2246SOL    HW2 7638   1.561   4.833   4.974
 2247SOL     OW 7639   1.774   1.524   4.578
 2247SOL    HW1 7640   1.765   1.611   4.627
 2247SOL    HW2 7641   1.689   1.473   4.585
 2248SOL     OW 7642   4.209   3.817   5.648
 2248SOL    HW1 7643   4.129   3.765   5.679
 2248SOL    HW2 7644   4.268   3.757   5.594
 2249SOL     OW 7645   3.658   4.930   5.127
 2249SOL    HW1 7646   3.674   4.859   5.196
 2249SOL    HW2 7647   3.560   4.940   5.112
 2250SOL     OW 7648   4.916   4.910   1.398
 2250SOL    HW1 7649   4.889   4.891   1.304
 2250SOL    HW2 7650   4.953   5.003   1.404
 2251SOL     OW 7651   0.783   6.938   6.162
 2251SOL    HW1 7652   0.855   6.958   6.229
 2251SOL    HW2 7653   0.824   6.896   6.081
 2252SOL     OW 7654   3.749   0.594   6.053
 2252SOL    HW1 7655   3.759   0.687   6.018
 2252SOL    HW2 7656   3.720   0.533   5.979
 2253SOL     OW 7657   1.155   2.847   6.289
 2253SOL    HW1 7658   1.084   2.840   6.358
 2253SOL    HW2 7659   1.186   2.942   6.282
 2254SOL     OW 7660   1.652   4.353   6.088
 2254SOL    HW1 7661   1.642   4.439   6.037
 2254SOL    HW2 7662   1.568   4.300   6.080
 2255SOL     OW 7663   5.466   3.378   0.072
 2255SOL    HW1 7664   5.425   3.403   0.160
 2255SOL    HW2 7665   5.410   3.411   7.024
 2256SOL     OW 7666   3.428   4.894   2.639
 2256SOL    HW1 7667   3.447   4.989   2.663
 2256SOL    HW2 7668   3.433   4.883   2.539
 2257SOL     OW 7669   2.035   3.683   4.369
 2257SOL    HW1 7670   2.062   3.607   4.428
 2257SOL    HW2 7671   2.062   3.769   4.412
 2258SOL     OW 7672   1.600   4.801   5.300
 2258SOL    HW1 7673   1.573   4.765   5.211
 2258SOL    HW2 7674   1.652   4.886   5.288
 2259SOL     OW 7675   6.466   3.562   6.282
 2259SOL    HW1 7676   6.535   3.527   6.346
 2259SOL    HW2 7677   6.451   3.496   6.209
 2260SOL     OW 7678   4.354   3.700   1.220
 2260SOL    HW1 7679   4.420   3.764   1.259
 2260SOL    HW2 7680   4.263   3.742   1.218
 2261SOL     OW 7681   2.861   6.571   4.870
 2261SOL    HW1 7682   2.895   6.486   4.909
 2261SOL    HW2 7683   2.937   6.635   4.859
 2262SOL     OW 7684   3.488   1.770   3.416
 2262SOL    HW1 7685   3.397   1.737   3.390
 2262SOL    HW2 7686   3.480   1.840   3.486
 2263SOL     OW 7687   0.570   3.776   5.948
 2263SOL    HW1 7688   0.581   3.749   6.044
 2263SOL    HW2 7689   0.503   3.716   5.904
 2264SOL     OW 7690   3.072   3.704   3.270
 2264SOL    HW1 7691   3.043   3.710   3.174
 2264SOL    HW2 7692   3.166   3.669   3.274
 2265SOL     OW 7693   1.059   6.629   3.317
 2265SOL    HW1 7694   0.959   6.631   3.322
 2265SOL    HW2 7695   1.095   6.575   3.393
 2266SOL     OW 7696   6.713   0.514   6.431
 2266SOL    HW1 7697   6.739   0.566   6.350
 2266SOL    HW2 7698   6.779   0.439   6.445
 2267SOL     OW 7699   5.948   2.023   5.396
 2267SOL    HW1 7700   5.871   2.026   5.459
 2267SOL    HW2 7701   5.998   2.110   5.401
 2268SOL     OW 7702   6.695   5.204   6.823
 2268SOL    HW1 7703   6.655   5.215   6.914
 2268SOL    HW2 7704   6.774   5.266   6.813
 2269SOL     OW 7705   0.413   6.519   3.004
 2269SOL    HW1 7706   0.330   6.469   3.032
 2269SOL    HW2 7707   0.440   6.581   3.077
 2270SOL     OW 7708   3.590   3.186   2.906
 2270SOL    HW1 7709   3.616   3.175   2.810
 2270SOL    HW2 7710   3.669   3.165   2.964
 2271SOL     OW 7711   0.644   4.366   2.520
 2271SOL    HW1 7712   0.668   4.273   2.547
 2271SOL    HW2 7713   0.556   4.365   2.472
 2272SOL     OW 7714   5.438   1.953   5.654
 2272SOL    HW1 7715   5.370   2.023   5.677
 2272SOL    HW2 7716   5.460   1.899   5.735
 2273SOL     OW 7717   0.707   0.671   3.316
 2273SOL    HW1 7718   0.696   0.769   3.334
 2273SOL    HW2 7719   0.754   0.629   3.394
 2274SOL     OW 7720   0.722   4.122   2.617
 2274SOL    HW1 7721   0.735   4.027   2.589
 2274SOL    HW2 7722   0.811   4.162   2.641
 2275SOL     OW 7723   4.712   6.171   3.669
 2275SOL    HW1 7724   4.753   6.261   3.687
 2275SOL    HW2 7725   4.718   6.150   3.571
 2276SOL     OW 7726   3.381   5.913   2.274
 2276SOL    HW1 7727   3.387   5.829   2.221
 2276SOL    HW2 7728   3.320   5.900   2.352
 2277SOL     OW 7729   3.140   3.805   1.069
 2277SOL    HW1 7730   3.148   3.711   1.104
 2277SOL    HW2 7731   3.125   3.803   0.970
 2278SOL     OW 7732   5.013   6.332   1.069
 2278SOL    HW1 7733   4.982   6.267   1.139
 2278SOL    HW2 7734   5.042   6.281   0.988
 2279SOL     OW 7735   5.884   3.984   5.792
 2279SOL    HW1 7736   5.980   3.987   5.766
 2279SOL    HW2 7737   5.871   3.920   5.868
 2280SOL     OW 7738   5.723   6.933   6.031
 2280SOL    HW1 7739   5.804   6.900   6.080
 2280SOL    HW2 7740   5.743   6.939   5.934
 2281SOL     OW 7741   2.857   2.023   0.589
 2281SOL    HW1 7742   2.772   1.971   0.587
 2281SOL    HW2 7743   2.914   1.990   0.664
 2282SOL     OW 7744   4.559   6.191   2.052
 2282SOL    HW1 7745   4.583   6.183   1.955
 2282SOL    HW2 7746   4.544   6.288   2.074
 2283SOL     OW 7747   6.808   3.944   1.999
 2283SOL    HW1 7748   6.873   3.917   1.929
 2283SOL    HW2 7749   6.796   4.043   1.998
 2284SOL     OW 7750   2.689   2.139   2.282
 2284SOL    HW1 7751   2.677   2.071   2.210
 2284SOL    HW2 7752   2.779   2.180   2.274
 2285SOL     OW 7753   1.831   3.963   6.808
 2285SOL    HW1 7754   1.824   3.895   6.882
 2285SOL    HW2 7755   1.901   4.030   6.832
 2286SOL     OW 7756   5.906   6.455   4.488
 2286SOL    HW1 7757   5.960   6.445   4.572
 2286SOL    HW2 7758   5.947   6.525   4.430
 2287SOL     OW 7759   2.155   2.279   0.734
 2287SOL    HW1 7760   2.127   2.185   0.749
 2287SOL    HW2 7761   2.166   2.295   0.635
 2288SOL     OW 7762   1.914   5.440   4.416
 2288SOL    HW1 7763   1.964   5.510   4.467
 2288SOL    HW2 7764   1.933   5.350   4.455
 2289SOL     OW 7765   4.253   1.563   6.913
 2289SOL    HW1 7766   4.160   1.527   6.923
 2289SOL    HW2 7767   4.275   1.574   6.816
 2290SOL     OW 7768   3.421   3.836   3.577
 2290SOL    HW1 7769   3.362   3.916   3.589
 2290SOL    HW2 7770   3.365   3.753   3.576
 2291SOL     OW 7771   1.370   2.178   6.287
 2291SOL    HW1 7772   1.418   2.110   6.232
 2291SOL    HW2 7773   1.298   2.134   6.340
 2292SOL     OW 7774   4.930   1.577   2.637
 2292SOL    HW1 7775   5.006   1.594   2.701
 2292SOL    HW2 7776   4.957   1.606   2.545
 2293SOL     OW 7777   0.923   0.639   0.196
 2293SOL    HW1 7778   0.949   0.543   0.210
 2293SOL    HW2 7779   0.835   0.657   0.238
 2294SOL     OW 7780   0.247   0.702   6.095
 2294SOL    HW1 7781   0.156   0.708   6.053
 2294SOL    HW2 7782   0.266   0.786   6.146
 2295SOL     OW 7783   5.746   5.255   1.652
 2295SOL    HW1 7784   5.782   5.231   1.562
 2295SOL    HW2 7785   5.737   5.172   1.707
 2296SOL     OW 7786   3.922   5.303   4.234
 2296SOL    HW1 7787   3.890   5.324   4.142
 2296SOL    HW2 7788   3.894   5.210   4.259
 2297SOL     OW 7789   5.377   3.832   5.033
 2297SOL    HW1 7790   5.332   3.845   4.945
 2297SOL    HW2 7791   5.476   3.841   5.022
 2298SOL     OW 7792   2.961   3.718   4.906
 2298SOL    HW1 7793   2.932   3.669   4.987
 2298SOL    HW2 7794   2.924   3.674   4.824
 2299SOL     OW 7795   5.607   2.856   4.136
 2299SOL    HW1 7796   5.690   2.807   4.112
 2299SOL    HW2 7797   5.541   2.849   4.061
 2300SOL     OW 7798   5.292   0.160   1.968
 2300SOL    HW1 7799   5.233   0.240   1.982
 2300SOL    HW2 7800   5.250   0.099   1.901
 2301SOL     OW 7801   3.887   3.222   4.886
 2301SOL    HW1 7802   3.959   3.291   4.892
 2301SOL    HW2 7803   3.883   3.172   4.973
 2302SOL     OW 7804   6.493   2.976   6.231
 2302SOL    HW1 7805   6.502   2.890   6.280
 2302SOL    HW2 7806   6.504   3.052   6.296
 2303SOL     OW 7807   3.221   2.730   0.025
 2303SOL    HW1 7808   3.189   2.760   6.961
 2303SOL    HW2 7809   3.143   2.699   0.079
 2304SOL     OW 7810   6.625   6.501   2.662
 2304SOL    HW1 7811   6.671   6.523   2.749
 2304SOL    HW2 7812   6.655   6.410   2.632
 2305SOL     OW 7813   2.432   0.038   5.205
 2305SOL    HW1 7814   2.501   0.110   5.200
 2305SOL    HW2 7815   2.352   0.064   5.149
 2306SOL     OW 7816   1.723   5.140   4.613
 2306SOL    HW1 7817   1.697   5.203   4.687
 2306SOL    HW2 7818   1.790   5.184   4.553
 2307SOL     OW 7819   6.230   3.391   4.831
 2307SOL    HW1 7820   6.177   3.308   4.848
 2307SOL    HW2 7821   6.168   3.466   4.808
 2308SOL     OW 7822   1.031   5.602   2.482
 2308SOL    HW1 7823   1.109   5.616   2.421
 2308SOL    HW2 7824   0.999   5.690   2.516
 2309SOL     OW 7825   2.187   0.589   4.725
 2309SOL    HW1 7826   2.151   0.500   4.752
 2309SOL    HW2 7827   2.286   0.592   4.741
 2310SOL     OW 7828   4.504   6.683   1.148
 2310SOL    HW1 7829   4.569   6.653   1.217
 2310SOL    HW2 7830   4.424   6.724   1.192
 2311SOL     OW 7831   2.063   5.332   0.987
 2311SOL    HW1 7832   1.971   5.304   0.959
 2311SOL    HW2 7833   2.090   5.413   0.935
 2312SOL     OW 7834   3.326   4.800   1.800
 2312SOL    HW1 7835   3.256   4.779   1.868
 2312SOL    HW2 7836   3.403   4.737   1.811
 2313SOL     OW 7837   4.961   4.623   1.493
 2313SOL    HW1 7838   4.980   4.703   1.436
 2313SOL    HW2 7839   5.047   4.577   1.516
 2314SOL     OW 7840   2.571   4.674   4.053
 2314SOL    HW1 7841   2.570   4.602   3.984
 2314SOL    HW2 7842   2.550   4.635   4.143
 2315SOL     OW 7843   4.571   2.469   6.696
 2315SOL    HW1 7844   4.535   2.557   6.725
 2315SOL    HW2 7845   4.629   2.431   6.769
 2316SOL     OW 7846   5.220   3.756   1.991
 2316SOL    HW1 7847   5.212   3.663   1.955
 2316SOL    HW2 7848   5.132   3.784   2.029
 2317SOL     OW 7849   0.207   5.966   2.815
 2317SOL    HW1 7850   0.189   5.983   2.718
 2317SOL    HW2 7851   0.126   5.986   2.868
 2318SOL     OW 7852   0.299   0.907   4.124
 2318SOL    HW1 7853   0.324   0.988   4.177
 2318SOL    HW2 7854   0.294   0.930   4.027
 2319SOL     OW 7855   1.588   4.932   1.975
 2319SOL    HW1 7856   1.613   4.884   2.058
 2319SOL    HW2 7857   1.492   4.960   1.980
 2320SOL     OW 7858   6.694   4.958   4.926
 2320SOL    HW1 7859   6.617   5.009   4.965
 2320SOL    HW2 7860   6.772   4.962   4.989
 2321SOL     OW 7861   3.545   4.925   4.613
 2321SOL    HW1 7862   3.540   4.903   4.711
 2321SOL    HW2 7863   3.456   4.909   4.571
 2322SOL     OW 7864   2.923   0.583   4.791
 2322SOL    HW1 7865   2.993   0.579   4.720
 2322SOL    HW2 7866   2.885   0.492   4.807
 2323SOL     OW 7867   5.035   3.636   2.312
 2323SOL    HW1 7868   5.131   3.656   2.333
 2323SOL    HW2 7869   4.980   3.718   2.327
 2324SOL     OW 7870   0.786   4.689   3.458
 2324SOL    HW1 7871   0.712   4.626   3.436
 2324SOL    HW2 7872   0.864   4.638   3.493
 2325SOL     OW 7873   0.059   2.244   0.026
 2325SOL    HW1 7874   0.080   2.185   0.104
 2325SOL    HW2 7875   0.086   2.199   6.968
 2326SOL     OW 7876   0.622   4.191   0.377
 2326SOL    HW1 7877   0.663   4.246   0.451
 2326SOL    HW2 7878   0.584   4.107   0.415
 2327SOL     OW 7879   5.294   1.828   3.686
 2327SOL    HW1 7880   5.205   1.867   3.709
 2327SOL    HW2 7881   5.350   1.898   3.642
 2328SOL     OW 7882   6.770   6.229   3.559
 2328SOL    HW1 7883   6.694   6.261   3.615
 2328SOL    HW2 7884   6.846   6.295   3.566
 2329SOL     OW 7885   6.817   5.506   3.126
 2329SOL    HW1 7886   6.746   5.513   3.196
 2329SOL    HW2 7887   6.849   5.598   3.102
 2330SOL     OW 7888   0.541   3.934   1.659
 2330SOL    HW1 7889   0.529   3.837   1.635
 2330SOL    HW2 7890   0.518   3.991   1.580
 2331SOL     OW 7891   1.247   4.377   5.723
 2331SOL    HW1 7892   1.172   4.440   5.708
 2331SOL    HW2 7893   1.333   4.419   5.691
 2332SOL     OW 7894   5.379   2.112   5.258
 2332SOL    HW1 7895   5.346   2.203   5.237
 2332SOL    HW2 7896   5.479   2.109   5.249
 2333SOL     OW 7897   2.978   4.824   3.841
 2333SOL    HW1 7898   2.922   4.757   3.792
 2333SOL    HW2 7899   3.045   4.863   3.778
 2334SOL     OW 7900   2.755   6.945   0.144
 2334SOL    HW1 7901   2.655   6.950   0.151
 2334SOL    HW2 7902   2.785   6.994   0.062
 2335SOL     OW 7903   4.685   5.347   4.794
 2335SOL    HW1 7904   4.782   5.355   4.818
 2335SOL    HW2 7905   4.672   5.270   4.732
 2336SOL     OW 7906   3.906   3.001   5.850
 2336SOL    HW1 7907   3.907   3.042   5.942
 2336SOL    HW2 7908   3.999   2.976   5.825
 2337SOL     OW 7909   6.247   0.584   4.471
 2337SOL    HW1 7910   6.316   0.549   4.407
 2337SOL    HW2 7911   6.206   0.667   4.434
 2338SOL     OW 7912   1.136   0.107   6.454
 2338SOL    HW1 7913   1.148   0.121   6.553
 2338SOL    HW2 7914   1.148   0.194   6.406
 2339SOL     OW 7915   4.225   4.725   6.763
 2339SOL    HW1 7916   4.309   4.672   6.769
 2339SOL    HW2 7917   4.230   4.785   6.682
 2340SOL     OW 7918   3.831   4.876   3.791
 2340SOL    HW1 7919   3.825   4.890   3.692
 2340SOL    HW2 7920   3.741   4.891   3.832
 2341SOL     OW 7921   5.607   4.736   6.499
 2341SOL    HW1 7922   5.637   4.754   6.593
 2341SOL    HW2 7923   5.532   4.670   6.500
 2342SOL     OW 7924   0.003   0.248   5.254
 2342SOL    HW1 7925   7.012   0.237   5.157
 2342SOL    HW2 7926   7.002   0.165   5.303
 2343SOL     OW 7927   1.066   0.349   0.787
 2343SOL    HW1 7928   1.106   0.429   0.742
 2343SOL    HW2 7929   1.116   0.267   0.760
 2344SOL     OW 7930   3.089   1.614   3.110
 2344SOL    HW1 7931   3.125   1.591   3.020
 2344SOL    HW2 7932   3.059   1.709   3.111
 2345SOL     OW 7933   1.365   1.594   2.592
 2345SOL    HW1 7934   1.303   1.619   2.666
 2345SOL    HW2 7935   1.453   1.566   2.630
 2346SOL     OW 7936   4.888   3.287   5.409
 2346SOL    HW1 7937   4.830   3.205   5.404
 2346SOL    HW2 7938   4.831   3.369   5.403
 2347SOL     OW 7939   1.296   3.437   0.975
 2347SOL    HW1 7940   1.215   3.488   1.004
 2347SOL    HW2 7941   1.378   3.476   1.018
 2348SOL     OW 7942   2.817   6.357   1.788
 2348SOL    HW1 7943   2.883   6.407   1.732
 2348SOL    HW2 7944   2.861   6.277   1.828
 2349SOL     OW 7945   4.463   4.051   6.151
 2349SOL    HW1 7946   4.437   4.147   6.149
 2349SOL    HW2 7947   4.546   4.037   6.096
 2350SOL     OW 7948   2.165   5.522   5.178
 2350SOL    HW1 7949   2.205   5.496   5.266
 2350SOL    HW2 7950   2.124   5.442   5.136
 2351SOL     OW 7951   2.345   4.777   3.346
 2351SOL    HW1 7952   2.289   4.855   3.319
 2351SOL    HW2 7953   2.415   4.806   3.411
 2352SOL     OW 7954   6.093   4.471   0.708
 2352SOL    HW1 7955   6.049   4.560   0.715
 2352SOL    HW2 7956   6.190   4.483   0.688
 2353SOL     OW 7957   2.478   3.749   6.647
 2353SOL    HW1 7958   2.408   3.810   6.609
 2353SOL    HW2 7959   2.434   3.684   6.709
 2354SOL     OW 7960   3.964   2.026   1.913
 2354SOL    HW1 7961   3.956   1.933   1.879
 2354SOL    HW2 7962   3.879   2.053   1.958
 2355SOL     OW 7963   6.966   1.581   1.693
 2355SOL    HW1 7964   0.010   1.541   1.751
 2355SOL    HW2 7965   6.888   1.519   1.688
 2356SOL     OW 7966   2.865   5.061   3.843
 2356SOL    HW1 7967   2.837   5.090   3.935
 2356SOL    HW2 7968   2.895   4.966   3.846
 2357SOL     OW 7969   6.921   4.324   0.973
 2357SOL    HW1 7970   6.929   4.318   1.073
 2357SOL    HW2 7971   6.947   4.236   0.932
 2358SOL     OW 7972   3.469   1.290   4.980
 2358SOL    HW1 7973   3.461   1.248   5.070
 2358SOL    HW2 7974   3.427   1.381   4.982
 2359SOL     OW 7975   2.440   1.440   5.354
 2359SOL    HW1 7976   2.389   1.436   5.268
 2359SOL    HW2 7977   2.468   1.534   5.372
 2360SOL     OW 7978   2.899   5.187   0.440
 2360SOL    HW1 7979   2.877   5.284   0.455
 2360SOL    HW2 7980   2.904   5.140   0.529
 2361SOL     OW 7981   3.452   5.589   1.048
 2361SOL    HW1 7982   3.470   5.688   1.042
 2361SOL    HW2 7983   3.469   5.558   1.141
 2362SOL     OW 7984   3.545   4.935   3.833
 2362SOL    HW1 7985   3.489   4.934   3.915
 2362SOL    HW2 7986   3.499   4.884   3.760
 2363SOL     OW 7987   1.430   3.890   0.275
 2363SOL    HW1 7988   1.337   3.917   0.251
 2363SOL    HW2 7989   1.431   3.852   0.368
 2364SOL     OW 7990   3.712   1.631   2.529
 2364SOL    HW1 7991   3.669   1.602   2.614
 2364SOL    HW2 7992   3.682   1.724   2.506
 2365SOL     OW 7993   5.013   4.464   2.903
 2365SOL    HW1 7994   4.976   4.554   2.879
 2365SOL    HW2 7995   5.084   4.438   2.837
 2366SOL     OW 7996   3.231   5.075   5.654
 2366SOL    HW1 7997   3.235   4.995   5.594
 2366SOL    HW2 7998   3.202   5.155   5.603
 2367SOL     OW 7999   6.047   5.143   5.956
 2367SOL    HW1 8000   5.972   5.099   6.006
 2367SOL    HW2 8001   6.134   5.118   5.997
 2368SOL     OW 8002   5.656   0.380   5.420
 2368SOL    HW1 8003   5.691   0.393   5.327
 2368SOL    HW2 8004   5.689   0.293   5.456
 2369SOL     OW 8005   3.722   2.032   4.211
 2369SOL    HW1 8006   3.750   1.940   4.184
 2369SOL    HW2 8007   3.758   2.052   4.302
 2370SOL     OW 8008   5.215   2.261   1.806
 2370SOL    HW1 8009   5.218   2.344   1.863
 2370SOL    HW2 8010   5.121   2.247   1.774
 2371SOL     OW 8011   1.125   6.236   1.935
 2371SOL    HW1 8012   1.221   6.257   1.915
 2371SOL    HW2 8013   1.066   6.282   1.869
 2372SOL     OW 8014   6.793   6.544   6.813
 2372SOL    HW1 8015   6.737   6.502   6.884
 2372SOL    HW2 8016   6.813   6.639   6.837
 2373SOL     OW 8017   6.107   4.310   6.039
 2373SOL    HW1 8018   6.032   4.345   5.983
 2373SOL    HW2 8019   6.074   4.288   6.130
 2374SOL     OW 8020   6.171   6.601   2.467
 2374SOL    HW1 8021   6.264   6.569   2.449
 2374SOL    HW2 8022   6.106   6.532   2.436
 2375SOL     OW 8023   2.079   0.531   4.482
 2375SOL    HW1 8024   1.981   0.549   4.476
 2375SOL    HW2 8025   2.112   0.559   4.573
 2376SOL     OW 8026   5.298   2.455   2.584
 2376SOL    HW1 8027   5.232   2.414   2.522
 2376SOL    HW2 8028   5.257   2.467   2.674
 2377SOL     OW 8029   5.014   3.587   5.659
 2377SOL    HW1 8030   5.100   3.579   5.711
 2377SOL    HW2 8031   4.962   3.664   5.694
 2378SOL     OW 8032   0.454   1.912   0.254
 2378SOL    HW1 8033   0.551   1.908   0.230
 2378SOL    HW2 8034   0.418   1.819   0.259
 2379SOL     OW 8035   0.142   5.409   2.382
 2379SOL    HW1 8036   0.121   5.359   2.298
 2379SOL    HW2 8037   0.168   5.344   2.454
 2380SOL     OW 8038   4.760   5.463   6.758
 2380SOL    HW1 8039   4.791   5.400   6.830
 2380SOL    HW2 8040   4.782   5.557   6.784
 2381SOL     OW 8041   2.248   4.021   3.533
 2381SOL    HW1 8042   2.218   3.931   3.564
 2381SOL    HW2 8043   2.280   4.074   3.612
 2382SOL     OW 8044   6.843   5.112   3.338
 2382SOL    HW1 8045   6.897   5.074   3.263
 2382SOL    HW2 8046   6.902   5.130   3.417
 2383SOL     OW 8047   5.153   4.151   6.178
 2383SOL    HW1 8048   5.057   4.175   6.187
 2383SOL    HW2 8049   5.174   4.074   6.239
 2384SOL     OW 8050   0.191   1.817   3.033
 2384SOL    HW1 8051   0.280   1.792   3.071
 2384SOL    HW2 8052   0.192   1.913   3.005
 2385SOL     OW 8053   7.002   1.361   0.674
 2385SOL    HW1 8054   0.056   1.392   0.723
 2385SOL    HW2 8055   6.979   1.268   0.703
 2386SOL     OW 8056   5.971   6.349   4.846
 2386SOL    HW1 8057   5.932   6.415   4.911
 2386SOL    HW2 8058   5.898   6.302   4.798
 2387SOL     OW 8059   1.210   1.452   3.976
 2387SOL    HW1 8060   1.297   1.410   3.949
 2387SOL    HW2 8061   1.205   1.544   3.938
 2388SOL     OW 8062   0.405   3.202   5.311
 2388SOL    HW1 8063   0.382   3.113   5.350
 2388SOL    HW2 8064   0.330   3.266   5.330
 2389SOL     OW 8065   4.432   5.202   3.152
 2389SOL    HW1 8066   4.347   5.250   3.171
 2389SOL    HW2 8067   4.420   5.104   3.168
 2390SOL     OW 8068   4.601   2.489   6.390
 2390SOL    HW1 8069   4.647   2.577   6.375
 2390SOL    HW2 8070   4.640   2.445   6.471
 2391SOL     OW 8071   3.540   4.747   6.569
 2391SOL    HW1 8072   3.543   4.658   6.523
 2391SOL    HW2 8073   3.523   4.733   6.667
 2392SOL     OW 8074   4.302   4.495   5.732
 2392SOL    HW1 8075   4.246   4.448   5.663
 2392SOL    HW2 8076   4.246   4.516   5.812
 2393SOL     OW 8077   4.519   4.480   0.955
 2393SOL    HW1 8078   4.484   4.457   1.046
 2393SOL    HW2 8079   4.613   4.445   0.946
 2394SOL     OW 8080   0.389   1.580   3.837
 2394SOL    HW1 8081   0.419   1.507   3.776
 2394SOL    HW2 8082   0.316   1.632   3.794
 2395SOL     OW 8083   0.997   3.245   3.772
 2395SOL    HW1 8084   1.052   3.178   3.822
 2395SOL    HW2 8085   1.036   3.257   3.680
 2396SOL     OW 8086   0.636   0.259   6.665
 2396SOL    HW1 8087   0.624   0.162   6.686
 2396SOL    HW2 8088   0.622   0.313   6.748
 2397SOL     OW 8089   0.646   3.760   4.987
 2397SOL    HW1 8090   0.559   3.779   5.031
 2397SOL    HW2 8091   0.715   3.824   5.020
 2398SOL     OW 8092   4.121   6.861   3.711
 2398SOL    HW1 8093   4.030   6.902   3.717
 2398SOL    HW2 8094   4.188   6.933   3.692
 2399SOL     OW 8095   3.321   2.099   3.161
 2399SOL    HW1 8096   3.361   2.067   3.246
 2399SOL    HW2 8097   3.352   2.193   3.144
 2400SOL     OW 8098   1.720   3.991   0.459
 2400SOL    HW1 8099   1.684   3.913   0.407
 2400SOL    HW2 8100   1.649   4.028   0.518
 2401SOL     OW 8101   2.121   6.339   6.549
 2401SOL    HW1 8102   2.138   6.242   6.564
 2401SOL    HW2 8103   2.127   6.388   6.636
 2402SOL     OW 8104   0.918   4.090   1.943
 2402SOL    HW1 8105   0.827   4.098   1.903
 2402SOL    HW2 8106   0.913   4.105   2.041
 2403SOL     OW 8107   3.259   3.671   4.955
 2403SOL    HW1 8108   3.312   3.753   4.933
 2403SOL    HW2 8109   3.165   3.682   4.922
 2404SOL     OW 8110   5.914   1.909   0.692
 2404SOL    HW1 8111   5.819   1.887   0.710
 2404SOL    HW2 8112   5.940   1.876   0.602
 2405SOL     OW 8113   1.532   3.502   0.715
 2405SOL    HW1 8114   1.432   3.514   0.712
 2405SOL    HW2 8115   1.563   3.460   0.630
 2406SOL     OW 8116   2.859   5.588   4.907
 2406SOL    HW1 8117   2.764   5.568   4.881
 2406SOL    HW2 8118   2.861   5.664   4.972
 2407SOL     OW 8119   3.122   1.036   3.051
 2407SOL    HW1 8120   3.068   1.063   3.131
 2407SOL    HW2 8121   3.219   1.040   3.074
 2408SOL     OW 8122   2.543   6.448   5.760
 2408SOL    HW1 8123   2.452   6.489   5.756
 2408SOL    HW2 8124   2.599   6.484   5.685
 2409SOL     OW 8125   0.903   3.477   0.293
 2409SOL    HW1 8126   0.849   3.479   0.378
 2409SOL    HW2 8127   0.994   3.442   0.313
 2410SOL     OW 8128   0.001   3.072   4.269
 2410SOL    HW1 8129   0.094   3.076   4.231
 2410SOL    HW2 8130   7.018   2.990   4.326
 2411SOL     OW 8131   3.171   2.195   6.465
 2411SOL    HW1 8132   3.107   2.236   6.530
 2411SOL    HW2 8133   3.218   2.267   6.414
 2412SOL     OW 8134   3.196   1.507   5.624
 2412SOL    HW1 8135   3.223   1.433   5.563
 2412SOL    HW2 8136   3.257   1.585   5.611
 2413SOL     OW 8137   0.398   3.234   0.058
 2413SOL    HW1 8138   0.326   3.214   7.019
 2413SOL    HW2 8139   0.449   3.315   0.028
 2414SOL     OW 8140   6.693   1.107   4.802
 2414SOL    HW1 8141   6.774   1.111   4.744
 2414SOL    HW2 8142   6.611   1.115   4.745
 2415SOL     OW 8143   2.612   5.141   6.587
 2415SOL    HW1 8144   2.707   5.151   6.558
 2415SOL    HW2 8145   2.601   5.179   6.679
 2416SOL     OW 8146   6.963   2.387   2.837
 2416SOL    HW1 8147   0.032   2.368   2.860
 2416SOL    HW2 8148   6.912   2.405   2.921
 2417SOL     OW 8149   2.543   2.685   1.529
 2417SOL    HW1 8150   2.563   2.663   1.433
 2417SOL    HW2 8151   2.550   2.603   1.585
 2418SOL     OW 8152   4.770   3.980   6.523
 2418SOL    HW1 8153   4.830   4.061   6.524
 2418SOL    HW2 8154   4.781   3.932   6.435
 2419SOL     OW 8155   2.794   0.567   3.369
 2419SOL    HW1 8156   2.789   0.637   3.298
 2419SOL    HW2 8157   2.776   0.609   3.459
 2420SOL     OW 8158   1.205   4.277   2.416
 2420SOL    HW1 8159   1.170   4.270   2.322
 2420SOL    HW2 8160   1.223   4.185   2.452
 2421SOL     OW 8161   3.655   6.752   3.694
 2421SOL    HW1 8162   3.618   6.693   3.766
 2421SOL    HW2 8163   3.684   6.696   3.616
 2422SOL     OW 8164   4.375   4.622   1.291
 2422SOL    HW1 8165   4.390   4.681   1.212
 2422SOL    HW2 8166   4.280   4.629   1.321
 2423SOL     OW 8167   2.548   5.786   3.041
 2423SOL    HW1 8168   2.570   5.820   3.133
 2423SOL    HW2 8169   2.456   5.816   3.016
 2424SOL     OW 8170   4.846   6.827   6.270
 2424SOL    HW1 8171   4.893   6.857   6.188
 2424SOL    HW2 8172   4.886   6.741   6.302
 2425SOL     OW 8173   5.020   5.534   5.087
 2425SOL    HW1 8174   4.975   5.552   5.000
 2425SOL    HW2 8175   4.955   5.493   5.151
 2426SOL     OW 8176   2.432   2.606   5.010
 2426SOL    HW1 8177   2.501   2.582   4.941
 2426SOL    HW2 8178   2.421   2.530   5.074
 2427SOL     OW 8179   5.576   0.806   0.397
 2427SOL    HW1 8180   5.671   0.781   0.380
 2427SOL    HW2 8181   5.541   0.860   0.321
 2428SOL     OW 8182   1.495   1.355   2.751
 2428SOL    HW1 8183   1.455   1.311   2.671
 2428SOL    HW2 8184   1.525   1.284   2.816
 2429SOL     OW 8185   6.097   5.169   1.955
 2429SOL    HW1 8186   6.158   5.236   1.912
 2429SOL    HW2 8187   6.100   5.083   1.903
 2430SOL     OW 8188   6.223   0.765   6.633
 2430SOL    HW1 8189   6.207   0.862   6.651
 2430SOL    HW2 8190   6.135   0.720   6.615
 2431SOL     OW 8191   0.568   3.641   1.536
 2431SOL    HW1 8192   0.646   3.603   1.486
 2431SOL    HW2 8193   0.588   3.641   1.634
 2432SOL     OW 8194   2.284   5.500   2.027
 2432SOL    HW1 8195   2.194   5.542   2.032
 2432SOL    HW2 8196   2.284   5.428   1.957
 2433SOL     OW 8197   6.748   3.998   4.997
 2433SOL    HW1 8198   6.652   4.017   4.975
 2433SOL    HW2 8199   6.753   3.913   5.051
 2434SOL     OW 8200   4.473   0.555   2.925
 2434SOL    HW1 8201   4.539   0.481   2.910
 2434SOL    HW2 8202   4.520   0.634   2.963
 2435SOL     OW 8203   6.097   6.839   6.956
 2435SOL    HW1 8204   6.040   6.797   6.885
 2435SOL    HW2 8205   6.108   6.775   0.005
 2436SOL     OW 8206   0.482   2.610   0.874
 2436SOL    HW1 8207   0.475   2.635   0.971
 2436SOL    HW2 8208   0.467   2.692   0.818
 2437SOL     OW 8209   0.185   3.700   1.908
 2437SOL    HW1 8210   0.188   3.727   1.812
 2437SOL    HW2 8211   0.098   3.728   1.948
 2438SOL     OW 8212   3.915   1.842   4.752
 2438SOL    HW1 8213   3.978   1.867   4.826
 2438SOL    HW2 8214   3.853   1.919   4.734
 2439SOL     OW 8215   1.881   5.660   1.532
 2439SOL    HW1 8216   1.958   5.607   1.566
 2439SOL    HW2 8217   1.911   5.717   1.455
 2440SOL     OW 8218   6.918   1.448   5.567
 2440SOL    HW1 8219   6.929   1.525   5.504
 2440SOL    HW2 8220   6.925   1.480   5.661
 2441SOL     OW 8221   6.089   0.580   0.578
 2441SOL    HW1 8222   6.038   0.615   0.500
 2441SOL    HW2 8223   6.048   0.615   0.663
 2442SOL     OW 8224   5.267   3.125   1.391
 2442SOL    HW1 8225   5.173   3.100   1.413
 2442SOL    HW2 8226   5.272   3.158   1.296
 2443SOL     OW 8227   0.995   3.133   1.305
 2443SOL    HW1 8228   1.036   3.224   1.307
 2443SOL    HW2 8229   1.007   3.089   1.394
 2444SOL     OW 8230   3.324   5.750   2.543
 2444SOL    HW1 8231   3.275   5.684   2.487
 2444SOL    HW2 8232   3.274   5.837   2.544
 2445SOL     OW 8233   0.629   1.974   1.280
 2445SOL    HW1 8234   0.553   2.037   1.295
 2445SOL    HW2 8235   0.715   2.022   1.296
 2446SOL     OW 8236   0.846   5.579   2.157
 2446SOL    HW1 8237   0.938   5.547   2.132
 2446SOL    HW2 8238   0.832   5.566   2.255
 2447SOL     OW 8239   2.413   0.160   0.075
 2447SOL    HW1 8240   2.465   0.229   0.024
 2447SOL    HW2 8241   2.465   0.075   0.078
 2448SOL     OW 8242   5.313   0.920   4.739
 2448SOL    HW1 8243   5.280   0.873   4.658
 2448SOL    HW2 8244   5.246   0.909   4.813
 2449SOL     OW 8245   1.074   4.392   1.482
 2449SOL    HW1 8246   1.070   4.344   1.569
 2449SOL    HW2 8247   1.155   4.362   1.431
 2450SOL     OW 8248   1.174   6.580   5.153
 2450SOL    HW1 8249   1.087   6.628   5.158
 2450SOL    HW2 8250   1.226   6.613   5.074
 2451SOL     OW 8251   1.516   6.497   5.252
 2451SOL    HW1 8252   1.419   6.475   5.256
 2451SOL    HW2 8253   1.558   6.447   5.176
 2452SOL     OW 8254   2.504   1.927   3.222
 2452SOL    HW1 8255   2.602   1.939   3.210
 2452SOL    HW2 8256   2.461   2.016   3.237
 2453SOL     OW 8257   1.242   1.357   5.784
 2453SOL    HW1 8258   1.337   1.380   5.763
 2453SOL    HW2 8259   1.183   1.433   5.760
 2454SOL     OW 8260   3.912   5.848   0.902
 2454SOL    HW1 8261   3.968   5.925   0.935
 2454SOL    HW2 8262   3.816   5.868   0.919
 2455SOL     OW 8263   3.920   2.426   0.534
 2455SOL    HW1 8264   4.018   2.416   0.551
 2455SOL    HW2 8265   3.898   2.522   0.520
 2456SOL     OW 8266   0.670   3.150   5.908
 2456SOL    HW1 8267   0.717   3.176   5.824
 2456SOL    HW2 8268   0.571   3.147   5.891
 2457SOL     OW 8269   4.260   1.814   5.177
 2457SOL    HW1 8270   4.198   1.810   5.255
 2457SOL    HW2 8271   4.240   1.737   5.115
 2458SOL     OW 8272   0.659   0.164   2.746
 2458SOL    HW1 8273   0.584   0.172   2.810
 2458SOL    HW2 8274   0.739   0.127   2.793
 2459SOL     OW 8275   1.660   6.973   0.067
 2459SOL    HW1 8276   1.663   6.874   0.058
 2459SOL    HW2 8277   1.753   7.010   0.064
 2460SOL     OW 8278   1.170   1.243   5.062
 2460SOL    HW1 8279   1.077   1.218   5.086
 2460SOL    HW2 8280   1.231   1.165   5.080
 2461SOL     OW 8281   4.627   0.829   3.856
 2461SOL    HW1 8282   4.722   0.823   3.884
 2461SOL    HW2 8283   4.568   0.831   3.937
 2462SOL     OW 8284   0.171   4.975   0.075
 2462SOL    HW1 8285   0.267   4.951   0.082
 2462SOL    HW2 8286   0.163   5.072   0.051
 2463SOL     OW 8287   6.706   0.565   0.052
 2463SOL    HW1 8288   6.719   0.604   6.987
 2463SOL    HW2 8289   6.611   0.578   0.081
 2464SOL     OW 8290   0.901   2.138   4.463
 2464SOL    HW1 8291   0.813   2.091   4.457
 2464SOL    HW2 8292   0.919   2.185   4.377
 2465SOL     OW 8293   0.009   6.535   6.387
 2465SOL    HW1 8294   0.036   6.617   6.438
 2465SOL    HW2 8295   6.985   6.474   6.448
 2466SOL     OW 8296   0.797   1.861   1.653
 2466SOL    HW1 8297   0.749   1.947   1.670
 2466SOL    HW2 8298   0.870   1.849   1.720
 2467SOL     OW 8299   6.073   2.658   5.350
 2467SOL    HW1 8300   6.098   2.616   5.263
 2467SOL    HW2 8301   6.003   2.603   5.395
 2468SOL     OW 8302   3.504   6.731   5.293
 2468SOL    HW1 8303   3.459   6.803   5.241
 2468SOL    HW2 8304   3.447   6.705   5.371
 2469SOL     OW 8305   3.794   1.812   5.556
 2469SOL    HW1 8306   3.787   1.755   5.474
 2469SOL    HW2 8307   3.713   1.870   5.564
 2470SOL     OW 8308   2.763   5.012   6.237
 2470SOL    HW1 8309   2.742   4.920   6.204
 2470SOL    HW2 8310   2.680   5.052   6.276
 2471SOL     OW 8311   2.879   5.274   1.885
 2471SOL    HW1 8312   2.859   5.180   1.912
 2471SOL    HW2 8313   2.939   5.317   1.952
 2472SOL     OW 8314   4.971   1.772   3.241
 2472SOL    HW1 8315   4.970   1.790   3.143
 2472SOL    HW2 8316   4.982   1.858   3.291
 2473SOL     OW 8317   0.435   3.943   3.856
 2473SOL    HW1 8318   0.500   3.896   3.916
 2473SOL    HW2 8319   0.457   4.041   3.853
 2474SOL     OW 8320   1.243   5.672   1.634
 2474SOL    HW1 8321   1.229   5.762   1.674
 2474SOL    HW2 8322   1.274   5.681   1.539
 2475SOL     OW 8323   4.547   0.779   0.345
 2475SOL    HW1 8324   4.600   0.846   0.398
 2475SOL    HW2 8325   4.552   0.690   0.389
 2476SOL     OW 8326   4.821   0.914   0.513
 2476SOL    HW1 8327   4.842   0.819   0.488
 2476SOL    HW2 8328   4.874   0.976   0.456
 2477SOL     OW 8329   3.845   7.026   3.018
 2477SOL    HW1 8330   3.900   6.944   2.999
 2477SOL    HW2 8331   3.896   0.060   3.079
 2478SOL     OW 8332   4.412   6.822   4.778
 2478SOL    HW1 8333   4.482   6.839   4.709
 2478SOL    HW2 8334   4.447   6.847   4.868
 2479SOL     OW 8335   6.049   3.287   6.908
 2479SOL    HW1 8336   6.093   3.370   6.943
 2479SOL    HW2 8337   6.072   3.210   6.967
 2480SOL     OW 8338   3.171   2.319   1.605
 2480SOL    HW1 8339   3.212   2.402   1.644
 2480SOL    HW2 8340   3.078   2.308   1.641
 2481SOL     OW 8341   3.284   0.674   1.292
 2481SOL    HW1 8342   3.373   0.651   1.333
 2481SOL    HW2 8343   3.211   0.625   1.340
 2482SOL     OW 8344   6.083   3.768   6.140
 2482SOL    HW1 8345   6.132   3.850   6.169
 2482SOL    HW2 8346   5.991   3.793   6.109
 2483SOL     OW 8347   1.551   2.671   0.303
 2483SOL    HW1 8348   1.465   2.632   0.271
 2483SOL    HW2 8349   1.578   2.626   0.389
 2484SOL     OW 8350   5.172   0.747   1.019
 2484SOL    HW1 8351   5.181   0.817   0.948
 2484SOL    HW2 8352   5.195   0.786   1.108
 2485SOL     OW 8353   6.738   2.339   6.197
 2485SOL    HW1 8354   6.722   2.344   6.296
 2485SOL    HW2 8355   6.762   2.245   6.173
 2486SOL     OW 8356   6.394   5.379   4.910
 2486SOL    HW1 8357   6.303   5.418   4.900
 2486SOL    HW2 8358   6.420   5.330   4.827
 2487SOL     OW 8359   5.100   6.127   6.441
 2487SOL    HW1 8360   5.108   6.080   6.353
 2487SOL    HW2 8361   5.186   6.174   6.462
 2488SOL     OW 8362   6.298   4.044   0.555
 2488SOL    HW1 8363   6.252   3.995   0.480
 2488SOL    HW2 8364   6.240   4.042   0.636
 2489SOL     OW 8365   6.854   6.228   4.889
 2489SOL    HW1 8366   6.847   6.306   4.827
 2489SOL    HW2 8367   6.940   6.179   4.871
 2490SOL     OW 8368   2.466   5.628   2.736
 2490SOL    HW1 8369   2.428   5.707   2.784
 2490SOL    HW2 8370   2.392   5.581   2.688
 2491SOL     OW 8371   3.634   4.747   1.486
 2491SOL    HW1 8372   3.631   4.812   1.410
 2491SOL    HW2 8373   3.658   4.656   1.452
 2492SOL     OW 8374   6.884   4.522   1.732
 2492SOL    HW1 8375   6.848   4.433   1.704
 2492SOL    HW2 8376   6.831   4.556   1.810
 2493SOL     OW 8377   6.251   6.765   1.148
 2493SOL    HW1 8378   6.169   6.761   1.091
 2493SOL    HW2 8379   6.253   6.853   1.197
 2494SOL     OW 8380   6.339   3.961   2.606
 2494SOL    HW1 8381   6.303   3.898   2.675
 2494SOL    HW2 8382   6.291   4.048   2.612
 2495SOL     OW 8383   6.845   4.664   3.157
 2495SOL    HW1 8384   6.912   4.590   3.156
 2495SOL    HW2 8385   6.767   4.638   3.214
 2496SOL     OW 8386   6.179   4.654   6.156
 2496SOL    HW1 8387   6.235   4.733   6.180
 2496SOL    HW2 8388   6.222   4.570   6.190
 2497SOL     OW 8389   0.475   0.313   2.166
 2497SOL    HW1 8390   0.547   0.350   2.225
 2497SOL    HW2 8391   0.487   0.214   2.158
 2498SOL     OW 8392   1.880   4.040   6.043
 2498SOL    HW1 8393   1.805   4.017   6.105
 2498SOL    HW2 8394   1.855   4.119   5.987
 2499SOL     OW 8395   6.529   3.799   2.001
 2499SOL    HW1 8396   6.482   3.762   2.081
 2499SOL    HW2 8397   6.627   3.809   2.020
 2500SOL     OW 8398   3.323   4.004   6.995
 2500SOL    HW1 8399   3.302   3.942   6.921
 2500SOL    HW2 8400   3.420   3.996   7.019
 2501SOL     OW 8401   5.873   5.429   7.002
 2501SOL    HW1 8402   5.932   5.486   6.946
 2501SOL    HW2 8403   5.784   5.473   7.013
 2502SOL     OW 8404   2.914   5.043   4.449
 2502SOL    HW1 8405   2.863   4.964   4.413
 2502SOL    HW2 8406   2.994   5.059   4.392
 2503SOL     OW 8407   2.294   6.612   6.262
 2503SOL    HW1 8408   2.304   6.575   6.355
 2503SOL    HW2 8409   2.257   6.541   6.203
 2504SOL     OW 8410   3.728   6.351   3.463
 2504SOL    HW1 8411   3.694   6.257   3.474
 2504SOL    HW2 8412   3.751   6.366   3.367
 2505SOL     OW 8413   0.273   5.274   3.629
 2505SOL    HW1 8414   0.213   5.213   3.680
 2505SOL    HW2 8415   0.292   5.234   3.539
 2506SOL     OW 8416   5.075   5.694   6.001
 2506SOL    HW1 8417   5.036   5.637   5.928
 2506SOL    HW2 8418   5.175   5.691   5.996
 2507SOL     OW 8419   6.921   3.319   0.756
 2507SOL    HW1 8420   7.020   3.310   0.769
 2507SOL    HW2 8421   6.893   3.264   0.677
 2508SOL     OW 8422   4.848   1.978   4.231
 2508SOL    HW1 8423   4.901   1.906   4.276
 2508SOL    HW2 8424   4.784   2.018   4.297
 2509SOL     OW 8425   6.839   4.693   5.263
 2509SOL    HW1 8426   6.914   4.751   5.232
 2509SOL    HW2 8427   6.814   4.629   5.191
 2510SOL     OW 8428   3.264   4.085   1.863
 2510SOL    HW1 8429   3.322   4.007   1.888
 2510SOL    HW2 8430   3.312   4.142   1.796
 2511SOL     OW 8431   2.140   0.332   5.137
 2511SOL    HW1 8432   2.114   0.356   5.230
 2511SOL    HW2 8433   2.237   0.309   5.134
 2512SOL     OW 8434   3.486   5.349   4.481
 2512SOL    HW1 8435   3.433   5.410   4.422
 2512SOL    HW2 8436   3.582   5.377   4.480
 2513SOL     OW 8437   2.032   5.751   5.847
 2513SOL    HW1 8438   2.016   5.787   5.939
 2513SOL    HW2 8439   2.130   5.735   5.834
 2514SOL     OW 8440   1.418   2.800   2.959
 2514SOL    HW1 8441   1.356   2.879   2.965
 2514SOL    HW2 8442   1.488   2.807   3.029
 2515SOL     OW 8443   1.155   1.440   1.211
 2515SOL    HW1 8444   1.251   1.416   1.198
 2515SOL    HW2 8445   1.100   1.356   1.210
 2516SOL     OW 8446   5.831   1.784   3.858
 2516SOL    HW1 8447   5.852   1.692   3.825
 2516SOL    HW2 8448   5.756   1.822   3.804
 2517SOL     OW 8449   1.717   1.543   4.069
 2517SOL    HW1 8450   1.625   1.573   4.095
 2517SOL    HW2 8451   1.780   1.559   4.144
 2518SOL     OW 8452   2.894   4.578   1.283
 2518SOL    HW1 8453   2.823   4.639   1.247
 2518SOL    HW2 8454   2.891   4.580   1.383
 2519SOL     OW 8455   1.186   1.118   0.557
 2519SOL    HW1 8456   1.093   1.119   0.594
 2519SOL    HW2 8457   1.235   1.037   0.591
 2520SOL     OW 8458   2.747   2.383   0.631
 2520SOL    HW1 8459   2.842   2.355   0.613
 2520SOL    HW2 8460   2.747   2.468   0.684
 2521SOL     OW 8461   4.906   1.096   5.254
 2521SOL    HW1 8462   4.864   1.065   5.169
 2521SOL    HW2 8463   4.883   1.032   5.327
 2522SOL     OW 8464   0.920   2.375   5.913
 2522SOL    HW1 8465   0.967   2.346   5.830
 2522SOL    HW2 8466   0.926   2.302   5.982
 2523SOL     OW 8467   1.997   5.090   6.940
 2523SOL    HW1 8468   1.971   5.010   6.995
 2523SOL    HW2 8469   2.081   5.070   6.890
 2524SOL     OW 8470   1.513   6.893   3.968
 2524SOL    HW1 8471   1.480   6.982   3.937
 2524SOL    HW2 8472   1.438   6.844   4.013
 2525SOL     OW 8473   6.699   2.155   4.271
 2525SOL    HW1 8474   6.675   2.100   4.351
 2525SOL    HW2 8475   6.630   2.141   4.200
 2526SOL     OW 8476   0.873   6.575   1.103
 2526SOL    HW1 8477   0.938   6.569   1.178
 2526SOL    HW2 8478   0.815   6.656   1.115
 2527SOL     OW 8479   4.689   4.738   6.630
 2527SOL    HW1 8480   4.640   4.811   6.676
 2527SOL    HW2 8481   4.788   4.749   6.646
 2528SOL     OW 8482   4.484   5.454   6.678
 2528SOL    HW1 8483   4.463   5.441   6.581
 2528SOL    HW2 8484   4.582   5.445   6.692
 2529SOL     OW 8485   0.373   6.774   6.760
 2529SOL    HW1 8486   0.350   6.848   6.696
 2529SOL    HW2 8487   0.459   6.795   6.807
 2530SOL     OW 8488   1.726   5.777   6.271
 2530SOL    HW1 8489   1.793   5.727   6.217
 2530SOL    HW2 8490   1.766   5.862   6.305
 2531SOL     OW 8491   6.302   5.363   5.882
 2531SOL    HW1 8492   6.389   5.413   5.889
 2531SOL    HW2 8493   6.321   5.267   5.862
 2532SOL     OW 8494   6.266   6.480   0.762
 2532SOL    HW1 8495   6.328   6.557   0.768
 2532SOL    HW2 8496   6.282   6.418   0.839
 2533SOL     OW 8497   5.091   0.667   3.210
 2533SOL    HW1 8498   5.119   0.665   3.306
 2533SOL    HW2 8499   5.168   0.694   3.153
 2534SOL     OW 8500   4.539   1.695   2.670
 2534SOL    HW1 8501   4.486   1.633   2.728
 2534SOL    HW2 8502   4.628   1.712   2.713
 2535SOL     OW 8503   3.637   2.887   6.082
 2535SOL    HW1 8504   3.563   2.871   6.148
 2535SOL    HW2 8505   3.604   2.946   6.008
 2536SOL     OW 8506   1.466   0.402   0.046
 2536SOL    HW1 8507   1.472   0.302   0.042
 2536SOL    HW2 8508   1.557   0.441   0.032
 2537SOL     OW 8509   4.238   0.537   6.980
 2537SOL    HW1 8510   4.171   0.580   6.920
 2537SOL    HW2 8511   4.218   0.562   0.048
 2538SOL     OW 8512   6.710   3.710   3.891
 2538SOL    HW1 8513   6.678   3.779   3.956
 2538SOL    HW2 8514   6.753   3.754   3.813
 2539SOL     OW 8515   4.890   1.540   5.456
 2539SOL    HW1 8516   4.911   1.507   5.548
 2539SOL    HW2 8517   4.924   1.476   5.388
 2540SOL     OW 8518   3.716   1.365   2.414
 2540SOL    HW1 8519   3.729   1.364   2.315
 2540SOL    HW2 8520   3.735   1.457   2.449
 2541SOL     OW 8521   3.312   6.343   5.072
 2541SOL    HW1 8522   3.368   6.343   5.154
 2541SOL    HW2 8523   3.371   6.337   4.991
 2542SOL     OW 8524   1.310   4.751   6.267
 2542SOL    HW1 8525   1.390   4.811   6.259
 2542SOL    HW2 8526   1.305   4.715   6.360
 2543SOL     OW 8527   1.778   0.902   4.204
 2543SOL    HW1 8528   1.732   0.873   4.120
 2543SOL    HW2 8529   1.864   0.948   4.181
 2544SOL     OW 8530   0.995   5.160   0.339
 2544SOL    HW1 8531   0.930   5.144   0.264
 2544SOL    HW2 8532   1.050   5.240   0.319
 2545SOL     OW 8533   2.461   6.320   2.769
 2545SOL    HW1 8534   2.532   6.359   2.711
 2545SOL    HW2 8535   2.437   6.228   2.737
 2546SOL     OW 8536   5.981   1.998   0.999
 2546SOL    HW1 8537   5.945   2.043   0.917
 2546SOL    HW2 8538   6.080   1.989   0.992
 2547SOL     OW 8539   0.221   3.751   5.014
 2547SOL    HW1 8540   0.140   3.729   5.069
 2547SOL    HW2 8541   0.246   3.671   4.960
 2548SOL     OW 8542   0.509   6.312   4.046
 2548SOL    HW1 8543   0.593   6.361   4.068
 2548SOL    HW2 8544   0.531   6.218   4.020
 2549SOL     OW 8545   0.360   1.651   0.677
 2549SOL    HW1 8546   0.283   1.633   0.616
 2549SOL    HW2 8547   0.349   1.741   0.720
 2550SOL     OW 8548   5.859   6.360   0.426
 2550SOL    HW1 8549   5.848   6.371   0.525
 2550SOL    HW2 8550   5.831   6.267   0.401
 2551SOL     OW 8551   1.723   4.145   6.536
 2551SOL    HW1 8552   1.786   4.100   6.472
 2551SOL    HW2 8553   1.634   4.101   6.532
 2552SOL     OW 8554   2.471   5.586   3.432
 2552SOL    HW1 8555   2.414   5.504   3.428
 2552SOL    HW2 8556   2.505   5.598   3.525
 2553SOL     OW 8557   4.028   3.422   6.981
 2553SOL    HW1 8558   4.099   3.484   7.015
 2553SOL    HW2 8559   4.067   3.331   6.965
 2554SOL     OW 8560   1.344   1.473   0.221
 2554SOL    HW1 8561   1.341   1.383   0.263
 2554SOL    HW2 8562   1.374   1.540   0.289
 2555SOL     OW 8563   6.228   2.425   6.639
 2555SOL    HW1 8564   6.137   2.398   6.671
 2555SOL    HW2 8565   6.236   2.525   6.646
 2556SOL     OW 8566   3.190   5.992   0.923
 2556SOL    HW1 8567   3.109   6.043   0.949
 2556SOL    HW2 8568   3.164   5.903   0.888
 2557SOL     OW 8569   2.312   4.057   6.836
 2557SOL    HW1 8570   2.279   3.963   6.842
 2557SOL    HW2 8571   2.278   4.099   6.752
 2558SOL     OW 8572   4.306   0.697   6.127
 2558SOL    HW1 8573   4.333   0.696   6.031
 2558SOL    HW2 8574   4.383   0.671   6.184
 2559SOL     OW 8575   0.295   4.761   4.726
 2559SOL    HW1 8576   0.370   4.803   4.676
 2559SOL    HW2 8577   0.209   4.803   4.698
 2560SOL     OW 8578   5.968   2.315   6.252
 2560SOL    HW1 8579   5.907   2.263   6.312
 2560SOL    HW2 8580   6.057   2.326   6.296
 2561SOL     OW 8581   2.963   5.366   5.057
 2561SOL    HW1 8582   2.941   5.446   5.001
 2561SOL    HW2 8583   2.880   5.333   5.102
 2562SOL     OW 8584   1.707   3.882   0.164
 2562SOL    HW1 8585   1.613   3.898   0.193
 2562SOL    HW2 8586   1.754   3.969   0.151
 2563SOL     OW 8587   2.792   1.310   6.986
 2563SOL    HW1 8588   2.732   1.232   6.969
 2563SOL    HW2 8589   2.747   1.394   6.955
 2564SOL     OW 8590   1.804   5.529   1.863
 2564SOL    HW1 8591   1.779   5.620   1.832
 2564SOL    HW2 8592   1.836   5.475   1.785
 2565SOL     OW 8593   1.674   0.962   1.428
 2565SOL    HW1 8594   1.610   0.910   1.485
 2565SOL    HW2 8595   1.755   0.906   1.409
 2566SOL     OW 8596   1.542   6.445   0.036
 2566SOL    HW1 8597   1.492   6.525   0.003
 2566SOL    HW2 8598   1.618   6.424   7.001
 2567SOL     OW 8599   1.330   6.163   0.252
 2567SOL    HW1 8600   1.408   6.140   0.194
 2567SOL    HW2 8601   1.259   6.207   0.197
 2568SOL     OW 8602   4.941   2.890   6.979
 2568SOL    HW1 8603   4.994   2.817   6.938
 2568SOL    HW2 8604   4.953   2.888   0.052
 2569SOL     OW 8605   3.018   0.396   3.272
 2569SOL    HW1 8606   2.970   0.480   3.296
 2569SOL    HW2 8607   3.014   0.381   3.174
 2570SOL     OW 8608   5.424   1.712   6.313
 2570SOL    HW1 8609   5.466   1.654   6.384
 2570SOL    HW2 8610   5.493   1.736   6.245
 2571SOL     OW 8611   1.272   4.311   4.299
 2571SOL    HW1 8612   1.335   4.358   4.360
 2571SOL    HW2 8613   1.282   4.346   4.206
 2572SOL     OW 8614   2.074   4.749   2.886
 2572SOL    HW1 8615   2.158   4.801   2.873
 2572SOL    HW2 8616   2.040   4.718   2.797
 2573SOL     OW 8617   1.295   0.319   1.139
 2573SOL    HW1 8618   1.278   0.231   1.095
 2573SOL    HW2 8619   1.328   0.304   1.232
 2574SOL     OW 8620   6.733   3.472   6.874
 2574SOL    HW1 8621   6.667   3.530   6.920
 2574SOL    HW2 8622   6.752   3.508   6.782
 2575SOL     OW 8623   0.116   5.823   6.154
 2575SOL    HW1 8624   0.062   5.739   6.163
 2575SOL    HW2 8625   0.148   5.832   6.059
 2576SOL     OW 8626   4.713   5.983   3.958
 2576SOL    HW1 8627   4.759   5.965   3.870
 2576SOL    HW2 8628   4.630   6.036   3.942
 2577SOL     OW 8629   2.716   4.692   2.458
 2577SOL    HW1 8630   2.755   4.605   2.426
 2577SOL    HW2 8631   2.759   4.718   2.544
 2578SOL     OW 8632   4.016   2.090   3.877
 2578SOL    HW1 8633   3.917   2.097   3.863
 2578SOL    HW2 8634   4.036   2.019   3.944
 2579SOL     OW 8635   1.118   6.290   3.480
 2579SOL    HW1 8636   1.054   6.280   3.403
 2579SOL    HW2 8637   1.161   6.202   3.498
 2580SOL     OW 8638   2.070   3.087   6.433
 2580SOL    HW1 8639   2.117   3.005   6.464
 2580SOL    HW2 8640   1.983   3.097   6.480
 2581SOL     OW 8641   3.315   6.908   4.922
 2581SOL    HW1 8642   3.227   6.863   4.905
 2581SOL    HW2 8643   3.364   6.917   4.836
 2582SOL     OW 8644   0.535   3.340   1.555
 2582SOL    HW1 8645   0.548   3.436   1.578
 2582SOL    HW2 8646   0.517   3.331   1.457
 2583SOL     OW 8647   5.893   6.996   1.200
 2583SOL    HW1 8648   5.949   6.915   1.187
 2583SOL    HW2 8649   5.828   6.980   1.274
 2584SOL     OW 8650   4.504   4.881   5.313
 2584SOL    HW1 8651   4.521   4.861   5.410
 2584SOL    HW2 8652   4.558   4.961   5.286
 2585SOL     OW 8653   3.190   5.129   6.529
 2585SOL    HW1 8654   3.138   5.063   6.475
 2585SOL    HW2 8655   3.272   5.085   6.566
 2586SOL     OW 8656   2.366   0.854   4.534
 2586SOL    HW1 8657   2.394   0.759   4.528
 2586SOL    HW2 8658   2.448   0.912   4.542
 2587SOL     OW 8659   6.666   1.451   3.363
 2587SOL    HW1 8660   6.760   1.419   3.377
 2587SOL    HW2 8661   6.661   1.548   3.386
 2588SOL     OW 8662   4.417   0.696   5.512
 2588SOL    HW1 8663   4.404   0.730   5.419
 2588SOL    HW2 8664   4.509   0.720   5.544
 2589SOL     OW 8665   1.843   6.703   0.091
 2589SOL    HW1 8666   1.902   6.659   0.159
 2589SOL    HW2 8667   1.858   6.662   0.001
 2590SOL     OW 8668   2.716   5.485   0.949
 2590SOL    HW1 8669   2.641   5.521   0.892
 2590SOL    HW2 8670   2.680   5.417   1.012
 2591SOL     OW 8671   6.063   5.647   3.697
 2591SOL    HW1 8672   6.053   5.636   3.796
 2591SOL    HW2 8673   6.149   5.605   3.668
 2592SOL     OW 8674   2.021   4.607   0.338
 2592SOL    HW1 8675   2.119   4.594   0.327
 2592SOL    HW2 8676   2.004   4.678   0.407
 2593SOL     OW 8677   2.857   3.934   0.648
 2593SOL    HW1 8678   2.811   4.022   0.666
 2593SOL    HW2 8679   2.947   3.951   0.608
 2594SOL     OW 8680   1.466   3.659   4.511
 2594SOL    HW1 8681   1.515   3.588   4.460
 2594SOL    HW2 8682   1.529   3.705   4.573
 2595SOL     OW 8683   1.653   0.892   3.187
 2595SOL    HW1 8684   1.680   0.987   3.198
 2595SOL    HW2 8685   1.626   0.876   3.092
 2596SOL     OW 8686   1.172   2.114   6.944
 2596SOL    HW1 8687   1.222   2.176   6.884
 2596SOL    HW2 8688   1.227   2.093   7.024
 2597SOL     OW 8689   6.884   5.990   6.100
 2597SOL    HW1 8690   6.838   5.913   6.054
 2597SOL    HW2 8691   6.962   5.955   6.153
 2598SOL     OW 8692   5.566   2.541   1.978
 2598SOL    HW1 8693   5.534   2.471   2.042
 2598SOL    HW2 8694   5.664   2.529   1.962
 2599SOL     OW 8695   3.122   6.083   1.935
 2599SOL    HW1 8696   3.155   6.082   1.841
 2599SOL    HW2 8697   3.084   5.994   1.959
 2600SOL     OW 8698   5.926   4.103   4.247
 2600SOL    HW1 8699   5.999   4.055   4.198
 2600SOL    HW2 8700   5.966   4.180   4.297
 2601SOL     OW 8701   0.109   1.922   3.491
 2601SOL    HW1 8702   0.172   1.981   3.441
 2601SOL    HW2 8703   0.087   1.842   3.436
 2602SOL     OW 8704   1.718   4.629   3.720
 2602SOL    HW1 8705   1.766   4.592   3.800
 2602SOL    HW2 8706   1.783   4.647   3.647
 2603SOL     OW 8707   3.153   6.988   2.796
 2603SOL    HW1 8708   3.201   6.909   2.758
 2603SOL    HW2 8709   3.156   0.038   2.732
 2604SOL     OW 8710   4.562   2.499   2.964
 2604SOL    HW1 8711   4.476   2.462   2.930
 2604SOL    HW2 8712   4.594   2.445   3.042
 2605SOL     OW 8713   1.478   3.694   1.841
 2605SOL    HW1 8714   1.541   3.725   1.769
 2605SOL    HW2 8715   1.481   3.759   1.917
 2606SOL     OW 8716   4.591   3.534   1.377
 2606SOL    HW1 8717   4.582   3.523   1.476
 2606SOL    HW2 8718   4.583   3.631   1.353
 2607SOL     OW 8719   2.501   2.325   1.503
 2607SOL    HW1 8720   2.570   2.316   1.431
 2607SOL    HW2 8721   2.503   2.243   1.560
 2608SOL     OW 8722   2.553   5.194   5.524
 2608SOL    HW1 8723   2.543   5.210   5.426
 2608SOL    HW2 8724   2.607   5.110   5.538
 2609SOL     OW 8725   0.082   2.044   0.869
 2609SOL    HW1 8726   0.115   2.038   0.775
 2609SOL    HW2 8727   0.153   2.014   0.932
 2610SOL     OW 8728   1.113   4.509   4.462
 2610SOL    HW1 8729   1.086   4.461   4.379
 2610SOL    HW2 8730   1.031   4.545   4.508
 2611SOL     OW 8731   5.432   6.896   6.408
 2611SOL    HW1 8732   5.415   6.938   6.319
 2611SOL    HW2 8733   5.382   6.810   6.415
 2612SOL     OW 8734   6.369   0.131   5.989
 2612SOL    HW1 8735   6.357   0.229   6.001
 2612SOL    HW2 8736   6.402   0.091   6.074
 2613SOL     OW 8737   0.558   6.218   0.104
 2613SOL    HW1 8738   0.494   6.295   0.103
 2613SOL    HW2 8739   0.640   6.243   0.053
 2614SOL     OW 8740   6.477   1.089   6.479
 2614SOL    HW1 8741   6.498   1.071   6.575
 2614SOL    HW2 8742   6.538   1.160   6.444
 2615SOL     OW 8743   0.690   3.503   0.519
 2615SOL    HW1 8744   0.622   3.431   0.532
 2615SOL    HW2 8745   0.756   3.500   0.594
 2616SOL     OW 8746   1.293   0.793   5.434
 2616SOL    HW1 8747   1.224   0.792   5.362
 2616SOL    HW2 8748   1.249   0.807   5.522
 2617SOL     OW 8749   5.559   0.223   1.178
 2617SOL    HW1 8750   5.651   0.224   1.216
 2617SOL    HW2 8751   5.560   0.265   1.088
 2618SOL     OW 8752   0.931   6.337   6.441
 2618SOL    HW1 8753   0.964   6.421   6.398
 2618SOL    HW2 8754   0.961   6.258   6.387
 2619SOL     OW 8755   5.296   0.982   2.341
 2619SOL    HW1 8756   5.375   1.041   2.331
 2619SOL    HW2 8757   5.212   1.035   2.323
 2620SOL     OW 8758   5.923   1.143   1.184
 2620SOL    HW1 8759   5.888   1.188   1.102
 2620SOL    HW2 8760   5.988   1.203   1.230
 2621SOL     OW 8761   1.375   6.327   1.912
 2621SOL    HW1 8762   1.445   6.303   1.845
 2621SOL    HW2 8763   1.418   6.358   1.996
 2622SOL     OW 8764   3.580   3.412   6.566
 2622SOL    HW1 8765   3.629   3.473   6.503
 2622SOL    HW2 8766   3.633   3.402   6.650
 2623SOL     OW 8767   1.324   6.431   3.280
 2623SOL    HW1 8768   1.271   6.407   3.361
 2623SOL    HW2 8769   1.406   6.481   3.306
 2624SOL     OW 8770   0.277   1.774   5.354
 2624SOL    HW1 8771   0.294   1.676   5.348
 2624SOL    HW2 8772   0.364   1.823   5.360
 2625SOL     OW 8773   2.497   5.079   6.353
 2625SOL    HW1 8774   2.462   5.164   6.313
 2625SOL    HW2 8775   2.509   5.091   6.451
 2626SOL     OW 8776   6.734   5.696   0.108
 2626SOL    HW1 8777   6.773   5.788   0.115
 2626SOL    HW2 8778   6.747   5.648   0.195
 2627SOL     OW 8779   1.888   0.258   5.779
 2627SOL    HW1 8780   1.855   0.321   5.849
 2627SOL    HW2 8781   1.833   0.270   5.696
 2628SOL     OW 8782   0.481   4.489   2.080
 2628SOL    HW1 8783   0.503   4.432   2.159
 2628SOL    HW2 8784   0.520   4.580   2.094
 2629SOL     OW 8785   3.184   3.549   2.714
 2629SOL    HW1 8786   3.192   3.468   2.656
 2629SOL    HW2 8787   3.160   3.628   2.658
 2630SOL     OW 8788   3.930   0.881   3.815
 2630SOL    HW1 8789   3.836   0.849   3.821
 2630SOL    HW2 8790   3.979   0.858   3.899
 2631SOL     OW 8791   6.324   0.258   6.874
 2631SOL    HW1 8792   6.279   0.170   6.859
 2631SOL    HW2 8793   6.312   0.286   6.969
 2632SOL     OW 8794   5.076   4.635   2.480
 2632SOL    HW1 8795   5.076   4.609   2.383
 2632SOL    HW2 8796   5.083   4.734   2.488
 2633SOL     OW 8797   7.023   3.370   6.155
 2633SOL    HW1 8798   0.088   3.404   6.132
 2633SOL    HW2 8799   0.002   3.317   6.240
 2634SOL     OW 8800   0.596   0.531   6.005
 2634SOL    HW1 8801   0.601   0.608   6.068
 2634SOL    HW2 8802   0.609   0.445   6.055
 2635SOL     OW 8803   5.282   5.323   3.209
 2635SOL    HW1 8804   5.374   5.294   3.182
 2635SOL    HW2 8805   5.284   5.354   3.305
 2636SOL     OW 8806   4.076   5.881   5.070
 2636SOL    HW1 8807   4.145   5.821   5.032
 2636SOL    HW2 8808   4.059   5.856   5.166
 2637SOL     OW 8809   1.256   1.133   3.589
 2637SOL    HW1 8810   1.314   1.118   3.509
 2637SOL    HW2 8811   1.190   1.058   3.597
 2638SOL     OW 8812   0.903   6.316   4.388
 2638SOL    HW1 8813   0.949   6.306   4.299
 2638SOL    HW2 8814   0.808   6.344   4.373
 2639SOL     OW 8815   4.310   4.859   5.045
 2639SOL    HW1 8816   4.272   4.865   4.953
 2639SOL    HW2 8817   4.408   4.882   5.043
 2640SOL     OW 8818   2.010   7.023   3.435
 2640SOL    HW1 8819   2.027   6.932   3.475
 2640SOL    HW2 8820   2.096   0.047   3.429
 2641SOL     OW 8821   6.237   2.691   6.683
 2641SOL    HW1 8822   6.163   2.725   6.742
 2641SOL    HW2 8823   6.269   2.764   6.623
 2642SOL     OW 8824   6.015   0.904   3.967
 2642SOL    HW1 8825   6.112   0.877   3.966
 2642SOL    HW2 8826   6.009   1.004   3.963
 2643SOL     OW 8827   2.271   4.611   3.566
 2643SOL    HW1 8828   2.310   4.684   3.622
 2643SOL    HW2 8829   2.240   4.650   3.479
 2644SOL     OW 8830   5.066   5.430   4.558
 2644SOL    HW1 8831   5.002   5.484   4.504
 2644SOL    HW2 8832   5.133   5.388   4.497
 2645SOL     OW 8833   4.861   5.729   3.496
 2645SOL    HW1 8834   4.783   5.699   3.441
 2645SOL    HW2 8835   4.829   5.791   3.568
 2646SOL     OW 8836   0.789   2.697   6.105
 2646SOL    HW1 8837   0.778   2.678   6.202
 2646SOL    HW2 8838   0.783   2.796   6.089
 2647SOL     OW 8839   5.429   0.868   1.690
 2647SOL    HW1 8840   5.456   0.919   1.771
 2647SOL    HW2 8841   5.462   0.774   1.698
 2648SOL     OW 8842   0.694   7.011   6.731
 2648SOL    HW1 8843   0.760   0.035   6.786
 2648SOL    HW2 8844   0.654   6.937   6.785
 2649SOL     OW 8845   4.991   1.958   2.884
 2649SOL    HW1 8846   4.998   2.057   2.870
 2649SOL    HW2 8847   5.083   1.920   2.900
 2650SOL     OW 8848   2.385   6.223   4.423
 2650SOL    HW1 8849   2.434   6.139   4.449
 2650SOL    HW2 8850   2.381   6.229   4.323
 2651SOL     OW 8851   4.133   2.168   4.395
 2651SOL    HW1 8852   4.118   2.202   4.302
 2651SOL    HW2 8853   4.205   2.099   4.394
 2652SOL     OW 8854   4.980   4.025   5.220
 2652SOL    HW1 8855   4.990   3.943   5.164
 2652SOL    HW2 8856   4.886   4.057   5.215
 2653SOL     OW 8857   2.384   5.730   0.226
 2653SOL    HW1 8858   2.326   5.715   0.147
 2653SOL    HW2 8859   2.480   5.726   0.198
 2654SOL     OW 8860   6.570   1.109   0.209
 2654SOL    HW1 8861   6.658   1.099   0.254
 2654SOL    HW2 8862   6.549   1.206   0.195
 2655SOL     OW 8863   4.939   6.530   2.559
 2655SOL    HW1 8864   5.038   6.531   2.546
 2655SOL    HW2 8865   4.915   6.584   2.639
 2656SOL     OW 8866   4.090   6.320   3.137
 2656SOL    HW1 8867   4.121   6.225   3.143
 2656SOL    HW2 8868   4.092   6.350   3.042
 2657SOL     OW 8869   0.151   3.893   0.204
 2657SOL    HW1 8870   0.054   3.916   0.211
 2657SOL    HW2 8871   0.163   3.795   0.220
 2658SOL     OW 8872   3.289   5.243   0.494
 2658SOL    HW1 8873   3.213   5.231   0.430
 2658SOL    HW2 8874   3.255   5.246   0.587
 2659SOL     OW 8875   0.148   1.998   4.906
 2659SOL    HW1 8876   0.166   1.986   5.003
 2659SOL    HW2 8877   0.199   2.078   4.873
 2660SOL     OW 8878   0.585   1.736   1.760
 2660SOL    HW1 8879   0.510   1.761   1.699
 2660SOL    HW2 8880   0.668   1.785   1.733
 2661SOL     OW 8881   1.190   1.060   0.984
 2661SOL    HW1 8882   1.110   1.057   0.923
 2661SOL    HW2 8883   1.273   1.071   0.930
 2662SOL     OW 8884   2.891   1.274   2.155
 2662SOL    HW1 8885   2.872   1.307   2.247
 2662SOL    HW2 8886   2.962   1.331   2.113
 2663SOL     OW 8887   4.228   6.899   0.498
 2663SOL    HW1 8888   4.160   6.837   0.460
 2663SOL    HW2 8889   4.293   6.847   0.554
 2664SOL     OW 8890   4.780   3.809   5.255
 2664SOL    HW1 8891   4.706   3.819   5.322
 2664SOL    HW2 8892   4.788   3.894   5.202
 2665SOL     OW 8893   2.086   3.863   4.701
 2665SOL    HW1 8894   2.041   3.900   4.782
 2665SOL    HW2 8895   2.115   3.769   4.719
 2666SOL     OW 8896   2.182   3.828   1.875
 2666SOL    HW1 8897   2.239   3.805   1.955
 2666SOL    HW2 8898   2.094   3.782   1.882
 2667SOL     OW 8899   6.997   2.983   4.806
 2667SOL    HW1 8900   6.928   2.963   4.875
 2667SOL    HW2 8901   0.060   2.992   4.850
 2668SOL     OW 8902   6.133   0.536   3.303
 2668SOL    HW1 8903   6.176   0.539   3.212
 2668SOL    HW2 8904   6.063   0.466   3.304
 2669SOL     OW 8905   2.290   0.800   0.072
 2669SOL    HW1 8906   2.367   0.831   0.128
 2669SOL    HW2 8907   2.314   0.807   7.002
 2670SOL     OW 8908   0.860   0.158   6.881
 2670SOL    HW1 8909   0.851   0.257   6.874
 2670SOL    HW2 8910   0.797   0.124   6.950
 2671SOL     OW 8911   5.262   4.504   5.978
 2671SOL    HW1 8912   5.267   4.487   5.880
 2671SOL    HW2 8913   5.172   4.477   6.013
 2672SOL     OW 8914   3.478   1.371   2.290
 2672SOL    HW1 8915   3.507   1.343   2.382
 2672SOL    HW2 8916   3.443   1.291   2.241
 2673SOL     OW 8917   3.287   0.558   2.348
 2673SOL    HW1 8918   3.328   0.587   2.435
 2673SOL    HW2 8919   3.305   0.460   2.335
 2674SOL     OW 8920   0.157   5.500   2.948
 2674SOL    HW1 8921   0.134   5.595   2.969
 2674SOL    HW2 8922   0.206   5.496   2.861
 2675SOL     OW 8923   5.256   0.971   4.164
 2675SOL    HW1 8924   5.253   0.892   4.102
 2675SOL    HW2 8925   5.244   0.940   4.258
 2676SOL     OW 8926   3.942   3.892   3.658
 2676SOL    HW1 8927   3.903   3.919   3.746
 2676SOL    HW2 8928   3.897   3.942   3.585
 2677SOL     OW 8929   2.263   5.287   1.156
 2677SOL    HW1 8930   2.184   5.293   1.095
 2677SOL    HW2 8931   2.276   5.191   1.183
 2678SOL     OW 8932   3.791   1.837   3.160
 2678SOL    HW1 8933   3.749   1.924   3.187
 2678SOL    HW2 8934   3.888   1.838   3.184
 2679SOL     OW 8935   2.112   3.150   2.608
 2679SOL    HW1 8936   2.168   3.090   2.664
 2679SOL    HW2 8937   2.094   3.106   2.519
 2680SOL     OW 8938   5.944   2.047   6.961
 2680SOL    HW1 8939   5.922   1.966   6.908
 2680SOL    HW2 8940   6.038   2.040   6.996
 2681SOL     OW 8941   1.890   2.033   3.936
 2681SOL    HW1 8942   1.959   1.961   3.942
 2681SOL    HW2 8943   1.916   2.110   3.994
 2682SOL     OW 8944   3.813   4.363   1.442
 2682SOL    HW1 8945   3.798   4.274   1.398
 2682SOL    HW2 8946   3.727   4.415   1.440
 2683SOL     OW 8947   2.313   4.254   2.044
 2683SOL    HW1 8948   2.294   4.208   2.131
 2683SOL    HW2 8949   2.325   4.186   1.972
 2684SOL     OW 8950   6.781   6.788   4.150
 2684SOL    HW1 8951   6.857   6.751   4.203
 2684SOL    HW2 8952   6.719   6.838   4.210
 2685SOL     OW 8953   0.977   5.732   6.119
 2685SOL    HW1 8954   1.030   5.669   6.064
 2685SOL    HW2 8955   0.889   5.690   6.143
 2686SOL     OW 8956   0.811   1.110   5.494
 2686SOL    HW1 8957   0.747   1.183   5.471
 2686SOL    HW2 8958   0.762   1.033   5.532
 2687SOL     OW 8959   3.978   1.929   1.349
 2687SOL    HW1 8960   3.941   1.988   1.421
 2687SOL    HW2 8961   3.957   1.833   1.371
 2688SOL     OW 8962   3.991   2.437   6.134
 2688SOL    HW1 8963   4.048   2.452   6.215
 2688SOL    HW2 8964   3.896   2.426   6.162
 2689SOL     OW 8965   1.420   3.989   3.255
 2689SOL    HW1 8966   1.491   3.963   3.321
 2689SOL    HW2 8967   1.351   4.046   3.301
 2690SOL     OW 8968   4.494   1.609   5.943
 2690SOL    HW1 8969   4.556   1.625   5.866
 2690SOL    HW2 8970   4.505   1.681   6.011
 2691SOL     OW 8971   6.403   3.661   5.342
 2691SOL    HW1 8972   6.437   3.574   5.305
 2691SOL    HW2 8973   6.320   3.688   5.293
 2692SOL     OW 8974   2.578   6.136   2.201
 2692SOL    HW1 8975   2.600   6.234   2.203
 2692SOL    HW2 8976   2.521   6.114   2.280
 2693SOL     OW 8977   1.468   6.056   3.159
 2693SOL    HW1 8978   1.490   6.092   3.249
 2693SOL    HW2 8979   1.549   6.013   3.120
 2694SOL     OW 8980   2.759   0.354   2.724
 2694SOL    HW1 8981   2.812   0.293   2.782
 2694SOL    HW2 8982   2.692   0.300   2.673
 2695SOL     OW 8983   0.165   5.516   3.553
 2695SOL    HW1 8984   0.178   5.419   3.574
 2695SOL    HW2 8985   0.165   5.528   3.453
 2696SOL     OW 8986   5.264   4.872   5.977
 2696SOL    HW1 8987   5.345   4.901   6.027
 2696SOL    HW2 8988   5.182   4.892   6.031
 2697SOL     OW 8989   4.330   2.464   6.496
 2697SOL    HW1 8990   4.281   2.492   6.414
 2697SOL    HW2 8991   4.428   2.482   6.484
 2698SOL     OW 8992   1.489   5.196   5.800
 2698SOL    HW1 8993   1.394   5.176   5.824
 2698SOL    HW2 8994   1.549   5.131   5.848
 2699SOL     OW 8995   3.095   6.354   2.260
 2699SOL    HW1 8996   3.041   6.432   2.291
 2699SOL    HW2 8997   3.189   6.383   2.245
 2700SOL     OW 8998   3.981   1.756   1.891
 2700SOL    HW1 8999   4.078   1.735   1.883
 2700SOL    HW2 9000   3.927   1.682   1.851
 2701SOL     OW 9001   5.148   3.126   5.149
 2701SOL    HW1 9002   5.183   3.175   5.229
 2701SOL    HW2 9003   5.064   3.170   5.117
 2702SOL     OW 9004   2.918   1.074   4.914
 2702SOL    HW1 9005   2.939   1.162   4.872
 2702SOL    HW2 9006   3.003   1.023   4.927
 2703SOL     OW 9007   2.323   0.039   2.401
 2703SOL    HW1 9008   2.407   7.012   2.391
 2703SOL    HW2 9009   2.271   0.003   2.478
 2704SOL     OW 9010   5.444   0.503   3.484
 2704SOL    HW1 9011   5.443   0.444   3.403
 2704SOL    HW2 9012   5.537   0.506   3.521
 2705SOL     OW 9013   0.702   0.540   5.524
 2705SOL    HW1 9014   0.732   0.459   5.474
 2705SOL    HW2 9015   0.711   0.524   5.622
 2706SOL     OW 9016   6.682   3.928   3.703
 2706SOL    HW1 9017   6.584   3.942   3.715
 2706SOL    HW2 9018   6.698   3.838   3.663
 2707SOL     OW 9019   4.519   1.145   2.992
 2707SOL    HW1 9020   4.503   1.055   2.952
 2707SOL    HW2 9021   4.471   1.151   3.080
 2708SOL     OW 9022   5.165   3.334   5.878
 2708SOL    HW1 9023   5.170   3.304   5.973
 2708SOL    HW2 9024   5.210   3.422   5.868
 2709SOL     OW 9025   5.428   1.385   5.575
 2709SOL    HW1 9026   5.527   1.384   5.566
 2709SOL    HW2 9027   5.396   1.480   5.583
 2710SOL     OW 9028   0.401   2.554   4.805
 2710SOL    HW1 9029   0.461   2.519   4.876
 2710SOL    HW2 9030   0.310   2.572   4.843
 2711SOL     OW 9031   3.763   1.237   1.895
 2711SOL    HW1 9032   3.750   1.251   1.797
 2711SOL    HW2 9033   3.697   1.170   1.928
 2712SOL     OW 9034   4.054   6.164   2.351
 2712SOL    HW1 9035   4.093   6.135   2.263
 2712SOL    HW2 9036   4.097   6.113   2.425
 2713SOL     OW 9037   3.706   4.817   5.376
 2713SOL    HW1 9038   3.662   4.823   5.465
 2713SOL    HW2 9039   3.728   4.721   5.355
 2714SOL     OW 9040   3.094   4.757   6.307
 2714SOL    HW1 9041   3.057   4.816   6.378
 2714SOL    HW2 9042   3.185   4.788   6.281
 2715SOL     OW 9043   4.358   0.495   6.661
 2715SOL    HW1 9044   4.360   0.455   6.570
 2715SOL    HW2 9045   4.266   0.531   6.680
 2716SOL     OW 9046   3.608   1.584   2.779
 2716SOL    HW1 9047   3.541   1.555   2.847
 2716SOL    HW2 9048   3.685   1.629   2.825
 2717SOL     OW 9049   0.712   1.374   2.056
 2717SOL    HW1 9050   0.747   1.282   2.042
 2717SOL    HW2 9051   0.699   1.419   1.967
 2718SOL     OW 9052   0.267   0.471   5.970
 2718SOL    HW1 9053   0.278   0.561   6.012
 2718SOL    HW2 9054   0.215   0.481   5.885
 2719SOL     OW 9055   1.307   4.714   2.893
 2719SOL    HW1 9056   1.391   4.725   2.946
 2719SOL    HW2 9057   1.249   4.794   2.907
 2720SOL     OW 9058   1.930   6.269   6.204
 2720SOL    HW1 9059   2.011   6.319   6.235
 2720SOL    HW2 9060   1.893   6.215   6.280
 2721SOL     OW 9061   3.077   6.525   1.702
 2721SOL    HW1 9062   3.043   6.607   1.748
 2721SOL    HW2 9063   3.153   6.486   1.755
 2722SOL     OW 9064   4.105   5.792   6.598
 2722SOL    HW1 9065   4.007   5.812   6.593
 2722SOL    HW2 9066   4.119   5.695   6.616
 2723SOL     OW 9067   3.176   6.084   6.776
 2723SOL    HW1 9068   3.262   6.069   6.726
 2723SOL    HW2 9069   3.099   6.065   6.716
 2724SOL     OW 9070   0.396   6.780   0.864
 2724SOL    HW1 9071   0.428   6.814   0.776
 2724SOL    HW2 9072   0.428   6.686   0.878
 2725SOL     OW 9073   5.950   3.984   4.491
 2725SOL    HW1 9074   5.907   4.014   4.406
 2725SOL    HW2 9075   5.882   3.940   4.550
 2726SOL     OW 9076   6.197   1.754   2.150
 2726SOL    HW1 9077   6.210   1.844   2.191
 2726SOL    HW2 9078   6.279   1.699   2.163
 2727SOL     OW 9079   1.499   5.252   3.621
 2727SOL    HW1 9080   1.506   5.186   3.546
 2727SOL    HW2 9081   1.572   5.234   3.687
 2728SOL     OW 9082   4.547   5.457   5.643
 2728SOL    HW1 9083   4.495   5.439   5.727
 2728SOL    HW2 9084   4.534   5.552   5.615
 2729SOL     OW 9085   5.933   0.203   6.341
 2729SOL    HW1 9086   5.962   0.272   6.275
 2729SOL    HW2 9087   5.969   0.225   6.432
 2730SOL     OW 9088   1.289   5.770   2.046
 2730SOL    HW1 9089   1.198   5.812   2.054
 2730SOL    HW2 9090   1.281   5.683   1.997
 2731SOL     OW 9091   2.974   3.875   4.428
 2731SOL    HW1 9092   2.916   3.943   4.383
 2731SOL    HW2 9093   3.027   3.918   4.501
 2732SOL     OW 9094   5.746   0.388   2.081
 2732SOL    HW1 9095   5.758   0.446   2.162
 2732SOL    HW2 9096   5.648   0.382   2.058
 2733SOL     OW 9097   1.188   6.300   0.055
 2733SOL    HW1 9098   1.097   6.317   0.094
 2733SOL    HW2 9099   1.183   6.305   6.982
 2734SOL     OW 9100   3.462   6.341   2.742
 2734SOL    HW1 9101   3.474   6.259   2.685
 2734SOL    HW2 9102   3.517   6.332   2.825
 2735SOL     OW 9103   0.446   1.356   1.614
 2735SOL    HW1 9104   0.457   1.442   1.565
 2735SOL    HW2 9105   0.361   1.312   1.586
 2736SOL     OW 9106   4.885   4.191   3.202
 2736SOL    HW1 9107   4.856   4.135   3.124
 2736SOL    HW2 9108   4.981   4.172   3.222
 2737SOL     OW 9109   2.980   0.633   5.177
 2737SOL    HW1 9110   3.001   0.551   5.124
 2737SOL    HW2 9111   2.908   0.686   5.131
 2738SOL     OW 9112   5.156   5.915   1.520
 2738SOL    HW1 9113   5.168   5.816   1.530
 2738SOL    HW2 9114   5.238   5.962   1.553
 2739SOL     OW 9115   6.549   5.430   1.658
 2739SOL    HW1 9116   6.519   5.340   1.627
 2739SOL    HW2 9117   6.492   5.501   1.617
 2740SOL     OW 9118   0.205   6.347   3.528
 2740SOL    HW1 9119   0.238   6.253   3.536
 2740SOL    HW2 9120   0.281   6.407   3.501
 2741SOL     OW 9121   1.506   0.591   5.679
 2741SOL    HW1 9122   1.555   0.515   5.721
 2741SOL    HW2 9123   1.445   0.556   5.608
 2742SOL     OW 9124   3.042   5.442   2.033
 2742SOL    HW1 9125   3.057   5.511   1.962
 2742SOL    HW2 9126   3.123   5.383   2.038
 2743SOL     OW 9127   5.307   2.004   1.875
 2743SOL    HW1 9128   5.246   1.938   1.832
 2743SOL    HW2 9129   5.278   2.097   1.851
 2744SOL     OW 9130   3.322   3.957   2.568
 2744SOL    HW1 9131   3.335   3.989   2.474
 2744SOL    HW2 9132   3.406   3.912   2.599
 2745SOL     OW 9133   0.549   6.260   0.820
 2745SOL    HW1 9134   0.532   6.359   0.821
 2745SOL    HW2 9135   0.625   6.238   0.880
 2746SOL     OW 9136   1.322   0.813   3.873
 2746SOL    HW1 9137   1.256   0.881   3.841
 2746SOL    HW2 9138   1.394   0.801   3.804
 2747SOL     OW 9139   3.826   4.922   0.987
 2747SOL    HW1 9140   3.850   4.870   0.904
 2747SOL    HW2 9141   3.857   4.871   1.067
 2748SOL     OW 9142   4.578   0.234   0.662
 2748SOL    HW1 9143   4.528   0.178   0.728
 2748SOL    HW2 9144   4.524   0.315   0.640
 2749SOL     OW 9145   3.335   2.043   0.483
 2749SOL    HW1 9146   3.256   2.039   0.544
 2749SOL    HW2 9147   3.358   2.139   0.464
 2750SOL     OW 9148   3.229   5.587   2.357
 2750SOL    HW1 9149   3.308   5.594   2.297
 2750SOL    HW2 9150   3.145   5.589   2.302
 2751SOL     OW 9151   5.608   4.882   1.166
 2751SOL    HW1 9152   5.669   4.890   1.245
 2751SOL    HW2 9153   5.566   4.970   1.148
 2752SOL     OW 9154   3.815   5.085   6.970
 2752SOL    HW1 9155   3.905   5.119   6.995
 2752SOL    HW2 9156   3.775   5.037   0.022
 2753SOL     OW 9157   5.867   5.572   5.465
 2753SOL    HW1 9158   5.846   5.483   5.505
 2753SOL    HW2 9159   5.963   5.594   5.482
 2754SOL     OW 9160   1.427   6.656   6.222
 2754SOL    HW1 9161   1.394   6.594   6.294
 2754SOL    HW2 9162   1.398   6.623   6.133
 2755SOL     OW 9163   3.181   0.726   2.152
 2755SOL    HW1 9164   3.202   0.687   2.063
 2755SOL    HW2 9165   3.196   0.657   2.223
 2756SOL     OW 9166   4.754   6.021   0.301
 2756SOL    HW1 9167   4.797   5.972   0.225
 2756SOL    HW2 9168   4.818   6.029   0.377
 2757SOL     OW 9169   0.284   5.294   1.687
 2757SOL    HW1 9170   0.359   5.306   1.621
 2757SOL    HW2 9171   0.234   5.380   1.696
 2758SOL     OW 9172   4.053   0.600   6.322
 2758SOL    HW1 9173   4.102   0.575   6.238
 2758SOL    HW2 9174   4.119   0.632   6.390
 2759SOL     OW 9175   5.238   5.651   4.935
 2759SOL    HW1 9176   5.160   5.613   4.985
 2759SOL    HW2 9177   5.287   5.577   4.889
 2760SOL     OW 9178   2.507   5.596   3.971
 2760SOL    HW1 9179   2.468   5.674   4.019
 2760SOL    HW2 9180   2.538   5.528   4.037
 2761SOL     OW 9181   2.193   5.393   3.360
 2761SOL    HW1 9182   2.160   5.300   3.375
 2761SOL    HW2 9183   2.271   5.391   3.297
 2762SOL     OW 9184   1.531   7.010   4.958
 2762SOL    HW1 9185   1.452   6.949   4.950
 2762SOL    HW2 9186   1.500   0.078   4.950
 2763SOL     OW 9187   5.031   2.139   1.990
 2763SOL    HW1 9188   5.060   2.065   2.052
 2763SOL    HW2 9189   4.999   2.217   2.043
 2764SOL     OW 9190   6.493   1.080   1.914
 2764SOL    HW1 9191   6.513   0.985   1.888
 2764SOL    HW2 9192   6.423   1.081   1.985
 2765SOL     OW 9193   5.185   1.658   2.168
 2765SOL    HW1 9194   5.242   1.740   2.160
 2765SOL    HW2 9195   5.165   1.621   2.077
 2766SOL     OW 9196   5.960   0.602   2.871
 2766SOL    HW1 9197   5.909   0.594   2.785
 2766SOL    HW2 9198   5.902   0.573   2.947
 2767SOL     OW 9199   6.206   4.801   5.827
 2767SOL    HW1 9200   6.124   4.780   5.879
 2767SOL    HW2 9201   6.282   4.747   5.863
 2768SOL     OW 9202   6.297   1.605   6.632
 2768SOL    HW1 9203   6.226   1.538   6.652
 2768SOL    HW2 9204   6.387   1.565   6.648
 2769SOL     OW 9205   1.439   4.588   1.437
 2769SOL    HW1 9206   1.390   4.564   1.354
 2769SOL    HW2 9207   1.408   4.678   1.469
 2770SOL     OW 9208   6.567   5.802   1.278
 2770SOL    HW1 9209   6.545   5.747   1.197
 2770SOL    HW2 9210   6.666   5.814   1.285
 2771SOL     OW 9211   4.704   0.794   1.468
 2771SOL    HW1 9212   4.789   0.822   1.513
 2771SOL    HW2 9213   4.699   0.835   1.377
 2772SOL     OW 9214   3.218   2.578   6.141
 2772SOL    HW1 9215   3.183   2.646   6.204
 2772SOL    HW2 9216   3.251   2.623   6.058
 2773SOL     OW 9217   3.699   4.245   6.683
 2773SOL    HW1 9218   3.769   4.185   6.722
 2773SOL    HW2 9219   3.634   4.271   6.754
 2774SOL     OW 9220   5.730   3.417   2.482
 2774SOL    HW1 9221   5.711   3.389   2.388
 2774SOL    HW2 9222   5.824   3.448   2.490
 2775SOL     OW 9223   6.872   6.283   2.112
 2775SOL    HW1 9224   6.947   6.302   2.049
 2775SOL    HW2 9225   6.868   6.355   2.181
 2776SOL     OW 9226   3.230   6.125   6.030
 2776SOL    HW1 9227   3.267   6.060   5.964
 2776SOL    HW2 9228   3.131   6.129   6.021
 2777SOL     OW 9229   3.776   1.315   2.803
 2777SOL    HW1 9230   3.774   1.300   2.901
 2777SOL    HW2 9231   3.737   1.404   2.781
 2778SOL     OW 9232   2.392   1.265   4.841
 2778SOL    HW1 9233   2.393   1.213   4.755
 2778SOL    HW2 9234   2.363   1.359   4.822
 2779SOL     OW 9235   5.785   1.129   0.306
 2779SOL    HW1 9236   5.858   1.145   0.240
 2779SOL    HW2 9237   5.707   1.085   0.260
 2780SOL     OW 9238   5.212   5.347   0.139
 2780SOL    HW1 9239   5.252   5.260   0.169
 2780SOL    HW2 9240   5.257   5.376   0.054
 2781SOL     OW 9241   4.693   4.318   0.477
 2781SOL    HW1 9242   4.651   4.358   0.559
 2781SOL    HW2 9243   4.688   4.219   0.483
 2782SOL     OW 9244   2.799   2.093   6.371
 2782SOL    HW1 9245   2.841   2.061   6.456
 2782SOL    HW2 9246   2.699   2.087   6.379
 2783SOL     OW 9247   0.329   4.716   5.159
 2783SOL    HW1 9248   0.329   4.675   5.250
 2783SOL    HW2 9249   0.271   4.798   5.160
 2784SOL     OW 9250   2.186   1.792   2.089
 2784SOL    HW1 9251   2.265   1.738   2.117
 2784SOL    HW2 9252   2.157   1.765   1.998
 2785SOL     OW 9253   6.060   1.324   1.333
 2785SOL    HW1 9254   5.997   1.398   1.356
 2785SOL    HW2 9255   6.153   1.350   1.357
 2786SOL     OW 9256   3.706   0.023   0.897
 2786SOL    HW1 9257   3.744   6.964   0.863
 2786SOL    HW2 9258   3.779   0.080   0.935
 2787SOL     OW 9259   2.073   2.393   5.391
 2787SOL    HW1 9260   2.091   2.486   5.359
 2787SOL    HW2 9261   2.160   2.348   5.413
 2788SOL     OW 9262   1.041   3.731   0.705
 2788SOL    HW1 9263   1.006   3.789   0.779
 2788SOL    HW2 9264   1.038   3.781   0.619
 2789SOL     OW 9265   0.075   1.794   4.445
 2789SOL    HW1 9266   7.026   1.839   4.494
 2789SOL    HW2 9267   0.038   1.722   4.386
 2790SOL     OW 9268   4.204   5.870   3.384
 2790SOL    HW1 9269   4.222   5.869   3.286
 2790SOL    HW2 9270   4.151   5.951   3.408
 2791SOL     OW 9271   2.075   2.823   3.654
 2791SOL    HW1 9272   2.161   2.776   3.636
 2791SOL    HW2 9273   2.009   2.800   3.583
 2792SOL     OW 9274   1.336   2.252   5.104
 2792SOL    HW1 9275   1.369   2.162   5.135
 2792SOL    HW2 9276   1.301   2.245   5.011
 2793SOL     OW 9277   5.314   1.244   3.788
 2793SOL    HW1 9278   5.369   1.326   3.771
 2793SOL    HW2 9279   5.262   1.221   3.706
 2794SOL     OW 9280   0.814   0.852   1.065
 2794SOL    HW1 9281   0.847   0.918   0.998
 2794SOL    HW2 9282   0.717   0.869   1.084
 2795SOL     OW 9283   2.322   4.049   1.833
 2795SOL    HW1 9284   2.400   4.007   1.787
 2795SOL    HW2 9285   2.247   3.983   1.838
 2796SOL     OW 9286   5.103   4.179   2.922
 2796SOL    HW1 9287   5.031   4.115   2.895
 2796SOL    HW2 9288   5.062   4.257   2.969
 2797SOL     OW 9289   4.439   4.637   4.780
 2797SOL    HW1 9290   4.454   4.734   4.766
 2797SOL    HW2 9291   4.402   4.621   4.872
 2798SOL     OW 9292   1.486   3.351   4.024
 2798SOL    HW1 9293   1.513   3.443   4.052
 2798SOL    HW2 9294   1.565   3.291   4.025
 2799SOL     OW 9295   6.545   5.382   5.602
 2799SOL    HW1 9296   6.484   5.438   5.546
 2799SOL    HW2 9297   6.543   5.288   5.568
 2800SOL     OW 9298   2.836   3.187   6.919
 2800SOL    HW1 9299   2.908   3.202   6.851
 2800SOL    HW2 9300   2.867   3.118   6.985
 2801SOL     OW 9301   4.754   5.670   2.507
 2801SOL    HW1 9302   4.748   5.768   2.490
 2801SOL    HW2 9303   4.664   5.634   2.531
 2802SOL     OW 9304   5.165   0.832   6.071
 2802SOL    HW1 9305   5.231   0.884   6.125
 2802SOL    HW2 9306   5.149   0.744   6.115
 2803SOL     OW 9307   2.038   5.811   6.130
 2803SOL    HW1 9308   2.050   5.713   6.115
 2803SOL    HW2 9309   2.069   5.835   6.222
 2804SOL     OW 9310   0.222   4.090   3.049
 2804SOL    HW1 9311   0.149   4.097   2.982
 2804SOL    HW2 9312   0.193   4.132   3.135
 2805SOL     OW 9313   5.458   4.037   6.937
 2805SOL    HW1 9314   5.514   4.118   6.952
 2805SOL    HW2 9315   5.516   3.961   6.907
 2806SOL     OW 9316   7.005   5.880   3.612
 2806SOL    HW1 9317   6.948   5.954   3.648
 2806SOL    HW2 9318   7.016   5.809   3.681
 2807SOL     OW 9319   4.139   5.209   3.662
 2807SOL    HW1 9320   4.145   5.113   3.689
 2807SOL    HW2 9321   4.044   5.231   3.641
 2808SOL     OW 9322   4.883   6.844   4.047
 2808SOL    HW1 9323   4.890   6.846   3.948
 2808SOL    HW2 9324   4.852   6.754   4.077
 2809SOL     OW 9325   5.174   3.195   0.678
 2809SOL    HW1 9326   5.249   3.238   0.626
 2809SOL    HW2 9327   5.177   3.227   0.772
 2810SOL     OW 9328   1.796   0.304   5.486
 2810SOL    HW1 9329   1.752   0.373   5.429
 2810SOL    HW2 9330   1.736   0.225   5.496
 2811SOL     OW 9331   0.323   0.868   3.569
 2811SOL    HW1 9332   0.420   0.891   3.560
 2811SOL    HW2 9333   0.267   0.943   3.532
 2812SOL     OW 9334   5.120   3.829   2.587
 2812SOL    HW1 9335   5.207   3.873   2.564
 2812SOL    HW2 9336   5.137   3.756   2.653
 2813SOL     OW 9337   5.985   1.311   6.106
 2813SOL    HW1 9338   6.083   1.291   6.104
 2813SOL    HW2 9339   5.937   1.249   6.045
 2814SOL     OW 9340   5.201   3.909   4.757
 2814SOL    HW1 9341   5.225   3.998   4.794
 2814SOL    HW2 9342   5.103   3.894   4.768
 2815SOL     OW 9343   0.229   0.884   5.415
 2815SOL    HW1 9344   0.258   0.839   5.499
 2815SOL    HW2 9345   0.152   0.834   5.376
 2816SOL     OW 9346   5.703   6.868   3.181
 2816SOL    HW1 9347   5.742   6.938   3.241
 2816SOL    HW2 9348   5.605   6.884   3.171
 2817SOL     OW 9349   1.260   2.113   1.187
 2817SOL    HW1 9350   1.348   2.129   1.231
 2817SOL    HW2 9351   1.210   2.199   1.179
 2818SOL     OW 9352   0.033   4.837   5.215
 2818SOL    HW1 9353   0.081   4.875   5.294
 2818SOL    HW2 9354   0.032   4.905   5.142
 2819SOL     OW 9355   6.945   2.860   0.322
 2819SOL    HW1 9356   6.857   2.861   0.369
 2819SOL    HW2 9357   6.981   2.767   0.321
 2820SOL     OW 9358   6.629   2.930   4.440
 2820SOL    HW1 9359   6.714   2.904   4.393
 2820SOL    HW2 9360   6.651   2.972   4.527
 2821SOL     OW 9361   1.570   3.118   4.266
 2821SOL    HW1 9362   1.504   3.072   4.207
 2821SOL    HW2 9363   1.565   3.079   4.358
 2822SOL     OW 9364   3.672   1.712   6.943
 2822SOL    HW1 9365   3.737   1.641   6.915
 2822SOL    HW2 9366   3.714   1.769   7.013
 2823SOL     OW 9367   1.555   6.548   3.357
 2823SOL    HW1 9368   1.592   6.638   3.334
 2823SOL    HW2 9369   1.630   6.485   3.375
 2824SOL     OW 9370   3.177   1.641   4.766
 2824SOL    HW1 9371   3.104   1.576   4.786
 2824SOL    HW2 9372   3.161   1.725   4.817
 2825SOL     OW 9373   6.537   5.754   0.993
 2825SOL    HW1 9374   6.568   5.844   0.962
 2825SOL    HW2 9375   6.615   5.692   1.000
 2826SOL     OW 9376   4.537   2.179   4.596
 2826SOL    HW1 9377   4.450   2.227   4.581
 2826SOL    HW2 9378   4.577   2.210   4.683
 2827SOL     OW 9379   5.998   0.701   5.346
 2827SOL    HW1 9380   6.026   0.614   5.305
 2827SOL    HW2 9381   5.957   0.685   5.435
 2828SOL     OW 9382   3.397   1.680   5.865
 2828SOL    HW1 9383   3.406   1.675   5.766
 2828SOL    HW2 9384   3.451   1.757   5.900
 2829SOL     OW 9385   1.932   6.571   6.818
 2829SOL    HW1 9386   1.963   6.666   6.813
 2829SOL    HW2 9387   2.010   6.510   6.830
 2830SOL     OW 9388   3.410   3.344   6.882
 2830SOL    HW1 9389   3.389   3.281   6.808
 2830SOL    HW2 9390   3.500   3.324   6.920
 2831SOL     OW 9391   5.704   5.821   4.397
 2831SOL    HW1 9392   5.771   5.814   4.323
 2831SOL    HW2 9393   5.747   5.862   4.477
 2832SOL     OW 9394   0.393   0.940   1.657
 2832SOL    HW1 9395   0.395   0.939   1.557
 2832SOL    HW2 9396   0.458   0.872   1.692
 2833SOL     OW 9397   5.992   3.047   1.878
 2833SOL    HW1 9398   5.950   3.127   1.835
 2833SOL    HW2 9399   5.921   2.982   1.904
 2834SOL     OW 9400   3.429   1.107   5.995
 2834SOL    HW1 9401   3.340   1.064   6.007
 2834SOL    HW2 9402   3.443   1.130   5.899
 2835SOL     OW 9403   0.902   6.166   2.434
 2835SOL    HW1 9404   0.997   6.190   2.456
 2835SOL    HW2 9405   0.847   6.171   2.517
 2836SOL     OW 9406   6.564   0.817   0.663
 2836SOL    HW1 9407   6.557   0.816   0.563
 2836SOL    HW2 9408   6.633   0.751   0.692
 2837SOL     OW 9409   5.778   3.233   3.643
 2837SOL    HW1 9410   5.769   3.332   3.641
 2837SOL    HW2 9411   5.751   3.199   3.733
 2838SOL     OW 9412   3.300   4.868   3.176
 2838SOL    HW1 9413   3.387   4.848   3.220
 2838SOL    HW2 9414   3.305   4.956   3.128
 2839SOL     OW 9415   5.009   1.735   0.827
 2839SOL    HW1 9416   5.068   1.757   0.904
 2839SOL    HW2 9417   5.029   1.642   0.795
 2840SOL     OW 9418   6.726   2.063   5.291
 2840SOL    HW1 9419   6.664   2.036   5.218
 2840SOL    HW2 9420   6.765   2.153   5.271
 2841SOL     OW 9421   0.733   5.793   1.397
 2841SOL    HW1 9422   0.809   5.857   1.399
 2841SOL    HW2 9423   0.647   5.842   1.383
 2842SOL     OW 9424   6.468   3.227   3.199
 2842SOL    HW1 9425   6.474   3.142   3.251
 2842SOL    HW2 9426   6.420   3.211   3.114
 2843SOL     OW 9427   4.116   1.918   4.933
 2843SOL    HW1 9428   4.150   2.006   4.901
 2843SOL    HW2 9429   4.158   1.896   5.021
 2844SOL     OW 9430   6.457   3.955   5.954
 2844SOL    HW1 9431   6.415   3.864   5.962
 2844SOL    HW2 9432   6.525   3.954   5.881
 2845SOL     OW 9433   6.181   4.156   5.270
 2845SOL    HW1 9434   6.262   4.121   5.316
 2845SOL    HW2 9435   6.121   4.200   5.338
 2846SOL     OW 9436   4.599   1.780   6.429
 2846SOL    HW1 9437   4.579   1.871   6.394
 2846SOL    HW2 9438   4.542   1.713   6.382
 2847SOL     OW 9439   5.190   4.611   4.363
 2847SOL    HW1 9440   5.273   4.600   4.417
 2847SOL    HW2 9441   5.155   4.704   4.375
 2848SOL     OW 9442   0.850   5.799   4.978
 2848SOL    HW1 9443   0.912   5.876   4.992
 2848SOL    HW2 9444   0.887   5.739   4.907
 2849SOL     OW 9445   2.305   2.782   1.646
 2849SOL    HW1 9446   2.208   2.764   1.627
 2849SOL    HW2 9447   2.360   2.705   1.612
 2850SOL     OW 9448   4.052   0.975   6.861
 2850SOL    HW1 9449   4.064   0.994   6.958
 2850SOL    HW2 9450   4.129   1.015   6.810
 2851SOL     OW 9451   2.030   4.494   6.278
 2851SOL    HW1 9452   2.060   4.488   6.373
 2851SOL    HW2 9453   2.110   4.498   6.218
 2852SOL     OW 9454   0.227   3.513   6.125
 2852SOL    HW1 9455   0.236   3.528   6.224
 2852SOL    HW2 9456   0.313   3.476   6.089
 2853SOL     OW 9457   2.984   3.762   1.452
 2853SOL    HW1 9458   2.915   3.706   1.405
 2853SOL    HW2 9459   3.005   3.721   1.541
 2854SOL     OW 9460   2.187   1.398   3.747
 2854SOL    HW1 9461   2.283   1.420   3.727
 2854SOL    HW2 9462   2.161   1.438   3.834
 2855SOL     OW 9463   2.756   0.814   5.360
 2855SOL    HW1 9464   2.768   0.844   5.455
 2855SOL    HW2 9465   2.818   0.865   5.301
 2856SOL     OW 9466   2.731   2.413   4.887
 2856SOL    HW1 9467   2.753   2.318   4.909
 2856SOL    HW2 9468   2.812   2.470   4.902
 2857SOL     OW 9469   3.277   3.429   2.072
 2857SOL    HW1 9470   3.260   3.442   2.170
 2857SOL    HW2 9471   3.221   3.354   2.037
 2858SOL     OW 9472   6.209   3.293   2.536
 2858SOL    HW1 9473   6.231   3.207   2.581
 2858SOL    HW2 9474   6.251   3.294   2.445
 2859SOL     OW 9475   6.175   6.384   0.523
 2859SOL    HW1 9476   6.077   6.364   0.536
 2859SOL    HW2 9477   6.207   6.440   0.600
 2860SOL     OW 9478   4.031   1.059   1.806
 2860SOL    HW1 9479   4.112   1.076   1.863
 2860SOL    HW2 9480   3.954   1.112   1.842
 2861SOL     OW 9481   3.432   5.999   5.608
 2861SOL    HW1 9482   3.404   6.095   5.606
 2861SOL    HW2 9483   3.397   5.952   5.527
 2862SOL     OW 9484   5.462   0.727   4.434
 2862SOL    HW1 9485   5.476   0.721   4.533
 2862SOL    HW2 9486   5.376   0.681   4.410
 2863SOL     OW 9487   6.139   2.103   6.625
 2863SOL    HW1 9488   6.041   2.082   6.615
 2863SOL    HW2 9489   6.170   2.154   6.545
 2864SOL     OW 9490   3.298   1.482   6.888
 2864SOL    HW1 9491   3.300   1.565   6.944
 2864SOL    HW2 9492   3.206   1.443   6.889
 2865SOL     OW 9493   4.581   4.902   5.027
 2865SOL    HW1 9494   4.635   4.963   4.969
 2865SOL    HW2 9495   4.633   4.819   5.045
 2866SOL     OW 9496   0.265   6.479   6.562
 2866SOL    HW1 9497   0.192   6.543   6.584
 2866SOL    HW2 9498   0.344   6.496   6.620
 2867SOL     OW 9499   6.610   4.221   3.979
 2867SOL    HW1 9500   6.638   4.291   3.913
 2867SOL    HW2 9501   6.642   4.246   4.070
 2868SOL     OW 9502   1.780   3.959   5.635
 2868SOL    HW1 9503   1.873   3.981   5.664
 2868SOL    HW2 9504   1.750   4.026   5.566
 2869SOL     OW 9505   6.360   1.547   2.262
 2869SOL    HW1 9506   6.390   1.463   2.216
 2869SOL    HW2 9507   6.290   1.525   2.330
 2870SOL     OW 9508   5.382   1.840   2.531
 2870SOL    HW1 9509   5.387   1.746   2.564
 2870SOL    HW2 9510   5.287   1.872   2.537
 2871SOL     OW 9511   1.726   2.084   5.772
 2871SOL    HW1 9512   1.645   2.029   5.750
 2871SOL    HW2 9513   1.784   2.033   5.835
 2872SOL     OW 9514   2.568   6.667   3.477
 2872SOL    HW1 9515   2.623   6.718   3.543
 2872SOL    HW2 9516   2.549   6.575   3.514
 2873SOL     OW 9517   6.879   5.159   1.827
 2873SOL    HW1 9518   6.794   5.132   1.782
 2873SOL    HW2 9519   6.904   5.252   1.798
 2874SOL     OW 9520   5.845   2.157   2.421
 2874SOL    HW1 9521   5.751   2.155   2.387
 2874SOL    HW2 9522   5.864   2.075   2.474
 2875SOL     OW 9523   3.332   4.925   0.149
 2875SOL    HW1 9524   3.235   4.901   0.154
 2875SOL    HW2 9525   3.383   4.849   0.108
 2876SOL     OW 9526   6.741   1.489   1.971
 2876SOL    HW1 9527   6.721   1.512   1.876
 2876SOL    HW2 9528   6.829   1.442   1.976
 2877SOL     OW 9529   2.760   2.908   5.957
 2877SOL    HW1 9530   2.745   2.923   6.055
 2877SOL    HW2 9531   2.693   2.962   5.905
 2878SOL     OW 9532   2.954   4.536   6.388
 2878SOL    HW1 9533   3.015   4.609   6.357
 2878SOL    HW2 9534   2.969   4.518   6.485
 2879SOL     OW 9535   5.030   4.934   6.963
 2879SOL    HW1 9536   5.034   5.017   6.907
 2879SOL    HW2 9537   5.115   4.923   7.013
 2880SOL     OW 9538   1.121   5.798   1.413
 2880SOL    HW1 9539   1.106   5.721   1.351
 2880SOL    HW2 9540   1.141   5.880   1.361
 2881SOL     OW 9541   6.916   7.024   0.661
 2881SOL    HW1 9542   6.881   6.950   0.604
 2881SOL    HW2 9543   6.942   6.988   0.751
 2882SOL     OW 9544   6.944   2.997   3.175
 2882SOL    HW1 9545   6.865   2.943   3.205
 2882SOL    HW2 9546   7.024   2.971   3.230
 2883SOL     OW 9547   4.042   6.890   2.257
 2883SOL    HW1 9548   4.063   6.947   2.178
 2883SOL    HW2 9549   4.112   6.903   2.327
 2884SOL     OW 9550   1.332   5.998   2.738
 2884SOL    HW1 9551   1.350   6.085   2.783
 2884SOL    HW2 9552   1.316   5.928   2.808
 2885SOL     OW 9553   0.621   2.343   3.324
 2885SOL    HW1 9554   0.566   2.309   3.248
 2885SOL    HW2 9555   0.650   2.267   3.382
 2886SOL     OW 9556   2.213   2.444   5.820
 2886SOL    HW1 9557   2.133   2.437   5.880
 2886SOL    HW2 9558   2.255   2.353   5.811
 2887SOL     OW 9559   1.883   0.644   5.078
 2887SOL    HW1 9560   1.983   0.652   5.083
 2887SOL    HW2 9561   1.846   0.716   5.020
 2888SOL     OW 9562   6.379   5.206   6.796
 2888SOL    HW1 9563   6.311   5.245   6.858
 2888SOL    HW2 9564   6.470   5.215   6.838
 2889SOL     OW 9565   0.346   0.098   2.433
 2889SOL    HW1 9566   0.281   0.031   2.469
 2889SOL    HW2 9567   0.357   0.085   2.334
 2890SOL     OW 9568   3.946   0.227   1.298
 2890SOL    HW1 9569   3.851   0.254   1.286
 2890SOL    HW2 9570   3.997   0.247   1.214
 2891SOL     OW 9571   2.574   4.945   3.861
 2891SOL    HW1 9572   2.633   4.869   3.834
 2891SOL    HW2 9573   2.620   5.000   3.930
 2892SOL     OW 9574   4.587   4.122   5.572
 2892SOL    HW1 9575   4.621   4.216   5.579
 2892SOL    HW2 9576   4.544   4.096   5.659
 2893SOL     OW 9577   2.126   0.402   5.737
 2893SOL    HW1 9578   2.036   0.362   5.758
 2893SOL    HW2 9579   2.113   0.487   5.686
 2894SOL     OW 9580   3.727   3.191   0.341
 2894SOL    HW1 9581   3.795   3.195   0.414
 2894SOL    HW2 9582   3.765   3.233   0.258
 2895SOL     OW 9583   3.398   3.685   6.544
 2895SOL    HW1 9584   3.394   3.643   6.635
 2895SOL    HW2 9585   3.493   3.688   6.513
 2896SOL     OW 9586   2.602   5.072   1.331
 2896SOL    HW1 9587   2.675   5.004   1.340
 2896SOL    HW2 9588   2.605   5.112   1.240
 2897SOL     OW 9589   2.436   6.448   3.628
 2897SOL    HW1 9590   2.362   6.390   3.592
 2897SOL    HW2 9591   2.396   6.519   3.687
 2898SOL     OW 9592   3.000   5.656   2.209
 2898SOL    HW1 9593   2.995   5.578   2.147
 2898SOL    HW2 9594   2.999   5.741   2.156
 2899SOL     OW 9595   6.986   6.830   0.361
 2899SOL    HW1 9596   6.980   6.733   0.339
 2899SOL    HW2 9597   0.053   6.853   0.388
 2900SOL     OW 9598   1.994   5.195   5.532
 2900SOL    HW1 9599   1.942   5.178   5.448
 2900SOL    HW2 9600   1.935   5.240   5.599
 2901SOL     OW 9601   2.950   1.213   1.765
 2901SOL    HW1 9602   3.050   1.215   1.775
 2901SOL    HW2 9603   2.911   1.299   1.798
 2902SOL     OW 9604   5.701   5.947   2.045
 2902SOL    HW1 9605   5.682   5.874   2.111
 2902SOL    HW2 9606   5.653   6.030   2.074
 2903SOL     OW 9607   2.653   1.931   2.081
 2903SOL    HW1 9608   2.664   1.837   2.048
 2903SOL    HW2 9609   2.557   1.958   2.072
 2904SOL     OW 9610   1.594   2.976   4.906
 2904SOL    HW1 9611   1.666   2.941   4.846
 2904SOL    HW2 9612   1.598   2.928   4.994
 2905SOL     OW 9613   1.996   2.415   1.957
 2905SOL    HW1 9614   2.029   2.460   1.874
 2905SOL    HW2 9615   1.943   2.334   1.933
 2906SOL     OW 9616   5.592   5.754   2.193
 2906SOL    HW1 9617   5.581   5.664   2.235
 2906SOL    HW2 9618   5.577   5.825   2.262
 2907SOL     OW 9619   6.340   1.246   3.933
 2907SOL    HW1 9620   6.429   1.224   3.895
 2907SOL    HW2 9621   6.270   1.190   3.889
 2908SOL     OW 9622   4.055   6.271   4.869
 2908SOL    HW1 9623   4.087   6.195   4.813
 2908SOL    HW2 9624   4.090   6.261   4.962
 2909SOL     OW 9625   1.640   5.637   4.637
 2909SOL    HW1 9626   1.650   5.736   4.624
 2909SOL    HW2 9627   1.713   5.604   4.697
 2910SOL     OW 9628   5.534   6.316   6.324
 2910SOL    HW1 9629   5.563   6.409   6.344
 2910SOL    HW2 9630   5.615   6.257   6.314
 2911SOL     OW 9631   1.731   3.998   3.171
 2911SOL    HW1 9632   1.785   4.082   3.175
 2911SOL    HW2 9633   1.782   3.923   3.215
 2912SOL     OW 9634   2.517   5.547   0.776
 2912SOL    HW1 9635   2.462   5.567   0.695
 2912SOL    HW2 9636   2.494   5.611   0.850
 2913SOL     OW 9637   1.435   3.318   2.915
 2913SOL    HW1 9638   1.394   3.398   2.959
 2913SOL    HW2 9639   1.464   3.253   2.985
 2914SOL     OW 9640   5.562   5.515   5.951
 2914SOL    HW1 9641   5.611   5.451   6.011
 2914SOL    HW2 9642   5.628   5.567   5.897
 2915SOL     OW 9643   4.823   1.267   4.235
 2915SOL    HW1 9644   4.847   1.349   4.183
 2915SOL    HW2 9645   4.792   1.196   4.172
 2916SOL     OW 9646   5.190   5.835   4.576
 2916SOL    HW1 9647   5.189   5.888   4.491
 2916SOL    HW2 9648   5.098   5.832   4.614
 2917SOL     OW 9649   4.613   0.419   2.253
 2917SOL    HW1 9650   4.711   0.426   2.233
 2917SOL    HW2 9651   4.590   0.483   2.326
 2918SOL     OW 9652   6.853   4.106   3.834
 2918SOL    HW1 9653   6.800   4.027   3.805
 2918SOL    HW2 9654   6.816   4.189   3.791
 2919SOL     OW 9655   6.492   5.837   0.276
 2919SOL    HW1 9656   6.397   5.867   0.287
 2919SOL    HW2 9657   6.533   5.822   0.366
 2920SOL     OW 9658   4.415   2.319   3.502
 2920SOL    HW1 9659   4.384   2.298   3.410
 2920SOL    HW2 9660   4.359   2.271   3.569
 2921SOL     OW 9661   0.877   6.899   1.995
 2921SOL    HW1 9662   0.918   6.958   2.063
 2921SOL    HW2 9663   0.937   6.821   1.978
 2922SOL     OW 9664   4.444   6.366   5.464
 2922SOL    HW1 9665   4.350   6.332   5.456
 2922SOL    HW2 9666   4.454   6.418   5.548
 2923SOL     OW 9667   6.573   4.340   1.924
 2923SOL    HW1 9668   6.543   4.249   1.951
 2923SOL    HW2 9669   6.494   4.402   1.921
 2924SOL     OW 9670   6.874   0.923   5.322
 2924SOL    HW1 9671   6.831   1.009   5.349
 2924SOL    HW2 9672   6.803   0.854   5.309
 2925SOL     OW 9673   5.361   4.083   1.256
 2925SOL    HW1 9674   5.419   4.007   1.227
 2925SOL    HW2 9675   5.417   4.155   1.296
 2926SOL     OW 9676   0.074   1.209   4.770
 2926SOL    HW1 9677   7.019   1.189   4.715
 2926SOL    HW2 9678   0.122   1.287   4.731
 2927SOL     OW 9679   0.574   2.584   3.025
 2927SOL    HW1 9680   0.594   2.656   2.958
 2927SOL    HW2 9681   0.656   2.527   3.038
 2928SOL     OW 9682   6.652   6.385   0.908
 2928SOL    HW1 9683   6.580   6.379   0.977
 2928SOL    HW2 9684   6.660   6.297   0.861
 2929SOL     OW 9685   0.749   6.589   6.556
 2929SOL    HW1 9686   0.784   6.682   6.553
 2929SOL    HW2 9687   0.729   6.558   6.463
 2930SOL     OW 9688   3.422   6.647   4.843
 2930SOL    HW1 9689   3.472   6.620   4.925
 2930SOL    HW2 9690   3.406   6.746   4.845
 2931SOL     OW 9691   3.785   6.035   5.803
 2931SOL    HW1 9692   3.822   6.107   5.744
 2931SOL    HW2 9693   3.807   6.055   5.898
 2932SOL     OW 9694   1.050   5.108   1.619
 2932SOL    HW1 9695   1.008   5.028   1.575
 2932SOL    HW2 9696   0.999   5.190   1.595
 2933SOL     OW 9697   5.010   2.216   3.183
 2933SOL    HW1 9698   5.091   2.213   3.241
 2933SOL    HW2 9699   5.010   2.299   3.128
 2934SOL     OW 9700   2.639   0.572   0.319
 2934SOL    HW1 9701   2.636   0.527   0.230
 2934SOL    HW2 9702   2.626   0.504   0.391
 2935SOL     OW 9703   6.003   2.524   1.268
 2935SOL    HW1 9704   6.070   2.460   1.305
 2935SOL    HW2 9705   5.960   2.574   1.343
 2936SOL     OW 9706   4.300   5.817   0.651
 2936SOL    HW1 9707   4.372   5.856   0.708
 2936SOL    HW2 9708   4.314   5.846   0.556
 2937SOL     OW 9709   3.349   4.574   0.515
 2937SOL    HW1 9710   3.326   4.597   0.610
 2937SOL    HW2 9711   3.407   4.646   0.477
 2938SOL     OW 9712   4.792   5.602   5.656
 2938SOL    HW1 9713   4.844   5.643   5.580
 2938SOL    HW2 9714   4.710   5.558   5.620
 2939SOL     OW 9715   0.610   6.331   5.743
 2939SOL    HW1 9716   0.544   6.261   5.716
 2939SOL    HW2 9717   0.686   6.287   5.791
 2940SOL     OW 9718   4.543   0.197   5.436
 2940SOL    HW1 9719   4.584   0.278   5.393
 2940SOL    HW2 9720   4.614   0.129   5.453
 2941SOL     OW 9721   1.943   1.719   4.977
 2941SOL    HW1 9722   1.871   1.754   4.917
 2941SOL    HW2 9723   1.903   1.660   5.047
 2942SOL     OW 9724   3.661   6.468   4.287
 2942SOL    HW1 9725   3.760   6.455   4.282
 2942SOL    HW2 9726   3.621   6.396   4.344
 2943SOL     OW 9727   6.170   4.163   3.355
 2943SOL    HW1 9728   6.255   4.168   3.301
 2943SOL    HW2 9729   6.146   4.255   3.387
 2944SOL     OW 9730   4.082   5.696   6.294
 2944SOL    HW1 9731   4.096   5.780   6.241
 2944SOL    HW2 9732   4.090   5.716   6.391
 2945SOL     OW 9733   3.145   3.062   3.139
 2945SOL    HW1 9734   3.178   3.156   3.154
 2945SOL    HW2 9735   3.053   3.066   3.098
 2946SOL     OW 9736   6.556   6.143   6.064
 2946SOL    HW1 9737   6.499   6.225   6.075
 2946SOL    HW2 9738   6.612   6.130   6.146
 2947SOL     OW 9739   6.627   4.791   0.147
 2947SOL    HW1 9740   6.723   4.818   0.141
 2947SOL    HW2 9741   6.614   4.704   0.099
 2948SOL     OW 9742   5.987   4.718   4.975
 2948SOL    HW1 9743   5.923   4.767   5.035
 2948SOL    HW2 9744   5.936   4.658   4.913
 2949SOL     OW 9745   1.318   6.551   0.156
 2949SOL    HW1 9746   1.327   6.461   0.112
 2949SOL    HW2 9747   1.291   6.538   0.252
 2950SOL     OW 9748   4.883   3.350   4.561
 2950SOL    HW1 9749   4.951   3.385   4.497
 2950SOL    HW2 9750   4.889   3.399   4.647
 2951SOL     OW 9751   6.535   1.405   1.418
 2951SOL    HW1 9752   6.450   1.363   1.385
 2951SOL    HW2 9753   6.611   1.377   1.360
 2952SOL     OW 9754   1.767   3.596   2.182
 2952SOL    HW1 9755   1.831   3.550   2.244
 2952SOL    HW2 9756   1.816   3.667   2.131
 2953SOL     OW 9757   5.005   1.085   2.860
 2953SOL    HW1 9758   4.941   1.061   2.933
 2953SOL    HW2 9759   4.981   1.174   2.821
 2954SOL     OW 9760   5.926   6.695   2.188
 2954SOL    HW1 9761   5.896   6.763   2.120
 2954SOL    HW2 9762   5.878   6.711   2.274
 2955SOL     OW 9763   6.818   3.045   0.650
 2955SOL    HW1 9764   6.779   3.032   0.742
 2955SOL    HW2 9765   6.912   3.010   0.648
 2956SOL     OW 9766   6.456   5.887   2.770
 2956SOL    HW1 9767   6.478   5.883   2.867
 2956SOL    HW2 9768   6.433   5.796   2.737
 2957SOL     OW 9769   0.944   4.000   1.300
 2957SOL    HW1 9770   1.006   4.013   1.377
 2957SOL    HW2 9771   0.994   4.015   1.214
 2958SOL     OW 9772   2.455   4.948   5.709
 2958SOL    HW1 9773   2.415   4.891   5.637
 2958SOL    HW2 9774   2.413   4.927   5.797
 2959SOL     OW 9775   3.849   5.237   6.705
 2959SOL    HW1 9776   3.837   5.220   6.803
 2959SOL    HW2 9777   3.764   5.217   6.656
 2960SOL     OW 9778   2.281   1.878   0.228
 2960SOL    HW1 9779   2.343   1.840   0.297
 2960SOL    HW2 9780   2.315   1.967   0.199
 2961SOL     OW 9781   5.979   2.843   4.054
 2961SOL    HW1 9782   5.965   2.855   3.956
 2961SOL    HW2 9783   5.988   2.745   4.075
 2962SOL     OW 9784   4.404   0.885   3.429
 2962SOL    HW1 9785   4.475   0.920   3.490
 2962SOL    HW2 9786   4.426   0.791   3.402
 2963SOL     OW 9787   2.257   3.027   4.524
 2963SOL    HW1 9788   2.307   2.942   4.507
 2963SOL    HW2 9789   2.246   3.040   4.623
 2964SOL     OW 9790   3.536   6.368   0.772
 2964SOL    HW1 9791   3.504   6.460   0.796
 2964SOL    HW2 9792   3.469   6.300   0.803
 2965SOL     OW 9793   0.629   2.343   6.155
 2965SOL    HW1 9794   0.647   2.385   6.066
 2965SOL    HW2 9795   0.669   2.251   6.157
 2966SOL     OW 9796   4.413   4.714   4.200
 2966SOL    HW1 9797   4.473   4.760   4.265
 2966SOL    HW2 9798   4.329   4.686   4.246
 2967SOL     OW 9799   5.731   2.260   3.939
 2967SOL    HW1 9800   5.666   2.316   3.991
 2967SOL    HW2 9801   5.690   2.236   3.851
 2968SOL     OW 9802   0.327   4.052   3.541
 2968SOL    HW1 9803   0.396   3.993   3.583
 2968SOL    HW2 9804   0.246   3.998   3.521
 2969SOL     OW 9805   4.681   1.487   5.166
 2969SOL    HW1 9806   4.603   1.426   5.179
 2969SOL    HW2 9807   4.766   1.434   5.168
 2970SOL     OW 9808   1.029   4.732   6.489
 2970SOL    HW1 9809   1.006   4.735   6.392
 2970SOL    HW2 9810   0.946   4.748   6.543
 2971SOL     OW 9811   5.144   2.965   2.901
 2971SOL    HW1 9812   5.210   2.906   2.947
 2971SOL    HW2 9813   5.064   2.979   2.959
 2972SOL     OW 9814   0.245   3.898   5.603
 2972SOL    HW1 9815   0.334   3.943   5.610
 2972SOL    HW2 9816   0.177   3.952   5.653
 2973SOL     OW 9817   5.110   6.174   4.266
 2973SOL    HW1 9818   5.056   6.164   4.183
 2973SOL    HW2 9819   5.113   6.086   4.315
 2974SOL     OW 9820   0.288   3.793   2.398
 2974SOL    HW1 9821   0.321   3.844   2.477
 2974SOL    HW2 9822   0.348   3.715   2.380
 2975SOL     OW 9823   0.592   0.981   5.048
 2975SOL    HW1 9824   0.568   1.075   5.023
 2975SOL    HW2 9825   0.612   0.976   5.145
 2976SOL     OW 9826   3.766   0.491   2.249
 2976SOL    HW1 9827   3.692   0.535   2.199
 2976SOL    HW2 9828   3.768   0.526   2.343
 2977SOL     OW 9829   2.945   6.121   3.962
 2977SOL    HW1 9830   2.913   6.099   4.055
 2977SOL    HW2 9831   2.890   6.070   3.896
 2978SOL     OW 9832   4.855   5.651   6.942
 2978SOL    HW1 9833   4.824   5.597   7.021
 2978SOL    HW2 9834   4.953   5.638   6.929
 2979SOL     OW 9835   3.609   1.044   3.210
 2979SOL    HW1 9836   3.588   1.018   3.115
 2979SOL    HW2 9837   3.613   0.962   3.267
 2980SOL     OW 9838   0.160   6.434   4.333
 2980SOL    HW1 9839   0.061   6.422   4.341
 2980SOL    HW2 9840   0.185   6.441   4.237
 2981SOL     OW 9841   2.459   0.656   5.834
 2981SOL    HW1 9842   2.537   0.690   5.782
 2981SOL    HW2 9843   2.418   0.579   5.785
 2982SOL     OW 9844   4.657   6.642   2.540
 2982SOL    HW1 9845   4.663   6.561   2.481
 2982SOL    HW2 9846   4.560   6.667   2.552
 2983SOL     OW 9847   6.346   0.618   3.850
 2983SOL    HW1 9848   6.336   0.715   3.875
 2983SOL    HW2 9849   6.291   0.599   3.768
 2984SOL     OW 9850   5.192   4.944   2.226
 2984SOL    HW1 9851   5.190   4.925   2.324
 2984SOL    HW2 9852   5.119   5.008   2.203
 2985SOL     OW 9853   6.022   2.445   2.696
 2985SOL    HW1 9854   6.062   2.354   2.708
 2985SOL    HW2 9855   5.941   2.439   2.637
 2986SOL     OW 9856   2.084   3.990   5.212
 2986SOL    HW1 9857   2.174   4.001   5.170
 2986SOL    HW2 9858   2.094   3.937   5.296
 2987SOL     OW 9859   4.277   2.305   4.583
 2987SOL    HW1 9860   4.238   2.329   4.672
 2987SOL    HW2 9861   4.209   2.253   4.530
 2988SOL     OW 9862   0.668   0.435   2.316
 2988SOL    HW1 9863   0.625   0.517   2.353
 2988SOL    HW2 9864   0.712   0.384   2.390
 2989SOL     OW 9865   6.616   4.920   1.431
 2989SOL    HW1 9866   6.618   4.870   1.518
 2989SOL    HW2 9867   6.684   4.882   1.369
 2990SOL     OW 9868   3.288   0.656   0.914
 2990SOL    HW1 9869   3.203   0.612   0.886
 2990SOL    HW2 9870   3.281   0.754   0.898
 2991SOL     OW 9871   6.373   4.195   0.162
 2991SOL    HW1 9872   6.323   4.200   0.248
 2991SOL    HW2 9873   6.312   4.223   0.087
 2992SOL     OW 9874   3.844   4.471   6.302
 2992SOL    HW1 9875   3.897   4.387   6.301
 2992SOL    HW2 9876   3.826   4.498   6.397
 2993SOL     OW 9877   1.831   5.246   1.253
 2993SOL    HW1 9878   1.831   5.147   1.246
 2993SOL    HW2 9879   1.811   5.272   1.348
 2994SOL     OW 9880   4.397   6.705   6.968
 2994SOL    HW1 9881   4.447   6.619   6.982
 2994SOL    HW2 9882   4.308   6.685   6.927
 2995SOL     OW 9883   2.571   1.690   6.006
 2995SOL    HW1 9884   2.511   1.622   5.964
 2995SOL    HW2 9885   2.524   1.735   6.081
 2996SOL     OW 9886   3.861   5.731   5.682
 2996SOL    HW1 9887   3.813   5.807   5.640
 2996SOL    HW2 9888   3.860   5.652   5.620
 2997SOL     OW 9889   5.746   6.725   0.457
 2997SOL    HW1 9890   5.689   6.655   0.415
 2997SOL    HW2 9891   5.695   6.811   0.462
 2998SOL     OW 9892   6.506   5.968   5.210
 2998SOL    HW1 9893   6.453   5.971   5.295
 2998SOL    HW2 9894   6.445   5.985   5.132
 2999SOL     OW 9895   3.304   6.804   2.687
 2999SOL    HW1 9896   3.318   6.713   2.728
 2999SOL    HW2 9897   3.346   6.806   2.596
 3000SOL     OW 9898   1.169   3.367   4.750
 3000SOL    HW1 9899   1.194   3.304   4.824
 3000SOL    HW2 9900   1.243   3.432   4.735
 3001SOL     OW 9901   4.622   0.280   5.902
 3001SOL    HW1 9902   4.678   0.281   5.985
 3001SOL    HW2 9903   4.560   0.202   5.905
 3002SOL     OW 9904   4.106   0.201   5.703
 3002SOL    HW1 9905   4.126   0.227   5.608
 3002SOL    HW2 9906   4.008   0.212   5.721
 3003SOL     OW 9907   2.385   0.166   6.624
 3003SOL    HW1 9908   2.354   0.136   6.533
 3003SOL    HW2 9909   2.447   0.098   6.662
 3004SOL     OW 9910   6.076   3.088   4.608
 3004SOL    HW1 9911   6.156   3.130   4.566
 3004SOL    HW2 9912   6.067   2.994   4.576
 3005SOL     OW 9913   4.537   2.527   1.495
 3005SOL    HW1 9914   4.564   2.470   1.417
 3005SOL    HW2 9915   4.538   2.623   1.468
 3006SOL     OW 9916   5.751   0.701   1.593
 3006SOL    HW1 9917   5.807   0.779   1.618
 3006SOL    HW2 9918   5.674   0.693   1.656
 3007SOL     OW 9919   6.485   5.565   2.477
 3007SOL    HW1 9920   6.439   5.560   2.389
 3007SOL    HW2 9921   6.584   5.555   2.464
 3008SOL     OW 9922   3.351   5.908   6.203
 3008SOL    HW1 9923   3.258   5.875   6.187
 3008SOL    HW2 9924   3.357   6.005   6.179
 3009SOL     OW 9925   2.023   0.679   3.490
 3009SOL    HW1 9926   1.974   0.703   3.406
 3009SOL    HW2 9927   2.077   0.596   3.474
 3010SOL     OW 9928   3.967   6.547   1.806
 3010SOL    HW1 9929   3.985   6.593   1.893
 3010SOL    HW2 9930   3.974   6.613   1.731
 3011SOL     OW 9931   5.515   0.942   0.162
 3011SOL    HW1 9932   5.429   0.994   0.156
 3011SOL    HW2 9933   5.542   0.914   0.070
 3012SOL     OW 9934   6.867   3.648   2.814
 3012SOL    HW1 9935   6.870   3.620   2.718
 3012SOL    HW2 9936   6.909   3.576   2.870
 3013SOL     OW 9937   5.962   4.585   2.433
 3013SOL    HW1 9938   5.979   4.673   2.388
 3013SOL    HW2 9939   5.916   4.600   2.520
 3014SOL     OW 9940   4.473   1.072   4.967
 3014SOL    HW1 9941   4.424   0.996   4.925
 3014SOL    HW2 9942   4.466   1.152   4.908
 3015SOL     OW 9943   2.851   2.645   6.996
 3015SOL    HW1 9944   2.874   2.650   6.899
 3015SOL    HW2 9945   2.792   2.721   7.021
 3016SOL     OW 9946   4.136   6.626   3.571
 3016SOL    HW1 9947   4.142   6.711   3.623
 3016SOL    HW2 9948   4.201   6.627   3.496
 3017SOL     OW 9949   0.169   5.511   1.402
 3017SOL    HW1 9950   0.164   5.521   1.502
 3017SOL    HW2 9951   0.092   5.456   1.371
 3018SOL     OW 9952   3.632   6.610   0.363
 3018SOL    HW1 9953   3.731   6.609   0.351
 3018SOL    HW2 9954   3.590   6.657   0.286
 3019SOL     OW 9955   4.665   7.015   1.872
 3019SOL    HW1 9956   4.668   0.031   1.963
 3019SOL    HW2 9957   4.602   0.039   1.814
 3020SOL     OW 9958   1.679   2.095   0.784
 3020SOL    HW1 9959   1.721   2.079   0.874
 3020SOL    HW2 9960   1.631   2.183   0.784
 3021SOL     OW 9961   2.938   1.479   6.453
 3021SOL    HW1 9962   2.838   1.475   6.453
 3021SOL    HW2 9963   2.969   1.550   6.516
 3022SOL     OW 9964   4.766   6.944   3.258
 3022SOL    HW1 9965   4.807   6.880   3.324
 3022SOL    HW2 9966   4.689   6.900   3.213
 3023SOL     OW 9967   4.895   6.474   2.120
 3023SOL    HW1 9968   4.910   6.375   2.122
 3023SOL    HW2 9969   4.836   6.496   2.042
 3024SOL     OW 9970   2.980   6.524   0.005
 3024SOL    HW1 9971   2.889   6.549   7.000
 3024SOL    HW2 9972   2.993   6.425   7.020
 3025SOL     OW 9973   2.239   2.490   1.409
 3025SOL    HW1 9974   2.325   2.467   1.454
 3025SOL    HW2 9975   2.210   2.413   1.352
 3026SOL     OW 9976   2.135   4.077   1.303
 3026SOL    HW1 9977   2.101   4.166   1.272
 3026SOL    HW2 9978   2.149   4.080   1.402
 3027SOL     OW 9979   0.888   2.060   3.632
 3027SOL    HW1 9980   0.922   1.966   3.623
 3027SOL    HW2 9981   0.930   2.117   3.561
 3028SOL     OW 9982   1.785   6.925   4.998
 3028SOL    HW1 9983   1.690   6.943   4.972
 3028SOL    HW2 9984   1.830   6.872   4.925
 3029SOL     OW 9985   5.393   6.492   5.487
 3029SOL    HW1 9986   5.365   6.432   5.413
 3029SOL    HW2 9987   5.376   6.447   5.575
 3030SOL     OW 9988   0.934   2.780   5.207
 3030SOL    HW1 9989   0.916   2.819   5.117
 3030SOL    HW2 9990   1.033   2.777   5.223
 3031SOL     OW 9991   1.203   4.929   6.642
 3031SOL    HW1 9992   1.161   4.852   6.594
 3031SOL    HW2 9993   1.294   4.947   6.605
 3032SOL     OW 9994   4.897   0.453   6.160
 3032SOL    HW1 9995   4.865   0.361   6.138
 3032SOL    HW2 9996   4.833   0.496   6.224
 3033SOL     OW 9997   5.724   3.728   6.476
 3033SOL    HW1 9998   5.774   3.654   6.523
 3033SOL    HW2 9999   5.748   3.816   6.517
 3034SOL     OW10000   2.165   0.115   4.764
 3034SOL    HW110001   2.099   0.068   4.706
 3034SOL    HW210002   2.160   0.077   4.857
 3035SOL     OW10003   6.223   0.290   0.097
 3035SOL    HW110004   6.143   0.233   0.081
 3035SOL    HW210005   6.214   0.336   0.185
 3036SOL     OW10006   1.039   4.435   6.471
 3036SOL    HW110007   1.114   4.501   6.479
 3036SOL    HW210008   0.977   4.465   6.398
 3037SOL     OW10009   6.552   6.391   5.794
 3037SOL    HW110010   6.571   6.480   5.752
 3037SOL    HW210011   6.525   6.404   5.889
 3038SOL     OW10012   5.271   6.863   5.815
 3038SOL    HW110013   5.178   6.897   5.802
 3038SOL    HW210014   5.301   6.815   5.733
 3039SOL     OW10015   0.669   4.934   1.099
 3039SOL    HW110016   0.718   4.977   1.175
 3039SOL    HW210017   0.693   4.837   1.093
 3040SOL     OW10018   2.679   3.390   6.853
 3040SOL    HW110019   2.593   3.377   6.804
 3040SOL    HW210020   2.718   3.300   6.875
 3041SOL     OW10021   1.794   2.368   5.795
 3041SOL    HW110022   1.796   2.424   5.712
 3041SOL    HW210023   1.770   2.274   5.772
 3042SOL     OW10024   4.676   0.805   1.834
 3042SOL    HW110025   4.608   0.770   1.769
 3042SOL    HW210026   4.633   0.872   1.895
 3043SOL     OW10027   0.148   5.320   0.393
 3043SOL    HW110028   0.225   5.362   0.442
 3043SOL    HW210029   0.138   5.225   0.423
 3044SOL     OW10030   3.500   4.255   6.308
 3044SOL    HW110031   3.543   4.248   6.218
 3044SOL    HW210032   3.411   4.211   6.306
 3045SOL     OW10033   5.721   2.707   2.982
 3045SOL    HW110034   5.785   2.723   2.908
 3045SOL    HW210035   5.642   2.656   2.947
 3046SOL     OW10036   2.181   2.915   5.447
 3046SOL    HW110037   2.188   2.833   5.390
 3046SOL    HW210038   2.093   2.959   5.431
 3047SOL     OW10039   6.515   4.899   2.443
 3047SOL    HW110040   6.421   4.871   2.421
 3047SOL    HW210041   6.579   4.846   2.386
 3048SOL     OW10042   3.320   2.525   1.685
 3048SOL    HW110043   3.409   2.548   1.724
 3048SOL    HW210044   3.257   2.602   1.699
 3049SOL     OW10045   0.751   0.062   2.338
 3049SOL    HW110046   0.834   0.014   2.311
 3049SOL    HW210047   0.672   0.018   2.296
 3050SOL     OW10048   4.282   5.981   4.114
 3050SOL    HW110049   4.227   5.968   4.196
 3050SOL    HW210050   4.243   6.055   4.059
 3051SOL     OW10051   2.269   4.458   6.147
 3051SOL    HW110052   2.324   4.491   6.224
 3051SOL    HW210053   2.261   4.530   6.079
 3052SOL     OW10054   4.328   6.476   2.810
 3052SOL    HW110055   4.252   6.417   2.839
 3052SOL    HW210056   4.406   6.419   2.785
 3053SOL     OW10057   5.204   6.716   0.240
 3053SOL    HW110058   5.300   6.690   0.234
 3053SOL    HW210059   5.189   6.771   0.322
 3054SOL     OW10060   0.954   3.142   6.167
 3054SOL    HW110061   0.972   3.236   6.139
 3054SOL    HW210062   1.040   3.093   6.178
 3055SOL     OW10063   6.352   6.553   3.427
 3055SOL    HW110064   6.350   6.455   3.407
 3055SOL    HW210065   6.269   6.596   3.392
 3056SOL     OW10066   6.931   0.882   1.002
 3056SOL    HW110067   7.020   0.860   0.963
 3056SOL    HW210068   6.889   0.800   1.041
 3057SOL     OW10069   6.233   5.305   2.816
 3057SOL    HW110070   6.161   5.269   2.876
 3057SOL    HW210071   6.322   5.272   2.849
 3058SOL     OW10072   6.631   5.021   1.806
 3058SOL    HW110073   6.572   5.094   1.840
 3058SOL    HW210074   6.598   4.933   1.841
 3059SOL     OW10075   2.003   2.964   4.492
 3059SOL    HW110076   1.953   3.048   4.513
 3059SOL    HW210077   2.101   2.983   4.491
 3060SOL     OW10078   6.719   6.747   0.647
 3060SOL    HW110079   6.664   6.672   0.611
 3060SOL    HW210080   6.753   6.802   0.571
 3061SOL     OW10081   0.350   0.168   6.290
 3061SOL    HW110082   0.352   0.267   6.283
 3061SOL    HW210083   0.424   0.129   6.234
 3062SOL     OW10084   3.239   6.251   0.207
 3062SOL    HW110085   3.262   6.212   0.118
 3062SOL    HW210086   3.156   6.206   0.242
 3063SOL     OW10087   2.108   4.721   1.102
 3063SOL    HW110088   2.198   4.720   1.058
 3063SOL    HW210089   2.052   4.648   1.064
 3064SOL     OW10090   6.058   3.524   3.415
 3064SOL    HW110091   6.036   3.442   3.361
 3064SOL    HW210092   6.155   3.545   3.405
 3065SOL     OW10093   2.119   0.907   0.242
 3065SOL    HW110094   2.042   0.938   0.185
 3065SOL    HW210095   2.179   0.848   0.187
 3066SOL     OW10096   5.829   4.960   1.743
 3066SOL    HW110097   5.821   4.863   1.765
 3066SOL    HW210098   5.924   4.981   1.717
 3067SOL     OW10099   5.264   6.921   3.932
 3067SOL    HW110100   5.354   6.962   3.918
 3067SOL    HW210101   5.266   6.863   4.014
 3068SOL     OW10102   5.928   4.817   0.168
 3068SOL    HW110103   5.961   4.784   0.256
 3068SOL    HW210104   5.971   4.905   0.147
 3069SOL     OW10105   0.653   5.883   2.715
 3069SOL    HW110106   0.594   5.882   2.795
 3069SOL    HW210107   0.674   5.978   2.691
 3070SOL     OW10108   4.247   1.178   4.416
 3070SOL    HW110109   4.150   1.165   4.400
 3070SOL    HW210110   4.267   1.167   4.513
 3071SOL     OW10111   6.146   6.249   3.507
 3071SOL    HW110112   6.123   6.152   3.505
 3071SOL    HW210113   6.199   6.273   3.425
 3072SOL     OW10114   0.575   0.424   2.657
 3072SOL    HW110115   0.612   0.348   2.710
 3072SOL    HW210116   0.489   0.396   2.613
 3073SOL     OW10117   1.227   3.464   5.302
 3073SOL    HW110118   1.209   3.369   5.277
 3073SOL    HW210119   1.305   3.467   5.365
 3074SOL     OW10120   4.707   3.012   5.579
 3074SOL    HW110121   4.704   3.003   5.479
 3074SOL    HW210122   4.618   2.985   5.617
 3075SOL     OW10123   2.158   5.917   1.736
 3075SOL    HW110124   2.203   5.922   1.647
 3075SOL    HW210125   2.130   6.009   1.764
 3076SOL     OW10126   0.626   0.614   4.925
 3076SOL    HW110127   0.646   0.554   5.002
 3076SOL    HW210128   0.557   0.681   4.953
 3077SOL     OW10129   5.280   5.134   3.805
 3077SOL    HW110130   5.249   5.226   3.825
 3077SOL    HW210131   5.216   5.068   3.843
 3078SOL     OW10132   1.620   3.468   1.541
 3078SOL    HW110133   1.616   3.456   1.640
 3078SOL    HW210134   1.706   3.430   1.506
 3079SOL     OW10135   6.862   2.183   5.693
 3079SOL    HW110136   6.826   2.113   5.630
 3079SOL    HW210137   6.958   2.165   5.711
 3080SOL     OW10138   6.584   5.313   0.719
 3080SOL    HW110139   6.556   5.383   0.784
 3080SOL    HW210140   6.596   5.226   0.766
 3081SOL     OW10141   6.932   5.289   5.603
 3081SOL    HW110142   7.011   5.239   5.568
 3081SOL    HW210143   6.864   5.224   5.639
 3082SOL     OW10144   3.132   0.231   2.707
 3082SOL    HW110145   3.106   0.314   2.657
 3082SOL    HW210146   3.107   0.241   2.804
 3083SOL     OW10147   3.277   0.625   1.656
 3083SOL    HW110148   3.284   0.654   1.751
 3083SOL    HW210149   3.221   0.542   1.650
 3084SOL     OW10150   5.310   6.118   4.676
 3084SOL    HW110151   5.226   6.084   4.718
 3084SOL    HW210152   5.342   6.199   4.725
 3085SOL     OW10153   0.583   5.402   2.273
 3085SOL    HW110154   0.516   5.433   2.341
 3085SOL    HW210155   0.675   5.421   2.306
 3086SOL     OW10156   5.075   1.340   3.916
 3086SOL    HW110157   5.168   1.329   3.881
 3086SOL    HW210158   5.078   1.366   4.013
 3087SOL     OW10159   6.597   2.922   3.118
 3087SOL    HW110160   6.596   2.994   3.048
 3087SOL    HW210161   6.561   2.837   3.078
 3088SOL     OW10162   3.065   4.931   5.832
 3088SOL    HW110163   3.097   4.935   5.927
 3088SOL    HW210164   3.128   4.980   5.773
 3089SOL     OW10165   1.881   2.642   0.293
 3089SOL    HW110166   1.959   2.597   0.251
 3089SOL    HW210167   1.827   2.574   0.344
 3090SOL     OW10168   1.325   1.996   0.953
 3090SOL    HW110169   1.299   2.071   0.892
 3090SOL    HW210170   1.296   2.018   1.046
 3091SOL     OW10171   3.048   6.910   0.509
 3091SOL    HW110172   2.975   6.851   0.543
 3091SOL    HW210173   3.122   6.854   0.473
 3092SOL     OW10174   4.906   6.253   0.527
 3092SOL    HW110175   4.836   6.307   0.479
 3092SOL    HW210176   4.868   6.218   0.613
 3093SOL     OW10177   5.244   5.832   4.128
 3093SOL    HW110178   5.319   5.781   4.169
 3093SOL    HW210179   5.267   5.929   4.125
 3094SOL     OW10180   2.631   5.869   5.740
 3094SOL    HW110181   2.708   5.871   5.677
 3094SOL    HW210182   2.547   5.892   5.691
 3095SOL     OW10183   3.019   4.847   5.072
 3095SOL    HW110184   3.105   4.864   5.025
 3095SOL    HW210185   2.968   4.775   5.024
 3096SOL     OW10186   1.271   0.451   5.951
 3096SOL    HW110187   1.195   0.404   5.994
 3096SOL    HW210188   1.262   0.550   5.966
 3097SOL     OW10189   1.651   3.231   6.896
 3097SOL    HW110190   1.710   3.151   6.909
 3097SOL    HW210191   1.572   3.224   6.956
 3098SOL     OW10192   3.743   2.267   0.640
 3098SOL    HW110193   3.791   2.346   0.603
 3098SOL    HW210194   3.652   2.295   0.671
 3099SOL     OW10195   1.025   5.920   5.685
 3099SOL    HW110196   1.058   5.832   5.718
 3099SOL    HW210197   1.097   5.965   5.632
 3100SOL     OW10198   0.008   0.042   6.949
 3100SOL    HW110199   0.012   0.026   0.021
 3100SOL    HW210200   6.939   0.037   6.918
 3101SOL     OW10201   4.730   7.006   0.883
 3101SOL    HW110202   4.826   7.019   0.862
 3101SOL    HW210203   4.720   6.978   0.978
 3102SOL     OW10204   1.844   4.756   1.403
 3102SOL    HW110205   1.810   4.711   1.321
 3102SOL    HW210206   1.781   4.828   1.431
 3103SOL     OW10207   3.834   3.185   2.027
 3103SOL    HW110208   3.884   3.267   2.057
 3103SOL    HW210209   3.821   3.124   2.106
 3104SOL     OW10210   6.617   5.758   4.063
 3104SOL    HW110211   6.602   5.724   4.156
 3104SOL    HW210212   6.655   5.684   4.007
 3105SOL     OW10213   6.003   6.017   3.928
 3105SOL    HW110214   6.055   5.936   3.954
 3105SOL    HW210215   6.065   6.092   3.907
 3106SOL     OW10216   6.923   2.239   4.388
 3106SOL    HW110217   6.843   2.207   4.337
 3106SOL    HW210218   6.894   2.273   4.477
 3107SOL     OW10219   2.951   0.383   4.313
 3107SOL    HW110220   3.034   0.382   4.258
 3107SOL    HW210221   2.928   0.477   4.336
 3108SOL     OW10222   3.517   0.499   3.517
 3108SOL    HW110223   3.607   0.506   3.561
 3108SOL    HW210224   3.507   0.409   3.475
 3109SOL     OW10225   4.309   5.400   3.513
 3109SOL    HW110226   4.230   5.352   3.551
 3109SOL    HW210227   4.298   5.498   3.527
 3110SOL     OW10228   0.606   2.688   2.415
 3110SOL    HW110229   0.557   2.601   2.414
 3110SOL    HW210230   0.690   2.679   2.469
 3111SOL     OW10231   6.909   4.604   3.589
 3111SOL    HW110232   6.872   4.678   3.534
 3111SOL    HW210233   6.989   4.565   3.543
 3112SOL     OW10234   3.977   3.937   6.602
 3112SOL    HW110235   4.036   3.868   6.645
 3112SOL    HW210236   4.032   3.999   6.546
 3113SOL     OW10237   3.003   6.855   4.001
 3113SOL    HW110238   3.002   6.759   3.971
 3113SOL    HW210239   3.018   6.859   4.099
 3114SOL     OW10240   5.871   5.771   1.045
 3114SOL    HW110241   5.897   5.784   0.949
 3114SOL    HW210242   5.791   5.826   1.065
 3115SOL     OW10243   2.424   3.607   1.355
 3115SOL    HW110244   2.476   3.691   1.362
 3115SOL    HW210245   2.475   3.532   1.396
 3116SOL     OW10246   7.023   1.792   6.861
 3116SOL    HW110247   0.052   1.870   6.888
 3116SOL    HW210248   6.939   1.823   6.819
 3117SOL     OW10249   4.054   3.812   5.145
 3117SOL    HW110250   4.061   3.764   5.232
 3117SOL    HW210251   4.070   3.910   5.159
 3118SOL     OW10252   5.806   4.214   0.241
 3118SOL    HW110253   5.713   4.240   0.213
 3118SOL    HW210254   5.866   4.213   0.161
 3119SOL     OW10255   1.430   4.399   5.291
 3119SOL    HW110256   1.504   4.456   5.327
 3119SOL    HW210257   1.421   4.415   5.193
 3120SOL     OW10258   3.370   5.637   5.379
 3120SOL    HW110259   3.449   5.584   5.347
 3120SOL    HW210260   3.359   5.624   5.478
 3121SOL     OW10261   0.131   6.465   2.411
 3121SOL    HW110262   0.154   6.550   2.363
 3121SOL    HW210263   0.180   6.462   2.498
 3122SOL     OW10264   2.977   5.390   0.985
 3122SOL    HW110265   2.882   5.409   0.959
 3122SOL    HW210266   2.989   5.292   0.998
 3123SOL     OW10267   3.591   6.749   4.408
 3123SOL    HW110268   3.655   6.768   4.333
 3123SOL    HW210269   3.582   6.651   4.421
 3124SOL     OW10270   3.920   0.539   6.557
 3124SOL    HW110271   3.974   0.576   6.482
 3124SOL    HW210272   3.834   0.590   6.565
 3125SOL     OW10273   0.080   2.018   6.030
 3125SOL    HW110274   0.081   2.030   6.129
 3125SOL    HW210275   0.042   1.928   6.008
 3126SOL     OW10276   4.362   5.907   0.394
 3126SOL    HW110277   4.404   5.991   0.360
 3126SOL    HW210278   4.375   5.834   0.326
 3127SOL     OW10279   0.601   1.220   3.865
 3127SOL    HW110280   0.524   1.232   3.928
 3127SOL    HW210281   0.682   1.191   3.917
 3128SOL     OW10282   1.323   2.187   0.761
 3128SOL    HW110283   1.330   2.259   0.830
 3128SOL    HW210284   1.379   2.212   0.682
 3129SOL     OW10285   0.631   3.331   4.702
 3129SOL    HW110286   0.553   3.278   4.668
 3129SOL    HW210287   0.599   3.413   4.749
 3130SOL     OW10288   1.494   5.729   3.088
 3130SOL    HW110289   1.426   5.751   3.018
 3130SOL    HW210290   1.465   5.648   3.138
 3131SOL     OW10291   6.865   3.534   3.339
 3131SOL    HW110292   6.895   3.452   3.389
 3131SOL    HW210293   6.942   3.573   3.290
 3132SOL     OW10294   5.335   5.965   5.803
 3132SOL    HW110295   5.341   5.870   5.775
 3132SOL    HW210296   5.397   5.982   5.880
 3133SOL     OW10297   2.948   1.847   3.305
 3133SOL    HW110298   2.874   1.782   3.288
 3133SOL    HW210299   2.970   1.896   3.220
 3134SOL     OW10300   4.919   3.135   2.368
 3134SOL    HW110301   4.916   3.038   2.390
 3134SOL    HW210302   4.910   3.147   2.269
 3135SOL     OW10303   3.233   1.720   3.319
 3135SOL    HW110304   3.137   1.749   3.313
 3135SOL    HW210305   3.257   1.666   3.238
 3136SOL     OW10306   5.845   6.490   5.054
 3136SOL    HW110307   5.874   6.461   5.146
 3136SOL    HW210308   5.848   6.590   5.049
 3137SOL     OW10309   6.103   2.055   4.197
 3137SOL    HW110310   6.075   1.968   4.158
 3137SOL    HW210311   6.146   2.040   4.286
 3138SOL     OW10312   5.553   1.182   5.334
 3138SOL    HW110313   5.468   1.234   5.344
 3138SOL    HW210314   5.583   1.185   5.239
 3139SOL     OW10315   4.891   6.340   5.302
 3139SOL    HW110316   4.986   6.319   5.326
 3139SOL    HW210317   4.832   6.320   5.380
 3140SOL     OW10318   6.332   6.436   6.742
 3140SOL    HW110319   6.313   6.507   6.674
 3140SOL    HW210320   6.255   6.428   6.805
 3141SOL     OW10321   1.157   4.952   0.385
 3141SOL    HW110322   1.077   5.009   0.368
 3141SOL    HW210323   1.130   4.868   0.431
 3142SOL     OW10324   4.239   6.646   0.283
 3142SOL    HW110325   4.276   6.614   0.370
 3142SOL    HW210326   4.290   6.727   0.253
 3143SOL     OW10327   6.539   1.668   0.577
 3143SOL    HW110328   6.509   1.613   0.500
 3143SOL    HW210329   6.557   1.609   0.656
 3144SOL     OW10330   1.654   3.925   6.228
 3144SOL    HW110331   1.572   3.956   6.275
 3144SOL    HW210332   1.698   3.853   6.282
 3145SOL     OW10333   3.255   6.465   3.911
 3145SOL    HW110334   3.273   6.405   3.833
 3145SOL    HW210335   3.336   6.520   3.931
 3146SOL     OW10336   2.166   0.489   3.771
 3146SOL    HW110337   2.252   0.470   3.819
 3146SOL    HW210338   2.089   0.455   3.825
 3147SOL     OW10339   4.142   3.889   0.262
 3147SOL    HW110340   4.165   3.854   0.353
 3147SOL    HW210341   4.090   3.820   0.211
 3148SOL     OW10342   3.208   5.729   4.595
 3148SOL    HW110343   3.183   5.641   4.555
 3148SOL    HW210344   3.172   5.736   4.688
 3149SOL     OW10345   3.367   6.698   5.600
 3149SOL    HW110346   3.373   6.609   5.554
 3149SOL    HW210347   3.275   6.710   5.637
 3150SOL     OW10348   6.459   0.169   4.775
 3150SOL    HW110349   6.458   0.260   4.735
 3150SOL    HW210350   6.430   0.102   4.706
 3151SOL     OW10351   3.768   0.960   6.547
 3151SOL    HW110352   3.755   0.865   6.575
 3151SOL    HW210353   3.696   1.016   6.587
 3152SOL     OW10354   1.360   5.062   0.928
 3152SOL    HW110355   1.342   4.968   0.955
 3152SOL    HW210356   1.275   5.105   0.896
 3153SOL     OW10357   6.969   4.122   2.526
 3153SOL    HW110358   0.042   4.135   2.526
 3153SOL    HW210359   6.943   4.071   2.444
 3154SOL     OW10360   5.746   2.524   6.459
 3154SOL    HW110361   5.653   2.494   6.438
 3154SOL    HW210362   5.781   2.579   6.383
 3155SOL     OW10363   5.019   6.021   0.437
 3155SOL    HW110364   5.100   6.024   0.378
 3155SOL    HW210365   4.989   6.114   0.457
 3156SOL     OW10366   3.222   4.119   3.308
 3156SOL    HW110367   3.260   4.196   3.359
 3156SOL    HW210368   3.154   4.073   3.364
 3157SOL     OW10369   2.175   3.198   4.341
 3157SOL    HW110370   2.183   3.140   4.260
 3157SOL    HW210371   2.212   3.151   4.421
 3158SOL     OW10372   4.481   6.240   0.577
 3158SOL    HW110373   4.403   6.224   0.638
 3158SOL    HW210374   4.531   6.321   0.608
 3159SOL     OW10375   5.235   4.953   0.696
 3159SOL    HW110376   5.158   4.901   0.733
 3159SOL    HW210377   5.200   5.031   0.643
 3160SOL     OW10378   5.627   4.244   6.948
 3160SOL    HW110379   5.606   4.340   6.932
 3160SOL    HW210380   5.725   4.229   6.937
 3161SOL     OW10381   0.961   1.837   2.595
 3161SOL    HW110382   1.022   1.823   2.673
 3161SOL    HW210383   1.014   1.832   2.510
 3162SOL     OW10384   6.714   6.110   6.273
 3162SOL    HW110385   6.768   6.072   6.198
 3162SOL    HW210386   6.773   6.129   6.351
 3163SOL     OW10387   2.395   4.028   5.708
 3163SOL    HW110388   2.333   4.105   5.721
 3163SOL    HW210389   2.431   4.029   5.614
 3164SOL     OW10390   5.537   5.098   6.319
 3164SOL    HW110391   5.575   5.025   6.262
 3164SOL    HW210392   5.499   5.170   6.261
 3165SOL     OW10393   0.060   2.578   1.449
 3165SOL    HW110394   0.005   2.505   1.409
 3165SOL    HW210395   0.136   2.601   1.388
 3166SOL     OW10396   5.145   2.780   5.844
 3166SOL    HW110397   5.116   2.795   5.939
 3166SOL    HW210398   5.085   2.831   5.783
 3167SOL     OW10399   0.746   4.338   2.197
 3167SOL    HW110400   0.793   4.249   2.201
 3167SOL    HW210401   0.657   4.330   2.243
 3168SOL     OW10402   5.539   3.315   0.835
 3168SOL    HW110403   5.551   3.320   0.934
 3168SOL    HW210404   5.620   3.352   0.790
 3169SOL     OW10405   1.396   1.836   5.298
 3169SOL    HW110406   1.306   1.799   5.323
 3169SOL    HW210407   1.425   1.901   5.368
 3170SOL     OW10408   4.468   0.798   6.545
 3170SOL    HW110409   4.519   0.810   6.630
 3170SOL    HW210410   4.405   0.875   6.533
 3171SOL     OW10411   6.432   6.919   3.601
 3171SOL    HW110412   6.400   6.981   3.672
 3171SOL    HW210413   6.371   6.840   3.595
 3172SOL     OW10414   6.209   6.889   5.684
 3172SOL    HW110415   6.271   6.950   5.634
 3172SOL    HW210416   6.183   6.933   5.770
 3173SOL     OW10417   1.716   1.428   1.050
 3173SOL    HW110418   1.719   1.433   0.950
 3173SOL    HW210419   1.638   1.481   1.084
 3174SOL     OW10420   2.100   3.684   5.586
 3174SOL    HW110421   2.171   3.704   5.654
 3174SOL    HW210422   2.082   3.766   5.532
 3175SOL     OW10423   0.214   6.370   0.797
 3175SOL    HW110424   0.160   6.384   0.880
 3175SOL    HW210425   0.243   6.274   0.793
 3176SOL     OW10426   0.444   5.042   6.565
 3176SOL    HW110427   0.364   5.084   6.608
 3176SOL    HW210428   0.512   5.112   6.545
 3177SOL     OW10429   6.935   0.200   5.002
 3177SOL    HW110430   6.835   0.192   4.993
 3177SOL    HW210431   6.977   0.193   4.912
 3178SOL     OW10432   1.512   3.053   1.674
 3178SOL    HW110433   1.544   3.012   1.759
 3178SOL    HW210434   1.539   3.149   1.671
 3179SOL     OW10435   1.745   2.039   3.080
 3179SOL    HW110436   1.688   2.066   3.002
 3179SOL    HW210437   1.705   1.957   3.123
 3180SOL     OW10438   5.952   1.059   5.937
 3180SOL    HW110439   5.910   1.096   5.854
 3180SOL    HW210440   6.051   1.050   5.923
 3181SOL     OW10441   0.625   2.032   2.926
 3181SOL    HW110442   0.704   1.985   2.886
 3181SOL    HW210443   0.576   2.081   2.854
 3182SOL     OW10444   1.477   4.698   5.077
 3182SOL    HW110445   1.398   4.756   5.099
 3182SOL    HW210446   1.445   4.613   5.036
 3183SOL     OW10447   3.984   3.458   1.049
 3183SOL    HW110448   4.042   3.381   1.025
 3183SOL    HW210449   4.011   3.494   1.138
 3184SOL     OW10450   2.709   1.126   2.896
 3184SOL    HW110451   2.624   1.145   2.946
 3184SOL    HW210452   2.787   1.160   2.949
 3185SOL     OW10453   6.915   6.688   5.868
 3185SOL    HW110454   6.949   6.625   5.939
 3185SOL    HW210455   6.970   6.677   5.786
 3186SOL     OW10456   3.502   0.710   1.522
 3186SOL    HW110457   3.410   0.706   1.560
 3186SOL    HW210458   3.565   0.659   1.581
 3187SOL     OW10459   3.177   4.684   0.083
 3187SOL    HW110460   3.145   4.741   0.007
 3187SOL    HW210461   3.239   4.614   0.047
 3188SOL     OW10462   4.239   6.956   3.049
 3188SOL    HW110463   4.213   6.899   3.126
 3188SOL    HW210464   4.199   6.918   2.965
 3189SOL     OW10465   1.003   0.101   1.808
 3189SOL    HW110466   0.964   0.025   1.859
 3189SOL    HW210467   1.033   0.173   1.871
 3190SOL     OW10468   0.673   6.634   2.012
 3190SOL    HW110469   0.764   6.669   1.991
 3190SOL    HW210470   0.672   6.535   2.000
 3191SOL     OW10471   3.301   0.443   0.689
 3191SOL    HW110472   3.243   0.423   0.768
 3191SOL    HW210473   3.247   0.492   0.621
 3192SOL     OW10474   6.572   2.390   3.190
 3192SOL    HW110475   6.541   2.349   3.276
 3192SOL    HW210476   6.504   2.457   3.158
 3193SOL     OW10477   4.671   3.915   0.270
 3193SOL    HW110478   4.674   4.011   0.244
 3193SOL    HW210479   4.592   3.871   0.226
 3194SOL     OW10480   1.313   4.125   5.631
 3194SOL    HW110481   1.247   4.055   5.603
 3194SOL    HW210482   1.264   4.210   5.653
 3195SOL     OW10483   0.415   3.818   3.363
 3195SOL    HW110484   0.495   3.758   3.367
 3195SOL    HW210485   0.403   3.865   3.451
 3196SOL     OW10486   0.478   6.947   5.484
 3196SOL    HW110487   0.496   6.853   5.513
 3196SOL    HW210488   0.481   7.008   5.563
 3197SOL     OW10489   1.001   4.165   3.983
 3197SOL    HW110490   0.937   4.112   3.928
 3197SOL    HW210491   1.019   4.252   3.937
 3198SOL     OW10492   6.888   1.186   0.042
 3198SOL    HW110493   6.940   1.233   6.997
 3198SOL    HW210494   6.898   1.237   0.128
 3199SOL     OW10495   3.668   2.103   2.961
 3199SOL    HW110496   3.746   2.065   2.912
 3199SOL    HW210497   3.593   2.036   2.961
 3200SOL     OW10498   6.703   2.357   0.793
 3200SOL    HW110499   6.775   2.306   0.840
 3200SOL    HW210500   6.745   2.430   0.739
 3201SOL     OW10501   4.727   4.404   3.102
 3201SOL    HW110502   4.800   4.338   3.119
 3201SOL    HW210503   4.674   4.417   3.186
 3202SOL     OW10504   2.166   5.782   1.347
 3202SOL    HW110505   2.070   5.808   1.334
 3202SOL    HW210506   2.178   5.685   1.327
 3203SOL     OW10507   6.541   0.185   1.960
 3203SOL    HW110508   6.494   0.129   2.028
 3203SOL    HW210509   6.474   0.236   1.906
 3204SOL     OW10510   6.006   5.483   1.904
 3204SOL    HW110511   6.085   5.457   1.849
 3204SOL    HW210512   5.934   5.518   1.844
 3205SOL     OW10513   1.473   3.914   2.762
 3205SOL    HW110514   1.510   3.821   2.767
 3205SOL    HW210515   1.529   3.975   2.819
 3206SOL     OW10516   1.746   6.886   0.536
 3206SOL    HW110517   1.694   6.972   0.535
 3206SOL    HW210518   1.721   6.831   0.457
 3207SOL     OW10519   0.879   0.840   4.009
 3207SOL    HW110520   0.876   0.866   4.106
 3207SOL    HW210521   0.889   0.922   3.953
 3208SOL     OW10522   6.178   0.431   5.600
 3208SOL    HW110523   6.126   0.459   5.519
 3208SOL    HW210524   6.251   0.497   5.617
 3209SOL     OW10525   2.716   0.449   3.140
 3209SOL    HW110526   2.778   0.447   3.219
 3209SOL    HW210527   2.643   0.382   3.154
 3210SOL     OW10528   6.905   4.834   3.451
 3210SOL    HW110529   6.859   4.888   3.380
 3210SOL    HW210530   6.915   4.890   3.533
 3211SOL     OW10531   1.147   4.367   2.097
 3211SOL    HW110532   1.151   4.461   2.129
 3211SOL    HW210533   1.238   4.336   2.071
 3212SOL     OW10534   4.910   2.592   5.610
 3212SOL    HW110535   4.963   2.641   5.679
 3212SOL    HW210536   4.813   2.591   5.636
 3213SOL     OW10537   5.406   6.026   1.569
 3213SOL    HW110538   5.439   6.019   1.663
 3213SOL    HW210539   5.439   6.112   1.528
 3214SOL     OW10540   3.975   4.712   6.199
 3214SOL    HW110541   3.941   4.770   6.273
 3214SOL    HW210542   3.928   4.624   6.201
 3215SOL     OW10543   5.966   1.782   0.458
 3215SOL    HW110544   6.063   1.804   0.461
 3215SOL    HW210545   5.923   1.830   0.381
 3216SOL     OW10546   5.716   6.918   4.608
 3216SOL    HW110547   5.812   6.893   4.599
 3216SOL    HW210548   5.661   6.864   4.545
 3217SOL     OW10549   6.590   4.084   0.521
 3217SOL    HW110550   6.504   4.036   0.539
 3217SOL    HW210551   6.665   4.018   0.514
 3218SOL     OW10552   3.224   0.957   1.889
 3218SOL    HW110553   3.226   1.031   1.822
 3218SOL    HW210554   3.150   0.973   1.954
 3219SOL     OW10555   6.761   6.787   3.881
 3219SOL    HW110556   6.747   6.694   3.845
 3219SOL    HW210557   6.786   6.781   3.977
 3220SOL     OW10558   6.060   2.983   5.109
 3220SOL    HW110559   6.014   2.981   5.198
 3220SOL    HW210560   6.011   2.925   5.044
 3221SOL     OW10561   3.728   6.947   2.275
 3221SOL    HW110562   3.824   6.969   2.259
 3221SOL    HW210563   3.687   7.020   2.330
 3222SOL     OW10564   6.073   3.213   2.806
 3222SOL    HW110565   6.003   3.226   2.876
 3222SOL    HW210566   6.031   3.219   2.715
 3223SOL     OW10567   2.333   4.750   4.573
 3223SOL    HW110568   2.394   4.688   4.623
 3223SOL    HW210569   2.386   4.826   4.536
 3224SOL     OW10570   3.781   5.422   1.062
 3224SOL    HW110571   3.846   5.367   1.114
 3224SOL    HW210572   3.811   5.518   1.062
 3225SOL     OW10573   2.004   2.641   1.318
 3225SOL    HW110574   2.066   2.576   1.361
 3225SOL    HW210575   2.014   2.637   1.219
 3226SOL     OW10576   0.129   0.821   4.329
 3226SOL    HW110577   0.194   0.815   4.254
 3226SOL    HW210578   0.107   0.729   4.362
 3227SOL     OW10579   2.355   1.200   5.420
 3227SOL    HW110580   2.335   1.162   5.330
 3227SOL    HW210581   2.418   1.277   5.411
 3228SOL     OW10582   5.278   3.220   4.807
 3228SOL    HW110583   5.362   3.265   4.836
 3228SOL    HW210584   5.302   3.138   4.754
 3229SOL     OW10585   3.820   2.077   5.008
 3229SOL    HW110586   3.893   2.132   5.047
 3229SOL    HW210587   3.814   2.094   4.910
 3230SOL     OW10588   1.531   0.417   4.145
 3230SOL    HW110589   1.507   0.444   4.238
 3230SOL    HW210590   1.614   0.464   4.117
 3231SOL     OW10591   5.601   5.494   0.635
 3231SOL    HW110592   5.541   5.433   0.686
 3231SOL    HW210593   5.677   5.441   0.597
 3232SOL     OW10594   2.176   4.192   3.323
 3232SOL    HW110595   2.254   4.255   3.321
 3232SOL    HW210596   2.202   4.109   3.374
 3233SOL     OW10597   1.638   4.302   1.306
 3233SOL    HW110598   1.681   4.387   1.277
 3233SOL    HW210599   1.688   4.224   1.267
 3234SOL     OW10600   6.267   1.731   4.620
 3234SOL    HW110601   6.328   1.799   4.661
 3234SOL    HW210602   6.244   1.661   4.688
 3235SOL     OW10603   5.665   0.745   2.984
 3235SOL    HW110604   5.626   0.745   3.076
 3235SOL    HW210605   5.658   0.654   2.945
 3236SOL     OW10606   0.643   2.668   2.055
 3236SOL    HW110607   0.566   2.616   2.018
 3236SOL    HW210608   0.707   2.689   1.981
 3237SOL     OW10609   3.277   6.570   4.278
 3237SOL    HW110610   3.307   6.628   4.353
 3237SOL    HW210611   3.267   6.625   4.195
 3238SOL     OW10612   5.773   6.457   6.533
 3238SOL    HW110613   5.866   6.427   6.516
 3238SOL    HW210614   5.760   6.550   6.497
 3239SOL     OW10615   0.406   6.477   5.868
 3239SOL    HW110616   0.349   6.492   5.787
 3239SOL    HW210617   0.481   6.415   5.845
 3240SOL     OW10618   0.379   1.368   4.842
 3240SOL    HW110619   0.343   1.290   4.893
 3240SOL    HW210620   0.318   1.390   4.767
 3241SOL     OW10621   4.840   0.794   5.317
 3241SOL    HW110622   4.826   0.747   5.230
 3241SOL    HW210623   4.759   0.783   5.375
 3242SOL     OW10624   3.083   6.338   0.765
 3242SOL    HW110625   3.115   6.430   0.740
 3242SOL    HW210626   3.085   6.329   0.865
 3243SOL     OW10627   3.762   5.349   0.264
 3243SOL    HW110628   3.706   5.267   0.277
 3243SOL    HW210629   3.796   5.381   0.352
 3244SOL     OW10630   1.739   6.448   5.458
 3244SOL    HW110631   1.659   6.468   5.402
 3244SOL    HW210632   1.718   6.464   5.554
 3245SOL     OW10633   2.667   2.199   5.869
 3245SOL    HW110634   2.740   2.258   5.901
 3245SOL    HW210635   2.701   2.105   5.860
 3246SOL     OW10636   5.245   6.413   3.658
 3246SOL    HW110637   5.307   6.428   3.581
 3246SOL    HW210638   5.202   6.500   3.683
 3247SOL     OW10639   6.518   1.818   4.755
 3247SOL    HW110640   6.553   1.777   4.840
 3247SOL    HW210641   6.562   1.906   4.740
 3248SOL     OW10642   5.364   3.939   2.496
 3248SOL    HW110643   5.425   3.908   2.422
 3248SOL    HW210644   5.419   3.961   2.577
 3249SOL     OW10645   3.087   4.445   5.336
 3249SOL    HW110646   3.097   4.351   5.302
 3249SOL    HW210647   3.008   4.488   5.291
 3250SOL     OW10648   4.652   6.176   1.373
 3250SOL    HW110649   4.702   6.091   1.390
 3250SOL    HW210650   4.692   6.249   1.427
 3251SOL     OW10651   3.585   1.218   3.839
 3251SOL    HW110652   3.612   1.145   3.776
 3251SOL    HW210653   3.648   1.295   3.829
 3252SOL     OW10654   3.137   2.186   3.592
 3252SOL    HW110655   3.139   2.203   3.493
 3252SOL    HW210656   3.088   2.100   3.610
 3253SOL     OW10657   4.272   3.703   0.859
 3253SOL    HW110658   4.358   3.659   0.835
 3253SOL    HW210659   4.239   3.667   0.946
 3254SOL     OW10660   4.807   4.934   2.775
 3254SOL    HW110661   4.824   4.933   2.676
 3254SOL    HW210662   4.850   5.014   2.816
 3255SOL     OW10663   3.857   4.750   1.218
 3255SOL    HW110664   3.906   4.671   1.182
 3255SOL    HW210665   3.891   4.772   1.309
 3256SOL     OW10666   5.952   6.713   5.974
 3256SOL    HW110667   6.008   6.630   5.968
 3256SOL    HW210668   5.881   6.711   5.904
 3257SOL     OW10669   2.372   2.207   1.012
 3257SOL    HW110670   2.411   2.138   0.951
 3257SOL    HW210671   2.366   2.294   0.963
 3258SOL     OW10672   5.713   7.026   1.391
 3258SOL    HW110673   5.757   0.026   1.477
 3258SOL    HW210674   5.653   0.074   1.360
 3259SOL     OW10675   6.184   6.698   3.622
 3259SOL    HW110676   6.268   6.644   3.613
 3259SOL    HW210677   6.105   6.642   3.596
 3260SOL     OW10678   1.337   3.270   0.340
 3260SOL    HW110679   1.358   3.189   0.396
 3260SOL    HW210680   1.271   3.327   0.388
 3261SOL     OW10681   4.464   6.976   3.836
 3261SOL    HW110682   4.505   7.024   3.914
 3261SOL    HW210683   4.497   6.881   3.834
 3262SOL     OW10684   4.236   1.451   4.699
 3262SOL    HW110685   4.278   1.492   4.618
 3262SOL    HW210686   4.138   1.469   4.698
 3263SOL     OW10687   3.732   5.473   2.710
 3263SOL    HW110688   3.685   5.475   2.798
 3263SOL    HW210689   3.695   5.543   2.650
 3264SOL     OW10690   4.615   4.413   5.623
 3264SOL    HW110691   4.528   4.421   5.672
 3264SOL    HW210692   4.672   4.492   5.644
 3265SOL     OW10693   5.457   0.646   6.874
 3265SOL    HW110694   5.553   0.675   6.887
 3265SOL    HW210695   5.434   0.653   6.777
 3266SOL     OW10696   0.308   2.016   6.718
 3266SOL    HW110697   0.235   1.993   6.655
 3266SOL    HW210698   0.343   1.932   6.760
 3267SOL     OW10699   4.910   2.525   1.132
 3267SOL    HW110700   4.972   2.601   1.116
 3267SOL    HW210701   4.960   2.448   1.171
 3268SOL     OW10702   1.278   4.608   6.514
 3268SOL    HW110703   1.364   4.565   6.541
 3268SOL    HW210704   1.223   4.626   6.595
 3269SOL     OW10705   4.649   3.776   0.975
 3269SOL    HW110706   4.698   3.801   1.058
 3269SOL    HW210707   4.575   3.713   0.997
 3270SOL     OW10708   0.606   5.527   4.361
 3270SOL    HW110709   0.548   5.605   4.382
 3270SOL    HW210710   0.551   5.451   4.327
 3271SOL     OW10711   5.038   1.083   1.728
 3271SOL    HW110712   5.133   1.116   1.728
 3271SOL    HW210713   5.035   0.993   1.772
 3272SOL     OW10714   4.900   0.231   6.982
 3272SOL    HW110715   4.927   0.220   0.051
 3272SOL    HW210716   4.836   0.307   6.974
 3273SOL     OW10717   0.881   6.898   3.394
 3273SOL    HW110718   0.950   6.877   3.463
 3273SOL    HW210719   0.910   6.978   3.341
 3274SOL     OW10720   3.500   2.035   6.755
 3274SOL    HW110721   3.477   2.072   6.845
 3274SOL    HW210722   3.480   1.937   6.752
 3275SOL     OW10723   4.199   0.680   0.638
 3275SOL    HW110724   4.160   0.600   0.592
 3275SOL    HW210725   4.251   0.734   0.572
 3276SOL     OW10726   2.107   6.045   0.212
 3276SOL    HW110727   2.204   6.068   0.209
 3276SOL    HW210728   2.086   6.003   0.300
 3277SOL     OW10729   0.204   6.062   5.469
 3277SOL    HW110730   0.154   6.127   5.412
 3277SOL    HW210731   0.241   6.109   5.549
 3278SOL     OW10732   1.296   1.233   0.324
 3278SOL    HW110733   1.254   1.199   0.408
 3278SOL    HW210734   1.341   1.158   0.276
 3279SOL     OW10735   2.272   6.202   1.265
 3279SOL    HW110736   2.175   6.222   1.281
 3279SOL    HW210737   2.300   6.125   1.322
 3280SOL     OW10738   2.580   5.432   4.822
 3280SOL    HW110739   2.565   5.440   4.921
 3280SOL    HW210740   2.525   5.501   4.775
 3281SOL     OW10741   2.396   6.188   0.613
 3281SOL    HW110742   2.466   6.218   0.678
 3281SOL    HW210743   2.342   6.266   0.583
 3282SOL     OW10744   2.170   5.956   2.526
 3282SOL    HW110745   2.093   5.903   2.563
 3282SOL    HW210746   2.192   5.922   2.435
 3283SOL     OW10747   1.845   0.174   4.094
 3283SOL    HW110748   1.866   0.078   4.109
 3283SOL    HW210749   1.877   0.228   4.172
 3284SOL     OW10750   1.158   4.280   5.997
 3284SOL    HW110751   1.177   4.338   6.077
 3284SOL    HW210752   1.225   4.299   5.926
 3285SOL     OW10753   0.293   2.216   4.812
 3285SOL    HW110754   0.391   2.195   4.812
 3285SOL    HW210755   0.250   2.177   4.731
 3286SOL     OW10756   4.164   4.874   5.490
 3286SOL    HW110757   4.099   4.857   5.565
 3286SOL    HW210758   4.176   4.972   5.479
 3287SOL     OW10759   0.142   4.309   1.746
 3287SOL    HW110760   0.125   4.374   1.672
 3287SOL    HW210761   0.199   4.353   1.816
 3288SOL     OW10762   1.599   6.447   6.658
 3288SOL    HW110763   1.501   6.436   6.677
 3288SOL    HW210764   1.632   6.530   6.704
 3289SOL     OW10765   1.096   5.450   4.744
 3289SOL    HW110766   1.068   5.410   4.657
 3289SOL    HW210767   1.030   5.425   4.815
 3290SOL     OW10768   7.012   4.408   3.159
 3290SOL    HW110769   0.035   4.469   3.220
 3290SOL    HW210770   0.014   4.314   3.175
 3291SOL     OW10771   1.900   6.934   1.853
 3291SOL    HW110772   1.906   7.022   1.807
 3291SOL    HW210773   1.851   6.869   1.794
 3292SOL     OW10774   0.432   5.244   4.941
 3292SOL    HW110775   0.360   5.232   5.010
 3292SOL    HW210776   0.516   5.274   4.986
 3293SOL     OW10777   6.352   0.683   2.675
 3293SOL    HW110778   6.359   0.612   2.605
 3293SOL    HW210779   6.382   0.770   2.638
 3294SOL     OW10780   0.935   0.257   1.000
 3294SOL    HW110781   0.986   0.292   0.922
 3294SOL    HW210782   0.859   0.319   1.022
 3295SOL     OW10783   1.507   1.986   6.077
 3295SOL    HW110784   1.537   1.910   6.020
 3295SOL    HW210785   1.528   2.073   6.031
 3296SOL     OW10786   0.931   6.541   2.368
 3296SOL    HW110787   0.960   6.478   2.295
 3296SOL    HW210788   1.011   6.567   2.422
 3297SOL     OW10789   2.839   1.615   5.949
 3297SOL    HW110790   2.748   1.657   5.951
 3297SOL    HW210791   2.903   1.676   5.904
 3298SOL     OW10792   6.532   3.863   2.977
 3298SOL    HW110793   6.525   3.772   2.936
 3298SOL    HW210794   6.620   3.903   2.954
 3299SOL     OW10795   0.991   1.008   5.168
 3299SOL    HW110796   0.953   0.994   5.076
 3299SOL    HW210797   1.015   0.919   5.208
 3300SOL     OW10798   0.279   0.453   5.003
 3300SOL    HW110799   0.180   0.466   4.993
 3300SOL    HW210800   0.318   0.531   5.052
 3301SOL     OW10801   0.179   3.549   2.549
 3301SOL    HW110802   0.151   3.558   2.644
 3301SOL    HW210803   0.205   3.639   2.513
 3302SOL     OW10804   1.025   5.713   4.767
 3302SOL    HW110805   1.053   5.619   4.746
 3302SOL    HW210806   1.093   5.776   4.731
 3303SOL     OW10807   3.159   3.971   3.585
 3303SOL    HW110808   3.137   3.938   3.677
 3303SOL    HW210809   3.075   3.997   3.538
 3304SOL     OW10810   1.691   0.751   3.553
 3304SOL    HW110811   1.682   0.654   3.532
 3304SOL    HW210812   1.773   0.766   3.608
 3305SOL     OW10813   0.836   2.153   0.915
 3305SOL    HW110814   0.742   2.187   0.924
 3305SOL    HW210815   0.881   2.201   0.839
 3306SOL     OW10816   0.796   3.395   2.086
 3306SOL    HW110817   0.895   3.381   2.083
 3306SOL    HW210818   0.756   3.364   2.000
 3307SOL     OW10819   0.767   6.202   0.981
 3307SOL    HW110820   0.749   6.252   1.066
 3307SOL    HW210821   0.810   6.114   1.003
 3308SOL     OW10822   5.945   6.710   0.656
 3308SOL    HW110823   5.872   6.700   0.588
 3308SOL    HW210824   5.993   6.797   0.640
 3309SOL     OW10825   1.624   5.380   2.013
 3309SOL    HW110826   1.634   5.288   1.975
 3309SOL    HW210827   1.653   5.448   1.945
 3310SOL     OW10828   1.505   6.474   2.225
 3310SOL    HW110829   1.586   6.512   2.180
 3310SOL    HW210830   1.533   6.402   2.289
 3311SOL     OW10831   3.977   6.276   1.171
 3311SOL    HW110832   3.964   6.367   1.133
 3311SOL    HW210833   3.959   6.278   1.269
 3312SOL     OW10834   1.987   3.302   6.849
 3312SOL    HW110835   1.949   3.394   6.844
 3312SOL    HW210836   1.921   3.236   6.812
 3313SOL     OW10837   6.403   6.270   5.329
 3313SOL    HW110838   6.434   6.254   5.235
 3313SOL    HW210839   6.310   6.306   5.328
 3314SOL     OW10840   6.994   3.668   0.116
 3314SOL    HW110841   0.067   3.657   0.109
 3314SOL    HW210842   6.960   3.713   0.033
 3315SOL     OW10843   6.301   3.866   3.160
 3315SOL    HW110844   6.340   3.843   3.249
 3315SOL    HW210845   6.374   3.877   3.093
 3316SOL     OW10846   4.586   1.308   0.395
 3316SOL    HW110847   4.495   1.325   0.358
 3316SOL    HW210848   4.596   1.354   0.484
 3317SOL     OW10849   4.126   2.889   1.714
 3317SOL    HW110850   4.192   2.951   1.672
 3317SOL    HW210851   4.170   2.801   1.733
 3318SOL     OW10852   2.513   4.953   4.789
 3318SOL    HW110853   2.470   4.984   4.704
 3318SOL    HW210854   2.565   5.028   4.830
 3319SOL     OW10855   6.851   5.969   6.730
 3319SOL    HW110856   6.819   6.061   6.755
 3319SOL    HW210857   6.774   5.906   6.727
 3320SOL     OW10858   0.836   1.282   6.481
 3320SOL    HW110859   0.903   1.250   6.548
 3320SOL    HW210860   0.876   1.279   6.390
 3321SOL     OW10861   3.837   3.963   4.233
 3321SOL    HW110862   3.738   3.967   4.246
 3321SOL    HW210863   3.857   3.959   4.135
 3322SOL     OW10864   4.288   2.886   1.400
 3322SOL    HW110865   4.263   2.961   1.338
 3322SOL    HW210866   4.275   2.799   1.353
 3323SOL     OW10867   2.877   4.863   6.740
 3323SOL    HW110868   2.835   4.949   6.769
 3323SOL    HW210869   2.806   4.795   6.725
 3324SOL     OW10870   6.185   3.286   1.614
 3324SOL    HW110871   6.208   3.266   1.709
 3324SOL    HW210872   6.218   3.213   1.555
 3325SOL     OW10873   0.979   3.406   6.091
 3325SOL    HW110874   0.968   3.460   6.007
 3325SOL    HW210875   1.074   3.411   6.121
 3326SOL     OW10876   6.656   0.778   1.654
 3326SOL    HW110877   6.738   0.828   1.628
 3326SOL    HW210878   6.679   0.682   1.671
 3327SOL     OW10879   4.216   6.153   1.517
 3327SOL    HW110880   4.216   6.224   1.587
 3327SOL    HW210881   4.124   6.116   1.507
 3328SOL     OW10882   5.562   0.417   3.874
 3328SOL    HW110883   5.546   0.515   3.883
 3328SOL    HW210884   5.659   0.397   3.893
 3329SOL     OW10885   5.457   0.688   6.374
 3329SOL    HW110886   5.453   0.695   6.274
 3329SOL    HW210887   5.493   0.599   6.400
 3330SOL     OW10888   7.025   6.337   3.288
 3330SOL    HW110889   0.080   6.345   3.345
 3330SOL    HW210890   6.965   6.415   3.305
 3331SOL     OW10891   1.504   3.650   2.801
 3331SOL    HW110892   1.517   3.681   2.895
 3331SOL    HW210893   1.569   3.577   2.781
 3332SOL     OW10894   3.029   4.949   0.271
 3332SOL    HW110895   2.984   5.009   0.337
 3332SOL    HW210896   3.048   4.861   0.314
 3333SOL     OW10897   2.422   3.240   1.742
 3333SOL    HW110898   2.384   3.322   1.785
 3333SOL    HW210899   2.503   3.210   1.792
 3334SOL     OW10900   1.828   2.205   1.939
 3334SOL    HW110901   1.903   2.179   1.999
 3334SOL    HW210902   1.750   2.144   1.953
 3335SOL     OW10903   3.655   4.150   4.980
 3335SOL    HW110904   3.655   4.200   4.893
 3335SOL    HW210905   3.613   4.061   4.968
 3336SOL     OW10906   4.716   6.041   5.264
 3336SOL    HW110907   4.682   5.947   5.261
 3336SOL    HW210908   4.679   6.093   5.187
 3337SOL     OW10909   3.691   2.966   2.750
 3337SOL    HW110910   3.682   2.933   2.656
 3337SOL    HW210911   3.614   2.933   2.805
 3338SOL     OW10912   2.739   3.483   1.204
 3338SOL    HW110913   2.824   3.431   1.209
 3338SOL    HW210914   2.729   3.537   1.287
 3339SOL     OW10915   1.667   0.150   6.610
 3339SOL    HW110916   1.696   0.208   6.686
 3339SOL    HW210917   1.715   0.177   6.527
 3340SOL     OW10918   3.723   1.083   5.537
 3340SOL    HW110919   3.790   1.009   5.531
 3340SOL    HW210920   3.701   1.101   5.633
 3341SOL     OW10921   1.184   4.529   1.743
 3341SOL    HW110922   1.212   4.586   1.820
 3341SOL    HW210923   1.141   4.586   1.673
 3342SOL     OW10924   6.474   0.913   2.563
 3342SOL    HW110925   6.564   0.873   2.576
 3342SOL    HW210926   6.463   0.939   2.467
 3343SOL     OW10927   4.304   5.662   0.226
 3343SOL    HW110928   4.214   5.708   0.228
 3343SOL    HW210929   4.318   5.621   0.135
 3344SOL     OW10930   1.025   3.452   1.682
 3344SOL    HW110931   1.062   3.366   1.718
 3344SOL    HW210932   1.032   3.524   1.751
 3345SOL     OW10933   5.751   5.057   1.374
 3345SOL    HW110934   5.771   5.097   1.285
 3345SOL    HW210935   5.798   4.969   1.382
 3346SOL     OW10936   1.773   0.369   0.026
 3346SOL    HW110937   1.854   0.428   0.020
 3346SOL    HW210938   1.773   0.321   0.114
 3347SOL     OW10939   0.703   3.822   5.408
 3347SOL    HW110940   0.719   3.778   5.496
 3347SOL    HW210941   0.730   3.918   5.413
 3348SOL     OW10942   3.647   4.229   6.059
 3348SOL    HW110943   3.729   4.183   6.094
 3348SOL    HW210944   3.673   4.319   6.023
 3349SOL     OW10945   2.363   5.628   2.414
 3349SOL    HW110946   2.317   5.588   2.493
 3349SOL    HW210947   2.306   5.699   2.373
 3350SOL     OW10948   1.609   5.071   4.230
 3350SOL    HW110949   1.563   5.159   4.233
 3350SOL    HW210950   1.542   4.998   4.219
 3351SOL     OW10951   5.769   1.038   1.984
 3351SOL    HW110952   5.800   0.949   1.949
 3351SOL    HW210953   5.769   1.036   2.084
 3352SOL     OW10954   5.625   1.558   6.810
 3352SOL    HW110955   5.647   1.489   6.741
 3352SOL    HW210956   5.555   1.523   6.872
 3353SOL     OW10957   3.874   0.441   0.316
 3353SOL    HW110958   3.868   0.358   0.261
 3353SOL    HW210959   3.869   0.521   0.256
 3354SOL     OW10960   2.821   3.846   6.865
 3354SOL    HW110961   2.849   3.922   6.808
 3354SOL    HW210962   2.724   3.854   6.887
 3355SOL     OW10963   1.427   0.233   4.933
 3355SOL    HW110964   1.491   0.286   4.989
 3355SOL    HW210965   1.348   0.290   4.910
 3356SOL     OW10966   2.284   0.544   6.562
 3356SOL    HW110967   2.204   0.484   6.566
 3356SOL    HW210968   2.362   0.498   6.604
 3357SOL     OW10969   3.436   2.964   2.908
 3357SOL    HW110970   3.403   2.944   3.000
 3357SOL    HW210971   3.484   3.052   2.908
 3358SOL     OW10972   0.166   0.867   1.821
 3358SOL    HW110973   0.170   0.771   1.848
 3358SOL    HW210974   0.255   0.896   1.786
 3359SOL     OW10975   1.160   6.324   4.854
 3359SOL    HW110976   1.181   6.339   4.757
 3359SOL    HW210977   1.229   6.368   4.911
 3360SOL     OW10978   1.898   4.821   4.025
 3360SOL    HW110979   1.894   4.722   4.025
 3360SOL    HW210980   1.994   4.851   4.025
 3361SOL     OW10981   6.486   6.765   5.577
 3361SOL    HW110982   6.483   6.855   5.535
 3361SOL    HW210983   6.546   6.768   5.657
 3362SOL     OW10984   3.863   0.327   4.043
 3362SOL    HW110985   3.901   0.328   4.136
 3362SOL    HW210986   3.871   0.419   4.004
 3363SOL     OW10987   5.545   4.300   0.214
 3363SOL    HW110988   5.566   4.308   0.116
 3363SOL    HW210989   5.492   4.217   0.230
 3364SOL     OW10990   1.594   3.250   2.113
 3364SOL    HW110991   1.585   3.336   2.064
 3364SOL    HW210992   1.689   3.237   2.142
 3365SOL     OW10993   0.953   3.490   3.016
 3365SOL    HW110994   0.959   3.583   2.978
 3365SOL    HW210995   1.006   3.427   2.959
 3366SOL     OW10996   5.790   3.196   4.562
 3366SOL    HW110997   5.883   3.161   4.553
 3366SOL    HW210998   5.788   3.293   4.535
 3367SOL     OW10999   3.424   3.011   3.739
 3367SOL    HW111000   3.325   2.996   3.742
 3367SOL    HW211001   3.443   3.101   3.700
 3368SOL     OW11002   3.261   0.690   2.808
 3368SOL    HW111003   3.311   0.670   2.892
 3368SOL    HW211004   3.256   0.790   2.795
 3369SOL     OW11005   4.842   2.451   0.873
 3369SOL    HW111006   4.931   2.421   0.839
 3369SOL    HW211007   4.853   2.489   0.965
 3370SOL     OW11008   0.183   5.264   2.776
 3370SOL    HW111009   0.185   5.166   2.797
 3370SOL    HW211010   0.255   5.286   2.711
 3371SOL     OW11011   1.993   3.103   1.602
 3371SOL    HW111012   2.067   3.102   1.669
 3371SOL    HW211013   2.006   3.027   1.538
 3372SOL     OW11014   5.744   3.488   3.178
 3372SOL    HW111015   5.667   3.508   3.117
 3372SOL    HW211016   5.721   3.411   3.237
 3373SOL     OW11017   0.138   4.053   1.799
 3373SOL    HW111018   0.054   4.012   1.833
 3373SOL    HW211019   0.124   4.151   1.785
 3374SOL     OW11020   0.895   6.266   3.892
 3374SOL    HW111021   0.907   6.167   3.887
 3374SOL    HW211022   0.962   6.311   3.833
 3375SOL     OW11023   0.401   5.826   6.102
 3375SOL    HW111024   0.317   5.811   6.153
 3375SOL    HW211025   0.474   5.852   6.166
 3376SOL     OW11026   3.357   3.201   4.351
 3376SOL    HW111027   3.357   3.111   4.307
 3376SOL    HW211028   3.337   3.190   4.448
 3377SOL     OW11029   6.977   5.247   4.415
 3377SOL    HW111030   0.000   5.169   4.379
 3377SOL    HW211031   6.885   5.218   4.444
 3378SOL     OW11032   1.519   5.831   1.247
 3378SOL    HW111033   1.602   5.838   1.193
 3378SOL    HW211034   1.467   5.750   1.218
 3379SOL     OW11035   6.244   4.042   4.492
 3379SOL    HW111036   6.149   4.074   4.491
 3379SOL    HW211037   6.289   4.070   4.408
 3380SOL     OW11038   2.382   4.757   0.716
 3380SOL    HW111039   2.404   4.743   0.812
 3380SOL    HW211040   2.448   4.709   0.659
 3381SOL     OW11041   2.702   3.765   6.073
 3381SOL    HW111042   2.798   3.744   6.087
 3381SOL    HW211043   2.662   3.798   6.158
 3382SOL     OW11044   6.539   4.110   6.995
 3382SOL    HW111045   6.635   4.136   7.008
 3382SOL    HW211046   6.492   4.109   0.057
 3383SOL     OW11047   4.036   5.422   0.258
 3383SOL    HW111048   4.053   5.520   0.270
 3383SOL    HW211049   3.937   5.407   0.247
 3384SOL     OW11050   2.654   3.097   6.606
 3384SOL    HW111051   2.705   3.183   6.603
 3384SOL    HW211052   2.590   3.094   6.529
 3385SOL     OW11053   6.211   2.391   4.340
 3385SOL    HW111054   6.112   2.395   4.344
 3385SOL    HW211055   6.244   2.308   4.384
 3386SOL     OW11056   7.008   6.125   4.548
 3386SOL    HW111057   6.978   6.091   4.637
 3386SOL    HW211058   0.082   6.125   4.545
 3387SOL     OW11059   6.025   1.083   3.381
 3387SOL    HW111060   6.025   1.000   3.324
 3387SOL    HW211061   5.938   1.131   3.370
 3388SOL     OW11062   6.693   4.061   0.958
 3388SOL    HW111063   6.641   3.977   0.946
 3388SOL    HW211064   6.633   4.140   0.945
 3389SOL     OW11065   5.969   5.367   6.458
 3389SOL    HW111066   6.049   5.308   6.452
 3389SOL    HW211067   5.886   5.313   6.443
 3390SOL     OW11068   2.694   5.516   7.005
 3390SOL    HW111069   2.694   5.519   6.905
 3390SOL    HW211070   2.756   5.443   0.009
 3391SOL     OW11071   4.754   4.094   4.844
 3391SOL    HW111072   4.801   4.023   4.792
 3391SOL    HW211073   4.706   4.155   4.782
 3392SOL     OW11074   4.357   6.422   6.233
 3392SOL    HW111075   4.281   6.396   6.292
 3392SOL    HW211076   4.442   6.424   6.287
 3393SOL     OW11077   3.676   5.986   0.917
 3393SOL    HW111078   3.700   6.083   0.928
 3393SOL    HW211079   3.611   5.976   0.842
 3394SOL     OW11080   3.243   5.263   2.046
 3394SOL    HW111081   3.268   5.185   1.988
 3394SOL    HW211082   3.216   5.231   2.137
 3395SOL     OW11083   1.899   6.817   3.010
 3395SOL    HW111084   1.934   6.770   3.091
 3395SOL    HW211085   1.891   6.915   3.028
 3396SOL     OW11086   4.657   0.005   4.038
 3396SOL    HW111087   4.731   6.965   4.048
 3396SOL    HW211088   4.605   0.010   4.123
 3397SOL     OW11089   2.282   5.625   7.025
 3397SOL    HW111090   2.257   5.537   6.983
 3397SOL    HW211091   2.328   5.681   6.957
 3398SOL     OW11092   0.045   1.715   5.928
 3398SOL    HW111093   0.009   1.627   5.897
 3398SOL    HW211094   0.123   1.741   5.873
 3399SOL     OW11095   6.606   6.123   2.394
 3399SOL    HW111096   6.578   6.210   2.352
 3399SOL    HW211097   6.580   6.047   2.334
 3400SOL     OW11098   3.708   3.246   5.461
 3400SOL    HW111099   3.717   3.160   5.410
 3400SOL    HW211100   3.613   3.276   5.458
 3401SOL     OW11101   6.991   3.563   4.200
 3401SOL    HW111102   7.025   3.515   4.281
 3401SOL    HW211103   0.005   3.655   4.197
 3402SOL     OW11104   6.271   3.741   0.911
 3402SOL    HW111105   6.265   3.677   0.987
 3402SOL    HW211106   6.284   3.691   0.825
 3403SOL     OW11107   5.079   6.749   6.563
 3403SOL    HW111108   5.126   6.781   6.646
 3403SOL    HW211109   5.014   6.818   6.533
 3404SOL     OW11110   4.964   5.402   3.779
 3404SOL    HW111111   4.908   5.474   3.820
 3404SOL    HW211112   4.977   5.420   3.682
 3405SOL     OW11113   4.058   6.061   7.024
 3405SOL    HW111114   4.133   6.038   6.962
 3405SOL    HW211115   4.084   6.037   0.091
 3406SOL     OW11116   3.403   5.322   1.274
 3406SOL    HW111117   3.324   5.349   1.220
 3406SOL    HW211118   3.373   5.274   1.356
 3407SOL     OW11119   1.131   3.866   6.612
 3407SOL    HW111120   1.067   3.938   6.640
 3407SOL    HW211121   1.140   3.799   6.686
 3408SOL     OW11122   4.642   0.022   3.643
 3408SOL    HW111123   4.602   7.008   3.561
 3408SOL    HW211124   4.581   0.006   3.721
 3409SOL     OW11125   3.982   1.387   6.710
 3409SOL    HW111126   3.964   1.476   6.752
 3409SOL    HW211127   4.078   1.384   6.680
 3410SOL     OW11128   6.392   0.541   3.061
 3410SOL    HW111129   6.406   0.520   3.158
 3410SOL    HW211130   6.327   0.616   3.052
 3411SOL     OW11131   5.955   2.853   5.627
 3411SOL    HW111132   5.862   2.882   5.651
 3411SOL    HW211133   6.021   2.899   5.687
 3412SOL     OW11134   5.524   3.420   2.692
 3412SOL    HW111135   5.444   3.473   2.665
 3412SOL    HW211136   5.591   3.421   2.617
 3413SOL     OW11137   6.878   1.862   0.440
 3413SOL    HW111138   6.952   1.909   0.392
 3413SOL    HW211139   6.864   1.772   0.400
 3414SOL     OW11140   3.604   3.529   1.843
 3414SOL    HW111141   3.552   3.445   1.858
 3414SOL    HW211142   3.698   3.505   1.818
 3415SOL     OW11143   2.116   1.690   5.463
 3415SOL    HW111144   2.061   1.649   5.536
 3415SOL    HW211145   2.213   1.682   5.486
 3416SOL     OW11146   6.512   6.904   6.423
 3416SOL    HW111147   6.584   6.973   6.433
 3416SOL    HW211148   6.519   6.838   6.498
 3417SOL     OW11149   6.310   0.248   2.629
 3417SOL    HW111150   6.279   0.158   2.662
 3417SOL    HW211151   6.280   0.319   2.692
 3418SOL     OW11152   3.979   5.458   0.761
 3418SOL    HW111153   4.004   5.546   0.722
 3418SOL    HW211154   4.024   5.445   0.849
 3419SOL     OW11155   2.481   4.513   4.967
 3419SOL    HW111156   2.571   4.555   4.969
 3419SOL    HW211157   2.457   4.479   5.058
 3420SOL     OW11158   4.745   1.332   2.487
 3420SOL    HW111159   4.775   1.355   2.580
 3420SOL    HW211160   4.680   1.401   2.455
 3421SOL     OW11161   0.010   1.975   5.210
 3421SOL    HW111162   0.012   1.963   5.309
 3421SOL    HW211163   7.004   1.890   5.167
 3422SOL     OW11164   2.857   6.524   1.186
 3422SOL    HW111165   2.859   6.533   1.285
 3422SOL    HW211166   2.790   6.587   1.148
 3423SOL     OW11167   2.717   4.279   5.709
 3423SOL    HW111168   2.668   4.259   5.793
 3423SOL    HW211169   2.764   4.196   5.677
 3424SOL     OW11170   5.071   0.777   2.107
 3424SOL    HW111171   5.132   0.746   2.034
 3424SOL    HW211172   5.121   0.781   2.194
 3425SOL     OW11173   6.443   3.357   6.072
 3425SOL    HW111174   6.523   3.332   6.018
 3425SOL    HW211175   6.362   3.361   6.013
 3426SOL     OW11176   6.070   4.282   0.128
 3426SOL    HW111177   6.068   4.297   0.226
 3426SOL    HW211178   6.100   4.365   0.081
 3427SOL     OW11179   1.656   1.755   6.708
 3427SOL    HW111180   1.752   1.771   6.686
 3427SOL    HW211181   1.648   1.677   6.769
 3428SOL     OW11182   5.163   7.025   4.979
 3428SOL    HW111183   5.252   0.039   4.999
 3428SOL    HW211184   5.174   6.929   4.956
 3429SOL     OW11185   4.332   0.184   0.937
 3429SOL    HW111186   4.379   0.114   0.885
 3429SOL    HW211187   4.258   0.223   0.882
 3430SOL     OW11188   2.609   3.866   6.371
 3430SOL    HW111189   2.606   3.905   6.464
 3430SOL    HW211190   2.604   3.940   6.304
 3431SOL     OW11191   0.854   4.505   2.397
 3431SOL    HW111192   0.845   4.453   2.312
 3431SOL    HW211193   0.781   4.480   2.460
 3432SOL     OW11194   0.589   4.715   0.321
 3432SOL    HW111195   0.564   4.649   0.392
 3432SOL    HW211196   0.687   4.737   0.329
 3433SOL     OW11197   1.406   1.001   0.216
 3433SOL    HW111198   1.396   0.979   0.119
 3433SOL    HW211199   1.498   1.039   0.232
 3434SOL     OW11200   3.598   2.533   1.751
 3434SOL    HW111201   3.656   2.538   1.670
 3434SOL    HW211202   3.609   2.444   1.795
 3435SOL     OW11203   1.804   2.292   1.029
 3435SOL    HW111204   1.705   2.308   1.038
 3435SOL    HW211205   1.825   2.199   1.061
 3436SOL     OW11206   3.517   6.836   6.299
 3436SOL    HW111207   3.527   6.779   6.381
 3436SOL    HW211208   3.493   6.929   6.326
 3437SOL     OW11209   1.462   6.774   0.070
 3437SOL    HW111210   1.393   6.710   0.104
 3437SOL    HW211211   1.440   6.866   0.101
 3438SOL     OW11212   2.583   4.051   0.767
 3438SOL    HW111213   2.487   4.039   0.791
 3438SOL    HW211214   2.592   4.047   0.667
 3439SOL     OW11215   2.968   6.277   0.509
 3439SOL    HW111216   2.982   6.370   0.474
 3439SOL    HW211217   3.008   6.269   0.600
 3440SOL     OW11218   3.446   3.587   5.408
 3440SOL    HW111219   3.351   3.564   5.385
 3440SOL    HW211220   3.450   3.622   5.501
 3441SOL     OW11221   6.604   5.076   4.556
 3441SOL    HW111222   6.549   5.000   4.589
 3441SOL    HW211223   6.696   5.071   4.597
 3442SOL     OW11224   1.856   2.841   1.005
 3442SOL    HW111225   1.796   2.782   1.059
 3442SOL    HW211226   1.801   2.895   0.941
 3443SOL     OW11227   0.636   5.820   2.330
 3443SOL    HW111228   0.661   5.862   2.242
 3443SOL    HW211229   0.712   5.827   2.393
 3444SOL     OW11230   6.642   3.672   5.764
 3444SOL    HW111231   6.650   3.659   5.665
 3444SOL    HW211232   6.730   3.703   5.800
 3445SOL     OW11233   6.141   4.540   4.497
 3445SOL    HW111234   6.181   4.629   4.513
 3445SOL    HW211235   6.139   4.488   4.582
 3446SOL     OW11236   4.708   1.429   0.621
 3446SOL    HW111237   4.636   1.455   0.686
 3446SOL    HW211238   4.784   1.387   0.671
 3447SOL     OW11239   5.632   0.805   6.676
 3447SOL    HW111240   5.683   0.870   6.618
 3447SOL    HW211241   5.686   0.785   6.758
 3448SOL     OW11242   0.791   4.735   5.253
 3448SOL    HW111243   0.818   4.827   5.225
 3448SOL    HW211244   0.727   4.697   5.187
 3449SOL     OW11245   0.132   4.338   5.442
 3449SOL    HW111246   0.114   4.266   5.375
 3449SOL    HW211247   0.210   4.392   5.412
 3450SOL     OW11248   2.688   6.935   2.195
 3450SOL    HW111249   2.605   6.891   2.227
 3450SOL    HW211250   2.715   7.008   2.258
 3451SOL     OW11251   2.060   2.359   0.992
 3451SOL    HW111252   2.080   2.344   0.895
 3451SOL    HW211253   1.966   2.332   1.010
 3452SOL     OW11254   4.458   1.437   5.704
 3452SOL    HW111255   4.446   1.477   5.795
 3452SOL    HW211256   4.452   1.509   5.635
 3453SOL     OW11257   4.116   6.470   6.396
 3453SOL    HW111258   4.039   6.510   6.446
 3453SOL    HW211259   4.090   6.380   6.362
 3454SOL     OW11260   0.248   3.385   2.194
 3454SOL    HW111261   0.206   3.313   2.138
 3454SOL    HW211262   0.337   3.409   2.155
 3455SOL     OW11263   0.438   3.893   6.255
 3455SOL    HW111264   0.498   3.814   6.252
 3455SOL    HW211265   0.368   3.879   6.326
 3456SOL     OW11266   4.547   5.557   3.939
 3456SOL    HW111267   4.524   5.650   3.967
 3456SOL    HW211268   4.643   5.554   3.910
 3457SOL     OW11269   3.763   4.592   6.990
 3457SOL    HW111270   3.758   4.661   6.918
 3457SOL    HW211271   3.815   4.628   0.040
 3458SOL     OW11272   4.180   1.508   2.016
 3458SOL    HW111273   4.159   1.525   2.112
 3458SOL    HW211274   4.260   1.561   1.990
 3459SOL     OW11275   5.483   6.010   1.844
 3459SOL    HW111276   5.499   6.080   1.914
 3459SOL    HW211277   5.533   5.927   1.868
 3460SOL     OW11278   3.925   1.811   5.120
 3460SOL    HW111279   3.915   1.843   5.214
 3460SOL    HW211280   3.951   1.887   5.062
 3461SOL     OW11281   4.621   5.308   4.129
 3461SOL    HW111282   4.537   5.322   4.077
 3461SOL    HW211283   4.667   5.225   4.096
 3462SOL     OW11284   0.859   4.044   6.335
 3462SOL    HW111285   0.820   3.996   6.415
 3462SOL    HW211286   0.786   4.066   6.271
 3463SOL     OW11287   5.489   3.658   0.350
 3463SOL    HW111288   5.560   3.719   0.316
 3463SOL    HW211289   5.400   3.687   0.315
 3464SOL     OW11290   0.467   4.412   4.012
 3464SOL    HW111291   0.526   4.412   4.094
 3464SOL    HW211292   0.425   4.501   4.001
 3465SOL     OW11293   0.779   2.167   2.347
 3465SOL    HW111294   0.818   2.144   2.437
 3465SOL    HW211295   0.711   2.098   2.322
 3466SOL     OW11296   0.021   3.442   4.428
 3466SOL    HW111297   0.075   3.473   4.506
 3466SOL    HW211298   7.007   3.353   4.449
 3467SOL     OW11299   1.868   2.491   5.549
 3467SOL    HW111300   1.932   2.426   5.510
 3467SOL    HW211301   1.865   2.574   5.492
 3468SOL     OW11302   4.714   6.519   1.934
 3468SOL    HW111303   4.696   6.617   1.948
 3468SOL    HW211304   4.639   6.478   1.884
 3469SOL     OW11305   5.460   3.966   0.966
 3469SOL    HW111306   5.536   3.917   1.008
 3469SOL    HW211307   5.382   3.905   0.957
 3470SOL     OW11308   6.755   5.358   1.305
 3470SOL    HW111309   6.781   5.276   1.254
 3470SOL    HW211310   6.763   5.340   1.403
 3471SOL     OW11311   3.898   6.766   4.844
 3471SOL    HW111312   3.914   6.667   4.844
 3471SOL    HW211313   3.979   6.813   4.877
 3472SOL     OW11314   4.129   0.958   5.062
 3472SOL    HW111315   4.142   1.028   5.132
 3472SOL    HW211316   4.214   0.906   5.050
 3473SOL     OW11317   4.027   0.140   3.889
 3473SOL    HW111318   3.954   0.202   3.918
 3473SOL    HW211319   4.080   0.182   3.816
 3474SOL     OW11320   4.843   4.423   0.878
 3474SOL    HW111321   4.789   4.351   0.922
 3474SOL    HW211322   4.940   4.403   0.891
 3475SOL     OW11323   1.828   5.844   4.738
 3475SOL    HW111324   1.896   5.903   4.782
 3475SOL    HW211325   1.741   5.892   4.732
 3476SOL     OW11326   4.552   1.605   4.941
 3476SOL    HW111327   4.606   1.576   5.020
 3476SOL    HW211328   4.534   1.704   4.948
 3477SOL     OW11329   4.388   5.483   1.661
 3477SOL    HW111330   4.458   5.520   1.721
 3477SOL    HW211331   4.299   5.488   1.706
 3478SOL     OW11332   4.060   4.065   6.948
 3478SOL    HW111333   4.139   4.005   6.962
 3478SOL    HW211334   4.091   4.157   6.926
 3479SOL     OW11335   1.294   0.244   1.422
 3479SOL    HW111336   1.259   0.162   1.468
 3479SOL    HW211337   1.248   0.325   1.460
 3480SOL     OW11338   1.318   6.755   4.061
 3480SOL    HW111339   1.287   6.665   4.090
 3480SOL    HW211340   1.344   6.809   4.141
 3481SOL     OW11341   1.547   6.149   0.033
 3481SOL    HW111342   1.515   6.085   6.989
 3481SOL    HW211343   1.496   6.234   0.025
 3482SOL     OW11344   0.749   2.310   2.112
 3482SOL    HW111345   0.766   2.402   2.148
 3482SOL    HW211346   0.743   2.245   2.187
 3483SOL     OW11347   3.620   1.691   0.590
 3483SOL    HW111348   3.616   1.661   0.495
 3483SOL    HW211349   3.672   1.624   0.644
 3484SOL     OW11350   4.175   3.493   3.703
 3484SOL    HW111351   4.225   3.518   3.786
 3484SOL    HW211352   4.126   3.408   3.719
 3485SOL     OW11353   6.116   1.894   5.244
 3485SOL    HW111354   6.050   1.939   5.304
 3485SOL    HW211355   6.156   1.961   5.182
 3486SOL     OW11356   4.982   0.704   2.700
 3486SOL    HW111357   4.964   0.708   2.799
 3486SOL    HW211358   5.075   0.735   2.682
 3487SOL     OW11359   0.742   0.765   0.728
 3487SOL    HW111360   0.836   0.733   0.740
 3487SOL    HW211361   0.736   0.823   0.647
 3488SOL     OW11362   6.712   3.555   4.375
 3488SOL    HW111363   6.663   3.569   4.289
 3488SOL    HW211364   6.805   3.591   4.367
 3489SOL     OW11365   2.401   5.321   0.399
 3489SOL    HW111366   2.437   5.230   0.419
 3489SOL    HW211367   2.446   5.357   0.317
 3490SOL     OW11368   4.128   3.100   1.161
 3490SOL    HW111369   4.040   3.107   1.114
 3490SOL    HW211370   4.199   3.075   1.096
 3491SOL     OW11371   6.731   3.362   5.474
 3491SOL    HW111372   6.651   3.423   5.475
 3491SOL    HW211373   6.709   3.278   5.523
 3492SOL     OW11374   5.951   4.544   6.899
 3492SOL    HW111375   6.041   4.499   6.899
 3492SOL    HW211376   5.963   4.643   6.902
 3493SOL     OW11377   6.880   4.864   1.825
 3493SOL    HW111378   6.829   4.950   1.818
 3493SOL    HW211379   6.866   4.824   1.915
 3494SOL     OW11380   2.742   6.725   1.077
 3494SOL    HW111381   2.775   6.753   0.986
 3494SOL    HW211382   2.716   6.807   1.129
 3495SOL     OW11383   5.650   3.869   6.807
 3495SOL    HW111384   5.641   3.773   6.830
 3495SOL    HW211385   5.718   3.880   6.734
 3496SOL     OW11386   0.514   4.901   0.735
 3496SOL    HW111387   0.455   4.888   0.815
 3496SOL    HW211388   0.562   4.816   0.715
 3497SOL     OW11389   4.131   6.586   4.605
 3497SOL    HW111390   4.043   6.539   4.596
 3497SOL    HW211391   4.150   6.603   4.701
 3498SOL     OW11392   1.127   1.987   0.709
 3498SOL    HW111393   1.185   2.067   0.693
 3498SOL    HW211394   1.135   1.958   0.804
 3499SOL     OW11395   0.414   4.335   4.423
 3499SOL    HW111396   0.374   4.413   4.470
 3499SOL    HW211397   0.453   4.272   4.490
 3500SOL     OW11398   6.317   3.563   0.664
 3500SOL    HW111399   6.244   3.495   0.657
 3500SOL    HW211400   6.397   3.522   0.707
 3501SOL     OW11401   0.937   4.094   2.900
 3501SOL    HW111402   1.008   4.126   2.962
 3501SOL    HW211403   0.961   4.120   2.806
 3502SOL     OW11404   0.693   5.085   1.914
 3502SOL    HW111405   0.647   5.106   2.001
 3502SOL    HW211406   0.755   5.008   1.927
 3503SOL     OW11407   3.683   0.164   3.731
 3503SOL    HW111408   3.730   0.235   3.678
 3503SOL    HW211409   3.676   0.193   3.826
 3504SOL     OW11410   2.357   2.750   3.269
 3504SOL    HW111411   2.269   2.739   3.314
 3504SOL    HW211412   2.405   2.662   3.267
 3505SOL     OW11413   4.396   6.390   4.755
 3505SOL    HW111414   4.391   6.318   4.685
 3505SOL    HW211415   4.307   6.433   4.765
 3506SOL     OW11416   6.030   5.094   2.482
 3506SOL    HW111417   5.957   5.127   2.422
 3506SOL    HW211418   6.098   5.166   2.493
 3507SOL     OW11419   0.294   0.433   6.253
 3507SOL    HW111420   0.296   0.451   6.154
 3507SOL    HW211421   0.210   0.473   6.292
 3508SOL     OW11422   5.902   4.160   6.948
 3508SOL    HW111423   5.930   4.147   6.853
 3508SOL    HW211424   5.972   4.211   6.997
 3509SOL     OW11425   5.983   0.651   0.308
 3509SOL    HW111426   5.926   0.733   0.307
 3509SOL    HW211427   5.929   0.573   0.338
 3510SOL     OW11428   2.239   2.475   2.490
 3510SOL    HW111429   2.316   2.477   2.427
 3510SOL    HW211430   2.262   2.420   2.570
 3511SOL     OW11431   0.606   1.214   4.939
 3511SOL    HW111432   0.689   1.253   4.899
 3511SOL    HW211433   0.528   1.273   4.918
 3512SOL     OW11434   3.209   2.896   1.318
 3512SOL    HW111435   3.261   2.859   1.241
 3512SOL    HW211436   3.137   2.832   1.344
 3513SOL     OW11437   5.251   4.363   1.288
 3513SOL    HW111438   5.335   4.342   1.336
 3513SOL    HW211439   5.201   4.279   1.267
 3514SOL     OW11440   1.830   6.879   2.113
 3514SOL    HW111441   1.845   6.894   2.015
 3514SOL    HW211442   1.880   6.948   2.165
 3515SOL     OW11443   3.881   6.305   3.912
 3515SOL    HW111444   3.804   6.253   3.875
 3515SOL    HW211445   3.908   6.375   3.847
 3516SOL     OW11446   1.987   1.692   0.479
 3516SOL    HW111447   2.013   1.740   0.396
 3516SOL    HW211448   1.925   1.617   0.456
 3517SOL     OW11449   0.629   0.805   6.506
 3517SOL    HW111450   0.684   0.736   6.553
 3517SOL    HW211451   0.532   0.791   6.527
 3518SOL     OW11452   4.666   3.701   5.612
 3518SOL    HW111453   4.657   3.745   5.523
 3518SOL    HW211454   4.589   3.727   5.670
 3519SOL     OW11455   3.176   6.603   0.673
 3519SOL    HW111456   3.166   6.672   0.745
 3519SOL    HW211457   3.273   6.583   0.659
 3520SOL     OW11458   4.041   4.842   1.480
 3520SOL    HW111459   3.972   4.871   1.546
 3520SOL    HW211460   4.085   4.923   1.439
 3521SOL     OW11461   6.204   2.302   6.399
 3521SOL    HW111462   6.202   2.350   6.486
 3521SOL    HW211463   6.252   2.358   6.332
 3522SOL     OW11464   2.959   0.967   0.473
 3522SOL    HW111465   2.878   0.907   0.478
 3522SOL    HW211466   3.034   0.925   0.524
 3523SOL     OW11467   2.742   4.380   5.325
 3523SOL    HW111468   2.749   4.426   5.414
 3523SOL    HW211469   2.782   4.438   5.254
 3524SOL     OW11470   2.241   0.313   2.405
 3524SOL    HW111471   2.274   0.218   2.401
 3524SOL    HW211472   2.319   0.375   2.416
 3525SOL     OW11473   1.308   4.108   2.626
 3525SOL    HW111474   1.326   4.195   2.671
 3525SOL    HW211475   1.289   4.038   2.695
 3526SOL     OW11476   4.171   6.834   3.332
 3526SOL    HW111477   4.183   6.755   3.273
 3526SOL    HW211478   4.073   6.849   3.347
 3527SOL     OW11479   5.376   2.948   6.391
 3527SOL    HW111480   5.441   3.010   6.348
 3527SOL    HW211481   5.424   2.869   6.429
 3528SOL     OW11482   1.501   6.907   4.620
 3528SOL    HW111483   1.406   6.934   4.604
 3528SOL    HW211484   1.556   6.990   4.634
 3529SOL     OW11485   3.697   6.344   0.081
 3529SOL    HW111486   3.628   6.350   0.152
 3529SOL    HW211487   3.775   6.290   0.114
 3530SOL     OW11488   2.231   6.734   2.958
 3530SOL    HW111489   2.160   6.752   2.890
 3530SOL    HW211490   2.267   6.642   2.945
 3531SOL     OW11491   5.151   4.412   0.263
 3531SOL    HW111492   5.150   4.327   0.210
 3531SOL    HW211493   5.064   4.459   0.253
 3532SOL     OW11494   1.948   6.571   0.551
 3532SOL    HW111495   1.932   6.551   0.454
 3532SOL    HW211496   1.990   6.661   0.559
 3533SOL     OW11497   1.607   0.993   3.959
 3533SOL    HW111498   1.508   0.988   3.943
 3533SOL    HW211499   1.627   1.068   4.021
 3534SOL     OW11500   5.058   0.615   5.100
 3534SOL    HW111501   5.089   0.525   5.070
 3534SOL    HW211502   4.964   0.630   5.070
 3535SOL     OW11503   5.026   6.535   6.947
 3535SOL    HW111504   4.945   6.562   6.895
 3535SOL    HW211505   4.998   6.476   7.023
 3536SOL     OW11506   0.821   3.672   2.540
 3536SOL    HW111507   0.745   3.633   2.593
 3536SOL    HW211508   0.864   3.600   2.486
 3537SOL     OW11509   2.675   4.411   1.350
 3537SOL    HW111510   2.597   4.472   1.345
 3537SOL    HW211511   2.759   4.463   1.335
 3538SOL     OW11512   4.112   1.016   3.438
 3538SOL    HW111513   4.058   0.978   3.363
 3538SOL    HW211514   4.208   0.990   3.426
 3539SOL     OW11515   5.515   5.740   6.334
 3539SOL    HW111516   5.496   5.643   6.326
 3539SOL    HW211517   5.613   5.754   6.352
 3540SOL     OW11518   2.768   4.679   5.889
 3540SOL    HW111519   2.832   4.718   5.956
 3540SOL    HW211520   2.809   4.684   5.798
 3541SOL     OW11521   1.298   2.488   1.754
 3541SOL    HW111522   1.389   2.530   1.754
 3541SOL    HW211523   1.291   2.423   1.679
 3542SOL     OW11524   6.096   1.799   6.521
 3542SOL    HW111525   6.163   1.732   6.553
 3542SOL    HW211526   6.141   1.866   6.462
 3543SOL     OW11527   0.468   2.052   3.858
 3543SOL    HW111528   0.568   2.052   3.859
 3543SOL    HW211529   0.435   2.146   3.859
 3544SOL     OW11530   3.041   4.240   0.302
 3544SOL    HW111531   3.122   4.225   0.245
 3544SOL    HW211532   2.981   4.160   0.296
 3545SOL     OW11533   4.095   6.912   0.773
 3545SOL    HW111534   4.008   6.872   0.743
 3545SOL    HW211535   4.143   6.950   0.693
 3546SOL     OW11536   6.572   4.330   1.396
 3546SOL    HW111537   6.669   4.331   1.370
 3546SOL    HW211538   6.516   4.352   1.316
 3547SOL     OW11539   0.981   3.891   4.852
 3547SOL    HW111540   0.986   3.793   4.837
 3547SOL    HW211541   0.933   3.934   4.775
 3548SOL     OW11542   6.140   0.023   6.222
 3548SOL    HW111543   6.064   0.087   6.236
 3548SOL    HW211544   6.226   0.068   6.245
 3549SOL     OW11545   2.503   6.090   6.640
 3549SOL    HW111546   2.572   6.099   6.713
 3549SOL    HW211547   2.413   6.079   6.681
 3550SOL     OW11548   5.683   1.066   5.524
 3550SOL    HW111549   5.756   1.115   5.572
 3550SOL    HW211550   5.637   1.128   5.461
 3551SOL     OW11551   5.272   1.897   4.941
 3551SOL    HW111552   5.241   1.928   5.031
 3551SOL    HW211553   5.339   1.961   4.905
 3552SOL     OW11554   6.381   0.238   3.932
 3552SOL    HW111555   6.440   0.276   4.003
 3552SOL    HW211556   6.404   0.279   3.844
 3553SOL     OW11557   5.953   5.876   6.699
 3553SOL    HW111558   6.027   5.920   6.750
 3553SOL    HW211559   5.893   5.946   6.660
 3554SOL     OW11560   4.664   4.179   0.229
 3554SOL    HW111561   4.680   4.240   0.307
 3554SOL    HW211562   4.569   4.184   0.201
 3555SOL     OW11563   2.731   1.488   5.219
 3555SOL    HW111564   2.655   1.435   5.255
 3555SOL    HW211565   2.777   1.537   5.293
 3556SOL     OW11566   5.552   0.991   0.591
 3556SOL    HW111567   5.577   0.919   0.526
 3556SOL    HW211568   5.456   1.016   0.578
 3557SOL     OW11569   5.765   6.724   1.782
 3557SOL    HW111570   5.707   6.686   1.710
 3557SOL    HW211571   5.751   6.673   1.866
 3558SOL     OW11572   3.735   5.688   2.327
 3558SOL    HW111573   3.771   5.595   2.323
 3558SOL    HW211574   3.706   5.709   2.420
 3559SOL     OW11575   4.071   6.445   6.728
 3559SOL    HW111576   3.996   6.465   6.664
 3559SOL    HW211577   4.033   6.410   6.814
 3560SOL     OW11578   1.567   5.430   4.049
 3560SOL    HW111579   1.521   5.389   4.128
 3560SOL    HW211580   1.625   5.505   4.079
 3561SOL     OW11581   4.688   3.474   5.438
 3561SOL    HW111582   4.679   3.545   5.508
 3561SOL    HW211583   4.622   3.491   5.365
 3562SOL     OW11584   2.775   1.583   0.406
 3562SOL    HW111585   2.847   1.539   0.352
 3562SOL    HW211586   2.808   1.598   0.499
 3563SOL     OW11587   6.784   2.472   6.668
 3563SOL    HW111588   6.833   2.503   6.587
 3563SOL    HW211589   6.720   2.543   6.698
 3564SOL     OW11590   6.355   3.562   2.644
 3564SOL    HW111591   6.292   3.528   2.714
 3564SOL    HW211592   6.309   3.631   2.589
 3565SOL     OW11593   4.808   5.986   6.142
 3565SOL    HW111594   4.792   6.028   6.231
 3565SOL    HW211595   4.813   5.887   6.152
 3566SOL     OW11596   1.327   1.048   5.181
 3566SOL    HW111597   1.306   1.019   5.274
 3566SOL    HW211598   1.426   1.045   5.166
 3567SOL     OW11599   6.825   3.830   6.779
 3567SOL    HW111600   6.792   3.828   6.874
 3567SOL    HW211601   6.891   3.756   6.765
 3568SOL     OW11602   5.265   3.608   5.823
 3568SOL    HW111603   5.291   3.552   5.744
 3568SOL    HW211604   5.348   3.632   5.875
 3569SOL     OW11605   1.452   0.332   3.488
 3569SOL    HW111606   1.481   0.328   3.584
 3569SOL    HW211607   1.532   0.345   3.430
 3570SOL     OW11608   5.735   1.558   4.589
 3570SOL    HW111609   5.773   1.592   4.675
 3570SOL    HW211610   5.659   1.495   4.609
 3571SOL     OW11611   6.626   6.418   5.142
 3571SOL    HW111612   6.721   6.443   5.123
 3571SOL    HW211613   6.586   6.483   5.207
 3572SOL     OW11614   6.096   6.448   5.657
 3572SOL    HW111615   6.006   6.411   5.680
 3572SOL    HW211616   6.166   6.404   5.714
 3573SOL     OW11617   0.644   2.089   1.724
 3573SOL    HW111618   0.614   2.114   1.816
 3573SOL    HW211619   0.586   2.134   1.656
 3574SOL     OW11620   6.181   3.723   0.459
 3574SOL    HW111621   6.236   3.667   0.520
 3574SOL    HW211622   6.175   3.679   0.369
 3575SOL     OW11623   6.288   5.658   1.714
 3575SOL    HW111624   6.342   5.737   1.686
 3575SOL    HW211625   6.199   5.660   1.669
 3576SOL     OW11626   0.070   0.771   6.752
 3576SOL    HW111627   0.037   0.677   6.740
 3576SOL    HW211628   7.021   0.835   6.736
 3577SOL     OW11629   2.644   3.976   6.612
 3577SOL    HW111630   2.632   4.057   6.669
 3577SOL    HW211631   2.591   3.900   6.651
 3578SOL     OW11632   3.654   4.388   1.705
 3578SOL    HW111633   3.744   4.400   1.661
 3578SOL    HW211634   3.624   4.476   1.743
 3579SOL     OW11635   1.627   4.461   4.801
 3579SOL    HW111636   1.600   4.450   4.897
 3579SOL    HW211637   1.660   4.373   4.766
 3580SOL     OW11638   6.886   2.830   1.422
 3580SOL    HW111639   6.957   2.846   1.354
 3580SOL    HW211640   6.806   2.886   1.402
 3581SOL     OW11641   5.814   1.232   3.270
 3581SOL    HW111642   5.848   1.320   3.237
 3581SOL    HW211643   5.729   1.246   3.321
 3582SOL     OW11644   0.154   0.447   5.391
 3582SOL    HW111645   0.217   0.428   5.467
 3582SOL    HW211646   0.124   0.361   5.351
 3583SOL     OW11647   1.776   5.272   1.507
 3583SOL    HW111648   1.685   5.302   1.538
 3583SOL    HW211649   1.845   5.301   1.574
 3584SOL     OW11650   5.754   0.263   5.719
 3584SOL    HW111651   5.722   0.197   5.786
 3584SOL    HW211652   5.839   0.305   5.751
 3585SOL     OW11653   2.330   4.727   3.866
 3585SOL    HW111654   2.400   4.791   3.901
 3585SOL    HW211655   2.370   4.636   3.859
 3586SOL     OW11656   1.003   1.261   6.220
 3586SOL    HW111657   1.005   1.359   6.201
 3586SOL    HW211658   1.040   1.211   6.142
 3587SOL     OW11659   3.750   6.858   0.032
 3587SOL    HW111660   3.807   6.891   6.983
 3587SOL    HW211661   3.747   6.927   0.104
 3588SOL     OW11662   2.134   1.369   5.293
 3588SOL    HW111663   2.214   1.424   5.314
 3588SOL    HW211664   2.134   1.344   5.196
 3589SOL     OW11665   3.256   0.603   4.799
 3589SOL    HW111666   3.226   0.507   4.803
 3589SOL    HW211667   3.326   0.612   4.728
 3590SOL     OW11668   1.053   5.115   6.796
 3590SOL    HW111669   0.968   5.087   6.841
 3590SOL    HW211670   1.084   5.042   6.735
 3591SOL     OW11671   5.499   2.452   5.888
 3591SOL    HW111672   5.485   2.460   5.789
 3591SOL    HW211673   5.551   2.369   5.908
 3592SOL     OW11674   5.511   2.341   1.794
 3592SOL    HW111675   5.419   2.326   1.759
 3592SOL    HW211676   5.509   2.402   1.873
 3593SOL     OW11677   0.684   5.029   4.216
 3593SOL    HW111678   0.591   5.067   4.223
 3593SOL    HW211679   0.702   5.002   4.122
 3594SOL     OW11680   4.224   1.595   5.012
 3594SOL    HW111681   4.261   1.622   4.923
 3594SOL    HW211682   4.131   1.561   5.000
 3595SOL     OW11683   1.815   6.047   6.337
 3595SOL    HW111684   1.752   6.115   6.376
 3595SOL    HW211685   1.796   6.036   6.239
 3596SOL     OW11686   0.393   3.775   3.639
 3596SOL    HW111687   0.418   3.824   3.722
 3596SOL    HW211688   0.416   3.678   3.650
 3597SOL     OW11689   3.999   6.545   3.785
 3597SOL    HW111690   4.023   6.595   3.702
 3597SOL    HW211691   3.939   6.602   3.842
 3598SOL     OW11692   1.769   0.427   0.660
 3598SOL    HW111693   1.811   0.353   0.607
 3598SOL    HW211694   1.828   0.508   0.657
 3599SOL     OW11695   6.758   1.546   4.141
 3599SOL    HW111696   6.721   1.613   4.077
 3599SOL    HW211697   6.709   1.459   4.130
 3600SOL     OW11698   7.008   0.718   1.304
 3600SOL    HW111699   6.933   0.722   1.237
 3600SOL    HW211700   0.037   0.637   1.287
 3601SOL     OW11701   5.966   3.303   5.320
 3601SOL    HW111702   5.984   3.303   5.221
 3601SOL    HW211703   5.871   3.275   5.336
 3602SOL     OW11704   2.670   1.979   0.880
 3602SOL    HW111705   2.711   1.890   0.897
 3602SOL    HW211706   2.742   2.047   0.863
 3603SOL     OW11707   4.268   5.316   4.466
 3603SOL    HW111708   4.359   5.345   4.436
 3603SOL    HW211709   4.198   5.370   4.419
 3604SOL     OW11710   0.123   4.252   3.821
 3604SOL    HW111711   0.067   4.335   3.830
 3604SOL    HW211712   0.063   4.174   3.807
 3605SOL     OW11713   6.097   2.944   6.427
 3605SOL    HW111714   6.077   3.041   6.444
 3605SOL    HW211715   6.026   2.887   6.470
 3606SOL     OW11716   1.803   4.198   3.729
 3606SOL    HW111717   1.845   4.171   3.815
 3606SOL    HW211718   1.845   4.147   3.654
 3607SOL     OW11719   4.317   7.003   0.190
 3607SOL    HW111720   4.265   6.940   0.247
 3607SOL    HW211721   4.361   0.045   0.248
 3608SOL     OW11722   0.403   2.828   2.542
 3608SOL    HW111723   0.376   2.876   2.459
 3608SOL    HW211724   0.490   2.782   2.528
 3609SOL     OW11725   6.673   0.189   4.983
 3609SOL    HW111726   6.607   0.174   4.909
 3609SOL    HW211727   6.652   0.129   5.060
 3610SOL     OW11728   1.625   5.681   5.165
 3610SOL    HW111729   1.660   5.663   5.257
 3610SOL    HW211730   1.667   5.765   5.129
 3611SOL     OW11731   4.187   5.173   5.387
 3611SOL    HW111732   4.149   5.123   5.310
 3611SOL    HW211733   4.131   5.254   5.405
 3612SOL     OW11734   1.819   6.323   0.564
 3612SOL    HW111735   1.728   6.344   0.599
 3612SOL    HW211736   1.878   6.403   0.575
 3613SOL     OW11737   5.028   4.939   6.119
 3613SOL    HW111738   4.959   4.866   6.125
 3613SOL    HW211739   5.069   4.952   6.209
 3614SOL     OW11740   3.918   3.790   4.422
 3614SOL    HW111741   3.862   3.852   4.366
 3614SOL    HW211742   3.989   3.749   4.365
 3615SOL     OW11743   6.395   6.072   6.431
 3615SOL    HW111744   6.434   6.164   6.423
 3615SOL    HW211745   6.364   6.042   6.340
 3616SOL     OW11746   6.355   0.926   5.065
 3616SOL    HW111747   6.295   0.880   4.999
 3616SOL    HW211748   6.441   0.876   5.073
 3617SOL     OW11749   6.692   0.303   0.002
 3617SOL    HW111750   6.660   0.279   6.937
 3617SOL    HW211751   6.706   0.402   0.008
 3618SOL     OW11752   2.783   0.089   6.150
 3618SOL    HW111753   2.755   0.066   6.243
 3618SOL    HW211754   2.825   0.180   6.149
 3619SOL     OW11755   5.346   3.997   4.167
 3619SOL    HW111756   5.248   4.006   4.148
 3619SOL    HW211757   5.359   3.937   4.246
 3620SOL     OW11758   6.095   1.107   5.032
 3620SOL    HW111759   6.083   1.139   4.938
 3620SOL    HW211760   6.174   1.046   5.037
 3621SOL     OW11761   1.426   3.448   5.762
 3621SOL    HW111762   1.418   3.547   5.773
 3621SOL    HW211763   1.465   3.408   5.844
 3622SOL     OW11764   0.402   3.321   1.055
 3622SOL    HW111765   0.321   3.274   1.090
 3622SOL    HW211766   0.436   3.272   0.975
 3623SOL     OW11767   0.244   5.572   4.295
 3623SOL    HW111768   0.284   5.541   4.209
 3623SOL    HW211769   0.253   5.672   4.302
 3624SOL     OW11770   1.767   1.324   1.943
 3624SOL    HW111771   1.680   1.290   1.908
 3624SOL    HW211772   1.761   1.423   1.958
 3625SOL     OW11773   0.476   3.156   4.583
 3625SOL    HW111774   0.509   3.157   4.489
 3625SOL    HW211775   0.441   3.065   4.605
 3626SOL     OW11776   2.707   3.861   5.264
 3626SOL    HW111777   2.628   3.919   5.244
 3626SOL    HW211778   2.710   3.841   5.362
 3627SOL     OW11779   3.181   3.134   3.638
 3627SOL    HW111780   3.258   3.197   3.629
 3627SOL    HW211781   3.097   3.179   3.610
 3628SOL     OW11782   3.132   5.392   3.124
 3628SOL    HW111783   3.211   5.448   3.147
 3628SOL    HW211784   3.074   5.441   3.060
 3629SOL     OW11785   5.695   2.176   5.065
 3629SOL    HW111786   5.727   2.197   4.973
 3629SOL    HW211787   5.642   2.254   5.100
 3630SOL     OW11788   5.614   1.798   4.438
 3630SOL    HW111789   5.658   1.714   4.468
 3630SOL    HW211790   5.676   1.851   4.381
 3631SOL     OW11791   2.235   0.630   4.280
 3631SOL    HW111792   2.187   0.621   4.367
 3631SOL    HW211793   2.241   0.541   4.235
 3632SOL     OW11794   3.890   6.954   6.835
 3632SOL    HW111795   3.927   0.004   6.889
 3632SOL    HW211796   3.946   6.942   6.753
 3633SOL     OW11797   2.039   2.971   5.937
 3633SOL    HW111798   2.059   2.932   5.847
 3633SOL    HW211799   2.011   2.898   5.999
 3634SOL     OW11800   3.049   6.112   5.735
 3634SOL    HW111801   3.048   6.013   5.717
 3634SOL    HW211802   3.012   6.131   5.826
 3635SOL     OW11803   2.111   1.030   4.971
 3635SOL    HW111804   2.118   1.013   4.872
 3635SOL    HW211805   2.140   0.948   5.021
 3636SOL     OW11806   1.506   5.429   6.375
 3636SOL    HW111807   1.423   5.373   6.367
 3636SOL    HW211808   1.490   5.518   6.333
 3637SOL     OW11809   5.354   1.443   1.970
 3637SOL    HW111810   5.279   1.503   1.940
 3637SOL    HW211811   5.423   1.438   1.899
 3638SOL     OW11812   6.241   4.575   3.597
 3638SOL    HW111813   6.253   4.590   3.695
 3638SOL    HW211814   6.301   4.636   3.546
 3639SOL     OW11815   2.710   5.105   0.268
 3639SOL    HW111816   2.616   5.109   0.303
 3639SOL    HW211817   2.774   5.126   0.342
 3640SOL     OW11818   2.920   6.059   1.397
 3640SOL    HW111819   2.946   5.964   1.414
 3640SOL    HW211820   3.001   6.113   1.373
 3641SOL     OW11821   2.590   0.040   4.597
 3641SOL    HW111822   2.536   7.004   4.652
 3641SOL    HW211823   2.681   0.051   4.638
 3642SOL     OW11824   6.223   0.020   2.931
 3642SOL    HW111825   6.180   7.009   2.849
 3642SOL    HW211826   6.179   0.106   2.956
 3643SOL     OW11827   3.253   4.483   6.008
 3643SOL    HW111828   3.190   4.455   6.081
 3643SOL    HW211829   3.271   4.405   5.948
 3644SOL     OW11830   6.940   0.659   0.199
 3644SOL    HW111831   7.016   0.595   0.208
 3644SOL    HW211832   6.865   0.615   0.149
 3645SOL     OW11833   3.576   6.574   2.647
 3645SOL    HW111834   3.521   6.492   2.665
 3645SOL    HW211835   3.597   6.579   2.549
 3646SOL     OW11836   6.517   5.646   4.279
 3646SOL    HW111837   6.535   5.670   4.374
 3646SOL    HW211838   6.558   5.558   4.258
 3647SOL     OW11839   2.091   2.531   1.715
 3647SOL    HW111840   2.186   2.559   1.706
 3647SOL    HW211841   2.032   2.604   1.680
 3648SOL     OW11842   3.049   5.794   3.339
 3648SOL    HW111843   3.029   5.700   3.367
 3648SOL    HW211844   2.975   5.828   3.280
 3649SOL     OW11845   3.015   3.640   2.288
 3649SOL    HW111846   3.028   3.737   2.309
 3649SOL    HW211847   2.974   3.630   2.198
 3650SOL     OW11848   6.404   6.821   1.479
 3650SOL    HW111849   6.497   6.797   1.452
 3650SOL    HW211850   6.395   6.815   1.578
 3651SOL     OW11851   1.806   5.996   2.677
 3651SOL    HW111852   1.887   6.031   2.726
 3651SOL    HW211853   1.804   5.896   2.683
 3652SOL     OW11854   4.471   4.918   3.170
 3652SOL    HW111855   4.567   4.894   3.186
 3652SOL    HW211856   4.413   4.839   3.190
 3653SOL     OW11857   0.335   2.718   4.155
 3653SOL    HW111858   0.240   2.701   4.182
 3653SOL    HW211859   0.393   2.724   4.237
 3654SOL     OW11860   1.525   6.337   1.401
 3654SOL    HW111861   1.465   6.293   1.334
 3654SOL    HW211862   1.599   6.384   1.354
 3655SOL     OW11863   1.000   0.154   3.961
 3655SOL    HW111864   0.944   0.236   3.956
 3655SOL    HW211865   0.943   0.076   3.987
 3656SOL     OW11866   2.634   1.857   2.450
 3656SOL    HW111867   2.712   1.866   2.512
 3656SOL    HW211868   2.554   1.902   2.491
 3657SOL     OW11869   3.723   5.442   1.761
 3657SOL    HW111870   3.755   5.347   1.753
 3657SOL    HW211871   3.780   5.490   1.828
 3658SOL     OW11872   1.681   5.422   5.918
 3658SOL    HW111873   1.654   5.327   5.903
 3658SOL    HW211874   1.611   5.469   5.971
 3659SOL     OW11875   1.100   4.499   0.365
 3659SOL    HW111876   1.067   4.432   0.433
 3659SOL    HW211877   1.159   4.453   0.299
 3660SOL     OW11878   4.762   5.516   1.079
 3660SOL    HW111879   4.666   5.505   1.053
 3660SOL    HW211880   4.793   5.607   1.053
 3661SOL     OW11881   5.457   1.426   0.649
 3661SOL    HW111882   5.374   1.480   0.666
 3661SOL    HW211883   5.500   1.456   0.564
 3662SOL     OW11884   2.857   6.366   5.435
 3662SOL    HW111885   2.819   6.458   5.441
 3662SOL    HW211886   2.833   6.314   5.517
 3663SOL     OW11887   1.004   3.862   5.872
 3663SOL    HW111888   0.917   3.880   5.919
 3663SOL    HW211889   1.080   3.895   5.929
 3664SOL     OW11890   3.821   1.182   0.878
 3664SOL    HW111891   3.849   1.145   0.789
 3664SOL    HW211892   3.902   1.214   0.927
 3665SOL     OW11893   1.306   6.409   5.799
 3665SOL    HW111894   1.311   6.350   5.880
 3665SOL    HW211895   1.297   6.353   5.717
 3666SOL     OW11896   0.487   5.392   3.762
 3666SOL    HW111897   0.512   5.488   3.757
 3666SOL    HW211898   0.405   5.376   3.706
 3667SOL     OW11899   6.712   1.586   6.393
 3667SOL    HW111900   6.722   1.613   6.489
 3667SOL    HW211901   6.623   1.617   6.359
 3668SOL     OW11902   1.429   5.961   1.897
 3668SOL    HW111903   1.391   5.882   1.944
 3668SOL    HW211904   1.431   5.945   1.799
 3669SOL     OW11905   6.482   2.256   3.388
 3669SOL    HW111906   6.487   2.157   3.383
 3669SOL    HW211907   6.393   2.287   3.355
 3670SOL     OW11908   1.924   5.381   5.769
 3670SOL    HW111909   2.008   5.354   5.817
 3670SOL    HW211910   1.852   5.400   5.836
 3671SOL     OW11911   1.070   0.944   3.639
 3671SOL    HW111912   1.013   0.992   3.706
 3671SOL    HW211913   1.059   0.846   3.650
 3672SOL     OW11914   6.910   0.135   0.964
 3672SOL    HW111915   7.003   0.149   0.929
 3672SOL    HW211916   6.848   0.202   0.922
 3673SOL     OW11917   4.494   0.341   6.970
 3673SOL    HW111918   4.461   0.322   0.036
 3673SOL    HW211919   4.440   0.415   6.930
 3674SOL     OW11920   1.219   6.500   1.127
 3674SOL    HW111921   1.241   6.447   1.045
 3674SOL    HW211922   1.300   6.551   1.156
 3675SOL     OW11923   1.779   1.829   4.761
 3675SOL    HW111924   1.693   1.849   4.807
 3675SOL    HW211925   1.822   1.914   4.730
 3676SOL     OW11926   2.383   5.297   2.897
 3676SOL    HW111927   2.306   5.287   2.833
 3676SOL    HW211928   2.469   5.294   2.846
 3677SOL     OW11929   6.252   6.590   4.131
 3677SOL    HW111930   6.194   6.627   4.058
 3677SOL    HW211931   6.348   6.607   4.108
 3678SOL     OW11932   1.161   1.631   3.713
 3678SOL    HW111933   1.202   1.563   3.652
 3678SOL    HW211934   1.217   1.714   3.713
 3679SOL     OW11935   0.193   1.362   1.500
 3679SOL    HW111936   0.108   1.313   1.480
 3679SOL    HW211937   0.210   1.429   1.428
 3680SOL     OW11938   6.948   3.663   4.747
 3680SOL    HW111939   6.982   3.596   4.813
 3680SOL    HW211940   6.866   3.627   4.703
 3681SOL     OW11941   5.961   6.097   4.589
 3681SOL    HW111942   5.931   6.174   4.533
 3681SOL    HW211943   5.894   6.023   4.583
 3682SOL     OW11944   1.031   2.450   6.331
 3682SOL    HW111945   1.093   2.405   6.267
 3682SOL    HW211946   1.052   2.548   6.334
 3683SOL     OW11947   5.524   5.945   3.488
 3683SOL    HW111948   5.495   6.036   3.460
 3683SOL    HW211949   5.592   5.911   3.424
 3684SOL     OW11950   1.640   3.362   0.504
 3684SOL    HW111951   1.576   3.364   0.427
 3684SOL    HW211952   1.653   3.268   0.534
 3685SOL     OW11953   6.267   6.668   6.606
 3685SOL    HW111954   6.198   6.734   6.636
 3685SOL    HW211955   6.269   6.666   6.506
 3686SOL     OW11956   5.754   4.633   1.023
 3686SOL    HW111957   5.761   4.545   0.976
 3686SOL    HW211958   5.844   4.676   1.027
 3687SOL     OW11959   3.021   1.403   6.819
 3687SOL    HW111960   2.946   1.373   6.878
 3687SOL    HW211961   2.987   1.472   6.754
 3688SOL     OW11962   0.670   3.383   6.915
 3688SOL    HW111963   0.620   3.364   6.831
 3688SOL    HW211964   0.743   3.316   6.926
 3689SOL     OW11965   2.560   0.840   3.444
 3689SOL    HW111966   2.543   0.919   3.503
 3689SOL    HW211967   2.656   0.814   3.450
 3690SOL     OW11968   5.552   6.099   5.331
 3690SOL    HW111969   5.537   6.179   5.390
 3690SOL    HW211970   5.511   6.116   5.241
 3691SOL     OW11971   3.455   2.567   0.091
 3691SOL    HW111972   3.365   2.594   0.054
 3691SOL    HW211973   3.482   2.632   0.161
 3692SOL     OW11974   1.831   0.239   6.412
 3692SOL    HW111975   1.807   0.330   6.380
 3692SOL    HW211976   1.929   0.223   6.396
 3693SOL     OW11977   2.671   2.264   3.103
 3693SOL    HW111978   2.769   2.247   3.112
 3693SOL    HW211979   2.630   2.275   3.194
 3694SOL     OW11980   2.315   5.857   2.919
 3694SOL    HW111981   2.227   5.814   2.944
 3694SOL    HW211982   2.297   5.939   2.864
 3695SOL     OW11983   1.591   2.071   2.009
 3695SOL    HW111984   1.506   2.124   2.008
 3695SOL    HW211985   1.580   1.988   1.955
 3696SOL     OW11986   2.947   6.566   5.821
 3696SOL    HW111987   3.026   6.627   5.834
 3696SOL    HW211988   2.972   6.473   5.846
 3697SOL     OW11989   5.615   6.801   4.163
 3697SOL    HW111990   5.600   6.704   4.183
 3697SOL    HW211991   5.706   6.827   4.193
 3698SOL     OW11992   2.848   0.095   5.677
 3698SOL    HW111993   2.840   0.065   5.582
 3698SOL    HW211994   2.905   0.177   5.682
 3699SOL     OW11995   1.105   3.794   2.175
 3699SOL    HW111996   1.011   3.760   2.169
 3699SOL    HW211997   1.168   3.717   2.180
 3700SOL     OW11998   0.639   0.025   4.305
 3700SOL    HW111999   0.726   7.003   4.310
 3700SOL    HW212000   0.573   6.996   4.256
 3701SOL     OW12001   5.710   0.651   3.599
 3701SOL    HW112002   5.737   0.704   3.679
 3701SOL    HW212003   5.736   0.555   3.612
 3702SOL     OW12004   3.834   0.794   0.383
 3702SOL    HW112005   3.887   0.879   0.389
 3702SOL    HW212006   3.849   0.740   0.466
 3703SOL     OW12007   4.496   4.659   6.359
 3703SOL    HW112008   4.399   4.682   6.358
 3703SOL    HW212009   4.547   4.727   6.306
 3704SOL     OW12010   2.223   0.495   1.740
 3704SOL    HW112011   2.216   0.490   1.839
 3704SOL    HW212012   2.240   0.590   1.712
 3705SOL     OW12013   5.625   1.004   4.216
 3705SOL    HW112014   5.594   1.045   4.131
 3705SOL    HW212015   5.547   0.994   4.278
 3706SOL     OW12016   2.098   1.810   3.949
 3706SOL    HW112017   2.062   1.717   3.941
 3706SOL    HW212018   2.165   1.826   3.876
 3707SOL     OW12019   4.281   2.743   5.363
 3707SOL    HW112020   4.242   2.693   5.286
 3707SOL    HW212021   4.208   2.790   5.413
 3708SOL     OW12022   6.109   6.957   5.930
 3708SOL    HW112023   6.122   7.002   6.018
 3708SOL    HW212024   6.059   6.872   5.943
 3709SOL     OW12025   4.694   0.312   0.257
 3709SOL    HW112026   4.758   0.323   0.182
 3709SOL    HW212027   4.671   0.215   0.267
 3710SOL     OW12028   6.857   5.137   1.175
 3710SOL    HW112029   6.916   5.071   1.220
 3710SOL    HW212030   6.837   5.107   1.081
 3711SOL     OW12031   6.698   5.127   3.088
 3711SOL    HW112032   6.728   5.184   3.012
 3711SOL    HW212033   6.755   5.146   3.168
 3712SOL     OW12034   2.259   0.006   0.710
 3712SOL    HW112035   2.226   6.954   0.657
 3712SOL    HW212036   2.198   0.084   0.694
 3713SOL     OW12037   4.007   5.558   6.059
 3713SOL    HW112038   4.014   5.633   5.993
 3713SOL    HW212039   4.009   5.594   6.152
 3714SOL     OW12040   3.739   1.064   5.173
 3714SOL    HW112041   3.744   0.965   5.173
 3714SOL    HW212042   3.820   1.102   5.129
 3715SOL     OW12043   5.396   3.602   4.113
 3715SOL    HW112044   5.459   3.667   4.152
 3715SOL    HW212045   5.380   3.527   4.177
 3716SOL     OW12046   0.267   1.458   4.186
 3716SOL    HW112047   0.196   1.471   4.117
 3716SOL    HW212048   0.341   1.523   4.169
 3717SOL     OW12049   5.155   0.060   0.075
 3717SOL    HW112050   5.063   0.065   0.112
 3717SOL    HW212051   5.171   0.135   0.012
 3718SOL     OW12052   0.525   5.801   0.500
 3718SOL    HW112053   0.594   5.873   0.493
 3718SOL    HW212054   0.565   5.721   0.544
 3719SOL     OW12055   3.927   5.036   5.382
 3719SOL    HW112056   3.838   4.990   5.376
 3719SOL    HW212057   4.000   4.970   5.368
 3720SOL     OW12058   0.207   1.879   5.723
 3720SOL    HW112059   0.250   1.915   5.806
 3720SOL    HW212060   0.229   1.782   5.714
 3721SOL     OW12061   4.168   3.307   0.886
 3721SOL    HW112062   4.186   3.360   0.803
 3721SOL    HW212063   4.254   3.287   0.933
 3722SOL     OW12064   5.987   5.818   2.138
 3722SOL    HW112065   5.959   5.848   2.047
 3722SOL    HW212066   6.044   5.736   2.129
 3723SOL     OW12067   4.345   0.959   0.605
 3723SOL    HW112068   4.434   0.998   0.584
 3723SOL    HW212069   4.307   1.004   0.686
 3724SOL     OW12070   0.099   5.661   5.251
 3724SOL    HW112071   0.032   5.617   5.310
 3724SOL    HW212072   0.142   5.737   5.300
 3725SOL     OW12073   6.658   6.937   0.863
 3725SOL    HW112074   6.698   6.845   0.866
 3725SOL    HW212075   6.637   6.967   0.956
 3726SOL     OW12076   5.480   3.227   1.574
 3726SOL    HW112077   5.426   3.186   1.501
 3726SOL    HW212078   5.566   3.262   1.537
 3727SOL     OW12079   2.389   3.091   5.440
 3727SOL    HW112080   2.311   3.029   5.428
 3727SOL    HW212081   2.435   3.104   5.352
 3728SOL     OW12082   0.623   3.378   6.632
 3728SOL    HW112083   0.597   3.299   6.577
 3728SOL    HW212084   0.686   3.436   6.580
 3729SOL     OW12085   0.539   2.872   3.203
 3729SOL    HW112086   0.518   2.928   3.283
 3729SOL    HW212087   0.463   2.808   3.187
 3730SOL     OW12088   2.470   0.793   0.278
 3730SOL    HW112089   2.380   0.787   0.321
 3730SOL    HW212090   2.526   0.716   0.308
 3731SOL     OW12091   3.484   6.532   6.424
 3731SOL    HW112092   3.560   6.479   6.461
 3731SOL    HW212093   3.487   6.624   6.462
 3732SOL     OW12094   2.179   3.765   5.025
 3732SOL    HW112095   2.195   3.713   5.109
 3732SOL    HW212096   2.227   3.852   5.030
 3733SOL     OW12097   2.184   3.602   1.201
 3733SOL    HW112098   2.177   3.701   1.202
 3733SOL    HW212099   2.280   3.575   1.193
 3734SOL     OW12100   5.274   0.207   2.905
 3734SOL    HW112101   5.316   0.130   2.857
 3734SOL    HW212102   5.333   0.235   2.981
 3735SOL     OW12103   3.381   1.675   1.855
 3735SOL    HW112104   3.475   1.647   1.874
 3735SOL    HW212105   3.336   1.702   1.940
 3736SOL     OW12106   5.163   1.434   6.561
 3736SOL    HW112107   5.174   1.409   6.657
 3736SOL    HW212108   5.073   1.405   6.529
 3737SOL     OW12109   4.417   7.001   3.381
 3737SOL    HW112110   4.343   6.933   3.381
 3737SOL    HW212111   4.471   6.991   3.298
 3738SOL     OW12112   0.235   0.140   4.018
 3738SOL    HW112113   0.335   0.139   4.016
 3738SOL    HW212114   0.200   0.165   3.928
 3739SOL     OW12115   0.670   3.870   2.051
 3739SOL    HW112116   0.677   3.968   2.032
 3739SOL    HW212117   0.590   3.832   2.004
 3740SOL     OW12118   5.178   1.360   6.816
 3740SOL    HW112119   5.108   1.298   6.851
 3740SOL    HW212120   5.148   1.454   6.829
 3741SOL     OW12121   3.713   2.280   6.556
 3741SOL    HW112122   3.801   2.244   6.587
 3741SOL    HW212123   3.691   2.240   6.467
 3742SOL     OW12124   2.973   3.634   5.516
 3742SOL    HW112125   3.008   3.679   5.433
 3742SOL    HW212126   2.942   3.542   5.493
 3743SOL     OW12127   0.470   5.570   6.341
 3743SOL    HW112128   0.390   5.598   6.394
 3743SOL    HW212129   0.448   5.570   6.243
 3744SOL     OW12130   6.867   5.860   3.350
 3744SOL    HW112131   6.920   5.875   3.434
 3744SOL    HW212132   6.858   5.946   3.300
 3745SOL     OW12133   4.940   5.978   1.806
 3745SOL    HW112134   4.903   5.905   1.864
 3745SOL    HW212135   5.035   5.995   1.830
 3746SOL     OW12136   4.006   1.884   2.507
 3746SOL    HW112137   4.076   1.906   2.439
 3746SOL    HW212138   3.942   1.960   2.514
 3747SOL     OW12139   2.730   0.142   0.454
 3747SOL    HW112140   2.652   0.093   0.492
 3747SOL    HW212141   2.773   0.086   0.383
 3748SOL     OW12142   6.148   0.820   2.440
 3748SOL    HW112143   6.150   0.889   2.513
 3748SOL    HW212144   6.120   0.863   2.354
 3749SOL     OW12145   1.188   0.157   5.245
 3749SOL    HW112146   1.258   0.203   5.299
 3749SOL    HW212147   1.116   0.223   5.221
 3750SOL     OW12148   0.447   4.310   6.350
 3750SOL    HW112149   0.546   4.294   6.352
 3750SOL    HW212150   0.418   4.355   6.435
 3751SOL     OW12151   1.430   3.998   1.851
 3751SOL    HW112152   1.331   4.002   1.833
 3751SOL    HW212153   1.448   3.928   1.920
 3752SOL     OW12154   5.440   6.701   6.826
 3752SOL    HW112155   5.378   6.739   6.895
 3752SOL    HW212156   5.387   6.670   6.747
 3753SOL     OW12157   0.068   0.586   3.894
 3753SOL    HW112158   0.017   0.508   3.856
 3753SOL    HW212159   0.014   0.669   3.882
 3754SOL     OW12160   2.603   1.681   0.815
 3754SOL    HW112161   2.526   1.618   0.804
 3754SOL    HW212162   2.639   1.674   0.908
 3755SOL     OW12163   3.154   4.843   4.113
 3755SOL    HW112164   3.128   4.918   4.173
 3755SOL    HW212165   3.098   4.845   4.031
 3756SOL     OW12166   1.768   6.153   0.306
 3756SOL    HW112167   1.833   6.143   0.382
 3756SOL    HW212168   1.737   6.248   0.303
 3757SOL     OW12169   6.790   4.586   1.382
 3757SOL    HW112170   6.742   4.663   1.342
 3757SOL    HW212171   6.785   4.592   1.482
 3758SOL     OW12172   2.245   6.860   3.904
 3758SOL    HW112173   2.149   6.888   3.901
 3758SOL    HW212174   2.285   6.887   3.991
 3759SOL     OW12175   5.375   0.166   4.188
 3759SOL    HW112176   5.279   0.163   4.159
 3759SOL    HW212177   5.386   0.234   4.260
 3760SOL     OW12178   1.321   1.238   3.309
 3760SOL    HW112179   1.401   1.263   3.255
 3760SOL    HW212180   1.239   1.277   3.268
 3761SOL     OW12181   4.882   0.944   4.792
 3761SOL    HW112182   4.947   0.868   4.786
 3761SOL    HW212183   4.789   0.910   4.778
 3762SOL     OW12184   0.017   3.028   3.602
 3762SOL    HW112185   0.010   3.112   3.549
 3762SOL    HW212186   7.012   3.045   3.696
 3763SOL     OW12187   0.578   4.456   7.013
 3763SOL    HW112188   0.521   4.428   0.064
 3763SOL    HW212189   0.614   4.375   6.967
 3764SOL     OW12190   2.795   0.603   2.846
 3764SOL    HW112191   2.840   0.655   2.773
 3764SOL    HW212192   2.772   0.512   2.812
 3765SOL     OW12193   5.453   3.038   2.824
 3765SOL    HW112194   5.445   3.019   2.726
 3765SOL    HW212195   5.538   3.087   2.842
 3766SOL     OW12196   1.251   3.528   2.159
 3766SOL    HW112197   1.225   3.459   2.226
 3766SOL    HW212198   1.351   3.539   2.159
 3767SOL     OW12199   1.216   5.341   6.095
 3767SOL    HW112200   1.185   5.269   6.033
 3767SOL    HW212201   1.236   5.301   6.184
 3768SOL     OW12202   1.275   0.118   2.791
 3768SOL    HW112203   1.216   0.164   2.724
 3768SOL    HW212204   1.266   0.019   2.779
 3769SOL     OW12205   5.498   5.574   4.098
 3769SOL    HW112206   5.522   5.481   4.126
 3769SOL    HW212207   5.507   5.635   4.177
 3770SOL     OW12208   1.892   1.010   1.687
 3770SOL    HW112209   1.804   0.997   1.641
 3770SOL    HW212210   1.878   1.021   1.785
 3771SOL     OW12211   6.525   5.626   5.452
 3771SOL    HW112212   6.599   5.616   5.519
 3771SOL    HW212213   6.564   5.639   5.361
 3772SOL     OW12214   1.377   6.025   1.392
 3772SOL    HW112215   1.419   5.970   1.319
 3772SOL    HW212216   1.355   6.116   1.357
 3773SOL     OW12217   5.072   4.998   6.544
 3773SOL    HW112218   5.141   4.981   6.473
 3773SOL    HW212219   4.985   5.023   6.501
 3774SOL     OW12220   6.464   5.222   1.883
 3774SOL    HW112221   6.396   5.287   1.849
 3774SOL    HW212222   6.457   5.215   1.983
 3775SOL     OW12223   4.624   5.255   5.034
 3775SOL    HW112224   4.681   5.317   5.089
 3775SOL    HW212225   4.635   5.277   4.937
 3776SOL     OW12226   3.727   2.798   5.809
 3776SOL    HW112227   3.803   2.862   5.802
 3776SOL    HW212228   3.672   2.820   5.890
 3777SOL     OW12229   3.039   4.958   4.679
 3777SOL    HW112230   3.006   4.999   4.594
 3777SOL    HW212231   2.967   4.902   4.718
 3778SOL     OW12232   3.140   5.323   6.753
 3778SOL    HW112233   3.181   5.293   6.667
 3778SOL    HW212234   3.043   5.341   6.739
 3779SOL     OW12235   0.030   4.732   0.038
 3779SOL    HW112236   0.093   4.807   0.056
 3779SOL    HW212237   0.070   4.646   0.071
 3780SOL     OW12238   5.542   4.245   1.651
 3780SOL    HW112239   5.625   4.236   1.706
 3780SOL    HW212240   5.467   4.195   1.694
 3781SOL     OW12241   2.566   6.096   4.707
 3781SOL    HW112242   2.527   6.111   4.798
 3781SOL    HW212243   2.607   6.182   4.674
 3782SOL     OW12244   4.579   5.027   1.285
 3782SOL    HW112245   4.637   4.949   1.311
 3782SOL    HW212246   4.636   5.107   1.269
 3783SOL     OW12247   4.954   5.318   4.797
 3783SOL    HW112248   5.024   5.370   4.747
 3783SOL    HW212249   4.999   5.250   4.856
 3784SOL     OW12250   5.771   2.515   4.559
 3784SOL    HW112251   5.710   2.485   4.632
 3784SOL    HW212252   5.717   2.562   4.489
 3785SOL     OW12253   1.537   3.029   3.289
 3785SOL    HW112254   1.480   3.105   3.320
 3785SOL    HW212255   1.484   2.945   3.290
 3786SOL     OW12256   2.151   3.595   4.781
 3786SOL    HW112257   2.177   3.508   4.823
 3786SOL    HW212258   2.193   3.671   4.830
 3787SOL     OW12259   4.989   6.971   4.299
 3787SOL    HW112260   4.942   6.925   4.224
 3787SOL    HW212261   5.028   6.902   4.361
 3788SOL     OW12262   5.187   2.409   5.450
 3788SOL    HW112263   5.133   2.431   5.369
 3788SOL    HW212264   5.126   2.405   5.530
 3789SOL     OW12265   2.226   2.881   1.983
 3789SOL    HW112266   2.224   2.960   2.044
 3789SOL    HW212267   2.288   2.812   2.021
 3790SOL     OW12268   0.393   6.352   2.016
 3790SOL    HW112269   0.474   6.359   1.958
 3790SOL    HW212270   0.363   6.256   2.021
 3791SOL     OW12271   5.275   1.316   6.155
 3791SOL    HW112272   5.221   1.236   6.177
 3791SOL    HW212273   5.232   1.366   6.080
 3792SOL     OW12274   6.756   0.292   4.556
 3792SOL    HW112275   6.712   0.378   4.579
 3792SOL    HW212276   6.773   0.288   4.457
 3793SOL     OW12277   4.125   4.848   7.016
 3793SOL    HW112278   4.184   4.777   6.979
 3793SOL    HW212279   4.116   4.835   0.089
 3794SOL     OW12280   0.649   4.457   6.119
 3794SOL    HW112281   0.667   4.409   6.205
 3794SOL    HW212282   0.712   4.423   6.049
 3795SOL     OW12283   2.992   5.719   1.455
 3795SOL    HW112284   3.035   5.722   1.365
 3795SOL    HW212285   2.976   5.623   1.480
 3796SOL     OW12286   4.230   1.516   0.161
 3796SOL    HW112287   4.261   1.576   0.087
 3796SOL    HW212288   4.137   1.484   0.140
 3797SOL     OW12289   0.765   4.349   1.741
 3797SOL    HW112290   0.823   4.379   1.818
 3797SOL    HW212291   0.706   4.275   1.771
 3798SOL     OW12292   1.691   5.667   3.600
 3798SOL    HW112293   1.708   5.658   3.698
 3798SOL    HW212294   1.639   5.751   3.583
 3799SOL     OW12295   7.025   0.957   3.182
 3799SOL    HW112296   0.002   0.978   3.084
 3799SOL    HW212297   6.942   0.996   3.221
 3800SOL     OW12298   5.531   2.573   2.813
 3800SOL    HW112299   5.537   2.599   2.717
 3800SOL    HW212300   5.434   2.565   2.839
 3801SOL     OW12301   6.010   1.746   1.157
 3801SOL    HW112302   6.046   1.729   1.065
 3801SOL    HW212303   5.948   1.825   1.155
 3802SOL     OW12304   6.190   3.492   1.899
 3802SOL    HW112305   6.166   3.516   1.993
 3802SOL    HW212306   6.288   3.473   1.893
 3803SOL     OW12307   3.334   3.680   4.389
 3803SOL    HW112308   3.353   3.586   4.360
 3803SOL    HW212309   3.280   3.678   4.473
 3804SOL     OW12310   4.110   6.063   3.598
 3804SOL    HW112311   4.123   6.161   3.605
 3804SOL    HW212312   4.019   6.044   3.561
 3805SOL     OW12313   2.540   2.439   6.921
 3805SOL    HW112314   2.598   2.377   6.869
 3805SOL    HW212315   2.466   2.472   6.863
 3806SOL     OW12316   2.733   4.773   1.398
 3806SOL    HW112317   2.787   4.740   1.476
 3806SOL    HW212318   2.647   4.721   1.393
 3807SOL     OW12319   1.591   3.929   3.994
 3807SOL    HW112320   1.676   3.878   4.003
 3807SOL    HW212321   1.592   4.007   4.056
 3808SOL     OW12322   2.559   6.392   6.313
 3808SOL    HW112323   2.522   6.483   6.332
 3808SOL    HW212324   2.647   6.382   6.358
 3809SOL     OW12325   5.092   2.106   1.497
 3809SOL    HW112326   5.174   2.162   1.509
 3809SOL    HW212327   5.059   2.074   1.586
 3810SOL     OW12328   5.343   2.155   2.363
 3810SOL    HW112329   5.255   2.139   2.408
 3810SOL    HW212330   5.327   2.180   2.267
 3811SOL     OW12331   0.531   5.773   5.441
 3811SOL    HW112332   0.565   5.690   5.485
 3811SOL    HW212333   0.606   5.821   5.397
 3812SOL     OW12334   4.760   5.645   0.550
 3812SOL    HW112335   4.824   5.680   0.482
 3812SOL    HW212336   4.705   5.572   0.510
 3813SOL     OW12337   6.169   4.406   6.917
 3813SOL    HW112338   6.194   4.372   6.826
 3813SOL    HW212339   6.228   4.482   6.942
 3814SOL     OW12340   0.034   0.739   5.353
 3814SOL    HW112341   7.026   0.645   5.356
 3814SOL    HW212342   6.984   0.802   5.337
 3815SOL     OW12343   6.223   3.584   5.551
 3815SOL    HW112344   6.283   3.587   5.631
 3815SOL    HW212345   6.269   3.627   5.473
 3816SOL     OW12346   6.611   6.081   1.324
 3816SOL    HW112347   6.532   6.033   1.286
 3816SOL    HW212348   6.691   6.020   1.321
 3817SOL     OW12349   4.937   3.891   1.806
 3817SOL    HW112350   4.878   3.966   1.835
 3817SOL    HW212351   4.920   3.811   1.863
 3818SOL     OW12352   5.684   6.208   2.712
 3818SOL    HW112353   5.711   6.112   2.705
 3818SOL    HW212354   5.755   6.265   2.671
 3819SOL     OW12355   6.162   4.214   4.087
 3819SOL    HW112356   6.220   4.213   4.005
 3819SOL    HW212357   6.082   4.272   4.070
 3820SOL     OW12358   2.493   6.141   4.994
 3820SOL    HW112359   2.407   6.192   5.002
 3820SOL    HW212360   2.560   6.178   5.058
 3821SOL     OW12361   1.358   0.548   0.255
 3821SOL    HW112362   1.286   0.496   0.302
 3821SOL    HW212363   1.405   0.489   0.190
 3822SOL     OW12364   4.593   0.213   2.063
 3822SOL    HW112365   4.660   0.143   2.086
 3822SOL    HW212366   4.606   0.293   2.122
 3823SOL     OW12367   5.801   6.072   6.557
 3823SOL    HW112368   5.835   6.149   6.503
 3823SOL    HW212369   5.727   6.103   6.616
 3824SOL     OW12370   2.285   3.080   0.134
 3824SOL    HW112371   2.272   3.125   0.046
 3824SOL    HW212372   2.308   2.984   0.119
 3825SOL     OW12373   0.915   4.676   5.492
 3825SOL    HW112374   0.980   4.602   5.509
 3825SOL    HW212375   0.892   4.677   5.394
 3826SOL     OW12376   5.529   4.622   4.002
 3826SOL    HW112377   5.584   4.676   3.938
 3826SOL    HW212378   5.590   4.564   4.057
 3827SOL     OW12379   0.605   2.056   0.579
 3827SOL    HW112380   0.610   1.957   0.591
 3827SOL    HW212381   0.692   2.090   0.542
 3828SOL     OW12382   3.492   3.511   3.805
 3828SOL    HW112383   3.415   3.528   3.866
 3828SOL    HW212384   3.572   3.561   3.838
 3829SOL     OW12385   1.055   3.451   1.994
 3829SOL    HW112386   1.134   3.481   2.048
 3829SOL    HW212387   1.007   3.531   1.957
 3830SOL     OW12388   5.754   0.804   3.832
 3830SOL    HW112389   5.846   0.816   3.869
 3830SOL    HW212390   5.706   0.891   3.830
 3831SOL     OW12391   5.061   2.064   3.881
 3831SOL    HW112392   4.975   2.081   3.929
 3831SOL    HW212393   5.042   2.020   3.793
 3832SOL     OW12394   6.817   1.128   3.267
 3832SOL    HW112395   6.889   1.197   3.258
 3832SOL    HW212396   6.749   1.140   3.194
 3833SOL     OW12397   1.976   1.578   5.216
 3833SOL    HW112398   1.967   1.645   5.289
 3833SOL    HW212399   2.003   1.490   5.255
 3834SOL     OW12400   4.992   3.697   0.956
 3834SOL    HW112401   5.040   3.754   0.889
 3834SOL    HW212402   4.949   3.756   1.024
 3835SOL     OW12403   3.855   5.662   4.901
 3835SOL    HW112404   3.838   5.597   4.975
 3835SOL    HW212405   3.949   5.694   4.907
 3836SOL     OW12406   0.250   6.445   5.630
 3836SOL    HW112407   0.289   6.367   5.582
 3836SOL    HW212408   0.151   6.436   5.634
 3837SOL     OW12409   4.380   4.760   5.632
 3837SOL    HW112410   4.306   4.783   5.569
 3837SOL    HW212411   4.380   4.661   5.648
 3838SOL     OW12412   0.986   1.236   4.009
 3838SOL    HW112413   1.061   1.300   4.020
 3838SOL    HW212414   0.901   1.279   4.040
 3839SOL     OW12415   4.949   0.903   3.670
 3839SOL    HW112416   4.887   0.973   3.635
 3839SOL    HW212417   4.926   0.882   3.765
 3840SOL     OW12418   2.700   1.778   6.769
 3840SOL    HW112419   2.713   1.853   6.834
 3840SOL    HW212420   2.642   1.809   6.694
 3841SOL     OW12421   6.041   4.338   4.331
 3841SOL    HW112422   6.051   4.393   4.414
 3841SOL    HW212423   6.084   4.386   4.254
 3842SOL     OW12424   1.291   3.735   4.920
 3842SOL    HW112425   1.346   3.668   4.870
 3842SOL    HW212426   1.223   3.688   4.975
 3843SOL     OW12427   5.065   2.464   0.141
 3843SOL    HW112428   4.967   2.445   0.131
 3843SOL    HW212429   5.117   2.382   0.118
 3844SOL     OW12430   0.240   0.176   1.451
 3844SOL    HW112431   0.261   0.160   1.548
 3844SOL    HW212432   0.160   0.121   1.425
 3845SOL     OW12433   2.134   5.511   0.793
 3845SOL    HW112434   2.211   5.562   0.756
 3845SOL    HW212435   2.091   5.458   0.719
 3846SOL     OW12436   0.924   2.771   2.740
 3846SOL    HW112437   0.912   2.716   2.822
 3846SOL    HW212438   0.914   2.868   2.764
 3847SOL     OW12439   6.658   1.980   6.513
 3847SOL    HW112440   6.640   2.025   6.601
 3847SOL    HW212441   6.576   1.932   6.483
 3848SOL     OW12442   5.665   3.836   2.958
 3848SOL    HW112443   5.694   3.754   2.909
 3848SOL    HW212444   5.570   3.857   2.935
 3849SOL     OW12445   6.800   4.732   6.403
 3849SOL    HW112446   6.806   4.634   6.384
 3849SOL    HW212447   6.792   4.746   6.502
 3850SOL     OW12448   2.831   2.360   1.459
 3850SOL    HW112449   2.856   2.289   1.524
 3850SOL    HW212450   2.909   2.380   1.399
 3851SOL     OW12451   0.458   5.638   2.209
 3851SOL    HW112452   0.515   5.713   2.242
 3851SOL    HW212453   0.510   5.553   2.210
 3852SOL     OW12454   2.233   6.354   5.469
 3852SOL    HW112455   2.140   6.372   5.502
 3852SOL    HW212456   2.289   6.317   5.544
 3853SOL     OW12457   2.688   0.037   3.331
 3853SOL    HW112458   2.655   7.014   3.251
 3853SOL    HW212459   2.785   0.059   3.319
 3854SOL     OW12460   1.775   2.041   2.222
 3854SOL    HW112461   1.709   2.032   2.148
 3854SOL    HW212462   1.804   1.950   2.251
 3855SOL     OW12463   3.424   6.589   0.546
 3855SOL    HW112464   3.494   6.575   0.476
 3855SOL    HW212465   3.398   6.685   0.549
 3856SOL     OW12466   0.259   2.248   6.851
 3856SOL    HW112467   0.280   2.158   6.812
 3856SOL    HW212468   0.318   2.264   6.930
 3857SOL     OW12469   2.274   0.254   6.143
 3857SOL    HW112470   2.279   0.222   6.237
 3857SOL    HW212471   2.234   0.346   6.140
 3858SOL     OW12472   4.237   0.493   4.379
 3858SOL    HW112473   4.195   0.414   4.422
 3858SOL    HW212474   4.336   0.480   4.375
 3859SOL     OW12475   6.371   0.085   2.140
 3859SOL    HW112476   6.274   0.074   2.119
 3859SOL    HW212477   6.410   7.022   2.164
 3860SOL     OW12478   1.256   6.471   4.117
 3860SOL    HW112479   1.280   6.446   4.024
 3860SOL    HW212480   1.216   6.391   4.164
 3861SOL     OW12481   2.955   5.899   1.766
 3861SOL    HW112482   2.875   5.902   1.707
 3861SOL    HW212483   3.037   5.923   1.713
 3862SOL     OW12484   1.979   0.405   3.949
 3862SOL    HW112485   1.915   0.465   3.900
 3862SOL    HW212486   1.927   0.334   3.997
 3863SOL     OW12487   3.758   0.338   0.537
 3863SOL    HW112488   3.819   0.378   0.469
 3863SOL    HW212489   3.666   0.375   0.526
 3864SOL     OW12490   2.368   0.294   5.030
 3864SOL    HW112491   2.358   0.296   4.931
 3864SOL    HW212492   2.465   0.292   5.054
 3865SOL     OW12493   3.576   0.876   0.544
 3865SOL    HW112494   3.623   0.849   0.628
 3865SOL    HW212495   3.596   0.809   0.472
 3866SOL     OW12496   2.560   2.311   6.664
 3866SOL    HW112497   2.647   2.284   6.623
 3866SOL    HW212498   2.519   2.384   6.609
 3867SOL     OW12499   0.546   3.572   1.813
 3867SOL    HW112500   0.603   3.491   1.821
 3867SOL    HW212501   0.516   3.601   1.904
 3868SOL     OW12502   4.533   0.497   0.392
 3868SOL    HW112503   4.485   0.410   0.398
 3868SOL    HW212504   4.610   0.489   0.329
 3869SOL     OW12505   6.023   2.376   3.371
 3869SOL    HW112506   6.069   2.329   3.445
 3869SOL    HW212507   6.019   2.474   3.391
 3870SOL     OW12508   0.447   0.394   4.337
 3870SOL    HW112509   0.526   0.333   4.345
 3870SOL    HW212510   0.363   0.343   4.353
 3871SOL     OW12511   2.760   4.852   4.324
 3871SOL    HW112512   2.696   4.788   4.366
 3871SOL    HW212513   2.785   4.820   4.233
 3872SOL     OW12514   2.755   3.818   5.574
 3872SOL    HW112515   2.836   3.761   5.560
 3872SOL    HW212516   2.673   3.760   5.579
 3873SOL     OW12517   4.828   1.795   0.249
 3873SOL    HW112518   4.836   1.870   0.314
 3873SOL    HW212519   4.762   1.728   0.284
 3874SOL     OW12520   3.128   1.153   6.704
 3874SOL    HW112521   3.128   1.128   6.607
 3874SOL    HW212522   3.130   1.252   6.714
 3875SOL     OW12523   1.463   2.258   5.897
 3875SOL    HW112524   1.417   2.335   5.941
 3875SOL    HW212525   1.482   2.280   5.801
 3876SOL     OW12526   4.113   5.136   1.208
 3876SOL    HW112527   4.142   5.078   1.131
 3876SOL    HW212528   4.141   5.093   1.294
 3877SOL     OW12529   6.624   1.772   0.055
 3877SOL    HW112530   6.623   1.848   0.120
 3877SOL    HW212531   6.535   1.765   0.010
 3878SOL     OW12532   4.495   0.436   4.391
 3878SOL    HW112533   4.502   0.415   4.293
 3878SOL    HW212534   4.520   0.532   4.406
 3879SOL     OW12535   5.372   5.116   0.170
 3879SOL    HW112536   5.426   5.174   0.109
 3879SOL    HW212537   5.408   5.124   0.263
 3880SOL     OW12538   4.544   4.542   4.013
 3880SOL    HW112539   4.617   4.602   3.983
 3880SOL    HW212540   4.488   4.588   4.082
 3881SOL     OW12541   0.736   4.332   0.598
 3881SOL    HW112542   0.831   4.302   0.596
 3881SOL    HW212543   0.709   4.353   0.693
 3882SOL     OW12544   0.849   1.636   0.174
 3882SOL    HW112545   0.899   1.585   0.104
 3882SOL    HW212546   0.905   1.642   0.256
 3883SOL     OW12547   5.189   6.217   2.822
 3883SOL    HW112548   5.155   6.248   2.911
 3883SOL    HW212549   5.282   6.250   2.809
 3884SOL     OW12550   0.834   4.886   1.989
 3884SOL    HW112551   0.845   4.806   1.930
 3884SOL    HW212552   0.877   4.868   2.078
 3885SOL     OW12553   5.566   6.109   3.239
 3885SOL    HW112554   5.660   6.140   3.254
 3885SOL    HW212555   5.506   6.151   3.307
 3886SOL     OW12556   3.968   6.454   5.841
 3886SOL    HW112557   3.979   6.402   5.926
 3886SOL    HW212558   3.871   6.475   5.827
 3887SOL     OW12559   0.257   6.218   2.360
 3887SOL    HW112560   0.350   6.245   2.336
 3887SOL    HW212561   0.201   6.300   2.372
 3888SOL     OW12562   6.071   5.639   3.974
 3888SOL    HW112563   6.117   5.720   3.938
 3888SOL    HW212564   6.116   5.611   4.059
 3889SOL     OW12565   5.083   3.490   6.500
 3889SOL    HW112566   5.103   3.586   6.483
 3889SOL    HW212567   5.001   3.483   6.557
 3890SOL     OW12568   5.451   3.084   4.184
 3890SOL    HW112569   5.464   2.998   4.134
 3890SOL    HW212570   5.509   3.084   4.265
 3891SOL     OW12571   6.232   5.467   3.347
 3891SOL    HW112572   6.171   5.545   3.339
 3891SOL    HW212573   6.197   5.403   3.416
 3892SOL     OW12574   0.187   2.085   1.403
 3892SOL    HW112575   0.101   2.131   1.383
 3892SOL    HW212576   0.199   2.006   1.344
 3893SOL     OW12577   3.992   3.559   1.300
 3893SOL    HW112578   3.924   3.611   1.353
 3893SOL    HW212579   4.078   3.557   1.350
 3894SOL     OW12580   4.516   0.687   6.296
 3894SOL    HW112581   4.490   0.721   6.387
 3894SOL    HW212582   4.601   0.634   6.305
 3895SOL     OW12583   1.922   6.963   4.198
 3895SOL    HW112584   2.021   6.964   4.214
 3895SOL    HW212585   1.879   6.898   4.261
 3896SOL     OW12586   1.377   0.921   6.970
 3896SOL    HW112587   1.398   0.829   7.000
 3896SOL    HW212588   1.455   0.959   6.920
 3897SOL     OW12589   4.625   6.211   1.767
 3897SOL    HW112590   4.575   6.282   1.718
 3897SOL    HW212591   4.616   6.124   1.718
 3898SOL     OW12592   4.363   2.799   6.862
 3898SOL    HW112593   4.309   2.853   6.927
 3898SOL    HW212594   4.380   2.853   6.780
 3899SOL     OW12595   3.690   6.382   6.569
 3899SOL    HW112596   3.658   6.296   6.530
 3899SOL    HW212597   3.698   6.373   6.668
 3900SOL     OW12598   5.207   3.893   3.188
 3900SOL    HW112599   5.249   3.856   3.271
 3900SOL    HW212600   5.192   3.820   3.122
 3901SOL     OW12601   2.661   0.390   0.064
 3901SOL    HW112602   2.646   0.365   6.994
 3901SOL    HW212603   2.758   0.408   0.079
 3902SOL     OW12604   6.251   3.043   2.922
 3902SOL    HW112605   6.295   2.988   2.852
 3902SOL    HW212606   6.176   3.095   2.882
 3903SOL     OW12607   3.477   5.449   6.823
 3903SOL    HW112608   3.385   5.428   6.856
 3903SOL    HW212609   3.541   5.377   6.853
 3904SOL     OW12610   1.151   0.421   0.376
 3904SOL    HW112611   1.077   0.438   0.441
 3904SOL    HW212612   1.112   0.416   0.283
 3905SOL     OW12613   6.934   5.970   5.445
 3905SOL    HW112614   7.023   5.992   5.404
 3905SOL    HW212615   6.936   5.993   5.542
 3906SOL     OW12616   6.056   6.704   5.506
 3906SOL    HW112617   6.127   6.767   5.538
 3906SOL    HW212618   6.072   6.613   5.546
 3907SOL     OW12619   5.902   1.593   4.369
 3907SOL    HW112620   5.842   1.565   4.444
 3907SOL    HW212621   5.847   1.619   4.290
 3908SOL     OW12622   1.658   2.276   5.484
 3908SOL    HW112623   1.693   2.184   5.463
 3908SOL    HW212624   1.731   2.343   5.470
 3909SOL     OW12625   5.883   5.438   3.950
 3909SOL    HW112626   5.934   5.524   3.959
 3909SOL    HW212627   5.806   5.439   4.013
 3910SOL     OW12628   3.599   3.662   2.970
 3910SOL    HW112629   3.594   3.605   3.052
 3910SOL    HW212630   3.581   3.757   2.995
 3911SOL     OW12631   6.093   1.789   5.613
 3911SOL    HW112632   6.040   1.844   5.549
 3911SOL    HW212633   6.047   1.788   5.702
 3912SOL     OW12634   5.582   2.223   6.008
 3912SOL    HW112635   5.554   2.249   6.100
 3912SOL    HW212636   5.656   2.156   6.013
 3913SOL     OW12637   1.075   6.711   0.674
 3913SOL    HW112638   1.147   6.649   0.705
 3913SOL    HW212639   0.994   6.698   0.731
 3914SOL     OW12640   3.163   6.141   6.368
 3914SOL    HW112641   3.175   6.240   6.372
 3914SOL    HW212642   3.252   6.096   6.369
 3915SOL     OW12643   5.795   5.147   1.925
 3915SOL    HW112644   5.823   5.074   1.862
 3915SOL    HW212645   5.876   5.198   1.955
 3916SOL     OW12646   1.384   0.162   3.187
 3916SOL    HW112647   1.325   0.227   3.235
 3916SOL    HW212648   1.334   0.076   3.172
 3917SOL     OW12649   2.054   6.869   0.100
 3917SOL    HW112650   2.131   6.857   0.038
 3917SOL    HW212651   1.969   6.841   0.054
 3918SOL     OW12652   5.079   4.603   1.973
 3918SOL    HW112653   5.071   4.567   1.880
 3918SOL    HW212654   5.115   4.696   1.971
 3919SOL     OW12655   3.391   6.840   0.416
 3919SOL    HW112656   3.303   6.804   0.385
 3919SOL    HW212657   3.440   6.880   0.339
 3920SOL     OW12658   2.155   2.170   6.938
 3920SOL    HW112659   2.201   2.083   6.955
 3920SOL    HW212660   2.204   2.244   6.983
 3921SOL     OW12661   1.269   3.586   1.733
 3921SOL    HW112662   1.345   3.645   1.761
 3921SOL    HW212663   1.185   3.616   1.777
 3922SOL     OW12664   0.999   4.574   1.246
 3922SOL    HW112665   1.035   4.665   1.269
 3922SOL    HW212666   0.966   4.530   1.330
 3923SOL     OW12667   0.333   0.412   6.863
 3923SOL    HW112668   0.299   0.501   6.892
 3923SOL    HW212669   0.320   0.346   6.937
 3924SOL     OW12670   6.697   4.468   4.500
 3924SOL    HW112671   6.757   4.421   4.564
 3924SOL    HW212672   6.623   4.406   4.471
 3925SOL     OW12673   1.885   5.278   2.157
 3925SOL    HW112674   1.960   5.321   2.207
 3925SOL    HW212675   1.865   5.330   2.075
 3926SOL     OW12676   4.654   4.254   2.314
 3926SOL    HW112677   4.584   4.228   2.380
 3926SOL    HW212678   4.619   4.239   2.221
 3927SOL     OW12679   0.420   3.366   6.039
 3927SOL    HW112680   0.512   3.353   6.076
 3927SOL    HW212681   0.380   3.276   6.018
 3928SOL     OW12682   5.435   5.402   6.722
 3928SOL    HW112683   5.506   5.472   6.733
 3928SOL    HW212684   5.475   5.321   6.680
 3929SOL     OW12685   0.896   1.306   5.142
 3929SOL    HW112686   0.843   1.234   5.186
 3929SOL    HW212687   0.860   1.395   5.169
 3930SOL     OW12688   2.355   1.350   3.500
 3930SOL    HW112689   2.398   1.356   3.410
 3930SOL    HW212690   2.363   1.438   3.546
 3931SOL     OW12691   5.826   1.988   1.229
 3931SOL    HW112692   5.884   2.023   1.303
 3931SOL    HW212693   5.868   2.009   1.141
 3932SOL     OW12694   0.969   2.198   4.742
 3932SOL    HW112695   0.980   2.185   4.643
 3932SOL    HW212696   0.908   2.128   4.778
 3933SOL     OW12697   1.075   6.534   6.313
 3933SOL    HW112698   1.036   6.575   6.231
 3933SOL    HW212699   1.173   6.520   6.300
 3934SOL     OW12700   5.759   0.555   6.198
 3934SOL    HW112701   5.845   0.522   6.239
 3934SOL    HW212702   5.770   0.651   6.171
 3935SOL     OW12703   4.717   0.767   0.866
 3935SOL    HW112704   4.638   0.721   0.906
 3935SOL    HW212705   4.768   0.702   0.809
 3936SOL     OW12706   6.876   5.509   3.633
 3936SOL    HW112707   6.831   5.572   3.570
 3936SOL    HW212708   6.807   5.469   3.694
 3937SOL     OW12709   0.572   1.118   2.766
 3937SOL    HW112710   0.658   1.101   2.717
 3937SOL    HW212711   0.568   1.214   2.794
 3938SOL     OW12712   0.108   1.448   2.850
 3938SOL    HW112713   0.058   1.364   2.831
 3938SOL    HW212714   0.201   1.425   2.878
 3939SOL     OW12715   2.968   1.873   2.047
 3939SOL    HW112716   2.963   1.941   1.974
 3939SOL    HW212717   2.881   1.869   2.095
 3940SOL     OW12718   3.556   3.851   1.198
 3940SOL    HW112719   3.635   3.836   1.258
 3940SOL    HW212720   3.512   3.764   1.179
 3941SOL     OW12721   3.971   4.274   6.066
 3941SOL    HW112722   3.918   4.205   6.115
 3941SOL    HW212723   3.919   4.306   5.986
 3942SOL     OW12724   6.533   6.306   6.433
 3942SOL    HW112725   6.561   6.319   6.528
 3942SOL    HW212726   6.605   6.341   6.372
 3943SOL     OW12727   0.641   3.764   4.712
 3943SOL    HW112728   0.638   3.763   4.812
 3943SOL    HW212729   0.715   3.704   4.681
 3944SOL     OW12730   5.190   2.693   4.587
 3944SOL    HW112731   5.233   2.649   4.508
 3944SOL    HW212732   5.146   2.778   4.559
 3945SOL     OW12733   6.837   1.050   1.344
 3945SOL    HW112734   6.751   1.007   1.316
 3945SOL    HW212735   6.907   1.034   1.275
 3946SOL     OW12736   4.520   4.658   3.355
 3946SOL    HW112737   4.445   4.645   3.289
 3946SOL    HW212738   4.595   4.705   3.310
 3947SOL     OW12739   5.608   5.640   0.272
 3947SOL    HW112740   5.634   5.734   0.248
 3947SOL    HW212741   5.550   5.641   0.353
 3948SOL     OW12742   5.784   4.794   1.411
 3948SOL    HW112743   5.847   4.725   1.446
 3948SOL    HW212744   5.690   4.768   1.432
 3949SOL     OW12745   4.529   5.938   3.446
 3949SOL    HW112746   4.532   6.031   3.410
 3949SOL    HW212747   4.492   5.877   3.376
 3950SOL     OW12748   1.891   5.602   1.108
 3950SOL    HW112749   1.947   5.614   1.026
 3950SOL    HW212750   1.820   5.534   1.089
 3951SOL     OW12751   5.532   0.609   1.756
 3951SOL    HW112752   5.602   0.538   1.754
 3951SOL    HW212753   5.447   0.572   1.795
 3952SOL     OW12754   6.974   2.723   0.850
 3952SOL    HW112755   6.995   2.741   0.946
 3952SOL    HW212756   6.893   2.775   0.823
 3953SOL     OW12757   3.924   3.959   1.891
 3953SOL    HW112758   3.997   4.018   1.925
 3953SOL    HW212759   3.877   3.917   1.968
 3954SOL     OW12760   3.839   4.516   5.590
 3954SOL    HW112761   3.909   4.573   5.632
 3954SOL    HW212762   3.815   4.553   5.500
 3955SOL     OW12763   3.417   0.497   5.436
 3955SOL    HW112764   3.351   0.481   5.362
 3955SOL    HW212765   3.508   0.509   5.397
 3956SOL     OW12766   1.132   1.001   2.011
 3956SOL    HW112767   1.105   0.908   2.034
 3956SOL    HW212768   1.212   1.027   2.065
 3957SOL     OW12769   3.691   0.236   4.567
 3957SOL    HW112770   3.596   0.220   4.596
 3957SOL    HW212771   3.728   0.154   4.524
 3958SOL     OW12772   6.198   1.614   5.205
 3958SOL    HW112773   6.180   1.713   5.199
 3958SOL    HW212774   6.278   1.591   5.149
 3959SOL     OW12775   4.848   5.183   0.573
 3959SOL    HW112776   4.900   5.247   0.517
 3959SOL    HW212777   4.781   5.135   0.515
 3960SOL     OW12778   5.471   2.125   4.794
 3960SOL    HW112779   5.480   2.081   4.704
 3960SOL    HW212780   5.412   2.205   4.786
 3961SOL     OW12781   5.692   6.546   3.579
 3961SOL    HW112782   5.700   6.615   3.651
 3961SOL    HW212783   5.762   6.561   3.510
 3962SOL     OW12784   6.920   5.557   5.393
 3962SOL    HW112785   6.903   5.584   5.488
 3962SOL    HW212786   6.908   5.458   5.385
 3963SOL     OW12787   4.896   6.760   1.730
 3963SOL    HW112788   4.828   6.813   1.680
 3963SOL    HW212789   4.864   6.745   1.823
 3964SOL     OW12790   4.896   3.765   3.260
 3964SOL    HW112791   4.838   3.690   3.292
 3964SOL    HW212792   4.934   3.814   3.339
 3965SOL     OW12793   5.112   3.722   4.232
 3965SOL    HW112794   5.017   3.752   4.237
 3965SOL    HW212795   5.143   3.726   4.137
 3966SOL     OW12796   2.676   5.766   6.717
 3966SOL    HW112797   2.760   5.789   6.767
 3966SOL    HW212798   2.678   5.810   6.627
 3967SOL     OW12799   2.287   4.931   2.799
 3967SOL    HW112800   2.328   4.983   2.874
 3967SOL    HW212801   2.359   4.880   2.752
 3968SOL     OW12802   4.465   0.647   0.922
 3968SOL    HW112803   4.379   0.696   0.909
 3968SOL    HW212804   4.482   0.634   1.020
 3969SOL     OW12805   2.014   5.969   2.027
 3969SOL    HW112806   1.951   5.980   1.951
 3969SOL    HW212807   1.974   5.909   2.096
 3970SOL     OW12808   5.201   6.471   2.451
 3970SOL    HW112809   5.248   6.391   2.415
 3970SOL    HW212810   5.179   6.534   2.377
 3971SOL     OW12811   2.832   5.526   4.082
 3971SOL    HW112812   2.823   5.604   4.145
 3971SOL    HW212813   2.824   5.558   3.988
 3972SOL     OW12814   2.135   4.267   0.057
 3972SOL    HW112815   2.116   4.179   0.100
 3972SOL    HW212816   2.231   4.291   0.070
 3973SOL     OW12817   1.071   5.732   0.675
 3973SOL    HW112818   1.122   5.800   0.621
 3973SOL    HW212819   1.025   5.669   0.613
 3974SOL     OW12820   2.224   0.506   6.029
 3974SOL    HW112821   2.220   0.606   6.035
 3974SOL    HW212822   2.316   0.478   6.003
 3975SOL     OW12823   5.271   2.206   6.332
 3975SOL    HW112824   5.288   2.241   6.240
 3975SOL    HW212825   5.173   2.188   6.343
 3976SOL     OW12826   1.788   5.468   2.494
 3976SOL    HW112827   1.876   5.439   2.455
 3976SOL    HW212828   1.724   5.490   2.420
 3977SOL     OW12829   0.528   3.722   6.485
 3977SOL    HW112830   0.539   3.630   6.448
 3977SOL    HW212831   0.431   3.746   6.486
 3978SOL     OW12832   6.942   4.542   4.019
 3978SOL    HW112833   6.890   4.501   3.943
 3978SOL    HW212834   6.909   4.504   4.105
 3979SOL     OW12835   3.367   0.297   6.158
 3979SOL    HW112836   3.463   0.296   6.187
 3979SOL    HW212837   3.345   0.387   6.120
 3980SOL     OW12838   5.772   6.195   6.247
 3980SOL    HW112839   5.863   6.237   6.253
 3980SOL    HW212840   5.781   6.100   6.217
 3981SOL     OW12841   4.859   6.748   0.645
 3981SOL    HW112842   4.945   6.725   0.690
 3981SOL    HW212843   4.814   6.822   0.696
 3982SOL     OW12844   2.727   6.878   2.577
 3982SOL    HW112845   2.661   6.951   2.556
 3982SOL    HW212846   2.730   6.864   2.676
 3983SOL     OW12847   4.368   5.981   3.658
 3983SOL    HW112848   4.277   6.016   3.635
 3983SOL    HW212849   4.413   5.949   3.575
 3984SOL     OW12850   6.411   2.176   2.730
 3984SOL    HW112851   6.403   2.136   2.638
 3984SOL    HW212852   6.457   2.265   2.723
 3985SOL     OW12853   3.121   5.793   6.169
 3985SOL    HW112854   3.112   5.707   6.118
 3985SOL    HW212855   3.066   5.864   6.125
 3986SOL     OW12856   5.295   1.139   2.075
 3986SOL    HW112857   5.353   1.181   2.144
 3986SOL    HW212858   5.231   1.207   2.039
 3987SOL     OW12859   3.183   4.976   5.340
 3987SOL    HW112860   3.156   4.880   5.348
 3987SOL    HW212861   3.109   5.028   5.298
 3988SOL     OW12862   4.716   5.577   0.145
 3988SOL    HW112863   4.686   5.671   0.128
 3988SOL    HW212864   4.672   5.542   0.228
 3989SOL     OW12865   6.611   2.100   6.769
 3989SOL    HW112866   6.546   2.176   6.770
 3989SOL    HW212867   6.704   2.135   6.785
 3990SOL     OW12868   5.277   2.535   1.873
 3990SOL    HW112869   5.247   2.596   1.947
 3990SOL    HW212870   5.375   2.546   1.860
 3991SOL     OW12871   0.231   0.544   3.346
 3991SOL    HW112872   0.322   0.560   3.382
 3991SOL    HW212873   0.231   0.461   3.289
 3992SOL     OW12874   3.027   2.642   1.398
 3992SOL    HW112875   3.112   2.589   1.399
 3992SOL    HW212876   3.001   2.664   1.492
 3993SOL     OW12877   1.386   3.342   1.736
 3993SOL    HW112878   1.307   3.281   1.748
 3993SOL    HW212879   1.356   3.437   1.744
 3994SOL     OW12880   2.908   0.017   5.420
 3994SOL    HW112881   3.003   0.017   5.388
 3994SOL    HW212882   2.849   0.057   5.349
 3995SOL     OW12883   1.325   2.917   4.900
 3995SOL    HW112884   1.422   2.934   4.917
 3995SOL    HW212885   1.314   2.866   4.815
 3996SOL     OW12886   0.339   6.610   5.007
 3996SOL    HW112887   0.406   6.537   5.003
 3996SOL    HW212888   0.304   6.619   5.100
 3997SOL     OW12889   5.535   0.605   4.671
 3997SOL    HW112890   5.609   0.540   4.652
 3997SOL    HW212891   5.569   0.675   4.734
 3998SOL     OW12892   4.257   2.208   3.725
 3998SOL    HW112893   4.309   2.257   3.795
 3998SOL    HW212894   4.196   2.142   3.769
 3999SOL     OW12895   6.297   1.842   4.985
 3999SOL    HW112896   6.342   1.812   4.901
 3999SOL    HW212897   6.360   1.830   5.062
 4000SOL     OW12898   4.038   0.086   3.516
 4000SOL    HW112899   3.981   0.033   3.579
 4000SOL    HW212900   4.134   0.080   3.544
 4001SOL     OW12901   1.090   2.476   3.097
 4001SOL    HW112902   1.182   2.447   3.072
 4001SOL    HW212903   1.035   2.486   3.014
 4002SOL     OW12904   1.971   3.647   1.968
 4002SOL    HW112905   1.917   3.583   1.913
 4002SOL    HW212906   2.050   3.599   2.007
 4003SOL     OW12907   3.468   0.645   4.620
 4003SOL    HW112908   3.470   0.739   4.655
 4003SOL    HW212909   3.494   0.645   4.523
 4004SOL     OW12910   6.555   1.845   5.104
 4004SOL    HW112911   6.565   1.752   5.068
 4004SOL    HW212912   6.518   1.841   5.197
 4005SOL     OW12913   5.529   4.958   6.048
 4005SOL    HW112914   5.603   4.890   6.048
 4005SOL    HW212915   5.544   5.023   5.974
 4006SOL     OW12916   3.730   5.659   2.055
 4006SOL    HW112917   3.723   5.669   2.154
 4006SOL    HW212918   3.820   5.621   2.031
 4007SOL     OW12919   6.666   2.276   6.464
 4007SOL    HW112920   6.664   2.176   6.475
 4007SOL    HW212921   6.688   2.318   6.552
 4008SOL     OW12922   2.397   2.382   5.439
 4008SOL    HW112923   2.394   2.469   5.488
 4008SOL    HW212924   2.481   2.333   5.462
 4009SOL     OW12925   3.996   3.587   2.387
 4009SOL    HW112926   4.082   3.577   2.438
 4009SOL    HW212927   3.934   3.513   2.411
 4010SOL     OW12928   2.221   2.945   6.684
 4010SOL    HW112929   2.220   3.031   6.734
 4010SOL    HW212930   2.301   2.891   6.710
 4011SOL     OW12931   1.031   2.304   1.061
 4011SOL    HW112932   0.964   2.324   1.133
 4011SOL    HW212933   0.997   2.230   1.003
 4012SOL     OW12934   6.356   3.749   3.665
 4012SOL    HW112935   6.384   3.836   3.706
 4012SOL    HW212936   6.404   3.674   3.709
 4013SOL     OW12937   4.646   2.714   3.486
 4013SOL    HW112938   4.624   2.616   3.484
 4013SOL    HW212939   4.623   2.755   3.398
 4014SOL     OW12940   5.421   5.795   2.718
 4014SOL    HW112941   5.392   5.711   2.763
 4014SOL    HW212942   5.373   5.873   2.758
 4015SOL     OW12943   5.042   3.792   6.500
 4015SOL    HW112944   5.109   3.845   6.449
 4015SOL    HW212945   4.954   3.795   6.453
 4016SOL     OW12946   3.143   6.618   5.370
 4016SOL    HW112947   3.175   6.525   5.387
 4016SOL    HW212948   3.193   6.682   5.428
 4017SOL     OW12949   6.499   6.024   6.952
 4017SOL    HW112950   6.531   6.026   6.857
 4017SOL    HW212951   6.449   5.938   6.969
 4018SOL     OW12952   2.836   5.723   0.920
 4018SOL    HW112953   2.801   5.793   0.982
 4018SOL    HW212954   2.791   5.636   0.939
 4019SOL     OW12955   5.522   4.946   3.497
 4019SOL    HW112956   5.482   5.016   3.555
 4019SOL    HW212957   5.579   4.989   3.427
 4020SOL     OW12958   5.288   1.853   5.331
 4020SOL    HW112959   5.365   1.790   5.326
 4020SOL    HW212960   5.320   1.947   5.320
 4021SOL     OW12961   3.736   4.503   6.562
 4021SOL    HW112962   3.705   4.418   6.606
 4021SOL    HW212963   3.674   4.525   6.487
 4022SOL     OW12964   5.181   0.424   1.238
 4022SOL    HW112965   5.151   0.433   1.143
 4022SOL    HW212966   5.114   0.467   1.298
 4023SOL     OW12967   6.823   0.654   5.919
 4023SOL    HW112968   6.836   0.555   5.914
 4023SOL    HW212969   6.760   0.682   5.846
 4024SOL     OW12970   3.549   5.043   4.297
 4024SOL    HW112971   3.532   5.026   4.394
 4024SOL    HW212972   3.646   5.065   4.283
 4025SOL     OW12973   1.788   4.484   2.692
 4025SOL    HW112974   1.745   4.411   2.638
 4025SOL    HW212975   1.801   4.452   2.786
 4026SOL     OW12976   5.251   6.482   4.163
 4026SOL    HW112977   5.311   6.435   4.229
 4026SOL    HW212978   5.290   6.473   4.071
 4027SOL     OW12979   4.367   5.255   1.481
 4027SOL    HW112980   4.352   5.315   1.559
 4027SOL    HW212981   4.465   5.234   1.474
 4028SOL     OW12982   2.723   6.823   3.666
 4028SOL    HW112983   2.725   6.890   3.592
 4028SOL    HW212984   2.729   6.870   3.754
 4029SOL     OW12985   2.273   4.119   4.274
 4029SOL    HW112986   2.198   4.186   4.277
 4029SOL    HW212987   2.258   4.049   4.344
 4030SOL     OW12988   0.992   1.518   6.177
 4030SOL    HW112989   0.944   1.547   6.260
 4030SOL    HW212990   0.984   1.590   6.108
 4031SOL     OW12991   4.640   5.589   4.974
 4031SOL    HW112992   4.654   5.513   4.910
 4031SOL    HW212993   4.717   5.653   4.967
 4032SOL     OW12994   5.116   6.985   4.602
 4032SOL    HW112995   5.025   7.015   4.631
 4032SOL    HW212996   5.172   0.038   4.581
 4033SOL     OW12997   3.152   3.784   5.336
 4033SOL    HW112998   3.224   3.718   5.312
 4033SOL    HW212999   3.094   3.799   5.256
 4034SOL     OW13000   6.407   2.229   3.929
 4034SOL    HW113001   6.444   2.276   3.849
 4034SOL    HW213002   6.461   2.146   3.947
 4035SOL     OW13003   0.307   5.466   0.610
 4035SOL    HW113004   0.398   5.485   0.572
 4035SOL    HW213005   0.315   5.456   0.709
 4036SOL     OW13006   6.608   6.528   3.334
 4036SOL    HW113007   6.517   6.549   3.369
 4036SOL    HW213008   6.611   6.547   3.236
 4037SOL     OW13009   6.673   4.486   6.014
 4037SOL    HW113010   6.689   4.584   6.003
 4037SOL    HW213011   6.760   4.438   6.019
 4038SOL     OW13012   6.426   4.683   4.052
 4038SOL    HW113013   6.466   4.751   3.990
 4038SOL    HW213014   6.490   4.663   4.126
 4039SOL     OW13015   4.475   5.952   0.839
 4039SOL    HW113016   4.464   5.870   0.895
 4039SOL    HW213017   4.543   6.012   0.881
 4040SOL     OW13018   3.728   6.111   1.236
 4040SOL    HW113019   3.821   6.147   1.225
 4040SOL    HW213020   3.677   6.171   1.298
 4041SOL     OW13021   1.325   0.039   3.510
 4041SOL    HW113022   1.281   0.090   3.584
 4041SOL    HW213023   1.361   0.103   3.442
 4042SOL     OW13024   6.304   5.182   2.316
 4042SOL    HW113025   6.309   5.089   2.279
 4042SOL    HW213026   6.341   5.183   2.410
 4043SOL     OW13027   6.468   3.470   1.908
 4043SOL    HW113028   6.453   3.500   1.814
 4043SOL    HW213029   6.557   3.505   1.939
 4044SOL     OW13030   6.811   6.024   3.750
 4044SOL    HW113031   6.800   6.095   3.680
 4044SOL    HW213032   6.743   6.037   3.822
 4045SOL     OW13033   2.074   4.786   5.557
 4045SOL    HW113034   2.111   4.864   5.608
 4045SOL    HW213035   2.110   4.701   5.595
 4046SOL     OW13036   0.865   2.944   0.843
 4046SOL    HW113037   0.873   2.890   0.928
 4046SOL    HW213038   0.805   2.896   0.779
 4047SOL     OW13039   3.005   4.136   1.719
 4047SOL    HW113040   3.091   4.125   1.770
 4047SOL    HW213041   2.932   4.086   1.766
 4048SOL     OW13042   4.769   1.831   0.792
 4048SOL    HW113043   4.857   1.788   0.807
 4048SOL    HW213044   4.749   1.895   0.866
 4049SOL     OW13045   6.736   1.020   5.859
 4049SOL    HW113046   6.818   0.968   5.881
 4049SOL    HW213047   6.751   1.071   5.774
 4050SOL     OW13048   1.987   0.346   1.499
 4050SOL    HW113049   1.973   0.268   1.559
 4050SOL    HW213050   2.081   0.346   1.465
 4051SOL     OW13051   1.636   4.176   0.891
 4051SOL    HW113052   1.653   4.274   0.896
 4051SOL    HW213053   1.704   4.127   0.945
 4052SOL     OW13054   1.535   6.230   1.687
 4052SOL    HW113055   1.503   6.136   1.697
 4052SOL    HW213056   1.528   6.258   1.591
 4053SOL     OW13057   3.010   4.871   3.132
 4053SOL    HW113058   2.996   4.900   3.227
 4053SOL    HW213059   3.108   4.861   3.115
 4054SOL     OW13060   5.096   1.883   6.907
 4054SOL    HW113061   5.094   1.941   6.825
 4054SOL    HW213062   5.186   1.888   6.949
 4055SOL     OW13063   4.188   2.432   0.601
 4055SOL    HW113064   4.243   2.350   0.584
 4055SOL    HW213065   4.219   2.506   0.542
 4056SOL     OW13066   3.886   3.114   1.062
 4056SOL    HW113067   3.840   3.174   0.996
 4056SOL    HW213068   3.819   3.055   1.106
 4057SOL     OW13069   6.404   2.467   6.984
 4057SOL    HW113070   6.309   2.482   7.012
 4057SOL    HW213071   6.459   2.443   0.038
 4058SOL     OW13072   1.718   0.829   4.947
 4058SOL    HW113073   1.690   0.742   4.906
 4058SOL    HW213074   1.722   0.900   4.876
 4059SOL     OW13075   6.265   1.337   4.937
 4059SOL    HW113076   6.316   1.294   5.012
 4059SOL    HW213077   6.168   1.338   4.960
 4060SOL     OW13078   3.790   6.170   4.798
 4060SOL    HW113079   3.858   6.224   4.847
 4060SOL    HW213080   3.773   6.084   4.848
 4061SOL     OW13081   2.688   3.078   1.667
 4061SOL    HW113082   2.671   2.983   1.695
 4061SOL    HW213083   2.630   3.101   1.589
 4062SOL     OW13084   3.602   6.473   2.938
 4062SOL    HW113085   3.653   6.527   2.870
 4062SOL    HW213086   3.637   6.492   3.029
 4063SOL     OW13087   2.409   5.469   5.998
 4063SOL    HW113088   2.475   5.504   5.931
 4063SOL    HW213089   2.341   5.539   6.017
 4064SOL     OW13090   6.058   0.307   4.478
 4064SOL    HW113091   6.092   0.401   4.481
 4064SOL    HW213092   5.970   0.304   4.432
 4065SOL     OW13093   6.130   4.988   0.092
 4065SOL    HW113094   6.124   5.079   0.133
 4065SOL    HW213095   6.221   4.950   0.108
 4066SOL     OW13096   6.390   4.855   2.156
 4066SOL    HW113097   6.410   4.762   2.187
 4066SOL    HW213098   6.296   4.878   2.180
 4067SOL     OW13099   6.141   0.775   1.591
 4067SOL    HW113100   6.110   0.814   1.504
 4067SOL    HW213101   6.235   0.805   1.609
 4068SOL     OW13102   5.685   1.188   4.720
 4068SOL    HW113103   5.714   1.196   4.624
 4068SOL    HW213104   5.585   1.189   4.724
 4069SOL     OW13105   6.826   5.903   1.277
 4069SOL    HW113106   6.882   5.916   1.360
 4069SOL    HW213107   6.883   5.864   1.205
 4070SOL     OW13108   0.505   3.709   2.853
 4070SOL    HW113109   0.441   3.781   2.881
 4070SOL    HW213110   0.562   3.683   2.931
 4071SOL     OW13111   2.463   0.569   3.438
 4071SOL    HW113112   2.475   0.662   3.404
 4071SOL    HW213113   2.526   0.553   3.514
 4072SOL     OW13114   0.848   0.248   4.489
 4072SOL    HW113115   0.770   0.208   4.441
 4072SOL    HW213116   0.929   0.192   4.475
 4073SOL     OW13117   3.209   5.213   1.479
 4073SOL    HW113118   3.134   5.200   1.544
 4073SOL    HW213119   3.281   5.147   1.500
 4074SOL     OW13120   0.709   2.837   0.654
 4074SOL    HW113121   0.723   2.861   0.557
 4074SOL    HW213122   0.725   2.739   0.666
 4075SOL     OW13123   4.900   0.833   3.924
 4075SOL    HW113124   4.921   0.741   3.956
 4075SOL    HW213125   4.965   0.898   3.965
 4076SOL     OW13126   1.438   2.296   3.255
 4076SOL    HW113127   1.453   2.393   3.277
 4076SOL    HW213128   1.523   2.256   3.223
 4077SOL     OW13129   2.878   1.431   0.987
 4077SOL    HW113130   2.954   1.479   0.943
 4077SOL    HW213131   2.817   1.498   1.030
 4078SOL     OW13132   5.246   4.195   2.465
 4078SOL    HW113133   5.290   4.108   2.489
 4078SOL    HW213134   5.170   4.212   2.527
 4079SOL     OW13135   6.501   0.788   4.183
 4079SOL    HW113136   6.592   0.822   4.160
 4079SOL    HW213137   6.432   0.856   4.160
 4080SOL     OW13138   3.602   2.915   2.493
 4080SOL    HW113139   3.579   2.841   2.431
 4080SOL    HW213140   3.520   2.971   2.510
 4081SOL     OW13141   2.488   2.496   6.429
 4081SOL    HW113142   2.470   2.593   6.420
 4081SOL    HW213143   2.555   2.468   6.360
 4082SOL     OW13144   1.444   2.406   5.630
 4082SOL    HW113145   1.468   2.502   5.624
 4082SOL    HW213146   1.517   2.350   5.591
 4083SOL     OW13147   6.065   5.535   2.954
 4083SOL    HW113148   6.134   5.498   2.893
 4083SOL    HW213149   6.105   5.608   3.010
 4084SOL     OW13150   4.681   0.410   2.656
 4084SOL    HW113151   4.717   0.429   2.748
 4084SOL    HW213152   4.626   0.488   2.626
 4085SOL     OW13153   3.145   4.902   2.568
 4085SOL    HW113154   3.135   4.813   2.525
 4085SOL    HW213155   3.240   4.932   2.563
 4086SOL     OW13156   6.364   4.996   4.899
 4086SOL    HW113157   6.349   5.044   4.986
 4086SOL    HW213158   6.384   4.900   4.918
 4087SOL     OW13159   1.880   0.269   2.096
 4087SOL    HW113160   1.943   0.345   2.113
 4087SOL    HW213161   1.797   0.282   2.149
 4088SOL     OW13162   0.087   2.102   5.712
 4088SOL    HW113163   0.121   2.008   5.718
 4088SOL    HW213164   0.142   2.154   5.647
 4089SOL     OW13165   0.865   0.859   2.649
 4089SOL    HW113166   0.801   0.785   2.669
 4089SOL    HW213167   0.862   0.927   2.722
 4090SOL     OW13168   2.583   2.445   5.757
 4090SOL    HW113169   2.493   2.417   5.723
 4090SOL    HW213170   2.627   2.368   5.803
 4091SOL     OW13171   3.270   5.673   1.951
 4091SOL    HW113172   3.177   5.663   1.916
 4091SOL    HW213173   3.329   5.709   1.878
 4092SOL     OW13174   4.694   2.407   5.843
 4092SOL    HW113175   4.650   2.364   5.763
 4092SOL    HW213176   4.728   2.335   5.904
 4093SOL     OW13177   5.516   4.243   3.594
 4093SOL    HW113178   5.580   4.167   3.596
 4093SOL    HW213179   5.506   4.281   3.686
 4094SOL     OW13180   0.384   6.005   0.032
 4094SOL    HW113181   0.449   6.073   0.065
 4094SOL    HW213182   0.423   5.914   0.043
 4095SOL     OW13183   1.129   5.178   0.867
 4095SOL    HW113184   1.130   5.175   0.767
 4095SOL    HW213185   1.058   5.116   0.901
 4096SOL     OW13186   0.704   0.609   6.698
 4096SOL    HW113187   0.786   0.630   6.751
 4096SOL    HW213188   0.716   0.521   6.652
 4097SOL     OW13189   6.466   4.001   4.959
 4097SOL    HW113190   6.467   4.060   4.879
 4097SOL    HW213191   6.430   3.911   4.934
 4098SOL     OW13192   0.871   5.271   1.811
 4098SOL    HW113193   0.817   5.209   1.868
 4098SOL    HW213194   0.865   5.364   1.848
 4099SOL     OW13195   5.887   4.089   5.465
 4099SOL    HW113196   5.941   4.025   5.519
 4099SOL    HW213197   5.916   4.183   5.485
 4100SOL     OW13198   1.882   1.849   2.813
 4100SOL    HW113199   1.872   1.946   2.837
 4100SOL    HW213200   1.955   1.808   2.867
 4101SOL     OW13201   6.575   5.538   6.938
 4101SOL    HW113202   6.648   5.597   6.974
 4101SOL    HW213203   6.578   5.539   6.838
 4102SOL     OW13204   1.179   5.981   0.585
 4102SOL    HW113205   1.131   5.991   0.498
 4102SOL    HW213206   1.269   6.024   0.578
 4103SOL     OW13207   2.047   6.680   3.183
 4103SOL    HW113208   2.096   6.645   3.263
 4103SOL    HW213209   2.112   6.696   3.109
 4104SOL     OW13210   1.951   5.988   5.128
 4104SOL    HW113211   1.976   5.920   5.197
 4104SOL    HW213212   2.013   5.980   5.050
 4105SOL     OW13213   3.823   0.625   2.478
 4105SOL    HW113214   3.777   0.703   2.519
 4105SOL    HW213215   3.873   0.575   2.550
 4106SOL     OW13216   1.157   0.723   2.686
 4106SOL    HW113217   1.080   0.787   2.695
 4106SOL    HW213218   1.140   0.643   2.745
 4107SOL     OW13219   1.482   0.978   1.244
 4107SOL    HW113220   1.523   0.902   1.193
 4107SOL    HW213221   1.548   1.014   1.309
 4108SOL     OW13222   6.191   6.072   5.975
 4108SOL    HW113223   6.225   6.032   5.891
 4108SOL    HW213224   6.259   6.059   6.048
 4109SOL     OW13225   5.314   6.118   4.083
 4109SOL    HW113226   5.284   6.123   3.987
 4109SOL    HW213227   5.242   6.152   4.143
 4110SOL     OW13228   5.217   2.773   0.531
 4110SOL    HW113229   5.168   2.697   0.487
 4110SOL    HW213230   5.266   2.826   0.462
 4111SOL     OW13231   5.774   4.590   4.409
 4111SOL    HW113232   5.719   4.671   4.391
 4111SOL    HW213233   5.722   4.527   4.468
 4112SOL     OW13234   4.065   5.974   4.311
 4112SOL    HW113235   4.139   6.003   4.371
 4112SOL    HW213236   4.042   5.879   4.329
 4113SOL     OW13237   4.169   5.367   4.739
 4113SOL    HW113238   4.076   5.330   4.738
 4113SOL    HW213239   4.214   5.347   4.652
 4114SOL     OW13240   0.141   0.843   1.495
 4114SOL    HW113241   0.125   0.859   1.592
 4114SOL    HW213242   0.061   0.798   1.455
 4115SOL     OW13243   4.644   5.767   3.713
 4115SOL    HW113244   4.636   5.823   3.630
 4115SOL    HW213245   4.558   5.771   3.764
 4116SOL     OW13246   5.038   3.468   2.863
 4116SOL    HW113247   5.100   3.406   2.912
 4116SOL    HW213248   4.988   3.416   2.794
 4117SOL     OW13249   1.301   1.115   3.869
 4117SOL    HW113250   1.293   1.106   3.770
 4117SOL    HW213251   1.336   1.206   3.891
 4118SOL     OW13252   0.848   6.631   0.370
 4118SOL    HW113253   0.807   6.542   0.387
 4118SOL    HW213254   0.946   6.620   0.351
 4119SOL     OW13255   0.519   0.622   4.447
 4119SOL    HW113256   0.468   0.643   4.531
 4119SOL    HW213257   0.490   0.532   4.412
 4120SOL     OW13258   2.421   1.262   6.260
 4120SOL    HW113259   2.486   1.222   6.324
 4120SOL    HW213260   2.380   1.344   6.300
 4121SOL     OW13261   6.849   0.386   2.308
 4121SOL    HW113262   6.861   0.430   2.397
 4121SOL    HW213263   6.756   0.403   2.275
 4122SOL     OW13264   0.766   4.748   2.920
 4122SOL    HW113265   0.750   4.671   2.858
 4122SOL    HW213266   0.734   4.725   3.012
 4123SOL     OW13267   5.298   4.621   1.231
 4123SOL    HW113268   5.283   4.526   1.258
 4123SOL    HW213269   5.297   4.679   1.313
 4124SOL     OW13270   6.507   6.122   0.207
 4124SOL    HW113271   6.428   6.070   0.239
 4124SOL    HW213272   6.528   6.094   0.113
 4125SOL     OW13273   6.449   2.846   0.333
 4125SOL    HW113274   6.417   2.769   0.388
 4125SOL    HW213275   6.445   2.821   0.236
 4126SOL     OW13276   0.650   3.465   3.930
 4126SOL    HW113277   0.700   3.388   3.968
 4126SOL    HW213278   0.563   3.475   3.978
 4127SOL     OW13279   4.916   2.530   4.010
 4127SOL    HW113280   4.872   2.461   4.067
 4127SOL    HW213281   4.851   2.605   3.994
 4128SOL     OW13282   6.765   2.852   6.519
 4128SOL    HW113283   6.736   2.946   6.537
 4128SOL    HW213284   6.755   2.798   6.602
 4129SOL     OW13285   3.413   1.922   1.162
 4129SOL    HW113286   3.503   1.940   1.200
 4129SOL    HW213287   3.346   1.917   1.235
 4130SOL     OW13288   6.166   3.199   0.363
 4130SOL    HW113289   6.157   3.113   0.413
 4130SOL    HW213290   6.261   3.230   0.367
 4131SOL     OW13291   5.447   0.089   3.164
 4131SOL    HW113292   5.447   0.056   3.070
 4131SOL    HW213293   5.432   0.013   3.227
 4132SOL     OW13294   6.603   5.246   3.393
 4132SOL    HW113295   6.692   5.216   3.359
 4132SOL    HW213296   6.585   5.204   3.482
 4133SOL     OW13297   5.789   6.736   2.776
 4133SOL    HW113298   5.690   6.727   2.788
 4133SOL    HW213299   5.835   6.711   2.861
 4134SOL     OW13300   1.580   3.595   1.054
 4134SOL    HW113301   1.555   3.526   1.121
 4134SOL    HW213302   1.668   3.572   1.013
 4135SOL     OW13303   6.349   1.252   1.325
 4135SOL    HW113304   6.359   1.166   1.376
 4135SOL    HW213305   6.362   1.236   1.228
 4136SOL     OW13306   0.405   4.869   0.989
 4136SOL    HW113307   0.496   4.899   1.020
 4136SOL    HW213308   0.335   4.915   1.043
 4137SOL     OW13309   0.878   2.687   6.441
 4137SOL    HW113310   0.802   2.673   6.504
 4137SOL    HW213311   0.946   2.747   6.483
 4138SOL     OW13312   4.238   0.250   6.662
 4138SOL    HW113313   4.200   0.257   6.755
 4138SOL    HW213314   4.318   0.310   6.654
 4139SOL     OW13315   2.168   3.983   2.879
 4139SOL    HW113316   2.178   3.884   2.890
 4139SOL    HW213317   2.138   4.003   2.786
 4140SOL     OW13318   2.725   0.321   6.811
 4140SOL    HW113319   2.682   0.377   6.741
 4140SOL    HW213320   2.818   0.354   6.827
 4141SOL     OW13321   5.338   0.914   6.263
 4141SOL    HW113322   5.417   0.962   6.227
 4141SOL    HW213323   5.367   0.852   6.336
 4142SOL     OW13324   6.711   4.942   2.613
 4142SOL    HW113325   6.676   4.938   2.706
 4142SOL    HW213326   6.645   4.901   2.550
 4143SOL     OW13327   6.383   3.830   6.396
 4143SOL    HW113328   6.337   3.887   6.327
 4143SOL    HW213329   6.393   3.737   6.360
 4144SOL     OW13330   4.828   1.561   1.500
 4144SOL    HW113331   4.794   1.584   1.591
 4144SOL    HW213332   4.896   1.628   1.471
 4145SOL     OW13333   6.781   0.466   1.696
 4145SOL    HW113334   6.822   0.415   1.771
 4145SOL    HW213335   6.838   0.544   1.673
 4146SOL     OW13336   5.156   6.800   1.335
 4146SOL    HW113337   5.109   6.889   1.332
 4146SOL    HW213338   5.218   6.798   1.413
 4147SOL     OW13339   4.559   4.886   6.826
 4147SOL    HW113340   4.476   4.941   6.831
 4147SOL    HW213341   4.613   4.898   6.909
 4148SOL     OW13342   3.012   1.325   5.331
 4148SOL    HW113343   2.945   1.303   5.260
 4148SOL    HW213344   2.966   1.331   5.420
 4149SOL     OW13345   1.434   3.764   6.338
 4149SOL    HW113346   1.414   3.861   6.321
 4149SOL    HW213347   1.409   3.741   6.431
 4150SOL     OW13348   5.676   1.333   0.030
 4150SOL    HW113349   5.674   1.325   6.957
 4150SOL    HW213350   5.591   1.376   0.062
 4151SOL     OW13351   2.432   5.647   4.738
 4151SOL    HW113352   2.432   5.630   4.639
 4151SOL    HW213353   2.348   5.695   4.763
 4152SOL     OW13354   2.227   4.611   1.326
 4152SOL    HW113355   2.187   4.644   1.241
 4152SOL    HW213356   2.167   4.540   1.365
 4153SOL     OW13357   6.584   5.854   1.946
 4153SOL    HW113358   6.489   5.885   1.957
 4153SOL    HW213359   6.620   5.888   1.859
 4154SOL     OW13360   1.010   6.534   4.213
 4154SOL    HW113361   1.029   6.609   4.276
 4154SOL    HW213362   1.089   6.519   4.154
 4155SOL     OW13363   0.219   0.604   1.916
 4155SOL    HW113364   0.276   0.529   1.950
 4155SOL    HW213365   0.149   0.626   1.983
 4156SOL     OW13366   0.069   5.055   6.034
 4156SOL    HW113367   0.012   5.017   6.107
 4156SOL    HW213368   0.026   5.037   5.945
 4157SOL     OW13369   5.720   5.534   1.414
 4157SOL    HW113370   5.750   5.499   1.502
 4157SOL    HW213371   5.710   5.633   1.418
 4158SOL     OW13372   0.911   2.906   1.141
 4158SOL    HW113373   0.931   2.985   1.199
 4158SOL    HW213374   0.905   2.824   1.197
 4159SOL     OW13375   2.690   0.623   4.335
 4159SOL    HW113376   2.785   0.643   4.311
 4159SOL    HW213377   2.647   0.571   4.262
 4160SOL     OW13378   0.759   6.712   6.305
 4160SOL    HW113379   0.771   6.803   6.265
 4160SOL    HW213380   0.744   6.645   6.232
 4161SOL     OW13381   3.422   3.396   2.930
 4161SOL    HW113382   3.481   3.319   2.902
 4161SOL    HW213383   3.380   3.374   3.018
 4162SOL     OW13384   5.273   5.425   1.645
 4162SOL    HW113385   5.316   5.384   1.725
 4162SOL    HW213386   5.301   5.375   1.563
 4163SOL     OW13387   4.056   6.054   2.082
 4163SOL    HW113388   3.964   6.085   2.056
 4163SOL    HW213389   4.121   6.079   2.011
 4164SOL     OW13390   6.951   1.266   6.116
 4164SOL    HW113391   6.855   1.257   6.143
 4164SOL    HW213392   7.008   1.213   6.178
 4165SOL     OW13393   3.787   0.937   4.406
 4165SOL    HW113394   3.880   0.963   4.380
 4165SOL    HW213395   3.781   0.934   4.506
 4166SOL     OW13396   5.813   2.319   1.261
 4166SOL    HW113397   5.858   2.408   1.253
 4166SOL    HW213398   5.867   2.260   1.321
 4167SOL     OW13399   3.915   5.273   4.683
 4167SOL    HW113400   3.892   5.197   4.622
 4167SOL    HW213401   3.858   5.269   4.765
 4168SOL     OW13402   4.935   3.865   0.314
 4168SOL    HW113403   4.936   3.823   0.405
 4168SOL    HW213404   4.847   3.848   0.270
 4169SOL     OW13405   5.345   2.905   6.086
 4169SOL    HW113406   5.329   2.935   6.181
 4169SOL    HW213407   5.268   2.935   6.029
 4170SOL     OW13408   0.549   2.208   4.891
 4170SOL    HW113409   0.555   2.288   4.950
 4170SOL    HW213410   0.591   2.228   4.803
 4171SOL     OW13411   0.983   1.878   6.735
 4171SOL    HW113412   0.987   1.911   6.829
 4171SOL    HW213413   0.904   1.917   6.689
 4172SOL     OW13414   2.816   3.102   0.682
 4172SOL    HW113415   2.834   3.151   0.767
 4172SOL    HW213416   2.718   3.106   0.661
 4173SOL     OW13417   5.055   1.682   6.400
 4173SOL    HW113418   5.012   1.718   6.317
 4173SOL    HW213419   4.986   1.639   6.458
 4174SOL     OW13420   4.183   6.946   4.746
 4174SOL    HW113421   4.265   6.889   4.754
 4174SOL    HW213422   4.149   6.943   4.652
 4175SOL     OW13423   1.015   4.320   6.720
 4175SOL    HW113424   1.044   4.361   6.633
 4175SOL    HW213425   0.953   4.382   6.767
 4176SOL     OW13426   5.533   6.604   6.315
 4176SOL    HW113427   5.443   6.605   6.358
 4176SOL    HW213428   5.598   6.653   6.373
 4177SOL     OW13429   4.334   4.637   2.885
 4177SOL    HW113430   4.323   4.595   2.795
 4177SOL    HW213431   4.260   4.702   2.901
 4178SOL     OW13432   4.247   5.968   1.190
 4178SOL    HW113433   4.254   5.869   1.199
 4178SOL    HW213434   4.321   6.012   1.240
 4179SOL     OW13435   4.573   3.137   6.744
 4179SOL    HW113436   4.637   3.060   6.739
 4179SOL    HW213437   4.529   3.139   6.833
 4180SOL     OW13438   4.219   3.381   0.629
 4180SOL    HW113439   4.313   3.372   0.598
 4180SOL    HW213440   4.164   3.423   0.557
 4181SOL     OW13441   5.062   6.935   5.623
 4181SOL    HW113442   5.033   6.847   5.586
 4181SOL    HW213443   4.983   6.997   5.627
 4182SOL     OW13444   0.743   6.224   4.752
 4182SOL    HW113445   0.841   6.232   4.772
 4182SOL    HW213446   0.712   6.132   4.775
 4183SOL     OW13447   4.335   1.999   0.917
 4183SOL    HW113448   4.264   2.067   0.932
 4183SOL    HW213449   4.370   1.966   1.004
 4184SOL     OW13450   3.843   5.512   3.878
 4184SOL    HW113451   3.749   5.493   3.848
 4184SOL    HW213452   3.886   5.429   3.911
 4185SOL     OW13453   4.926   3.654   3.562
 4185SOL    HW113454   4.900   3.750   3.564
 4185SOL    HW213455   4.852   3.599   3.601
 4186SOL     OW13456   1.803   5.805   0.426
 4186SOL    HW113457   1.766   5.853   0.505
 4186SOL    HW213458   1.795   5.863   0.345
 4187SOL     OW13459   1.681   3.343   6.636
 4187SOL    HW113460   1.699   3.438   6.660
 4187SOL    HW213461   1.690   3.286   6.717
 4188SOL     OW13462   4.607   0.102   0.005
 4188SOL    HW113463   4.698   0.071   7.003
 4188SOL    HW213464   4.593   0.196   7.001
 4189SOL     OW13465   4.495   5.232   3.423
 4189SOL    HW113466   4.431   5.294   3.468
 4189SOL    HW213467   4.456   5.202   3.336
 4190SOL     OW13468   6.484   6.296   1.100
 4190SOL    HW113469   6.525   6.217   1.146
 4190SOL    HW213470   6.482   6.374   1.163
 4191SOL     OW13471   4.764   3.345   6.375
 4191SOL    HW113472   4.701   3.315   6.304
 4191SOL    HW213473   4.714   3.363   6.459
 4192SOL     OW13474   1.474   3.614   7.007
 4192SOL    HW113475   1.543   3.635   6.938
 4192SOL    HW213476   1.519   3.583   0.064
 4193SOL     OW13477   0.511   0.061   0.406
 4193SOL    HW113478   0.587   0.013   0.363
 4193SOL    HW213479   0.431   0.001   0.409
 4194SOL     OW13480   5.416   1.785   5.868
 4194SOL    HW113481   5.393   1.746   5.957
 4194SOL    HW213482   5.503   1.747   5.836
 4195SOL     OW13483   3.932   0.477   0.797
 4195SOL    HW113484   3.852   0.496   0.853
 4195SOL    HW213485   3.904   0.444   0.707
 4196SOL     OW13486   6.250   2.769   2.457
 4196SOL    HW113487   6.173   2.715   2.491
 4196SOL    HW213488   6.306   2.712   2.397
 4197SOL     OW13489   3.688   0.656   6.625
 4197SOL    HW113490   3.628   0.644   6.546
 4197SOL    HW213491   3.645   0.616   6.706
 4198SOL     OW13492   6.349   2.525   2.350
 4198SOL    HW113493   6.265   2.525   2.295
 4198SOL    HW213494   6.328   2.490   2.442
 4199SOL     OW13495   0.002   3.951   6.305
 4199SOL    HW113496   7.025   4.040   6.261
 4199SOL    HW213497   7.003   3.880   6.239
 4200SOL     OW13498   4.570   1.315   3.987
 4200SOL    HW113499   4.588   1.408   4.019
 4200SOL    HW213500   4.564   1.314   3.887
 4201SOL     OW13501   5.614   0.109   3.795
 4201SOL    HW113502   5.614   0.054   3.879
 4201SOL    HW213503   5.546   0.181   3.803
 4202SOL     OW13504   4.541   3.861   1.324
 4202SOL    HW113505   4.474   3.935   1.322
 4202SOL    HW213506   4.620   3.890   1.378
 4203SOL     OW13507   6.192   4.575   5.105
 4203SOL    HW113508   6.205   4.481   5.073
 4203SOL    HW213509   6.129   4.622   5.043
 4204SOL     OW13510   1.789   3.880   6.555
 4204SOL    HW113511   1.859   3.911   6.491
 4204SOL    HW213512   1.812   3.910   6.647
 4205SOL     OW13513   4.242   6.990   6.322
 4205SOL    HW113514   4.189   0.010   6.251
 4205SOL    HW213515   4.222   6.892   6.320
 4206SOL     OW13516   2.127   2.322   4.402
 4206SOL    HW113517   2.081   2.334   4.490
 4206SOL    HW213518   2.073   2.366   4.330
 4207SOL     OW13519   0.465   1.754   2.037
 4207SOL    HW113520   0.517   1.754   1.952
 4207SOL    HW213521   0.394   1.824   2.034
 4208SOL     OW13522   2.198   2.373   3.923
 4208SOL    HW113523   2.252   2.453   3.897
 4208SOL    HW213524   2.165   2.326   3.841
 4209SOL     OW13525   5.825   6.265   2.083
 4209SOL    HW113526   5.854   6.228   1.995
 4209SOL    HW213527   5.866   6.212   2.157
 4210SOL     OW13528   3.019   4.033   4.798
 4210SOL    HW113529   2.996   4.122   4.836
 4210SOL    HW213530   2.978   3.961   4.855
 4211SOL     OW13531   3.965   2.715   5.355
 4211SOL    HW113532   4.032   2.672   5.295
 4211SOL    HW213533   3.944   2.654   5.431
 4212SOL     OW13534   0.013   1.690   3.407
 4212SOL    HW113535   0.076   1.613   3.412
 4212SOL    HW213536   6.945   1.656   3.410
 4213SOL     OW13537   2.992   0.658   4.334
 4213SOL    HW113538   3.040   0.659   4.421
 4213SOL    HW213539   3.028   0.731   4.275
 4214SOL     OW13540   6.905   6.109   3.201
 4214SOL    HW113541   6.825   6.150   3.157
 4214SOL    HW213542   6.959   6.181   3.246
 4215SOL     OW13543   5.625   6.981   5.612
 4215SOL    HW113544   5.700   6.964   5.677
 4215SOL    HW213545   5.546   7.018   5.662
 4216SOL     OW13546   2.582   5.518   2.133
 4216SOL    HW113547   2.610   5.614   2.136
 4216SOL    HW213548   2.486   5.513   2.104
 4217SOL     OW13549   1.307   0.685   2.952
 4217SOL    HW113550   1.309   0.586   2.970
 4217SOL    HW213551   1.217   0.710   2.917
 4218SOL     OW13552   3.060   1.513   0.337
 4218SOL    HW113553   3.135   1.464   0.294
 4218SOL    HW213554   3.096   1.587   0.394
 4219SOL     OW13555   3.981   5.574   2.828
 4219SOL    HW113556   3.967   5.671   2.810
 4219SOL    HW213557   3.908   5.521   2.785
 4220SOL     OW13558   5.329   1.590   1.231
 4220SOL    HW113559   5.360   1.624   1.143
 4220SOL    HW213560   5.271   1.510   1.218
 4221SOL     OW13561   1.359   6.257   0.839
 4221SOL    HW113562   1.379   6.350   0.809
 4221SOL    HW213563   1.274   6.225   0.797
 4222SOL     OW13564   5.178   2.943   3.776
 4222SOL    HW113565   5.160   3.038   3.804
 4222SOL    HW213566   5.139   2.881   3.844
 4223SOL     OW13567   3.906   3.764   2.115
 4223SOL    HW113568   3.824   3.719   2.080
 4223SOL    HW213569   3.891   3.792   2.210
 4224SOL     OW13570   4.694   5.147   4.576
 4224SOL    HW113571   4.709   5.084   4.653
 4224SOL    HW213572   4.780   5.164   4.530
 4225SOL     OW13573   0.960   1.668   5.934
 4225SOL    HW113574   1.040   1.725   5.914
 4225SOL    HW213575   0.883   1.696   5.876
 4226SOL     OW13576   0.404   5.935   4.610
 4226SOL    HW113577   0.489   5.980   4.635
 4226SOL    HW213578   0.420   5.837   4.599
 4227SOL     OW13579   4.473   5.889   2.024
 4227SOL    HW113580   4.416   5.900   1.943
 4227SOL    HW213581   4.489   5.978   2.066
 4228SOL     OW13582   1.205   5.293   3.956
 4228SOL    HW113583   1.271   5.293   3.881
 4228SOL    HW213584   1.223   5.371   4.016
 4229SOL     OW13585   6.575   5.449   5.867
 4229SOL    HW113586   6.660   5.464   5.918
 4229SOL    HW213587   6.595   5.402   5.781
 4230SOL     OW13588   6.903   0.810   1.939
 4230SOL    HW113589   6.930   0.876   1.870
 4230SOL    HW213590   6.983   0.783   1.993
 4231SOL     OW13591   6.575   1.317   6.405
 4231SOL    HW113592   6.500   1.344   6.344
 4231SOL    HW213593   6.643   1.391   6.409
 4232SOL     OW13594   1.672   5.281   3.833
 4232SOL    HW113595   1.694   5.200   3.888
 4232SOL    HW213596   1.623   5.348   3.889
 4233SOL     OW13597   4.550   5.738   2.237
 4233SOL    HW113598   4.519   5.795   2.162
 4233SOL    HW213599   4.629   5.781   2.282
 4234SOL     OW13600   3.326   5.204   5.964
 4234SOL    HW113601   3.262   5.127   5.970
 4234SOL    HW213602   3.363   5.209   5.871
 4235SOL     OW13603   0.083   5.931   5.808
 4235SOL    HW113604   0.151   5.988   5.854
 4235SOL    HW213605   0.010   5.990   5.771
 4236SOL     OW13606   0.531   4.893   2.810
 4236SOL    HW113607   0.455   4.868   2.870
 4236SOL    HW213608   0.617   4.863   2.852
 4237SOL     OW13609   0.390   4.681   3.952
 4237SOL    HW113610   0.301   4.726   3.956
 4237SOL    HW213611   0.447   4.711   4.028
 4238SOL     OW13612   3.768   6.683   2.421
 4238SOL    HW113613   3.693   6.620   2.402
 4238SOL    HW213614   3.749   6.771   2.380
 4239SOL     OW13615   4.134   1.197   3.866
 4239SOL    HW113616   4.187   1.203   3.951
 4239SOL    HW213617   4.164   1.268   3.803
 4240SOL     OW13618   6.182   6.493   2.109
 4240SOL    HW113619   6.261   6.551   2.094
 4240SOL    HW213620   6.100   6.550   2.118
 4241SOL     OW13621   6.043   3.957   0.432
 4241SOL    HW113622   5.950   3.946   0.466
 4241SOL    HW213623   6.093   3.872   0.445
 4242SOL     OW13624   2.859   1.588   3.533
 4242SOL    HW113625   2.953   1.594   3.564
 4242SOL    HW213626   2.806   1.665   3.569
 4243SOL     OW13627   4.982   0.718   2.973
 4243SOL    HW113628   5.026   0.658   3.040
 4243SOL    HW213629   4.974   0.810   3.011
 4244SOL     OW13630   3.657   2.906   3.882
 4244SOL    HW113631   3.583   2.941   3.825
 4244SOL    HW213632   3.734   2.879   3.825
 4245SOL     OW13633   5.792   1.097   6.491
 4245SOL    HW113634   5.770   1.013   6.441
 4245SOL    HW213635   5.708   1.149   6.507
 4246SOL     OW13636   0.453   3.356   0.530
 4246SOL    HW113637   0.417   3.352   0.437
 4246SOL    HW213638   0.482   3.264   0.558
 4247SOL     OW13639   6.756   5.716   5.027
 4247SOL    HW113640   6.699   5.680   4.954
 4247SOL    HW213641   6.848   5.679   5.020
 4248SOL     OW13642   1.893   3.397   5.119
 4248SOL    HW113643   1.823   3.338   5.078
 4248SOL    HW213644   1.963   3.342   5.164
 4249SOL     OW13645   5.497   4.148   6.012
 4249SOL    HW113646   5.489   4.244   6.041
 4249SOL    HW213647   5.498   4.144   5.912
 4250SOL     OW13648   0.708   4.540   2.725
 4250SOL    HW113649   0.780   4.471   2.737
 4250SOL    HW213650   0.645   4.509   2.653
 4251SOL     OW13651   5.406   3.674   0.612
 4251SOL    HW113652   5.420   3.658   0.515
 4251SOL    HW213653   5.489   3.712   0.652
 4252SOL     OW13654   0.554   6.010   5.683
 4252SOL    HW113655   0.646   6.000   5.647
 4252SOL    HW213656   0.521   5.921   5.714
 4253SOL     OW13657   3.966   5.841   2.844
 4253SOL    HW113658   3.966   5.895   2.929
 4253SOL    HW213659   4.051   5.858   2.794
 4254SOL     OW13660   2.573   4.200   1.185
 4254SOL    HW113661   2.604   4.257   1.261
 4254SOL    HW213662   2.600   4.241   1.098
 4255SOL     OW13663   0.207   2.112   4.581
 4255SOL    HW113664   0.260   2.144   4.502
 4255SOL    HW213665   0.120   2.074   4.550
 4256SOL     OW13666   1.939   0.606   1.876
 4256SOL    HW113667   1.861   0.608   1.938
 4256SOL    HW213668   1.981   0.697   1.873
 4257SOL     OW13669   4.023   2.125   4.695
 4257SOL    HW113670   4.088   2.175   4.751
 4257SOL    HW213671   4.043   2.140   4.598
 4258SOL     OW13672   5.275   6.648   2.642
 4258SOL    HW113673   5.243   6.577   2.579
 4258SOL    HW213674   5.217   6.650   2.723
 4259SOL     OW13675   2.087   3.040   0.563
 4259SOL    HW113676   2.038   2.953   0.576
 4259SOL    HW213677   2.098   3.058   0.466
 4260SOL     OW13678   4.672   5.567   3.340
 4260SOL    HW113679   4.709   5.601   3.253
 4260SOL    HW213680   4.679   5.467   3.342
 4261SOL     OW13681   2.036   1.066   2.701
 4261SOL    HW113682   2.062   1.157   2.731
 4261SOL    HW213683   1.938   1.053   2.713
 4262SOL     OW13684   0.003   5.799   6.613
 4262SOL    HW113685   6.957   5.847   6.662
 4262SOL    HW213686   0.092   5.838   6.638
 4263SOL     OW13687   3.797   5.147   5.896
 4263SOL    HW113688   3.775   5.241   5.921
 4263SOL    HW213689   3.813   5.141   5.797
 4264SOL     OW13690   6.763   0.202   0.611
 4264SOL    HW113691   6.784   0.251   0.526
 4264SOL    HW213692   6.823   0.123   0.620
 4265SOL     OW13693   6.814   2.428   0.393
 4265SOL    HW113694   6.883   2.361   0.420
 4265SOL    HW213695   6.794   2.488   0.470
 4266SOL     OW13696   3.028   4.774   1.068
 4266SOL    HW113697   2.996   4.702   1.130
 4266SOL    HW213698   3.105   4.823   1.111
 4267SOL     OW13699   1.677   4.306   5.639
 4267SOL    HW113700   1.685   4.305   5.539
 4267SOL    HW213701   1.592   4.351   5.665
 4268SOL     OW13702   1.479   1.137   0.553
 4268SOL    HW113703   1.419   1.067   0.514
 4268SOL    HW213704   1.433   1.226   0.548
 4269SOL     OW13705   3.315   3.492   0.547
 4269SOL    HW113706   3.331   3.528   0.455
 4269SOL    HW213707   3.233   3.535   0.585
 4270SOL     OW13708   3.568   2.680   5.622
 4270SOL    HW113709   3.649   2.709   5.674
 4270SOL    HW213710   3.541   2.589   5.651
 4271SOL     OW13711   1.168   0.126   0.337
 4271SOL    HW113712   1.117   0.130   0.250
 4271SOL    HW213713   1.266   0.128   0.318
 4272SOL     OW13714   6.939   4.064   4.095
 4272SOL    HW113715   6.993   3.980   4.092
 4272SOL    HW213716   6.930   4.102   4.004
 4273SOL     OW13717   6.003   6.005   4.930
 4273SOL    HW113718   6.019   6.097   4.895
 4273SOL    HW213719   5.905   5.984   4.923
 4274SOL     OW13720   2.219   0.409   4.111
 4274SOL    HW113721   2.234   0.323   4.161
 4274SOL    HW213722   2.129   0.407   4.068
 4275SOL     OW13723   1.186   7.023   6.935
 4275SOL    HW113724   1.158   6.927   6.944
 4275SOL    HW213725   1.154   0.032   6.848
 4276SOL     OW13726   1.955   4.345   1.882
 4276SOL    HW113727   2.003   4.267   1.842
 4276SOL    HW213728   2.010   4.428   1.868
 4277SOL     OW13729   0.508   5.220   3.962
 4277SOL    HW113730   0.502   5.287   3.888
 4277SOL    HW213731   0.428   5.161   3.961
 4278SOL     OW13732   0.525   6.341   5.381
 4278SOL    HW113733   0.526   6.392   5.467
 4278SOL    HW213734   0.611   6.358   5.332
 4279SOL     OW13735   3.385   5.496   4.216
 4279SOL    HW113736   3.291   5.523   4.197
 4279SOL    HW213737   3.430   5.468   4.131
 4280SOL     OW13738   4.846   3.275   3.827
 4280SOL    HW113739   4.890   3.351   3.875
 4280SOL    HW213740   4.825   3.304   3.733
 4281SOL     OW13741   2.363   3.788   5.366
 4281SOL    HW113742   2.401   3.853   5.300
 4281SOL    HW213743   2.288   3.831   5.416
 4282SOL     OW13744   1.540   2.351   1.087
 4282SOL    HW113745   1.444   2.356   1.062
 4282SOL    HW213746   1.550   2.364   1.185
 4283SOL     OW13747   1.812   0.538   4.472
 4283SOL    HW113748   1.762   0.622   4.494
 4283SOL    HW213749   1.752   0.459   4.488
 4284SOL     OW13750   6.418   2.086   2.455
 4284SOL    HW113751   6.491   2.053   2.395
 4284SOL    HW213752   6.345   2.018   2.460
 4285SOL     OW13753   0.884   6.080   6.162
 4285SOL    HW113754   0.973   6.119   6.184
 4285SOL    HW213755   0.893   6.020   6.082
 4286SOL     OW13756   5.502   5.252   7.000
 4286SOL    HW113757   5.495   5.264   6.901
 4286SOL    HW213758   5.579   5.306   0.009
 4287SOL     OW13759   4.880   6.589   5.173
 4287SOL    HW113760   4.864   6.500   5.216
 4287SOL    HW213761   4.893   6.576   5.075
 4288SOL     OW13762   1.718   0.008   2.699
 4288SOL    HW113763   1.818   7.023   2.702
 4288SOL    HW213764   1.682   0.005   2.792
 4289SOL     OW13765   5.656   3.686   0.886
 4289SOL    HW113766   5.705   3.614   0.839
 4289SOL    HW213767   5.631   3.758   0.821
 4290SOL     OW13768   2.212   0.851   2.175
 4290SOL    HW113769   2.312   0.856   2.163
 4290SOL    HW213770   2.191   0.792   2.252
 4291SOL     OW13771   6.039   4.732   1.011
 4291SOL    HW113772   6.092   4.653   1.041
 4291SOL    HW213773   6.016   4.721   0.914
 4292SOL     OW13774   6.250   5.490   6.469
 4292SOL    HW113775   6.205   5.474   6.557
 4292SOL    HW213776   6.190   5.543   6.410
 4293SOL     OW13777   6.949   2.677   6.921
 4293SOL    HW113778   6.942   2.585   6.958
 4293SOL    HW213779   6.986   2.674   6.829
 4294SOL     OW13780   5.250   2.137   5.721
 4294SOL    HW113781   5.214   2.093   5.803
 4294SOL    HW213782   5.242   2.236   5.730
 4295SOL     OW13783   3.940   6.506   4.815
 4295SOL    HW113784   3.989   6.426   4.849
 4295SOL    HW213785   3.908   6.488   4.722
 4296SOL     OW13786   2.214   1.656   0.854
 4296SOL    HW113787   2.273   1.653   0.935
 4296SOL    HW213788   2.120   1.638   0.881
 4297SOL     OW13789   5.723   0.727   5.800
 4297SOL    HW113790   5.662   0.648   5.804
 4297SOL    HW213791   5.672   0.807   5.768
 4298SOL     OW13792   2.935   5.359   1.341
 4298SOL    HW113793   2.898   5.444   1.304
 4298SOL    HW213794   3.028   5.345   1.308
 4299SOL     OW13795   0.567   4.066   6.720
 4299SOL    HW113796   0.637   4.051   6.650
 4299SOL    HW213797   0.504   3.988   6.721
 4300SOL     OW13798   5.956   0.373   6.832
 4300SOL    HW113799   5.976   0.438   6.759
 4300SOL    HW213800   5.970   0.417   6.921
 4301SOL     OW13801   2.891   1.643   0.122
 4301SOL    HW113802   2.961   1.657   0.192
 4301SOL    HW213803   2.872   1.545   0.113
 4302SOL     OW13804   0.645   6.581   0.125
 4302SOL    HW113805   0.651   6.635   0.209
 4302SOL    HW213806   0.737   6.569   0.088
 4303SOL     OW13807   6.901   3.494   2.197
 4303SOL    HW113808   6.952   3.575   2.166
 4303SOL    HW213809   6.808   3.498   2.162
 4304SOL     OW13810   3.323   2.913   4.376
 4304SOL    HW113811   3.300   2.951   4.466
 4304SOL    HW213812   3.408   2.862   4.383
 4305SOL     OW13813   6.404   1.762   4.024
 4305SOL    HW113814   6.429   1.675   4.066
 4305SOL    HW213815   6.325   1.749   3.965
 4306SOL     OW13816   6.391   5.706   5.898
 4306SOL    HW113817   6.470   5.645   5.885
 4306SOL    HW213818   6.364   5.745   5.811
 4307SOL     OW13819   5.043   3.227   6.390
 4307SOL    HW113820   4.946   3.250   6.396
 4307SOL    HW213821   5.096   3.311   6.376
 4308SOL     OW13822   5.085   6.342   4.735
 4308SOL    HW113823   5.078   6.330   4.636
 4308SOL    HW213824   5.093   6.253   4.780
 4309SOL     OW13825   1.412   1.403   0.617
 4309SOL    HW113826   1.352   1.448   0.683
 4309SOL    HW213827   1.452   1.472   0.556
 4310SOL     OW13828   1.060   0.989   2.437
 4310SOL    HW113829   1.088   1.043   2.516
 4310SOL    HW213830   1.000   0.915   2.468
 4311SOL     OW13831   1.818   6.178   3.681
 4311SOL    HW113832   1.776   6.267   3.700
 4311SOL    HW213833   1.754   6.105   3.706
 4312SOL     OW13834   2.220   5.222   2.094
 4312SOL    HW113835   2.162   5.158   2.144
 4312SOL    HW213836   2.297   5.172   2.053
 4313SOL     OW13837   4.875   0.431   2.156
 4313SOL    HW113838   4.896   0.528   2.162
 4313SOL    HW213839   4.959   0.378   2.163
 4314SOL     OW13840   4.874   3.116   2.866
 4314SOL    HW113841   4.809   3.184   2.901
 4314SOL    HW213842   4.900   3.140   2.773
 4315SOL     OW13843   2.609   1.677   1.999
 4315SOL    HW113844   2.600   1.660   2.097
 4315SOL    HW213845   2.519   1.692   1.959
 4316SOL     OW13846   6.618   6.942   2.469
 4316SOL    HW113847   6.621   7.004   2.547
 4316SOL    HW213848   6.672   6.860   2.488
 4317SOL     OW13849   4.030   1.306   2.909
 4317SOL    HW113850   4.010   1.215   2.873
 4317SOL    HW213851   3.961   1.331   2.976
 4318SOL     OW13852   0.092   2.651   4.258
 4318SOL    HW113853   0.117   2.569   4.310
 4318SOL    HW213854   0.025   2.627   4.188
 4319SOL     OW13855   2.371   3.457   5.660
 4319SOL    HW113856   2.302   3.384   5.662
 4319SOL    HW213857   2.326   3.545   5.678
 4320SOL     OW13858   0.154   5.666   2.677
 4320SOL    HW113859   0.150   5.764   2.694
 4320SOL    HW213860   0.079   5.639   2.617
 4321SOL     OW13861   0.816   0.094   5.120
 4321SOL    HW113862   0.780   0.124   5.031
 4321SOL    HW213863   0.744   0.102   5.189
 4322SOL     OW13864   6.188   1.017   0.366
 4322SOL    HW113865   6.199   1.067   0.451
 4322SOL    HW213866   6.125   0.941   0.379
 4323SOL     OW13867   6.659   2.730   3.803
 4323SOL    HW113868   6.575   2.717   3.856
 4323SOL    HW213869   6.716   2.800   3.845
 4324SOL     OW13870   6.464   4.375   5.619
 4324SOL    HW113871   6.412   4.292   5.602
 4324SOL    HW213872   6.485   4.383   5.716
 4325SOL     OW13873   1.817   2.013   6.278
 4325SOL    HW113874   1.861   2.022   6.189
 4325SOL    HW213875   1.731   1.963   6.267
 4326SOL     OW13876   6.381   2.314   5.602
 4326SOL    HW113877   6.347   2.389   5.546
 4326SOL    HW213878   6.421   2.244   5.544
 4327SOL     OW13879   6.118   6.964   2.697
 4327SOL    HW113880   6.033   6.971   2.750
 4327SOL    HW213881   6.145   6.868   2.691
 4328SOL     OW13882   5.220   5.184   0.518
 4328SOL    HW113883   5.276   5.123   0.463
 4328SOL    HW213884   5.162   5.239   0.458
 4329SOL     OW13885   3.427   1.453   6.036
 4329SOL    HW113886   3.351   1.392   6.014
 4329SOL    HW213887   3.404   1.547   6.008
 4330SOL     OW13888   1.244   0.348   6.389
 4330SOL    HW113889   1.311   0.381   6.322
 4330SOL    HW213890   1.252   0.401   6.473
 4331SOL     OW13891   6.094   2.785   6.911
 4331SOL    HW113892   6.157   2.862   6.911
 4331SOL    HW213893   6.020   2.802   6.977
 4332SOL     OW13894   5.376   3.377   1.182
 4332SOL    HW113895   5.324   3.438   1.122
 4332SOL    HW213896   5.472   3.376   1.152
 4333SOL     OW13897   5.284   1.282   5.361
 4333SOL    HW113898   5.334   1.328   5.434
 4333SOL    HW213899   5.225   1.211   5.400
 4334SOL     OW13900   4.628   1.030   1.973
 4334SOL    HW113901   4.718   1.015   2.015
 4334SOL    HW213902   4.570   1.081   2.037
 4335SOL     OW13903   3.382   4.081   5.427
 4335SOL    HW113904   3.395   4.134   5.343
 4335SOL    HW213905   3.333   3.997   5.406
 4336SOL     OW13906   1.414   5.999   4.113
 4336SOL    HW113907   1.433   6.014   4.016
 4336SOL    HW213908   1.316   5.987   4.127
 4337SOL     OW13909   0.095   4.846   0.815
 4337SOL    HW113910   0.002   4.816   0.795
 4337SOL    HW213911   0.129   4.797   0.896
 4338SOL     OW13912   6.534   6.592   4.111
 4338SOL    HW113913   6.612   6.537   4.081
 4338SOL    HW213914   6.565   6.663   4.174
 4339SOL     OW13915   6.223   1.139   6.315
 4339SOL    HW113916   6.250   1.165   6.222
 4339SOL    HW213917   6.304   1.140   6.374
 4340SOL     OW13918   4.737   3.250   1.733
 4340SOL    HW113919   4.715   3.172   1.791
 4340SOL    HW213920   4.781   3.218   1.649
 4341SOL     OW13921   0.365   4.616   1.035
 4341SOL    HW113922   0.271   4.582   1.029
 4341SOL    HW213923   0.376   4.695   0.975
 4342SOL     OW13924   0.092   3.016   2.908
 4342SOL    HW113925   0.030   3.003   2.986
 4342SOL    HW213926   0.078   2.942   2.842
 4343SOL     OW13927   2.320   1.687   1.104
 4343SOL    HW113928   2.284   1.726   1.189
 4343SOL    HW213929   2.391   1.620   1.126
 4344SOL     OW13930   1.939   4.269   2.876
 4344SOL    HW113931   1.938   4.179   2.833
 4344SOL    HW213932   2.024   4.317   2.852
 4345SOL     OW13933   2.138   1.904   5.733
 4345SOL    HW113934   2.060   1.943   5.684
 4345SOL    HW213935   2.151   1.953   5.819
 4346SOL     OW13936   1.167   2.789   1.553
 4346SOL    HW113937   1.187   2.851   1.629
 4346SOL    HW213938   1.248   2.779   1.495
 4347SOL     OW13939   6.226   6.363   2.748
 4347SOL    HW113940   6.246   6.305   2.670
 4347SOL    HW213941   6.134   6.343   2.782
 4348SOL     OW13942   0.870   3.715   6.867
 4348SOL    HW113943   0.842   3.679   6.956
 4348SOL    HW213944   0.815   3.795   6.845
 4349SOL     OW13945   6.693   0.461   3.888
 4349SOL    HW113946   6.661   0.516   3.811
 4349SOL    HW213947   6.791   0.444   3.878
 4350SOL     OW13948   4.871   1.689   3.877
 4350SOL    HW113949   4.813   1.629   3.822
 4350SOL    HW213950   4.817   1.766   3.911
 4351SOL     OW13951   2.710   6.327   1.051
 4351SOL    HW113952   2.763   6.400   1.095
 4351SOL    HW213953   2.677   6.263   1.120
 4352SOL     OW13954   6.442   1.376   1.853
 4352SOL    HW113955   6.478   1.287   1.883
 4352SOL    HW213956   6.387   1.363   1.771
 4353SOL     OW13957   4.044   5.728   0.244
 4353SOL    HW113958   3.988   5.733   0.161
 4353SOL    HW213959   3.985   5.740   0.325
 4354SOL     OW13960   1.833   0.706   1.183
 4354SOL    HW113961   1.860   0.769   1.256
 4354SOL    HW213962   1.743   0.732   1.148
 4355SOL     OW13963   5.498   0.856   0.880
 4355SOL    HW113964   5.491   0.794   0.802
 4355SOL    HW213965   5.476   0.949   0.851
 4356SOL     OW13966   3.735   4.458   0.437
 4356SOL    HW113967   3.649   4.439   0.391
 4356SOL    HW213968   3.783   4.372   0.454
 4357SOL     OW13969   6.441   0.776   6.838
 4357SOL    HW113970   6.362   0.771   6.777
 4357SOL    HW213971   6.423   0.725   6.922
 4358SOL     OW13972   0.565   0.362   1.729
 4358SOL    HW113973   0.641   0.420   1.758
 4358SOL    HW213974   0.565   0.354   1.629
 4359SOL     OW13975   6.153   2.186   3.962
 4359SOL    HW113976   6.145   2.145   4.053
 4359SOL    HW213977   6.249   2.209   3.945
 4360SOL     OW13978   1.851   3.231   1.186
 4360SOL    HW113979   1.785   3.187   1.125
 4360SOL    HW213980   1.905   3.297   1.135
 4361SOL     OW13981   5.130   1.977   2.166
 4361SOL    HW113982   5.229   1.961   2.168
 4361SOL    HW213983   5.082   1.890   2.166
 4362SOL     OW13984   5.636   4.414   4.162
 4362SOL    HW113985   5.707   4.351   4.131
 4362SOL    HW213986   5.670   4.468   4.239
 4363SOL     OW13987   4.976   2.127   5.807
 4363SOL    HW113988   5.008   2.197   5.744
 4363SOL    HW213989   5.014   2.143   5.898
 4364SOL     OW13990   3.499   3.923   4.995
 4364SOL    HW113991   3.559   3.880   5.061
 4364SOL    HW213992   3.479   3.859   4.920
 4365SOL     OW13993   2.917   1.212   1.507
 4365SOL    HW113994   2.898   1.209   1.605
 4365SOL    HW213995   2.840   1.251   1.459
 4366SOL     OW13996   5.346   4.875   1.391
 4366SOL    HW113997   5.408   4.898   1.316
 4366SOL    HW213998   5.386   4.905   1.477
 4367SOL     OW13999   0.774   6.370   6.872
 4367SOL    HW114000   0.857   6.316   6.857
 4367SOL    HW214001   0.731   6.388   6.783
 4368SOL     OW14002   5.434   3.849   1.851
 4368SOL    HW114003   5.508   3.812   1.908
 4368SOL    HW214004   5.349   3.848   1.903
 4369SOL     OW14005   3.597   5.935   1.697
 4369SOL    HW114006   3.542   5.852   1.694
 4369SOL    HW214007   3.537   6.015   1.686
 4370SOL     OW14008   5.887   5.363   3.036
 4370SOL    HW114009   5.955   5.434   3.016
 4370SOL    HW214010   5.801   5.387   2.991
 4371SOL     OW14011   6.871   2.045   2.530
 4371SOL    HW114012   6.820   1.969   2.489
 4371SOL    HW214013   6.831   2.068   2.618
 4372SOL     OW14014   4.776   6.682   3.393
 4372SOL    HW114015   4.725   6.674   3.307
 4372SOL    HW214016   4.718   6.651   3.469
 4373SOL     OW14017   0.408   2.114   6.214
 4373SOL    HW114018   0.312   2.095   6.231
 4373SOL    HW214019   0.427   2.211   6.233
 4374SOL     OW14020   2.996   2.453   0.867
 4374SOL    HW114021   3.094   2.432   0.870
 4374SOL    HW214022   2.952   2.395   0.798
 4375SOL     OW14023   2.807   6.627   4.218
 4375SOL    HW114024   2.886   6.594   4.165
 4375SOL    HW214025   2.730   6.643   4.156
 4376SOL     OW14026   6.197   1.694   3.691
 4376SOL    HW114027   6.266   1.757   3.727
 4376SOL    HW214028   6.140   1.742   3.624
 4377SOL     OW14029   5.550   5.154   6.618
 4377SOL    HW114030   5.552   5.142   6.519
 4377SOL    HW214031   5.472   5.103   6.656
 4378SOL     OW14032   2.182   1.131   3.470
 4378SOL    HW114033   2.172   1.071   3.549
 4378SOL    HW214034   2.232   1.214   3.497
 4379SOL     OW14035   3.173   1.899   5.359
 4379SOL    HW114036   3.132   1.845   5.432
 4379SOL    HW214037   3.167   1.996   5.382
 4380SOL     OW14038   0.506   1.011   2.078
 4380SOL    HW114039   0.494   1.055   1.989
 4380SOL    HW214040   0.579   1.058   2.128
 4381SOL     OW14041   1.500   5.943   6.450
 4381SOL    HW114042   1.491   5.854   6.494
 4381SOL    HW214043   1.533   5.931   6.356
 4382SOL     OW14044   6.988   3.935   4.830
 4382SOL    HW114045   6.970   3.841   4.800
 4382SOL    HW214046   6.903   3.976   4.863
 4383SOL     OW14047   6.396   3.395   6.811
 4383SOL    HW114048   6.325   3.423   6.876
 4383SOL    HW214049   6.486   3.414   6.849
 4384SOL     OW14050   5.871   7.001   3.869
 4384SOL    HW114051   5.798   0.038   3.844
 4384SOL    HW214052   5.944   7.007   3.801
 4385SOL     OW14053   4.480   1.294   5.246
 4385SOL    HW114054   4.546   1.254   5.310
 4385SOL    HW214055   4.427   1.221   5.202
 4386SOL     OW14056   1.375   3.516   4.738
 4386SOL    HW114057   1.398   3.570   4.656
 4386SOL    HW214058   1.459   3.480   4.778
 4387SOL     OW14059   6.706   1.879   0.653
 4387SOL    HW114060   6.618   1.836   0.635
 4387SOL    HW214061   6.773   1.849   0.584
 4388SOL     OW14062   5.329   3.245   6.824
 4388SOL    HW114063   5.382   3.201   6.896
 4388SOL    HW214064   5.329   3.187   6.742
 4389SOL     OW14065   0.951   3.386   0.939
 4389SOL    HW114066   1.008   3.322   0.888
 4389SOL    HW214067   0.871   3.338   0.974
 4390SOL     OW14068   6.419   1.435   0.893
 4390SOL    HW114069   6.399   1.337   0.900
 4390SOL    HW214070   6.409   1.478   0.983
 4391SOL     OW14071   1.700   5.926   1.061
 4391SOL    HW114072   1.751   5.914   0.977
 4391SOL    HW214073   1.617   5.978   1.043
 4392SOL     OW14074   1.682   2.601   5.259
 4392SOL    HW114075   1.738   2.580   5.179
 4392SOL    HW214076   1.610   2.532   5.268
 4393SOL     OW14077   4.805   0.704   2.208
 4393SOL    HW114078   4.889   0.752   2.182
 4393SOL    HW214079   4.789   0.716   2.306
 4394SOL     OW14080   1.142   0.494   2.390
 4394SOL    HW114081   1.119   0.431   2.315
 4394SOL    HW214082   1.073   0.487   2.462
 4395SOL     OW14083   2.863   4.975   1.917
 4395SOL    HW114084   2.796   4.997   1.988
 4395SOL    HW214085   2.937   4.921   1.956
 4396SOL     OW14086   3.260   0.810   3.206
 4396SOL    HW114087   3.331   0.754   3.163
 4396SOL    HW214088   3.200   0.848   3.135
 4397SOL     OW14089   3.617   1.602   4.676
 4397SOL    HW114090   3.621   1.664   4.754
 4397SOL    HW214091   3.645   1.510   4.705
 4398SOL     OW14092   1.802   2.558   5.019
 4398SOL    HW114093   1.784   2.592   4.926
 4398SOL    HW214094   1.892   2.588   5.049
 4399SOL     OW14095   2.850   6.999   1.765
 4399SOL    HW114096   2.881   0.044   1.828
 4399SOL    HW214097   2.918   6.926   1.760
 4400SOL     OW14098   2.151   5.437   4.720
 4400SOL    HW114099   2.120   5.487   4.639
 4400SOL    HW214100   2.131   5.490   4.802
 4401SOL     OW14101   3.350   6.672   6.975
 4401SOL    HW114102   3.300   6.599   7.020
 4401SOL    HW214103   3.331   6.669   6.876
 4402SOL     OW14104   1.452   0.497   3.841
 4402SOL    HW114105   1.538   0.530   3.879
 4402SOL    HW214106   1.406   0.437   3.907
 4403SOL     OW14107   1.297   4.962   2.025
 4403SOL    HW114108   1.210   5.010   2.020
 4403SOL    HW214109   1.286   4.868   1.994
 4404SOL     OW14110   0.393   6.895   5.963
 4404SOL    HW114111   0.323   6.829   5.991
 4404SOL    HW214112   0.479   6.847   5.946
 4405SOL     OW14113   1.746   5.675   2.942
 4405SOL    HW114114   1.687   5.668   3.023
 4405SOL    HW214115   1.763   5.584   2.905
 4406SOL     OW14116   6.330   3.671   2.204
 4406SOL    HW114117   6.390   3.592   2.213
 4406SOL    HW214118   6.272   3.679   2.286
 4407SOL     OW14119   5.545   6.364   2.369
 4407SOL    HW114120   5.605   6.285   2.353
 4407SOL    HW214121   5.455   6.333   2.399
 4408SOL     OW14122   4.215   1.189   0.271
 4408SOL    HW114123   4.204   1.244   0.354
 4408SOL    HW214124   4.242   1.249   0.196
 4409SOL     OW14125   2.994   0.304   2.964
 4409SOL    HW114126   2.949   0.219   2.993
 4409SOL    HW214127   3.094   0.293   2.972
 4410SOL     OW14128   0.495   6.546   0.954
 4410SOL    HW114129   0.578   6.584   0.913
 4410SOL    HW214130   0.492   6.570   1.051
 4411SOL     OW14131   3.595   4.318   5.312
 4411SOL    HW114132   3.685   4.274   5.314
 4411SOL    HW214133   3.537   4.272   5.245
 4412SOL     OW14134   4.501   6.250   2.797
 4412SOL    HW114135   4.535   6.259   2.703
 4412SOL    HW214136   4.501   6.154   2.824
 4413SOL     OW14137   4.584   6.602   4.096
 4413SOL    HW114138   4.654   6.636   4.159
 4413SOL    HW214139   4.498   6.591   4.145
 4414SOL     OW14140   4.761   3.939   1.497
 4414SOL    HW114141   4.786   3.845   1.519
 4414SOL    HW214142   4.828   4.001   1.539
 4415SOL     OW14143   2.019   2.765   1.598
 4415SOL    HW114144   1.983   2.807   1.682
 4415SOL    HW214145   1.975   2.807   1.519
 4416SOL     OW14146   4.659   2.446   3.474
 4416SOL    HW114147   4.740   2.430   3.530
 4416SOL    HW214148   4.579   2.406   3.518
 4417SOL     OW14149   0.155   3.817   2.732
 4417SOL    HW114150   0.174   3.750   2.803
 4417SOL    HW214151   0.069   3.794   2.687
 4418SOL     OW14152   6.229   6.636   5.807
 4418SOL    HW114153   6.174   6.573   5.751
 4418SOL    HW214154   6.226   6.728   5.766
 4419SOL     OW14155   5.985   5.145   6.797
 4419SOL    HW114156   5.887   5.153   6.782
 4419SOL    HW214157   6.010   5.049   6.811
 4420SOL     OW14158   3.273   2.488   0.879
 4420SOL    HW114159   3.359   2.466   0.834
 4420SOL    HW214160   3.284   2.480   0.978
 4421SOL     OW14161   1.641   2.522   6.809
 4421SOL    HW114162   1.639   2.432   6.766
 4421SOL    HW214163   1.717   2.526   6.874
 4422SOL     OW14164   6.217   3.735   5.912
 4422SOL    HW114165   6.153   3.708   5.840
 4422SOL    HW214166   6.174   3.720   6.001
 4423SOL     OW14167   5.736   4.199   4.920
 4423SOL    HW114168   5.733   4.240   5.012
 4423SOL    HW214169   5.659   4.136   4.909
 4424SOL     OW14170   4.564   5.991   2.869
 4424SOL    HW114171   4.578   5.973   2.966
 4424SOL    HW214172   4.631   5.938   2.815
 4425SOL     OW14173   1.634   4.923   1.475
 4425SOL    HW114174   1.661   5.017   1.495
 4425SOL    HW214175   1.544   4.905   1.515
 4426SOL     OW14176   0.837   0.560   4.776
 4426SOL    HW114177   0.806   0.595   4.687
 4426SOL    HW214178   0.765   0.575   4.844
 4427SOL     OW14179   2.330   6.064   2.720
 4427SOL    HW114180   2.271   6.028   2.648
 4427SOL    HW214181   2.419   6.018   2.717
 4428SOL     OW14182   5.354   6.184   3.416
 4428SOL    HW114183   5.387   6.268   3.460
 4428SOL    HW214184   5.262   6.200   3.379
 4429SOL     OW14185   3.175   6.156   3.097
 4429SOL    HW114186   3.101   6.188   3.156
 4429SOL    HW214187   3.164   6.194   3.005
 4430SOL     OW14188   5.078   3.973   5.510
 4430SOL    HW114189   5.128   3.896   5.472
 4430SOL    HW214190   5.057   4.039   5.438
 4431SOL     OW14191   3.043   6.516   4.083
 4431SOL    HW114192   3.123   6.517   4.023
 4431SOL    HW214193   3.057   6.451   4.157
 4432SOL     OW14194   0.760   3.965   5.949
 4432SOL    HW114195   0.750   4.037   5.880
 4432SOL    HW214196   0.681   3.904   5.945
 4433SOL     OW14197   1.002   0.957   5.867
 4433SOL    HW114198   0.968   1.010   5.789
 4433SOL    HW214199   1.070   1.012   5.917
 4434SOL     OW14200   0.351   0.628   2.950
 4434SOL    HW114201   0.438   0.678   2.951
 4434SOL    HW214202   0.286   0.672   3.011
 4435SOL     OW14203   2.631   4.403   0.015
 4435SOL    HW114204   2.650   4.417   0.112
 4435SOL    HW214205   2.554   4.339   0.005
 4436SOL     OW14206   4.398   1.657   1.950
 4436SOL    HW114207   4.424   1.750   1.926
 4436SOL    HW214208   4.467   1.618   2.012
 4437SOL     OW14209   6.648   4.260   0.191
 4437SOL    HW114210   6.552   4.265   0.161
 4437SOL    HW214211   6.653   4.273   0.290
 4438SOL     OW14212   3.820   0.604   5.532
 4438SOL    HW114213   3.882   0.591   5.609
 4438SOL    HW214214   3.861   0.564   5.450
 4439SOL     OW14215   2.864   6.820   2.822
 4439SOL    HW114216   2.962   6.809   2.803
 4439SOL    HW214217   2.823   6.731   2.840
 4440SOL     OW14218   1.343   4.836   6.848
 4440SOL    HW114219   1.292   4.887   6.778
 4440SOL    HW214220   1.286   4.761   6.882
 4441SOL     OW14221   6.705   1.805   0.915
 4441SOL    HW114222   6.739   1.886   0.962
 4441SOL    HW214223   6.724   1.813   0.817
 4442SOL     OW14224   1.919   5.315   6.791
 4442SOL    HW114225   1.941   5.218   6.800
 4442SOL    HW214226   1.869   5.344   6.873
 4443SOL     OW14227   0.754   5.232   6.113
 4443SOL    HW114228   0.701   5.269   6.189
 4443SOL    HW214229   0.724   5.273   6.027
 4444SOL     OW14230   5.727   4.838   6.941
 4444SOL    HW114231   5.678   4.853   0.001
 4444SOL    HW214232   5.822   4.817   6.960
 4445SOL     OW14233   0.436   4.919   0.393
 4445SOL    HW114234   0.482   5.008   0.390
 4445SOL    HW214235   0.498   4.849   0.358
 4446SOL     OW14236   4.670   1.559   1.129
 4446SOL    HW114237   4.673   1.659   1.128
 4446SOL    HW214238   4.637   1.527   1.217
 4447SOL     OW14239   4.809   5.803   5.847
 4447SOL    HW114240   4.713   5.816   5.871
 4447SOL    HW214241   4.821   5.717   5.798
 4448SOL     OW14242   3.506   5.938   1.278
 4448SOL    HW114243   3.488   5.884   1.196
 4448SOL    HW214244   3.598   5.979   1.271
 4449SOL     OW14245   3.300   1.279   5.521
 4449SOL    HW114246   3.346   1.249   5.604
 4449SOL    HW214247   3.293   1.203   5.457
 4450SOL     OW14248   3.029   7.006   6.930
 4450SOL    HW114249   2.931   7.022   6.918
 4450SOL    HW214250   3.043   6.927   6.989
 4451SOL     OW14251   5.081   5.137   3.211
 4451SOL    HW114252   5.164   5.191   3.195
 4451SOL    HW214253   5.094   5.078   3.290
 4452SOL     OW14254   4.688   6.518   4.703
 4452SOL    HW114255   4.672   6.427   4.665
 4452SOL    HW214256   4.605   6.551   4.747
 4453SOL     OW14257   6.405   4.485   0.234
 4453SOL    HW114258   6.313   4.514   0.206
 4453SOL    HW214259   6.398   4.429   0.317
 4454SOL     OW14260   1.427   3.046   0.460
 4454SOL    HW114261   1.403   3.048   0.557
 4454SOL    HW214262   1.517   3.004   0.449
 4455SOL     OW14263   1.044   6.543   5.453
 4455SOL    HW114264   1.104   6.623   5.448
 4455SOL    HW214265   0.999   6.541   5.542
 4456SOL     OW14266   2.866   0.076   4.683
 4456SOL    HW114267   2.833   0.143   4.616
 4456SOL    HW214268   2.948   0.031   4.647
 4457SOL     OW14269   1.721   1.944   4.355
 4457SOL    HW114270   1.819   1.960   4.353
 4457SOL    HW214271   1.702   1.859   4.405
 4458SOL     OW14272   1.675   3.650   6.670
 4458SOL    HW114273   1.576   3.663   6.657
 4458SOL    HW214274   1.725   3.713   6.611
 4459SOL     OW14275   0.846   2.458   2.795
 4459SOL    HW114276   0.910   2.424   2.726
 4459SOL    HW214277   0.839   2.392   2.869
 4460SOL     OW14278   6.868   2.339   4.635
 4460SOL    HW114279   6.885   2.302   4.726
 4460SOL    HW214280   6.841   2.435   4.642
 4461SOL     OW14281   1.862   0.972   0.897
 4461SOL    HW114282   1.953   1.004   0.924
 4461SOL    HW214283   1.793   1.036   0.931
 4462SOL     OW14284   6.680   4.009   3.245
 4462SOL    HW114285   6.688   4.039   3.150
 4462SOL    HW214286   6.667   3.909   3.247
 4463SOL     OW14287   5.796   1.893   0.191
 4463SOL    HW114288   5.812   1.991   0.197
 4463SOL    HW214289   5.724   1.875   0.123
 4464SOL     OW14290   6.969   4.930   1.377
 4464SOL    HW114291   6.978   4.957   1.472
 4464SOL    HW214292   0.023   4.878   1.349
 4465SOL     OW14293   3.729   5.585   1.418
 4465SOL    HW114294   3.752   5.493   1.387
 4465SOL    HW214295   3.794   5.614   1.488
 4466SOL     OW14296   1.978   2.165   2.666
 4466SOL    HW114297   1.889   2.130   2.635
 4466SOL    HW214298   1.965   2.254   2.710
 4467SOL     OW14299   4.999   5.816   3.068
 4467SOL    HW114300   5.038   5.732   3.106
 4467SOL    HW214301   5.059   5.893   3.090
 4468SOL     OW14302   1.785   3.120   1.791
 4468SOL    HW114303   1.860   3.119   1.725
 4468SOL    HW214304   1.796   3.046   1.857
 4469SOL     OW14305   2.415   6.441   1.216
 4469SOL    HW114306   2.504   6.429   1.260
 4469SOL    HW214307   2.362   6.357   1.224
 4470SOL     OW14308   2.270   6.939   2.657
 4470SOL    HW114309   2.186   6.963   2.707
 4470SOL    HW214310   2.349   6.961   2.713
 4471SOL     OW14311   1.224   0.443   6.650
 4471SOL    HW114312   1.165   0.494   6.713
 4471SOL    HW214313   1.319   0.466   6.666
 4472SOL     OW14314   1.935   2.695   0.769
 4472SOL    HW114315   1.977   2.743   0.846
 4472SOL    HW214316   1.836   2.689   0.783
 4473SOL     OW14317   0.125   2.436   4.672
 4473SOL    HW114318   0.040   2.388   4.652
 4473SOL    HW214319   0.203   2.376   4.653
 4474SOL     OW14320   3.058   5.780   1.179
 4474SOL    HW114321   3.103   5.763   1.091
 4474SOL    HW214322   3.029   5.876   1.184
 4475SOL     OW14323   1.108   4.087   1.088
 4475SOL    HW114324   1.063   4.038   1.013
 4475SOL    HW214325   1.207   4.076   1.080
 4476SOL     OW14326   5.603   1.050   3.769
 4476SOL    HW114327   5.566   1.060   3.677
 4476SOL    HW214328   5.549   1.104   3.833
 4477SOL     OW14329   1.293   0.963   4.905
 4477SOL    HW114330   1.198   0.993   4.902
 4477SOL    HW214331   1.334   0.992   4.992
 4478SOL     OW14332   1.758   0.021   1.189
 4478SOL    HW114333   1.765   6.985   1.267
 4478SOL    HW214334   1.662   0.038   1.167
 4479SOL     OW14335   1.845   1.963   0.059
 4479SOL    HW114336   1.879   2.050   0.023
 4479SOL    HW214337   1.755   1.976   0.099
 4480SOL     OW14338   1.327   6.372   3.838
 4480SOL    HW114339   1.386   6.388   3.759
 4480SOL    HW214340   1.232   6.391   3.814
 4481SOL     OW14341   2.056   3.860   5.967
 4481SOL    HW114342   1.988   3.929   5.993
 4481SOL    HW214343   2.145   3.885   6.006
 4482SOL     OW14344   2.391   6.801   1.416
 4482SOL    HW114345   2.403   6.889   1.371
 4482SOL    HW214346   2.478   6.772   1.456
 4483SOL     OW14347   1.419   3.821   0.554
 4483SOL    HW114348   1.492   3.806   0.621
 4483SOL    HW214349   1.337   3.853   0.600
 4484SOL     OW14350   2.371   1.063   6.807
 4484SOL    HW114351   2.454   1.063   6.862
 4484SOL    HW214352   2.337   0.970   6.796
 4485SOL     OW14353   6.632   2.688   5.210
 4485SOL    HW114354   6.549   2.740   5.228
 4485SOL    HW214355   6.711   2.739   5.245
 4486SOL     OW14356   4.748   5.026   4.832
 4486SOL    HW114357   4.820   5.053   4.895
 4486SOL    HW214358   4.775   4.943   4.783
 4487SOL     OW14359   0.644   2.607   6.567
 4487SOL    HW114360   0.607   2.666   6.496
 4487SOL    HW214361   0.667   2.517   6.529
 4488SOL     OW14362   0.533   4.266   3.491
 4488SOL    HW114363   0.461   4.197   3.500
 4488SOL    HW214364   0.594   4.261   3.570
 4489SOL     OW14365   3.808   6.033   6.374
 4489SOL    HW114366   3.891   6.085   6.355
 4489SOL    HW214367   3.827   5.962   6.441
 4490SOL     OW14368   5.118   1.598   1.897
 4490SOL    HW114369   5.076   1.540   1.828
 4490SOL    HW214370   5.049   1.659   1.937
 4491SOL     OW14371   1.227   2.985   3.043
 4491SOL    HW114372   1.260   3.062   3.098
 4491SOL    HW214373   1.127   2.984   3.043
 4492SOL     OW14374   6.775   0.698   2.292
 4492SOL    HW114375   6.776   0.796   2.274
 4492SOL    HW214376   6.829   0.651   2.222
 4493SOL     OW14377   5.626   1.687   5.720
 4493SOL    HW114378   5.634   1.688   5.620
 4493SOL    HW214379   5.659   1.600   5.755
 4494SOL     OW14380   1.225   0.714   1.653
 4494SOL    HW114381   1.131   0.681   1.644
 4494SOL    HW214382   1.283   0.641   1.689
 4495SOL     OW14383   4.359   6.361   0.972
 4495SOL    HW114384   4.333   6.305   0.894
 4495SOL    HW214385   4.445   6.327   1.011
 4496SOL     OW14386   3.216   6.433   6.344
 4496SOL    HW114387   3.179   6.465   6.257
 4496SOL    HW214388   3.304   6.478   6.361
 4497SOL     OW14389   3.765   0.828   5.889
 4497SOL    HW114390   3.701   0.865   5.821
 4497SOL    HW214391   3.772   0.891   5.966
 4498SOL     OW14392   0.057   5.198   4.727
 4498SOL    HW114393   0.054   5.287   4.773
 4498SOL    HW214394   0.044   5.210   4.629
 4499SOL     OW14395   5.738   1.652   1.825
 4499SOL    HW114396   5.821   1.626   1.775
 4499SOL    HW214397   5.673   1.576   1.822
 4500SOL     OW14398   4.111   5.649   6.948
 4500SOL    HW114399   4.120   5.558   6.987
 4500SOL    HW214400   4.097   5.642   6.849
 4501SOL     OW14401   6.112   0.329   2.422
 4501SOL    HW114402   6.206   0.360   2.437
 4501SOL    HW214403   6.105   0.233   2.449
 4502SOL     OW14404   7.002   3.615   6.760
 4502SOL    HW114405   0.070   3.633   6.788
 4502SOL    HW214406   6.980   3.518   6.776
 4503SOL     OW14407   3.190   1.355   2.680
 4503SOL    HW114408   3.156   1.282   2.620
 4503SOL    HW214409   3.263   1.404   2.634
 4504SOL     OW14410   0.321   1.761   2.782
 4504SOL    HW114411   0.392   1.697   2.754
 4504SOL    HW214412   0.288   1.737   2.874
 4505SOL     OW14413   5.769   4.220   3.695
 4505SOL    HW114414   5.781   4.260   3.605
 4505SOL    HW214415   5.788   4.288   3.766
 4506SOL     OW14416   5.418   2.797   5.664
 4506SOL    HW114417   5.383   2.862   5.730
 4506SOL    HW214418   5.436   2.844   5.577
 4507SOL     OW14419   6.203   2.102   3.096
 4507SOL    HW114420   6.231   2.166   3.168
 4507SOL    HW214421   6.282   2.082   3.037
 4508SOL     OW14422   0.102   4.659   1.019
 4508SOL    HW114423   0.069   4.636   1.111
 4508SOL    HW214424   0.026   4.649   0.954
 4509SOL     OW14425   4.982   2.559   2.026
 4509SOL    HW114426   5.021   2.652   2.029
 4509SOL    HW214427   4.893   2.562   1.981
 4510SOL     OW14428   3.990   1.133   4.312
 4510SOL    HW114429   3.978   1.129   4.213
 4510SOL    HW214430   3.940   1.212   4.349
 4511SOL     OW14431   0.310   4.679   6.915
 4511SOL    HW114432   0.328   4.581   6.903
 4511SOL    HW214433   0.213   4.693   6.932
 4512SOL     OW14434   3.209   3.423   5.073
 4512SOL    HW114435   3.121   3.398   5.033
 4512SOL    HW214436   3.230   3.518   5.048
 4513SOL     OW14437   0.371   0.122   1.080
 4513SOL    HW114438   0.338   0.028   1.087
 4513SOL    HW214439   0.447   0.125   1.015
 4514SOL     OW14440   3.917   4.728   6.595
 4514SOL    HW114441   3.847   4.660   6.571
 4514SOL    HW214442   3.888   4.778   6.676
 4515SOL     OW14443   3.820   0.901   6.190
 4515SOL    HW114444   3.753   0.845   6.238
 4515SOL    HW214445   3.774   0.978   6.147
 4516SOL     OW14446   2.652   2.294   5.451
 4516SOL    HW114447   2.707   2.295   5.368
 4516SOL    HW214448   2.644   2.200   5.485
 4517SOL     OW14449   3.905   0.884   5.533
 4517SOL    HW114450   3.855   0.806   5.571
 4517SOL    HW214451   4.001   0.860   5.523
 4518SOL     OW14452   0.707   6.334   1.219
 4518SOL    HW114453   0.790   6.389   1.212
 4518SOL    HW214454   0.663   6.353   1.307
 4519SOL     OW14455   4.598   6.788   0.108
 4519SOL    HW114456   4.611   6.696   0.072
 4519SOL    HW214457   4.684   6.822   0.146
 4520SOL     OW14458   4.543   5.833   5.918
 4520SOL    HW114459   4.505   5.906   5.861
 4520SOL    HW214460   4.470   5.774   5.952
 4521SOL     OW14461   4.368   2.335   4.256
 4521SOL    HW114462   4.383   2.237   4.273
 4521SOL    HW214463   4.380   2.386   4.341
 4522SOL     OW14464   5.646   3.926   3.579
 4522SOL    HW114465   5.602   3.849   3.533
 4522SOL    HW214466   5.739   3.900   3.607
 4523SOL     OW14467   0.342   3.310   5.567
 4523SOL    HW114468   0.300   3.398   5.590
 4523SOL    HW214469   0.369   3.311   5.470
 4524SOL     OW14470   1.571   3.440   1.913
 4524SOL    HW114471   1.509   3.391   1.853
 4524SOL    HW214472   1.549   3.538   1.911
 4525SOL     OW14473   3.574   2.416   5.679
 4525SOL    HW114474   3.648   2.357   5.645
 4525SOL    HW214475   3.563   2.401   5.778
 4526SOL     OW14476   0.965   6.561   5.734
 4526SOL    HW114477   1.012   6.475   5.758
 4526SOL    HW214478   1.008   6.637   5.783
 4527SOL     OW14479   0.364   1.310   2.596
 4527SOL    HW114480   0.415   1.227   2.574
 4527SOL    HW214481   0.277   1.310   2.546
 4528SOL     OW14482   4.844   0.770   5.029
 4528SOL    HW114483   4.767   0.766   4.964
 4528SOL    HW214484   4.887   0.860   5.023
 4529SOL     OW14485   2.054   0.971   4.112
 4529SOL    HW114486   2.021   0.956   4.019
 4529SOL    HW214487   2.135   0.915   4.128
 4530SOL     OW14488   4.348   5.877   6.492
 4530SOL    HW114489   4.343   5.879   6.392
 4530SOL    HW214490   4.261   5.844   6.529
 4531SOL     OW14491   1.718   6.161   5.116
 4531SOL    HW114492   1.802   6.111   5.094
 4531SOL    HW214493   1.742   6.249   5.156
 4532SOL     OW14494   5.810   1.614   2.905
 4532SOL    HW114495   5.867   1.531   2.897
 4532SOL    HW214496   5.828   1.658   2.993
 4533SOL     OW14497   2.525   0.367   1.223
 4533SOL    HW114498   2.430   0.337   1.228
 4533SOL    HW214499   2.530   0.464   1.250
 4534SOL     OW14500   4.883   1.519   4.117
 4534SOL    HW114501   4.886   1.564   4.027
 4534SOL    HW214502   4.938   1.571   4.182
 4535SOL     OW14503   1.940   0.712   0.919
 4535SOL    HW114504   1.918   0.670   1.007
 4535SOL    HW214505   1.945   0.812   0.930
 4536SOL     OW14506   3.381   7.013   5.652
 4536SOL    HW114507   3.390   6.914   5.646
 4536SOL    HW214508   3.347   0.011   5.743
 4537SOL     OW14509   2.941   3.506   3.383
 4537SOL    HW114510   2.899   3.575   3.442
 4537SOL    HW214511   2.995   3.551   3.312
 4538SOL     OW14512   0.508   2.339   0.689
 4538SOL    HW114513   0.480   2.249   0.724
 4538SOL    HW214514   0.592   2.330   0.636
 4539SOL     OW14515   1.450   5.881   5.468
 4539SOL    HW114516   1.424   5.808   5.406
 4539SOL    HW214517   1.498   5.843   5.547
 4540SOL     OW14518   1.185   2.292   0.270
 4540SOL    HW114519   1.089   2.266   0.270
 4540SOL    HW214520   1.236   2.228   0.212
 4541SOL     OW14521   3.905   2.938   6.171
 4541SOL    HW114522   3.815   2.901   6.148
 4541SOL    HW214523   3.894   3.023   6.223
 4542SOL     OW14524   0.219   1.833   6.468
 4542SOL    HW114525   0.315   1.862   6.469
 4542SOL    HW214526   0.202   1.770   6.544
 4543SOL     OW14527   3.949   1.930   0.475
 4543SOL    HW114528   3.934   1.893   0.566
 4543SOL    HW214529   4.041   1.907   0.443
 4544SOL     OW14530   5.379   6.397   0.464
 4544SOL    HW114531   5.412   6.381   0.557
 4544SOL    HW214532   5.285   6.431   0.467
 4545SOL     OW14533   2.029   2.673   5.097
 4545SOL    HW114534   2.105   2.718   5.052
 4545SOL    HW214535   2.045   2.670   5.195
 4546SOL     OW14536   3.096   0.750   5.400
 4546SOL    HW114537   3.103   0.846   5.372
 4546SOL    HW214538   3.041   0.700   5.334
 4547SOL     OW14539   0.025   0.040   0.190
 4547SOL    HW114540   7.026   6.989   0.247
 4547SOL    HW214541   0.053   0.117   0.248
 4548SOL     OW14542   2.955   1.677   2.306
 4548SOL    HW114543   2.930   1.588   2.346
 4548SOL    HW214544   3.038   1.666   2.251
 4549SOL     OW14545   0.482   3.509   4.346
 4549SOL    HW114546   0.576   3.527   4.319
 4549SOL    HW214547   0.451   3.580   4.410
 4550SOL     OW14548   2.285   5.219   4.088
 4550SOL    HW114549   2.297   5.136   4.142
 4550SOL    HW214550   2.241   5.196   4.001
 4551SOL     OW14551   2.292   2.134   5.146
 4551SOL    HW114552   2.366   2.090   5.094
 4551SOL    HW214553   2.224   2.065   5.171
 4552SOL     OW14554   5.118   1.332   1.061
 4552SOL    HW114555   5.205   1.307   1.104
 4552SOL    HW214556   5.058   1.253   1.058
 4553SOL     OW14557   0.397   5.730   7.018
 4553SOL    HW114558   0.301   5.701   7.017
 4553SOL    HW214559   0.436   5.712   0.082
 4554SOL     OW14560   6.445   6.757   3.064
 4554SOL    HW114561   6.542   6.753   3.039
 4554SOL    HW214562   6.394   6.692   3.008
 4555SOL     OW14563   0.922   1.060   0.862
 4555SOL    HW114564   0.896   1.014   0.778
 4555SOL    HW214565   0.897   1.157   0.857
 4556SOL     OW14566   5.665   4.826   4.346
 4556SOL    HW114567   5.580   4.860   4.305
 4556SOL    HW214568   5.720   4.903   4.379
 4557SOL     OW14569   0.402   5.038   4.195
 4557SOL    HW114570   0.417   4.940   4.212
 4557SOL    HW214571   0.304   5.057   4.196
 4558SOL     OW14572   1.201   4.093   4.818
 4558SOL    HW114573   1.256   4.065   4.896
 4558SOL    HW214574   1.194   4.017   4.753
 4559SOL     OW14575   0.154   2.891   3.990
 4559SOL    HW114576   0.185   2.986   3.996
 4559SOL    HW214577   0.233   2.830   3.998
 4560SOL     OW14578   5.338   4.026   2.965
 4560SOL    HW114579   5.315   3.989   3.055
 4560SOL    HW214580   5.270   4.095   2.940
 4561SOL     OW14581   4.757   2.299   3.756
 4561SOL    HW114582   4.733   2.207   3.727
 4561SOL    HW214583   4.847   2.298   3.799
 4562SOL     OW14584   3.306   1.194   0.567
 4562SOL    HW114585   3.381   1.156   0.622
 4562SOL    HW214586   3.270   1.124   0.506
 4563SOL     OW14587   0.464   4.315   2.324
 4563SOL    HW114588   0.369   4.345   2.314
 4563SOL    HW214589   0.468   4.216   2.315
 4564SOL     OW14590   2.135   3.616   2.250
 4564SOL    HW114591   2.133   3.708   2.212
 4564SOL    HW214592   2.164   3.551   2.179
 4565SOL     OW14593   1.835   6.238   6.693
 4565SOL    HW114594   1.739   6.212   6.682
 4565SOL    HW214595   1.872   6.267   6.605
 4566SOL     OW14596   6.984   4.228   3.498
 4566SOL    HW114597   6.931   4.145   3.516
 4566SOL    HW214598   6.929   4.308   3.518
 4567SOL     OW14599   0.356   0.018   6.640
 4567SOL    HW114600   0.353   0.040   6.737
 4567SOL    HW214601   0.273   0.051   6.595
 4568SOL     OW14602   1.261   5.268   3.290
 4568SOL    HW114603   1.234   5.214   3.210
 4568SOL    HW214604   1.302   5.208   3.358
 4569SOL     OW14605   1.778   1.143   3.128
 4569SOL    HW114606   1.849   1.198   3.174
 4569SOL    HW214607   1.821   1.081   3.063
 4570SOL     OW14608   5.281   5.672   1.554
 4570SOL    HW114609   5.289   5.584   1.602
 4570SOL    HW214610   5.338   5.670   1.472
 4571SOL     OW14611   2.413   3.205   6.170
 4571SOL    HW114612   2.349   3.173   6.101
 4571SOL    HW214613   2.445   3.297   6.145
 4572SOL     OW14614   3.451   3.317   1.895
 4572SOL    HW114615   3.399   3.388   1.942
 4572SOL    HW214616   3.391   3.237   1.880
 4573SOL     OW14617   3.241   5.284   0.750
 4573SOL    HW114618   3.226   5.213   0.820
 4573SOL    HW214619   3.327   5.331   0.769
 4574SOL     OW14620   4.997   0.853   1.849
 4574SOL    HW114621   5.034   0.837   1.940
 4574SOL    HW214622   4.898   0.836   1.849
 4575SOL     OW14623   0.715   7.022   5.665
 4575SOL    HW114624   0.622   6.999   5.692
 4575SOL    HW214625   0.748   6.956   5.597
 4576SOL     OW14626   2.958   4.722   6.058
 4576SOL    HW114627   3.006   4.804   6.088
 4576SOL    HW214628   2.976   4.648   6.122
 4577SOL     OW14629   0.802   1.852   2.096
 4577SOL    HW114630   0.887   1.887   2.136
 4577SOL    HW214631   0.771   1.773   2.150
 4578SOL     OW14632   1.252   1.679   1.829
 4578SOL    HW114633   1.217   1.674   1.923
 4578SOL    HW214634   1.260   1.587   1.792
 4579SOL     OW14635   4.481   0.587   3.428
 4579SOL    HW114636   4.414   0.513   3.424
 4579SOL    HW214637   4.535   0.577   3.512
 4580SOL     OW14638   0.278   1.466   1.269
 4580SOL    HW114639   0.263   1.514   1.182
 4580SOL    HW214640   0.369   1.426   1.270
 4581SOL     OW14641   3.234   0.926   0.846
 4581SOL    HW114642   3.330   0.954   0.849
 4581SOL    HW214643   3.183   0.975   0.917
 4582SOL     OW14644   6.585   1.193   3.778
 4582SOL    HW114645   6.660   1.181   3.844
 4582SOL    HW214646   6.581   1.113   3.719
 4583SOL     OW14647   2.002   0.624   0.376
 4583SOL    HW114648   2.097   0.647   0.397
 4583SOL    HW214649   1.955   0.597   0.460
 4584SOL     OW14650   0.520   1.643   4.416
 4584SOL    HW114651   0.441   1.662   4.475
 4584SOL    HW214652   0.503   1.679   4.325
 4585SOL     OW14653   1.675   3.248   3.170
 4585SOL    HW114654   1.648   3.161   3.210
 4585SOL    HW214655   1.728   3.232   3.087
 4586SOL     OW14656   5.926   4.918   6.440
 4586SOL    HW114657   5.852   4.953   6.497
 4586SOL    HW214658   6.012   4.964   6.464
 4587SOL     OW14659   3.465   3.291   5.077
 4587SOL    HW114660   3.453   3.192   5.077
 4587SOL    HW214661   3.378   3.335   5.100
 4588SOL     OW14662   3.378   3.962   6.473
 4588SOL    HW114663   3.322   3.974   6.391
 4588SOL    HW214664   3.371   3.867   6.504
 4589SOL     OW14665   5.593   6.567   2.181
 4589SOL    HW114666   5.644   6.542   2.099
 4589SOL    HW214667   5.554   6.485   2.222
 4590SOL     OW14668   3.662   5.254   1.329
 4590SOL    HW114669   3.571   5.288   1.309
 4590SOL    HW214670   3.686   5.180   1.266
 4591SOL     OW14671   2.371   0.501   5.380
 4591SOL    HW114672   2.437   0.549   5.323
 4591SOL    HW214673   2.375   0.403   5.359
 4592SOL     OW14674   2.059   1.469   3.978
 4592SOL    HW114675   1.986   1.538   3.988
 4592SOL    HW214676   2.137   1.495   4.034
 4593SOL     OW14677   1.476   5.300   4.274
 4593SOL    HW114678   1.379   5.307   4.301
 4593SOL    HW214679   1.531   5.358   4.334
 4594SOL     OW14680   2.297   0.096   3.194
 4594SOL    HW114681   2.321   7.026   3.206
 4594SOL    HW214682   2.263   0.133   3.280
 4595SOL     OW14683   5.461   1.994   6.378
 4595SOL    HW114684   5.396   2.066   6.352
 4595SOL    HW214685   5.425   1.906   6.349
 4596SOL     OW14686   0.071   0.737   2.120
 4596SOL    HW114687   0.062   0.681   2.202
 4596SOL    HW214688   0.135   0.812   2.138
 4597SOL     OW14689   2.593   5.926   0.691
 4597SOL    HW114690   2.495   5.905   0.698
 4597SOL    HW214691   2.646   5.843   0.707
 4598SOL     OW14692   0.515   4.472   0.481
 4598SOL    HW114693   0.426   4.453   0.522
 4598SOL    HW214694   0.580   4.401   0.510
 4599SOL     OW14695   3.782   6.130   2.013
 4599SOL    HW114696   3.745   6.052   1.961
 4599SOL    HW214697   3.757   6.215   1.967
 4600SOL     OW14698   0.540   6.146   6.481
 4600SOL    HW114699   0.461   6.156   6.541
 4600SOL    HW214700   0.511   6.153   6.386
 4601SOL     OW14701   1.694   0.576   5.281
 4601SOL    HW114702   1.766   0.609   5.220
 4601SOL    HW214703   1.690   0.634   5.363
 4602SOL     OW14704   3.230   1.940   5.700
 4602SOL    HW114705   3.154   2.002   5.721
 4602SOL    HW214706   3.309   1.965   5.755
 4603SOL     OW14707   4.634   0.181   1.345
 4603SOL    HW114708   4.604   0.257   1.287
 4603SOL    HW214709   4.554   0.126   1.371
 4604SOL     OW14710   6.680   0.026   4.541
 4604SOL    HW114711   6.758   6.997   4.567
 4604SOL    HW214712   6.701   0.123   4.555
 4605SOL     OW14713   3.702   0.323   1.229
 4605SOL    HW114714   3.617   0.281   1.261
 4605SOL    HW214715   3.687   0.361   1.137
 4606SOL     OW14716   6.880   6.554   5.133
 4606SOL    HW114717   6.887   6.597   5.043
 4606SOL    HW214718   6.866   6.624   5.203
 4607SOL     OW14719   2.117   2.016   0.794
 4607SOL    HW114720   2.215   1.994   0.790
 4607SOL    HW214721   2.071   1.953   0.855
 4608SOL     OW14722   0.013   2.633   4.854
 4608SOL    HW114723   6.942   2.649   4.838
 4608SOL    HW214724   0.052   2.582   4.777
 4609SOL     OW14725   5.029   5.145   6.792
 4609SOL    HW114726   5.080   5.224   6.759
 4609SOL    HW214727   5.028   5.075   6.721
 4610SOL     OW14728   5.364   4.735   0.287
 4610SOL    HW114729   5.272   4.721   0.324
 4610SOL    HW214730   5.358   4.778   0.197
 4611SOL     OW14731   0.502   1.186   6.641
 4611SOL    HW114732   0.519   1.248   6.565
 4611SOL    HW214733   0.406   1.157   6.639
 4612SOL     OW14734   2.202   1.673   1.785
 4612SOL    HW114735   2.165   1.661   1.693
 4612SOL    HW214736   2.265   1.598   1.805
 4613SOL     OW14737   1.421   4.814   1.623
 4613SOL    HW114738   1.448   4.742   1.686
 4613SOL    HW214739   1.350   4.870   1.665
 4614SOL     OW14740   6.585   4.290   4.250
 4614SOL    HW114741   6.513   4.358   4.267
 4614SOL    HW214742   6.610   4.246   4.336
 4615SOL     OW14743   1.331   3.738   5.848
 4615SOL    HW114744   1.248   3.705   5.892
 4615SOL    HW214745   1.404   3.746   5.916
 4616SOL     OW14746   0.644   3.028   5.515
 4616SOL    HW114747   0.557   3.063   5.550
 4616SOL    HW214748   0.659   2.935   5.550
 4617SOL     OW14749   0.052   2.635   3.669
 4617SOL    HW114750   0.072   2.567   3.599
 4617SOL    HW214751   0.017   2.590   3.751
 4618SOL     OW14752   2.245   4.247   5.805
 4618SOL    HW114753   2.306   4.326   5.806
 4618SOL    HW214754   2.225   4.219   5.899
 4619SOL     OW14755   4.750   6.508   6.619
 4619SOL    HW114756   4.833   6.489   6.567
 4619SOL    HW214757   4.690   6.428   6.617
 4620SOL     OW14758   0.917   5.172   2.477
 4620SOL    HW114759   0.887   5.089   2.525
 4620SOL    HW214760   0.979   5.147   2.403
 4621SOL     OW14761   3.415   6.911   2.454
 4621SOL    HW114762   3.499   6.963   2.464
 4621SOL    HW214763   3.337   6.974   2.453
 4622SOL     OW14764   5.514   6.604   0.756
 4622SOL    HW114765   5.591   6.546   0.782
 4622SOL    HW214766   5.492   6.666   0.831
 4623SOL     OW14767   2.865   4.564   1.552
 4623SOL    HW114768   2.950   4.594   1.596
 4623SOL    HW214769   2.806   4.521   1.620
 4624SOL     OW14770   4.450   1.238   2.083
 4624SOL    HW114771   4.480   1.183   2.161
 4624SOL    HW214772   4.466   1.335   2.104
 4625SOL     OW14773   1.800   6.533   1.485
 4625SOL    HW114774   1.835   6.451   1.530
 4625SOL    HW214775   1.774   6.511   1.391
 4626SOL     OW14776   4.235   3.504   1.431
 4626SOL    HW114777   4.223   3.407   1.411
 4626SOL    HW214778   4.308   3.541   1.374
 4627SOL     OW14779   5.270   0.195   5.258
 4627SOL    HW114780   5.287   0.140   5.177
 4627SOL    HW214781   5.261   0.135   5.338
 4628SOL     OW14782   5.603   4.517   3.602
 4628SOL    HW114783   5.596   4.438   3.541
 4628SOL    HW214784   5.528   4.514   3.669
 4629SOL     OW14785   1.921   5.571   0.379
 4629SOL    HW114786   1.872   5.646   0.424
 4629SOL    HW214787   1.978   5.607   0.305
 4630SOL     OW14788   1.838   3.309   1.458
 4630SOL    HW114789   1.901   3.250   1.509
 4630SOL    HW214790   1.844   3.286   1.361
 4631SOL     OW14791   0.167   0.720   3.146
 4631SOL    HW114792   0.128   0.807   3.176
 4631SOL    HW214793   0.187   0.662   3.225
 4632SOL     OW14794   3.581   4.949   2.909
 4632SOL    HW114795   3.495   4.900   2.895
 4632SOL    HW214796   3.566   5.047   2.896
 4633SOL     OW14797   4.915   1.444   4.945
 4633SOL    HW114798   4.915   1.346   4.926
 4633SOL    HW214799   4.988   1.466   5.010
 4634SOL     OW14800   3.846   3.957   5.375
 4634SOL    HW114801   3.821   3.889   5.443
 4634SOL    HW214802   3.936   3.995   5.398
 4635SOL     OW14803   4.307   6.523   1.553
 4635SOL    HW114804   4.351   6.479   1.475
 4635SOL    HW214805   4.287   6.618   1.531
 4636SOL     OW14806   1.241   5.301   6.882
 4636SOL    HW114807   1.290   5.278   6.966
 4636SOL    HW214808   1.184   5.224   6.855
 4637SOL     OW14809   3.084   1.391   3.773
 4637SOL    HW114810   3.183   1.379   3.769
 4637SOL    HW214811   3.059   1.476   3.727
 4638SOL     OW14812   3.908   4.848   6.858
 4638SOL    HW114813   3.853   4.929   6.880
 4638SOL    HW214814   3.983   4.841   6.923
 4639SOL     OW14815   3.928   2.272   1.788
 4639SOL    HW114816   3.829   2.289   1.794
 4639SOL    HW214817   3.953   2.200   1.853
 4640SOL     OW14818   6.274   3.770   0.122
 4640SOL    HW114819   6.235   3.720   0.045
 4640SOL    HW214820   6.209   3.842   0.150
 4641SOL     OW14821   1.509   5.919   4.490
 4641SOL    HW114822   1.511   5.923   4.590
 4641SOL    HW214823   1.486   6.010   4.454
 4642SOL     OW14824   6.355   0.958   4.571
 4642SOL    HW114825   6.259   0.932   4.558
 4642SOL    HW214826   6.403   0.885   4.618
 4643SOL     OW14827   0.579   2.038   6.956
 4643SOL    HW114828   0.629   1.990   0.001
 4643SOL    HW214829   0.510   2.097   6.997
 4644SOL     OW14830   1.437   0.612   0.900
 4644SOL    HW114831   1.453   0.539   0.834
 4644SOL    HW214832   1.340   0.616   0.922
 4645SOL     OW14833   6.583   1.729   4.514
 4645SOL    HW114834   6.528   1.650   4.487
 4645SOL    HW214835   6.558   1.757   4.607
 4646SOL     OW14836   2.413   4.333   4.049
 4646SOL    HW114837   2.363   4.397   4.107
 4646SOL    HW214838   2.359   4.250   4.036
 4647SOL     OW14839   1.052   6.592   1.315
 4647SOL    HW114840   1.113   6.566   1.240
 4647SOL    HW214841   1.105   6.634   1.388
 4648SOL     OW14842   2.423   1.354   4.215
 4648SOL    HW114843   2.491   1.419   4.247
 4648SOL    HW214844   2.409   1.283   4.284
 4649SOL     OW14845   6.005   1.751   0.099
 4649SOL    HW114846   5.928   1.801   0.138
 4649SOL    HW214847   5.989   1.652   0.109
 4650SOL     OW14848   5.119   6.194   0.858
 4650SOL    HW114849   5.112   6.100   0.826
 4650SOL    HW214850   5.197   6.239   0.814
 4651SOL     OW14851   6.740   3.365   6.107
 4651SOL    HW114852   6.719   3.409   6.195
 4651SOL    HW214853   6.838   3.369   6.090
 4652SOL     OW14854   0.211   6.376   5.172
 4652SOL    HW114855   0.231   6.358   5.076
 4652SOL    HW214856   0.273   6.448   5.205
 4653SOL     OW14857   6.492   5.429   0.331
 4653SOL    HW114858   6.474   5.505   0.268
 4653SOL    HW214859   6.587   5.433   0.361
 4654SOL     OW14860   1.391   0.174   5.954
 4654SOL    HW114861   1.347   0.264   5.951
 4654SOL    HW214862   1.330   0.106   5.914
 4655SOL     OW14863   5.107   3.037   1.640
 4655SOL    HW114864   5.050   3.015   1.720
 4655SOL    HW214865   5.056   3.019   1.556
 4656SOL     OW14866   6.880   0.997   1.610
 4656SOL    HW114867   6.881   1.026   1.514
 4656SOL    HW214868   6.827   1.062   1.664
 4657SOL     OW14869   3.796   1.313   3.082
 4657SOL    HW114870   3.761   1.236   3.135
 4657SOL    HW214871   3.873   1.355   3.130
 4658SOL     OW14872   1.296   2.486   5.904
 4658SOL    HW114873   1.233   2.442   5.968
 4658SOL    HW214874   1.254   2.491   5.814
 4659SOL     OW14875   1.599   4.241   7.009
 4659SOL    HW114876   1.541   4.293   6.947
 4659SOL    HW214877   1.545   4.212   0.062
 4660SOL     OW14878   1.003   5.749   3.055
 4660SOL    HW114879   0.959   5.664   3.082
 4660SOL    HW214880   0.938   5.807   3.006
 4661SOL     OW14881   0.567   1.544   6.206
 4661SOL    HW114882   0.498   1.567   6.138
 4661SOL    HW214883   0.653   1.520   6.160
 4662SOL     OW14884   2.043   0.340   5.387
 4662SOL    HW114885   2.100   0.403   5.440
 4662SOL    HW214886   1.952   0.335   5.428
 4663SOL     OW14887   1.387   6.820   0.540
 4663SOL    HW114888   1.471   6.853   0.496
 4663SOL    HW214889   1.398   6.824   0.639
 4664SOL     OW14890   6.179   0.025   6.818
 4664SOL    HW114891   6.108   0.016   6.748
 4664SOL    HW214892   6.176   6.974   6.880
 4665SOL     OW14893   1.228   0.247   3.688
 4665SOL    HW114894   1.252   0.344   3.686
 4665SOL    HW214895   1.129   0.237   3.691
 4666SOL     OW14896   2.334   1.571   4.796
 4666SOL    HW114897   2.278   1.589   4.715
 4666SOL    HW214898   2.274   1.550   4.873
 4667SOL     OW14899   6.140   4.481   1.060
 4667SOL    HW114900   6.206   4.473   0.985
 4667SOL    HW214901   6.083   4.399   1.063
 4668SOL     OW14902   4.880   1.710   4.828
 4668SOL    HW114903   4.793   1.703   4.780
 4668SOL    HW214904   4.900   1.625   4.876
 4669SOL     OW14905   5.531   6.715   6.066
 4669SOL    HW114906   5.553   6.654   6.142
 4669SOL    HW214907   5.571   6.805   6.083
 4670SOL     OW14908   0.304   2.937   0.218
 4670SOL    HW114909   0.310   2.840   0.195
 4670SOL    HW214910   0.393   2.970   0.248
 4671SOL     OW14911   0.508   3.212   1.300
 4671SOL    HW114912   0.608   3.219   1.302
 4671SOL    HW214913   0.472   3.271   1.228
 4672SOL     OW14914   2.991   4.467   6.669
 4672SOL    HW114915   3.015   4.507   6.757
 4672SOL    HW214916   2.979   4.368   6.680
 4673SOL     OW14917   6.218   1.346   0.365
 4673SOL    HW114918   6.147   1.413   0.343
 4673SOL    HW214919   6.193   1.295   0.447
 4674SOL     OW14920   0.728   2.575   0.694
 4674SOL    HW114921   0.762   2.574   0.788
 4674SOL    HW214922   0.652   2.511   0.685
 4675SOL     OW14923   1.839   5.583   6.719
 4675SOL    HW114924   1.883   5.494   6.734
 4675SOL    HW214925   1.823   5.596   6.621
 4676SOL     OW14926   0.773   6.432   4.103
 4676SOL    HW114927   0.805   6.365   4.036
 4676SOL    HW214928   0.852   6.479   4.143
 4677SOL     OW14929   3.965   0.065   0.036
 4677SOL    HW114930   3.909   0.131   0.087
 4677SOL    HW214931   4.016   0.008   0.101
 4678SOL     OW14932   2.078   4.602   6.581
 4678SOL    HW114933   2.122   4.512   6.593
 4678SOL    HW214934   1.988   4.601   6.623
 4679SOL     OW14935   2.801   6.487   6.169
 4679SOL    HW114936   2.760   6.506   6.080
 4679SOL    HW214937   2.861   6.564   6.195
 4680SOL     OW14938   1.575   4.447   0.437
 4680SOL    HW114939   1.658   4.391   0.446
 4680SOL    HW214940   1.578   4.498   0.351
 4681SOL     OW14941   6.562   5.621   4.797
 4681SOL    HW114942   6.483   5.601   4.855
 4681SOL    HW214943   6.532   5.647   4.706
 4682SOL     OW14944   4.066   6.433   0.709
 4682SOL    HW114945   4.086   6.336   0.722
 4682SOL    HW214946   3.967   6.447   0.705
 4683SOL     OW14947   6.527   4.425   3.773
 4683SOL    HW114948   6.506   4.365   3.695
 4683SOL    HW214949   6.479   4.512   3.761
 4684SOL     OW14950   1.557   1.278   5.120
 4684SOL    HW114951   1.570   1.178   5.119
 4684SOL    HW214952   1.620   1.320   5.055
 4685SOL     OW14953   5.166   4.186   5.085
 4685SOL    HW114954   5.099   4.125   5.128
 4685SOL    HW214955   5.134   4.280   5.092
 4686SOL     OW14956   5.053   5.933   0.687
 4686SOL    HW114957   5.068   5.966   0.594
 4686SOL    HW214958   4.956   5.940   0.709
 4687SOL     OW14959   5.350   6.565   4.517
 4687SOL    HW114960   5.340   6.484   4.458
 4687SOL    HW214961   5.361   6.536   4.612
 4688SOL     OW14962   1.001   2.461   0.074
 4688SOL    HW114963   1.034   2.381   0.124
 4688SOL    HW214964   0.967   2.433   7.011
 4689SOL     OW14965   1.346   5.283   4.738
 4689SOL    HW114966   1.254   5.322   4.752
 4689SOL    HW214967   1.357   5.259   4.642
 4690SOL     OW14968   1.880   2.381   0.473
 4690SOL    HW114969   1.860   2.283   0.476
 4690SOL    HW214970   1.976   2.396   0.496
 4691SOL     OW14971   3.860   4.659   0.207
 4691SOL    HW114972   3.946   4.707   0.193
 4691SOL    HW214973   3.872   4.589   0.278
 4692SOL     OW14974   0.112   5.746   3.104
 4692SOL    HW114975   0.116   5.690   3.186
 4692SOL    HW214976   0.016   5.758   3.077
 4693SOL     OW14977   0.760   0.613   3.895
 4693SOL    HW114978   0.803   0.692   3.938
 4693SOL    HW214979   0.802   0.529   3.927
 4694SOL     OW14980   1.850   0.993   6.272
 4694SOL    HW114981   1.772   1.042   6.234
 4694SOL    HW214982   1.902   0.950   6.197
 4695SOL     OW14983   2.976   2.886   1.598
 4695SOL    HW114984   2.965   2.974   1.552
 4695SOL    HW214985   2.886   2.846   1.617
 4696SOL     OW14986   6.111   3.468   0.259
 4696SOL    HW114987   6.016   3.500   0.267
 4696SOL    HW214988   6.115   3.371   0.282
 4697SOL     OW14989   0.767   5.118   0.201
 4697SOL    HW114990   0.714   5.119   0.286
 4697SOL    HW214991   0.712   5.078   0.128
 4698SOL     OW14992   5.909   3.541   1.568
 4698SOL    HW114993   5.842   3.614   1.575
 4698SOL    HW214994   5.908   3.486   1.652
 4699SOL     OW14995   6.278   0.204   3.558
 4699SOL    HW114996   6.300   0.140   3.485
 4699SOL    HW214997   6.362   0.247   3.591
 4700SOL     OW14998   5.925   6.613   0.122
 4700SOL    HW114999   5.831   6.609   0.157
 4700SOL    HW215000   5.983   6.659   0.189
 4701SOL     OW15001   0.251   0.981   0.451
 4701SOL    HW115002   0.155   0.979   0.481
 4701SOL    HW215003   0.257   1.028   0.363
 4702SOL     OW15004   2.630   3.508   0.107
 4702SOL    HW115005   2.673   3.583   0.158
 4702SOL    HW215006   2.661   3.509   0.012
 4703SOL     OW15007   1.409   1.316   1.209
 4703SOL    HW115008   1.402   1.241   1.144
 4703SOL    HW215009   1.434   1.280   1.299
 4704SOL     OW15010   4.658   0.048   0.315
 4704SOL    HW115011   4.692   7.016   0.242
 4704SOL    HW215012   4.696   0.018   0.403
 4705SOL     OW15013   3.351   4.133   3.925
 4705SOL    HW115014   3.272   4.076   3.949
 4705SOL    HW215015   3.394   4.167   4.009
 4706SOL     OW15016   4.774   5.161   0.983
 4706SOL    HW115017   4.774   5.246   0.930
 4706SOL    HW215018   4.703   5.166   1.054
 4707SOL     OW15019   3.183   6.168   1.327
 4707SOL    HW115020   3.203   6.071   1.344
 4707SOL    HW215021   3.200   6.189   1.231
 4708SOL     OW15022   2.005   2.515   2.333
 4708SOL    HW115023   1.942   2.441   2.309
 4708SOL    HW215024   2.068   2.483   2.403
 4709SOL     OW15025   3.640   3.792   6.807
 4709SOL    HW115026   3.603   3.879   6.775
 4709SOL    HW215027   3.629   3.786   6.906
 4710SOL     OW15028   5.023   2.406   0.552
 4710SOL    HW115029   5.077   2.329   0.518
 4710SOL    HW215030   5.039   2.417   0.650
 4711SOL     OW15031   3.361   6.754   3.127
 4711SOL    HW115032   3.342   6.851   3.116
 4711SOL    HW215033   3.274   6.703   3.129
 4712SOL     OW15034   1.118   4.706   0.518
 4712SOL    HW115035   1.118   4.633   0.450
 4712SOL    HW215036   1.205   4.707   0.567
 4713SOL     OW15037   2.721   5.894   1.102
 4713SOL    HW115038   2.699   5.944   1.185
 4713SOL    HW215039   2.641   5.893   1.041
 4714SOL     OW15040   3.189   2.549   0.603
 4714SOL    HW115041   3.123   2.621   0.622
 4714SOL    HW215042   3.202   2.493   0.685
 4715SOL     OW15043   5.549   4.026   4.822
 4715SOL    HW115044   5.575   3.975   4.740
 4715SOL    HW215045   5.456   4.061   4.811
 4716SOL     OW15046   3.006   5.694   0.456
 4716SOL    HW115047   3.037   5.600   0.470
 4716SOL    HW215048   2.927   5.712   0.516
 4717SOL     OW15049   1.096   5.658   3.769
 4717SOL    HW115050   1.076   5.563   3.744
 4717SOL    HW215051   1.181   5.661   3.821
 4718SOL     OW15052   5.572   1.058   6.177
 4718SOL    HW115053   5.568   1.152   6.210
 4718SOL    HW215054   5.599   1.059   6.080
 4719SOL     OW15055   4.243   3.120   1.615
 4719SOL    HW115056   4.340   3.116   1.640
 4719SOL    HW215057   4.235   3.144   1.519
 4720SOL     OW15058   3.113   0.847   4.164
 4720SOL    HW115059   3.213   0.841   4.162
 4720SOL    HW215060   3.085   0.942   4.178
 4721SOL     OW15061   1.104   1.527   0.860
 4721SOL    HW115062   1.121   1.622   0.887
 4721SOL    HW215063   1.191   1.483   0.837
 4722SOL     OW15064   2.570   0.267   1.764
 4722SOL    HW115065   2.535   0.346   1.815
 4722SOL    HW215066   2.666   0.253   1.787
 4723SOL     OW15067   3.064   0.240   6.978
 4723SOL    HW115068   3.061   0.141   6.964
 4723SOL    HW215069   3.159   0.268   6.993
 4724SOL     OW15070   3.898   5.245   1.984
 4724SOL    HW115071   3.961   5.223   1.910
 4724SOL    HW215072   3.900   5.171   2.052
 4725SOL     OW15073   6.073   5.695   3.375
 4725SOL    HW115074   5.978   5.669   3.358
 4725SOL    HW215075   6.075   5.779   3.430
 4726SOL     OW15076   0.800   6.134   5.841
 4726SOL    HW115077   0.870   6.144   5.771
 4726SOL    HW215078   0.788   6.037   5.863
 4727SOL     OW15079   0.068   6.642   0.560
 4727SOL    HW115080   0.020   6.719   0.600
 4727SOL    HW215081   0.080   6.570   0.629
 4728SOL     OW15082   0.180   1.394   6.928
 4728SOL    HW115083   0.267   1.408   6.880
 4728SOL    HW215084   0.168   1.296   6.947
 4729SOL     OW15085   3.048   0.323   0.430
 4729SOL    HW115086   3.005   0.304   0.342
 4729SOL    HW215087   3.091   0.239   0.464
 4730SOL     OW15088   2.118   0.055   5.378
 4730SOL    HW115089   2.041   0.041   5.316
 4730SOL    HW215090   2.133   0.153   5.393
 4731SOL     OW15091   5.775   2.050   6.100
 4731SOL    HW115092   5.836   2.005   6.165
 4731SOL    HW215093   5.784   2.007   6.010
 4732SOL     OW15094   0.599   1.516   0.669
 4732SOL    HW115095   0.584   1.461   0.751
 4732SOL    HW215096   0.520   1.575   0.653
 4733SOL     OW15097   6.766   3.081   4.153
 4733SOL    HW115098   6.854   3.089   4.201
 4733SOL    HW215099   6.698   3.137   4.199
 4734SOL     OW15100   4.730   4.609   5.774
 4734SOL    HW115101   4.816   4.658   5.784
 4734SOL    HW215102   4.683   4.606   5.862
 4735SOL     OW15103   0.228   4.546   3.608
 4735SOL    HW115104   0.201   4.456   3.573
 4735SOL    HW215105   0.322   4.540   3.643
 4736SOL     OW15106   1.518   0.804   1.578
 4736SOL    HW115107   1.568   0.718   1.564
 4736SOL    HW215108   1.425   0.795   1.543
 4737SOL     OW15109   3.227   5.380   1.746
 4737SOL    HW115110   3.315   5.413   1.711
 4737SOL    HW215111   3.243   5.315   1.820
 4738SOL     OW15112   6.973   5.967   2.927
 4738SOL    HW115113   6.941   6.056   2.958
 4738SOL    HW215114   6.956   5.957   2.829
 4739SOL     OW15115   4.557   0.600   1.591
 4739SOL    HW115116   4.592   0.575   1.681
 4739SOL    HW215117   4.622   0.660   1.546
 4740SOL     OW15118   0.813   2.495   3.697
 4740SOL    HW115119   0.756   2.434   3.751
 4740SOL    HW215120   0.886   2.534   3.754
 4741SOL     OW15121   3.968   4.472   1.209
 4741SOL    HW115122   3.887   4.417   1.229
 4741SOL    HW215123   4.020   4.486   1.293
 4742SOL     OW15124   3.564   1.139   0.594
 4742SOL    HW115125   3.562   1.046   0.558
 4742SOL    HW215126   3.643   1.188   0.557
 4743SOL     OW15127   1.788   5.139   0.595
 4743SOL    HW115128   1.824   5.116   0.504
 4743SOL    HW215129   1.735   5.223   0.590
 4744SOL     OW15130   2.348   5.908   1.484
 4744SOL    HW115131   2.283   5.859   1.427
 4744SOL    HW215132   2.381   5.848   1.557
 4745SOL     OW15133   0.905   3.817   0.186
 4745SOL    HW115134   0.878   3.766   0.104
 4745SOL    HW215135   0.932   3.909   0.160
 4746SOL     OW15136   4.443   5.641   4.723
 4746SOL    HW115137   4.349   5.660   4.751
 4746SOL    HW215138   4.505   5.657   4.800
 4747SOL     OW15139   2.207   1.124   0.012
 4747SOL    HW115140   2.223   1.201   0.075
 4747SOL    HW215141   2.275   1.126   6.966
 4748SOL     OW15142   1.742   6.339   1.811
 4748SOL    HW115143   1.730   6.437   1.828
 4748SOL    HW215144   1.654   6.297   1.790
 4749SOL     OW15145   2.887   2.186   0.162
 4749SOL    HW115146   2.968   2.128   0.166
 4749SOL    HW215147   2.848   2.195   0.254
 4750SOL     OW15148   4.980   2.914   5.658
 4750SOL    HW115149   5.020   2.983   5.598
 4750SOL    HW215150   4.889   2.889   5.623
 4751SOL     OW15151   4.653   0.465   3.187
 4751SOL    HW115152   4.625   0.372   3.211
 4751SOL    HW215153   4.597   0.531   3.237
 4752SOL     OW15154   4.980   2.033   6.598
 4752SOL    HW115155   4.893   2.031   6.648
 4752SOL    HW215156   4.995   2.125   6.562
 4753SOL     OW15157   3.058   6.245   4.772
 4753SOL    HW115158   3.054   6.207   4.680
 4753SOL    HW215159   3.123   6.321   4.774
 4754SOL     OW15160   4.567   4.295   6.417
 4754SOL    HW115161   4.551   4.380   6.466
 4754SOL    HW215162   4.547   4.217   6.477
 4755SOL     OW15163   0.695   1.016   1.343
 4755SOL    HW115164   0.684   1.088   1.412
 4755SOL    HW215165   0.769   0.954   1.371
 4756SOL     OW15166   6.349   4.016   5.393
 4756SOL    HW115167   6.333   3.924   5.358
 4756SOL    HW215168   6.448   4.031   5.404
 4757SOL     OW15169   1.906   3.808   0.656
 4757SOL    HW115170   1.878   3.716   0.628
 4757SOL    HW215171   1.849   3.876   0.611
 4758SOL     OW15172   2.382   6.064   3.089
 4758SOL    HW115173   2.348   5.988   3.034
 4758SOL    HW215174   2.479   6.080   3.068
 4759SOL     OW15175   0.002   6.582   1.920
 4759SOL    HW115176   0.020   6.485   1.932
 4759SOL    HW215177   6.998   6.599   1.827
 4760SOL     OW15178   1.480   5.677   0.629
 4760SOL    HW115179   1.528   5.764   0.620
 4760SOL    HW215180   1.474   5.653   0.726
 4761SOL     OW15181   5.776   6.540   1.977
 4761SOL    HW115182   5.839   6.593   2.034
 4761SOL    HW215183   5.785   6.443   2.000
 4762SOL     OW15184   2.006   0.598   2.676
 4762SOL    HW115185   1.946   0.520   2.694
 4762SOL    HW215186   1.954   0.670   2.630
 4763SOL     OW15187   5.967   5.433   2.350
 4763SOL    HW115188   5.929   5.365   2.287
 4763SOL    HW215189   6.032   5.390   2.411
 4764SOL     OW15190   4.720   2.181   0.344
 4764SOL    HW115191   4.710   2.263   0.400
 4764SOL    HW215192   4.779   2.115   0.390
 4765SOL     OW15193   3.692   1.524   5.635
 4765SOL    HW115194   3.683   1.512   5.734
 4765SOL    HW215195   3.673   1.618   5.611
 4766SOL     OW15196   0.905   0.326   4.911
 4766SOL    HW115197   0.848   0.259   4.863
 4766SOL    HW215198   0.912   0.409   4.856
 4767SOL     OW15199   2.160   3.989   3.158
 4767SOL    HW115200   2.165   4.074   3.211
 4767SOL    HW215201   2.150   4.011   3.061
 4768SOL     OW15202   4.649   2.775   6.372
 4768SOL    HW115203   4.697   2.836   6.436
 4768SOL    HW215204   4.554   2.767   6.400
 4769SOL     OW15205   1.846   3.558   0.568
 4769SOL    HW115206   1.829   3.604   0.480
 4769SOL    HW215207   1.791   3.475   0.574
 4770SOL     OW15208   0.385   1.689   4.147
 4770SOL    HW115209   0.338   1.776   4.164
 4770SOL    HW215210   0.390   1.672   4.049
 4771SOL     OW15211   1.960   6.897   3.882
 4771SOL    HW115212   1.903   6.918   3.961
 4771SOL    HW215213   1.922   6.819   3.833
 4772SOL     OW15214   3.026   5.370   2.459
 4772SOL    HW115215   2.988   5.458   2.490
 4772SOL    HW215216   3.119   5.385   2.425
 4773SOL     OW15217   2.613   4.827   4.992
 4773SOL    HW115218   2.587   4.874   4.907
 4773SOL    HW215219   2.693   4.769   4.975
 4774SOL     OW15220   0.972   4.237   0.764
 4774SOL    HW115221   0.963   4.314   0.826
 4774SOL    HW215222   1.066   4.231   0.731
 4775SOL     OW15223   5.898   6.400   5.330
 4775SOL    HW115224   5.815   6.453   5.347
 4775SOL    HW215225   5.879   6.303   5.342
 4776SOL     OW15226   0.544   1.181   5.998
 4776SOL    HW115227   0.629   1.171   5.947
 4776SOL    HW215228   0.506   1.272   5.982
 4777SOL     OW15229   2.476   0.315   2.616
 4777SOL    HW115230   2.411   0.289   2.687
 4777SOL    HW215231   2.477   0.415   2.607
 4778SOL     OW15232   1.813   1.485   0.408
 4778SOL    HW115233   1.782   1.402   0.454
 4778SOL    HW215234   1.805   1.473   0.309
 4779SOL     OW15235   4.990   0.171   4.750
 4779SOL    HW115236   5.081   0.161   4.789
 4779SOL    HW215237   4.925   0.116   4.803
 4780SOL     OW15238   5.065   2.667   5.311
 4780SOL    HW115239   4.993   2.629   5.252
 4780SOL    HW215240   5.023   2.714   5.388
 4781SOL     OW15241   1.928   6.031   1.561
 4781SOL    HW115242   2.010   6.037   1.503
 4781SOL    HW215243   1.846   6.032   1.504
 4782SOL     OW15244   6.714   6.714   4.533
 4782SOL    HW115245   6.766   6.788   4.577
 4782SOL    HW215246   6.755   6.692   4.445
 4783SOL     OW15247   0.143   3.703   5.910
 4783SOL    HW115248   0.148   3.648   5.994
 4783SOL    HW215249   0.198   3.785   5.921
 4784SOL     OW15250   5.387   3.548   6.827
 4784SOL    HW115251   5.301   3.597   6.843
 4784SOL    HW215252   5.371   3.473   6.763
 4785SOL     OW15253   0.524   0.115   4.522
 4785SOL    HW115254   0.564   0.073   4.441
 4785SOL    HW215255   0.496   0.043   4.586
 4786SOL     OW15256   1.098   6.155   0.795
 4786SOL    HW115257   1.069   6.099   0.872
 4786SOL    HW215258   1.123   6.096   0.718
 4787SOL     OW15259   4.298   1.188   4.095
 4787SOL    HW115260   4.285   1.183   4.194
 4787SOL    HW215261   4.393   1.211   4.075
 4788SOL     OW15262   0.001   6.096   0.501
 4788SOL    HW115263   0.033   6.051   0.584
 4788SOL    HW215264   0.080   6.118   0.443
 4789SOL     OW15265   5.720   0.912   2.784
 4789SOL    HW115266   5.702   0.859   2.867
 4789SOL    HW215267   5.773   0.856   2.720
 4790SOL     OW15268   6.660   2.022   4.924
 4790SOL    HW115269   6.614   2.110   4.931
 4790SOL    HW215270   6.625   1.959   4.994
 4791SOL     OW15271   0.947   0.093   0.484
 4791SOL    HW115272   0.968   0.018   0.547
 4791SOL    HW215273   1.031   0.124   0.439
 4792SOL     OW15274   1.939   3.402   2.317
 4792SOL    HW115275   1.915   3.334   2.248
 4792SOL    HW215276   2.014   3.459   2.284
 4793SOL     OW15277   1.059   3.959   5.590
 4793SOL    HW115278   0.983   3.919   5.538
 4793SOL    HW215279   1.068   3.912   5.677
 4794SOL     OW15280   4.608   1.900   4.664
 4794SOL    HW115281   4.601   1.805   4.636
 4794SOL    HW215282   4.542   1.955   4.613
 4795SOL     OW15283   6.718   0.839   6.456
 4795SOL    HW115284   6.663   0.898   6.515
 4795SOL    HW215285   6.726   0.748   6.497
 4796SOL     OW15286   4.711   1.076   5.508
 4796SOL    HW115287   4.622   1.122   5.505
 4796SOL    HW215288   4.779   1.135   5.551
 4797SOL     OW15289   1.692   5.193   5.618
 4797SOL    HW115290   1.727   5.107   5.655
 4797SOL    HW215291   1.616   5.225   5.675
 4798SOL     OW15292   3.855   5.741   0.043
 4798SOL    HW115293   3.774   5.782   0.002
 4798SOL    HW215294   3.924   5.726   6.999
 4799SOL     OW15295   4.367   2.600   0.173
 4799SOL    HW115296   4.387   2.564   0.082
 4799SOL    HW215297   4.444   2.584   0.234
 4800SOL     OW15298   0.201   4.445   6.861
 4800SOL    HW115299   0.199   4.351   6.827
 4800SOL    HW215300   0.112   4.487   6.845
 4801SOL     OW15301   5.250   2.302   2.117
 4801SOL    HW115302   5.152   2.314   2.127
 4801SOL    HW215303   5.271   2.276   2.022
 4802SOL     OW15304   6.620   0.524   4.535
 4802SOL    HW115305   6.576   0.564   4.455
 4802SOL    HW215306   6.552   0.512   4.608
 4803SOL     OW15307   4.893   3.833   5.666
 4803SOL    HW115308   4.925   3.890   5.590
 4803SOL    HW215309   4.809   3.786   5.641
 4804SOL     OW15310   5.384   2.326   0.496
 4804SOL    HW115311   5.465   2.279   0.531
 4804SOL    HW215312   5.318   2.259   0.463
 4805SOL     OW15313   5.977   1.840   6.757
 4805SOL    HW115314   6.019   1.781   6.826
 4805SOL    HW215315   6.020   1.825   6.668
 4806SOL     OW15316   1.233   1.439   3.524
 4806SOL    HW115317   1.275   1.349   3.514
 4806SOL    HW215318   1.264   1.499   3.450
 4807SOL     OW15319   7.008   4.456   5.822
 4807SOL    HW115320   0.072   4.432   5.788
 4807SOL    HW215321   6.941   4.445   5.748
 4808SOL     OW15322   4.007   5.864   1.789
 4808SOL    HW115323   3.995   5.904   1.698
 4808SOL    HW215324   4.022   5.936   1.856
 4809SOL     OW15325   2.954   3.383   1.575
 4809SOL    HW115326   2.924   3.290   1.556
 4809SOL    HW215327   3.046   3.396   1.537
 4810SOL     OW15328   1.220   5.500   4.123
 4810SOL    HW115329   1.266   5.530   4.206
 4810SOL    HW215330   1.121   5.495   4.140
 4811SOL     OW15331   3.367   3.753   4.115
 4811SOL    HW115332   3.368   3.756   4.215
 4811SOL    HW215333   3.310   3.676   4.085
 4812SOL     OW15334   1.665   7.006   2.967
 4812SOL    HW115335   1.567   6.992   2.952
 4812SOL    HW215336   1.679   0.043   3.042
 4813SOL     OW15337   0.461   1.469   5.591
 4813SOL    HW115338   0.433   1.504   5.501
 4813SOL    HW215339   0.542   1.411   5.581
 4814SOL     OW15340   6.309   3.774   1.420
 4814SOL    HW115341   6.231   3.798   1.362
 4814SOL    HW215342   6.276   3.731   1.504
 4815SOL     OW15343   6.250   4.621   2.443
 4815SOL    HW115344   6.156   4.596   2.423
 4815SOL    HW215345   6.259   4.643   2.540
 4816SOL     OW15346   3.433   1.007   2.415
 4816SOL    HW115347   3.413   1.088   2.470
 4816SOL    HW215348   3.380   1.010   2.330
 4817SOL     OW15349   3.947   1.491   0.913
 4817SOL    HW115350   3.934   1.529   1.005
 4817SOL    HW215351   4.030   1.436   0.911
 4818SOL     OW15352   4.109   0.161   4.978
 4818SOL    HW115353   4.155   0.173   4.890
 4818SOL    HW215354   4.134   0.237   5.039
 4819SOL     OW15355   2.869   1.221   0.602
 4819SOL    HW115356   2.825   1.279   0.533
 4819SOL    HW215357   2.893   1.133   0.560
 4820SOL     OW15358   5.856   4.312   2.102
 4820SOL    HW115359   5.827   4.316   2.197
 4820SOL    HW215360   5.780   4.339   2.043
 4821SOL     OW15361   0.243   5.547   2.081
 4821SOL    HW115362   0.312   5.597   2.132
 4821SOL    HW215363   0.154   5.592   2.090
 4822SOL     OW15364   1.002   3.690   1.853
 4822SOL    HW115365   0.969   3.745   1.776
 4822SOL    HW215366   0.934   3.690   1.926
 4823SOL     OW15367   1.461   0.880   3.633
 4823SOL    HW115368   1.530   0.819   3.595
 4823SOL    HW215369   1.411   0.925   3.559
 4824SOL     OW15370   5.796   2.876   1.599
 4824SOL    HW115371   5.699   2.868   1.622
 4824SOL    HW215372   5.810   2.958   1.542
 4825SOL     OW15373   0.091   3.336   3.464
 4825SOL    HW115374   0.154   3.259   3.476
 4825SOL    HW215375   0.137   3.421   3.491
 4826SOL     OW15376   6.761   6.201   6.799
 4826SOL    HW115377   6.684   6.256   6.765
 4826SOL    HW215378   6.748   6.182   6.896
 4827SOL     OW15379   5.653   1.190   1.262
 4827SOL    HW115380   5.634   1.208   1.358
 4827SOL    HW215381   5.745   1.151   1.253
 4828SOL     OW15382   5.091   3.382   6.898
 4828SOL    HW115383   5.181   3.338   6.897
 4828SOL    HW215384   5.093   3.461   6.959
 4829SOL     OW15385   3.910   0.016   5.159
 4829SOL    HW115386   3.843   0.069   5.107
 4829SOL    HW215387   4.002   0.049   5.138
 4830SOL     OW15388   4.214   6.197   5.090
 4830SOL    HW115389   4.288   6.176   5.027
 4830SOL    HW215390   4.242   6.174   5.184
 4831SOL     OW15391   6.048   3.316   5.964
 4831SOL    HW115392   6.112   3.360   5.901
 4831SOL    HW215393   6.012   3.232   5.921
 4832SOL     OW15394   2.070   2.807   6.178
 4832SOL    HW115395   2.135   2.759   6.118
 4832SOL    HW215396   2.108   2.812   6.270
 4833SOL     OW15397   5.966   1.835   3.074
 4833SOL    HW115398   5.883   1.863   3.026
 4833SOL    HW215399   6.044   1.838   3.011
 4834SOL     OW15400   5.574   1.272   3.410
 4834SOL    HW115401   5.518   1.197   3.444
 4834SOL    HW215402   5.634   1.305   3.483
 4835SOL     OW15403   1.899   0.576   5.597
 4835SOL    HW115404   1.987   0.570   5.550
 4835SOL    HW215405   1.859   0.485   5.605
 4836SOL     OW15406   5.470   2.901   1.967
 4836SOL    HW115407   5.487   2.806   1.942
 4836SOL    HW215408   5.420   2.947   1.894
 4837SOL     OW15409   0.265   3.938   1.295
 4837SOL    HW115410   0.200   3.986   1.237
 4837SOL    HW215411   0.243   3.955   1.391
 4838SOL     OW15412   2.705   5.568   2.671
 4838SOL    HW115413   2.730   5.505   2.597
 4838SOL    HW215414   2.606   5.575   2.676
 4839SOL     OW15415   0.722   6.946   0.007
 4839SOL    HW115416   0.704   6.877   6.964
 4839SOL    HW215417   0.772   6.904   0.083
 4840SOL     OW15418   6.467   6.877   6.857
 4840SOL    HW115419   6.370   6.853   6.851
 4840SOL    HW215420   6.522   6.800   6.825
 4841SOL     OW15421   2.776   6.206   2.468
 4841SOL    HW115422   2.834   6.153   2.406
 4841SOL    HW215423   2.720   6.270   2.414
 4842SOL     OW15424   3.582   6.408   1.138
 4842SOL    HW115425   3.579   6.482   1.070
 4842SOL    HW215426   3.635   6.332   1.102
 4843SOL     OW15427   1.099   2.746   6.825
 4843SOL    HW115428   1.063   2.805   6.753
 4843SOL    HW215429   1.113   2.654   6.788
 4844SOL     OW15430   0.494   1.447   5.906
 4844SOL    HW115431   0.440   1.450   5.822
 4844SOL    HW215432   0.591   1.458   5.885
 4845SOL     OW15433   5.756   4.920   3.762
 4845SOL    HW115434   5.674   4.940   3.817
 4845SOL    HW215435   5.748   4.966   3.673
 4846SOL     OW15436   0.547   5.186   0.411
 4846SOL    HW115437   0.487   5.243   0.355
 4846SOL    HW215438   0.516   5.187   0.506
 4847SOL     OW15439   4.956   2.517   4.398
 4847SOL    HW115440   4.895   2.595   4.415
 4847SOL    HW215441   5.011   2.537   4.316
 4848SOL     OW15442   2.752   2.132   1.912
 4848SOL    HW115443   2.727   2.069   1.985
 4848SOL    HW215444   2.830   2.188   1.941
 4849SOL     OW15445   0.907   6.742   6.782
 4849SOL    HW115446   0.977   6.782   6.842
 4849SOL    HW215447   0.946   6.727   6.691
 4850SOL     OW15448   4.020   0.775   2.996
 4850SOL    HW115449   3.943   0.814   2.946
 4850SOL    HW215450   4.076   0.720   2.934
 4851SOL     OW15451   5.182   0.785   5.275
 4851SOL    HW115452   5.146   0.794   5.369
 4851SOL    HW215453   5.128   0.717   5.226
 4852SOL     OW15454   2.130   2.242   1.537
 4852SOL    HW115455   2.117   2.250   1.439
 4852SOL    HW215456   2.133   2.333   1.578
 4853SOL     OW15457   3.351   1.627   1.588
 4853SOL    HW115458   3.263   1.674   1.580
 4853SOL    HW215459   3.389   1.644   1.679
 4854SOL     OW15460   4.132   0.154   0.495
 4854SOL    HW115461   4.161   0.058   0.499
 4854SOL    HW215462   4.055   0.168   0.558
 4855SOL     OW15463   0.081   2.495   2.446
 4855SOL    HW115464   0.050   2.403   2.471
 4855SOL    HW215465   0.158   2.521   2.504
 4856SOL     OW15466   1.899   4.204   3.152
 4856SOL    HW115467   1.899   4.240   3.059
 4856SOL    HW215468   1.991   4.213   3.191
 4857SOL     OW15469   0.502   0.990   6.204
 4857SOL    HW115470   0.502   1.063   6.137
 4857SOL    HW215471   0.577   1.005   6.269
 4858SOL     OW15472   1.199   0.379   4.036
 4858SOL    HW115473   1.161   0.469   4.015
 4858SOL    HW215474   1.134   0.308   4.010
 4859SOL     OW15475   3.076   5.583   5.814
 4859SOL    HW115476   3.088   5.496   5.767
 4859SOL    HW215477   3.033   5.568   5.903
 4860SOL     OW15478   4.290   4.103   0.297
 4860SOL    HW115479   4.340   4.051   0.367
 4860SOL    HW215480   4.217   4.047   0.259
 4861SOL     OW15481   5.241   3.754   5.448
 4861SOL    HW115482   5.314   3.797   5.395
 4861SOL    HW215483   5.279   3.715   5.532
 4862SOL     OW15484   1.038   6.344   1.421
 4862SOL    HW115485   1.042   6.432   1.374
 4862SOL    HW215486   1.081   6.273   1.364
 4863SOL     OW15487   5.116   4.252   6.782
 4863SOL    HW115488   5.188   4.289   6.723
 4863SOL    HW215489   5.061   4.328   6.817
 4864SOL     OW15490   3.074   1.010   3.898
 4864SOL    HW115491   3.091   1.012   3.799
 4864SOL    HW215492   3.146   1.062   3.945
 4865SOL     OW15493   2.089   6.533   4.864
 4865SOL    HW115494   2.168   6.494   4.817
 4865SOL    HW215495   2.115   6.557   4.958
 4866SOL     OW15496   6.180   3.977   6.212
 4866SOL    HW115497   6.255   4.039   6.189
 4866SOL    HW215498   6.105   4.029   6.252
 4867SOL     OW15499   4.620   0.223   2.930
 4867SOL    HW115500   4.625   0.124   2.914
 4867SOL    HW215501   4.713   0.260   2.935
 4868SOL     OW15502   6.740   4.569   1.067
 4868SOL    HW115503   6.786   4.649   1.106
 4868SOL    HW215504   6.774   4.486   1.112
 4869SOL     OW15505   0.648   0.936   0.330
 4869SOL    HW115506   0.616   1.011   0.272
 4869SOL    HW215507   0.704   0.973   0.405
 4870SOL     OW15508   0.517   6.276   2.305
 4870SOL    HW115509   0.590   6.221   2.263
 4870SOL    HW215510   0.555   6.363   2.336
 4871SOL     OW15511   1.963   1.230   4.119
 4871SOL    HW115512   2.029   1.156   4.132
 4871SOL    HW215513   1.997   1.292   4.048
 4872SOL     OW15514   5.782   6.455   3.133
 4872SOL    HW115515   5.854   6.433   3.199
 4872SOL    HW215516   5.741   6.370   3.099
 4873SOL     OW15517   6.191   5.693   5.171
 4873SOL    HW115518   6.162   5.659   5.081
 4873SOL    HW215519   6.284   5.661   5.190
 4874SOL     OW15520   4.895   2.896   3.049
 4874SOL    HW115521   4.842   2.950   2.983
 4874SOL    HW215522   4.942   2.958   3.112
 4875SOL     OW15523   5.695   6.275   5.015
 4875SOL    HW115524   5.609   6.285   5.065
 4875SOL    HW215525   5.751   6.356   5.028
 4876SOL     OW15526   1.334   1.074   2.182
 4876SOL    HW115527   1.340   1.034   2.273
 4876SOL    HW215528   1.357   1.171   2.187
 4877SOL     OW15529   6.836   1.742   5.175
 4877SOL    HW115530   6.933   1.718   5.182
 4877SOL    HW215531   6.793   1.734   5.264
 4878SOL     OW15532   6.908   2.809   2.300
 4878SOL    HW115533   6.819   2.839   2.335
 4878SOL    HW215534   6.895   2.732   2.238
 4879SOL     OW15535   5.804   1.173   2.728
 4879SOL    HW115536   5.805   1.181   2.628
 4879SOL    HW215537   5.748   1.094   2.754
 4880SOL     OW15538   6.665   3.071   6.599
 4880SOL    HW115539   6.595   3.102   6.534
 4880SOL    HW215540   6.626   3.070   6.691
 4881SOL     OW15541   1.617   2.378   1.857
 4881SOL    HW115542   1.694   2.325   1.891
 4881SOL    HW215543   1.642   2.475   1.855
 4882SOL     OW15544   4.288   1.951   4.456
 4882SOL    HW115545   4.339   1.965   4.371
 4882SOL    HW215546   4.251   1.858   4.457
 4883SOL     OW15547   5.909   4.253   0.782
 4883SOL    HW115548   5.939   4.342   0.749
 4883SOL    HW215549   5.894   4.191   0.704
 4884SOL     OW15550   1.652   0.096   1.500
 4884SOL    HW115551   1.652   0.193   1.478
 4884SOL    HW215552   1.559   0.068   1.527
 4885SOL     OW15553   1.352   4.419   0.208
 4885SOL    HW115554   1.370   4.326   0.241
 4885SOL    HW215555   1.436   4.459   0.172
 4886SOL     OW15556   2.684   1.194   1.936
 4886SOL    HW115557   2.602   1.205   1.993
 4886SOL    HW215558   2.763   1.231   1.984
 4887SOL     OW15559   6.012   6.386   0.983
 4887SOL    HW115560   5.993   6.391   1.081
 4887SOL    HW215561   6.088   6.322   0.967
 4888SOL     OW15562   3.846   0.120   2.751
 4888SOL    HW115563   3.817   0.078   2.837
 4888SOL    HW215564   3.945   0.134   2.752
 4889SOL     OW15565   6.878   3.085   3.853
 4889SOL    HW115566   6.788   3.103   3.813
 4889SOL    HW215567   6.908   3.166   3.904
 4890SOL     OW15568   6.426   1.457   4.560
 4890SOL    HW115569   6.505   1.397   4.571
 4890SOL    HW215570   6.379   1.466   4.648
 4891SOL     OW15571   2.797   5.340   6.245
 4891SOL    HW115572   2.770   5.435   6.237
 4891SOL    HW215573   2.814   5.302   6.154
 4892SOL     OW15574   5.032   5.679   2.729
 4892SOL    HW115575   4.987   5.630   2.804
 4892SOL    HW215576   4.977   5.758   2.703
 4893SOL     OW15577   1.261   3.175   1.091
 4893SOL    HW115578   1.312   3.238   1.033
 4893SOL    HW215579   1.213   3.225   1.162
 4894SOL     OW15580   5.296   6.813   1.580
 4894SOL    HW115581   5.382   6.828   1.532
 4894SOL    HW215582   5.310   6.749   1.656
 4895SOL     OW15583   0.004   4.631   5.005
 4895SOL    HW115584   0.076   4.566   5.028
 4895SOL    HW215585   0.004   4.706   5.071
 4896SOL     OW15586   1.879   4.900   4.828
 4896SOL    HW115587   1.843   4.846   4.752
 4896SOL    HW215588   1.854   4.996   4.817
 4897SOL     OW15589   1.883   0.012   5.216
 4897SOL    HW115590   1.824   6.983   5.158
 4897SOL    HW215591   1.874   0.108   5.192
 4898SOL     OW15592   5.179   1.565   3.629
 4898SOL    HW115593   5.101   1.528   3.579
 4898SOL    HW215594   5.167   1.664   3.640
 4899SOL     OW15595   6.706   6.834   1.842
 4899SOL    HW115596   6.730   6.837   1.939
 4899SOL    HW215597   6.610   6.810   1.832
 4900SOL     OW15598   3.718   5.929   5.498
 4900SOL    HW115599   3.641   5.970   5.548
 4900SOL    HW215600   3.769   6.000   5.451
 4901SOL     OW15601   1.181   0.877   6.196
 4901SOL    HW115602   1.118   0.810   6.157
 4901SOL    HW215603   1.133   0.933   6.263
 4902SOL     OW15604   2.082   6.787   5.578
 4902SOL    HW115605   2.113   6.871   5.623
 4902SOL    HW215606   2.029   6.810   5.497
 4903SOL     OW15607   4.951   3.900   2.816
 4903SOL    HW115608   4.939   3.817   2.871
 4903SOL    HW215609   4.987   3.874   2.726
 4904SOL     OW15610   1.585   6.792   0.301
 4904SOL    HW115611   1.591   6.692   0.300
 4904SOL    HW215612   1.563   6.826   0.210
 4905SOL     OW15613   3.211   6.601   3.390
 4905SOL    HW115614   3.300   6.557   3.389
 4905SOL    HW215615   3.143   6.539   3.428
 4906SOL     OW15616   4.951   3.455   4.838
 4906SOL    HW115617   5.047   3.482   4.830
 4906SOL    HW215618   4.903   3.519   4.899
 4907SOL     OW15619   4.282   1.890   0.156
 4907SOL    HW115620   4.311   1.986   0.159
 4907SOL    HW215621   4.355   1.835   0.114
 4908SOL     OW15622   3.831   6.969   0.311
 4908SOL    HW115623   3.866   6.929   0.397
 4908SOL    HW215624   3.740   6.934   0.293
 4909SOL     OW15625   5.413   4.937   4.604
 4909SOL    HW115626   5.467   4.981   4.676
 4909SOL    HW215627   5.329   4.901   4.644
 4910SOL     OW15628   4.807   2.234   6.049
 4910SOL    HW115629   4.754   2.175   5.988
 4910SOL    HW215630   4.894   2.190   6.070
 4911SOL     OW15631   6.706   2.960   2.450
 4911SOL    HW115632   6.759   3.033   2.495
 4911SOL    HW215633   6.636   2.927   2.513
 4912SOL     OW15634   5.625   2.748   3.806
 4912SOL    HW115635   5.624   2.740   3.707
 4912SOL    HW215636   5.594   2.661   3.846
 4913SOL     OW15637   0.832   4.094   5.402
 4913SOL    HW115638   0.797   4.185   5.382
 4913SOL    HW215639   0.916   4.102   5.457
 4914SOL     OW15640   4.284   0.655   3.738
 4914SOL    HW115641   4.234   0.673   3.653
 4914SOL    HW215642   4.379   0.682   3.728
 4915SOL     OW15643   3.497   5.159   5.716
 4915SOL    HW115644   3.535   5.084   5.770
 4915SOL    HW215645   3.409   5.131   5.678
 4916SOL     OW15646   5.594   2.429   4.110
 4916SOL    HW115647   5.495   2.430   4.119
 4916SOL    HW215648   5.631   2.512   4.153
 4917SOL     OW15649   3.916   6.612   0.363
 4917SOL    HW115650   4.004   6.629   0.319
 4917SOL    HW215651   3.914   6.517   0.396
 4918SOL     OW15652   6.048   4.955   3.387
 4918SOL    HW115653   6.012   4.994   3.472
 4918SOL    HW215654   6.028   5.017   3.311
 4919SOL     OW15655   3.132   4.003   2.112
 4919SOL    HW115656   3.165   4.061   2.038
 4919SOL    HW215657   3.073   3.932   2.075
 4920SOL     OW15658   6.285   1.638   6.157
 4920SOL    HW115659   6.330   1.658   6.070
 4920SOL    HW215660   6.189   1.665   6.151
 4921SOL     OW15661   0.293   0.156   2.872
 4921SOL    HW115662   0.360   0.156   2.946
 4921SOL    HW215663   0.205   0.124   2.907
 4922SOL     OW15664   3.522   1.942   6.165
 4922SOL    HW115665   3.491   1.847   6.171
 4922SOL    HW215666   3.443   2.003   6.160
 4923SOL     OW15667   3.713   1.405   2.142
 4923SOL    HW115668   3.619   1.400   2.175
 4923SOL    HW215669   3.721   1.356   2.056
 4924SOL     OW15670   2.567   0.645   5.263
 4924SOL    HW115671   2.600   0.621   5.172
 4924SOL    HW215672   2.636   0.701   5.309
 4925SOL     OW15673   6.214   6.176   3.797
 4925SOL    HW115674   6.261   6.124   3.725
 4925SOL    HW215675   6.208   6.272   3.770
 4926SOL     OW15676   5.122   2.750   1.152
 4926SOL    HW115677   5.108   2.842   1.115
 4926SOL    HW215678   5.216   2.721   1.136
 4927SOL     OW15679   3.258   1.857   6.485
 4927SOL    HW115680   3.323   1.924   6.450
 4927SOL    HW215681   3.263   1.774   6.428
 4928SOL     OW15682   7.016   2.449   0.727
 4928SOL    HW115683   7.008   2.548   0.723
 4928SOL    HW215684   0.081   2.422   0.696
 4929SOL     OW15685   0.904   6.314   5.382
 4929SOL    HW115686   0.972   6.386   5.397
 4929SOL    HW215687   0.840   6.343   5.311
 4930SOL     OW15688   5.250   6.134   2.138
 4930SOL    HW115689   5.336   6.184   2.129
 4930SOL    HW215690   5.250   6.084   2.224
 4931SOL     OW15691   6.618   5.766   0.515
 4931SOL    HW115692   6.706   5.798   0.549
 4931SOL    HW215693   6.561   5.737   0.591
 4932SOL     OW15694   3.674   3.610   2.122
 4932SOL    HW115695   3.590   3.631   2.173
 4932SOL    HW215696   3.650   3.557   2.040
 4933SOL     OW15697   1.911   6.807   5.383
 4933SOL    HW115698   1.908   6.893   5.334
 4933SOL    HW215699   1.862   6.737   5.331
 4934SOL     OW15700   4.057   5.950   2.550
 4934SOL    HW115701   3.995   5.931   2.474
 4934SOL    HW215702   4.082   5.865   2.596
 4935SOL     OW15703   0.396   0.929   5.745
 4935SOL    HW115704   0.443   0.925   5.834
 4935SOL    HW215705   0.305   0.888   5.754
 4936SOL     OW15706   3.977   2.410   0.946
 4936SOL    HW115707   3.988   2.358   0.861
 4936SOL    HW215708   3.942   2.502   0.925
 4937SOL     OW15709   4.834   2.616   5.189
 4937SOL    HW115710   4.775   2.537   5.172
 4937SOL    HW215711   4.782   2.700   5.178
 4938SOL     OW15712   4.060   5.236   5.942
 4938SOL    HW115713   4.094   5.237   5.848
 4938SOL    HW215714   3.973   5.186   5.946
 4939SOL     OW15715   4.648   3.514   5.968
 4939SOL    HW115716   4.710   3.548   6.038
 4939SOL    HW215717   4.579   3.584   5.948
 4940SOL     OW15718   2.300   5.785   4.013
 4940SOL    HW115719   2.272   5.703   3.962
 4940SOL    HW215720   2.308   5.862   3.950
 4941SOL     OW15721   5.851   0.390   0.911
 4941SOL    HW115722   5.901   0.319   0.961
 4941SOL    HW215723   5.861   0.477   0.959
 4942SOL     OW15724   4.810   3.103   5.829
 4942SOL    HW115725   4.803   3.036   5.755
 4942SOL    HW215726   4.806   3.195   5.790
 4943SOL     OW15727   5.171   2.543   1.597
 4943SOL    HW115728   5.102   2.473   1.618
 4943SOL    HW215729   5.201   2.586   1.682
 4944SOL     OW15730   2.262   4.140   2.293
 4944SOL    HW115731   2.268   4.043   2.317
 4944SOL    HW215732   2.267   4.195   2.376
 4945SOL     OW15733   0.190   6.477   4.795
 4945SOL    HW115734   0.230   6.531   4.868
 4945SOL    HW215735   0.168   6.537   4.717
 4946SOL     OW15736   7.009   4.385   1.979
 4946SOL    HW115737   7.014   4.479   2.014
 4946SOL    HW215738   0.011   4.384   1.883
 4947SOL     OW15739   6.404   0.202   1.610
 4947SOL    HW115740   6.459   0.121   1.630
 4947SOL    HW215741   6.461   0.271   1.565
 4948SOL     OW15742   1.953   0.539   2.366
 4948SOL    HW115743   1.977   0.468   2.432
 4948SOL    HW215744   2.008   0.528   2.283
 4949SOL     OW15745   5.018   1.915   4.688
 4949SOL    HW115746   4.966   1.833   4.713
 4949SOL    HW215747   5.079   1.941   4.763
 4950SOL     OW15748   2.978   5.088   5.188
 4950SOL    HW115749   2.989   5.003   5.135
 4950SOL    HW215750   2.907   5.144   5.146
 4951SOL     OW15751   4.421   2.045   4.232
 4951SOL    HW115752   4.515   2.061   4.263
 4951SOL    HW215753   4.419   2.041   4.132
 4952SOL     OW15754   6.964   5.010   5.014
 4952SOL    HW115755   0.021   5.024   4.960
 4952SOL    HW215756   6.914   5.096   5.021
 4953SOL     OW15757   1.942   5.713   2.239
 4953SOL    HW115758   1.962   5.691   2.143
 4953SOL    HW215759   1.872   5.650   2.274
 4954SOL     OW15760   6.423   6.414   0.141
 4954SOL    HW115761   6.512   6.447   0.108
 4954SOL    HW215762   6.431   6.318   0.167
 4955SOL     OW15763   0.921   0.548   1.291
 4955SOL    HW115764   0.971   0.608   1.229
 4955SOL    HW215765   0.823   0.565   1.282
 4956SOL     OW15766   5.982   6.857   4.554
 4956SOL    HW115767   6.047   6.932   4.572
 4956SOL    HW215768   6.031   6.781   4.512
 4957SOL     OW15769   2.408   6.115   3.357
 4957SOL    HW115770   2.426   6.095   3.261
 4957SOL    HW215771   2.421   6.033   3.412
 4958SOL     OW15772   0.453   6.304   6.856
 4958SOL    HW115773   0.507   6.362   6.795
 4958SOL    HW215774   0.461   6.338   6.950
 4959SOL     OW15775   0.371   1.268   0.573
 4959SOL    HW115776   0.436   1.257   0.498
 4959SOL    HW215777   0.340   1.179   0.605
 4960SOL     OW15778   3.670   6.359   5.074
 4960SOL    HW115779   3.747   6.357   5.138
 4960SOL    HW215780   3.643   6.266   5.050
 4961SOL     OW15781   4.785   0.647   5.946
 4961SOL    HW115782   4.707   0.589   5.919
 4961SOL    HW215783   4.852   0.592   5.996
 4962SOL     OW15784   6.564   2.380   1.929
 4962SOL    HW115785   6.566   2.296   1.875
 4962SOL    HW215786   6.576   2.358   2.026
 4963SOL     OW15787   6.845   4.113   1.395
 4963SOL    HW115788   6.860   4.029   1.447
 4963SOL    HW215789   6.762   4.105   1.340
 4964SOL     OW15790   3.903   6.504   2.700
 4964SOL    HW115791   3.860   6.594   2.707
 4964SOL    HW215792   3.968   6.503   2.623
 4965SOL     OW15793   0.329   6.613   4.401
 4965SOL    HW115794   0.260   6.542   4.388
 4965SOL    HW215795   0.393   6.611   4.324
 4966SOL     OW15796   3.603   5.554   4.777
 4966SOL    HW115797   3.695   5.563   4.813
 4966SOL    HW215798   3.591   5.464   4.736
 4967SOL     OW15799   4.813   1.964   6.339
 4967SOL    HW115800   4.783   2.058   6.327
 4967SOL    HW215801   4.870   1.957   6.421
 4968SOL     OW15802   5.447   3.945   6.175
 4968SOL    HW115803   5.474   4.015   6.109
 4968SOL    HW215804   5.473   3.974   6.267
 4969SOL     OW15805   0.312   1.989   1.003
 4969SOL    HW115806   0.259   1.955   1.081
 4969SOL    HW215807   0.404   1.950   1.006
 4970SOL     OW15808   1.118   2.856   5.807
 4970SOL    HW115809   1.076   2.802   5.880
 4970SOL    HW215810   1.210   2.883   5.834
 4971SOL     OW15811   0.038   5.659   3.757
 4971SOL    HW115812   0.130   5.640   3.723
 4971SOL    HW215813   6.998   5.602   3.709
 4972SOL     OW15814   1.707   2.025   5.398
 4972SOL    HW115815   1.685   2.054   5.305
 4972SOL    HW215816   1.626   1.985   5.441
 4973SOL     OW15817   5.927   6.148   3.007
 4973SOL    HW115818   5.939   6.059   3.052
 4973SOL    HW215819   5.833   6.179   3.019
 4974SOL     OW15820   4.330   6.808   1.510
 4974SOL    HW115821   4.324   6.904   1.486
 4974SOL    HW215822   4.345   6.753   1.427
 4975SOL     OW15823   5.119   5.927   6.898
 4975SOL    HW115824   5.206   5.933   6.850
 4975SOL    HW215825   5.127   5.860   6.973
 4976SOL     OW15826   3.451   0.922   4.706
 4976SOL    HW115827   3.414   1.012   4.683
 4976SOL    HW215828   3.497   0.926   4.794
 4977SOL     OW15829   3.315   3.556   0.079
 4977SOL    HW115830   3.376   3.555   7.026
 4977SOL    HW215831   3.223   3.528   0.050
 4978SOL     OW15832   6.114   3.320   6.227
 4978SOL    HW115833   6.142   3.322   6.131
 4978SOL    HW215834   6.104   3.413   6.261
 4979SOL     OW15835   0.979   2.607   4.045
 4979SOL    HW115836   1.068   2.614   4.089
 4979SOL    HW215837   0.925   2.689   4.066
 4980SOL     OW15838   3.404   5.482   3.256
 4980SOL    HW115839   3.353   5.472   3.342
 4980SOL    HW215840   3.441   5.393   3.229
 4981SOL     OW15841   5.326   6.334   5.703
 4981SOL    HW115842   5.239   6.284   5.708
 4981SOL    HW215843   5.358   6.353   5.796
 4982SOL     OW15844   2.618   2.185   0.027
 4982SOL    HW115845   2.707   2.142   0.041
 4982SOL    HW215846   2.626   2.284   0.037
 4983SOL     OW15847   5.583   2.817   4.599
 4983SOL    HW115848   5.678   2.786   4.607
 4983SOL    HW215849   5.526   2.768   4.666
 4984SOL     OW15850   4.754   4.154   2.762
 4984SOL    HW115851   4.688   4.217   2.802
 4984SOL    HW215852   4.804   4.107   2.835
 4985SOL     OW15853   5.510   4.046   2.749
 4985SOL    HW115854   5.449   4.039   2.828
 4985SOL    HW215855   5.566   4.129   2.757
 4986SOL     OW15856   4.591   4.360   2.862
 4986SOL    HW115857   4.505   4.381   2.909
 4986SOL    HW215858   4.668   4.386   2.920
 4987SOL     OW15859   0.384   4.363   1.124
 4987SOL    HW115860   0.378   4.452   1.078
 4987SOL    HW215861   0.327   4.364   1.206
 4988SOL     OW15862   1.042   2.030   5.368
 4988SOL    HW115863   0.968   2.007   5.432
 4988SOL    HW215864   1.130   2.025   5.415
 4989SOL     OW15865   7.026   0.849   0.533
 4989SOL    HW115866   0.045   0.790   0.599
 4989SOL    HW215867   6.940   0.808   0.504
 4990SOL     OW15868   0.973   2.202   6.140
 4990SOL    HW115869   0.935   2.208   6.233
 4990SOL    HW215870   1.011   2.111   6.126
 4991SOL     OW15871   2.381   2.238   4.819
 4991SOL    HW115872   2.298   2.265   4.868
 4991SOL    HW215873   2.424   2.162   4.868
 4992SOL     OW15874   4.044   0.565   4.674
 4992SOL    HW115875   4.102   0.488   4.650
 4992SOL    HW215876   3.950   0.548   4.643
 4993SOL     OW15877   2.324   5.970   3.816
 4993SOL    HW115878   2.278   5.974   3.728
 4993SOL    HW215879   2.281   6.035   3.879
 4994SOL     OW15880   0.641   6.507   2.402
 4994SOL    HW115881   0.737   6.519   2.377
 4994SOL    HW215882   0.597   6.597   2.408
 4995SOL     OW15883   6.158   3.026   5.812
 4995SOL    HW115884   6.227   3.087   5.771
 4995SOL    HW215885   6.203   2.948   5.854
 4996SOL     OW15886   0.435   1.254   4.075
 4996SOL    HW115887   0.413   1.331   4.135
 4996SOL    HW215888   0.482   1.183   4.128
 4997SOL     OW15889   0.102   2.357   4.235
 4997SOL    HW115890   0.100   2.344   4.135
 4997SOL    HW215891   0.017   2.322   4.274
 4998SOL     OW15892   0.955   5.481   5.578
 4998SOL    HW115893   0.999   5.455   5.492
 4998SOL    HW215894   0.973   5.410   5.647
 4999SOL     OW15895   5.934   4.707   0.740
 4999SOL    HW115896   5.844   4.671   0.715
 4999SOL    HW215897   5.947   4.797   0.698
 5000SOL     OW15898   6.879   5.844   4.055
 5000SOL    HW115899   6.784   5.856   4.024
 5000SOL    HW215900   6.889   5.754   4.098
 5001SOL     OW15901   4.658   4.263   5.287
 5001SOL    HW115902   4.621   4.313   5.208
 5001SOL    HW215903   4.585   4.249   5.354
 5002SOL     OW15904   2.025   2.051   1.713
 5002SOL    HW115905   1.948   2.080   1.770
 5002SOL    HW215906   2.056   2.128   1.656
 5003SOL     OW15907   6.997   5.219   3.804
 5003SOL    HW115908   6.995   5.255   3.711
 5003SOL    HW215909   0.016   5.285   3.864
 5004SOL     OW15910   2.704   4.614   6.363
 5004SOL    HW115911   2.793   4.569   6.361
 5004SOL    HW215912   2.701   4.677   6.441
 5005SOL     OW15913   4.094   2.221   0.192
 5005SOL    HW115914   4.023   2.191   0.255
 5005SOL    HW215915   4.111   2.319   0.203
 5006SOL     OW15916   5.802   4.535   2.995
 5006SOL    HW115917   5.743   4.457   3.014
 5006SOL    HW215918   5.753   4.619   3.019
 5007SOL     OW15919   4.077   1.215   5.239
 5007SOL    HW115920   4.096   1.298   5.186
 5007SOL    HW215921   3.989   1.224   5.285
 5008SOL     OW15922   6.672   0.886   3.852
 5008SOL    HW115923   6.729   0.877   3.934
 5008SOL    HW215924   6.685   0.805   3.794
 5009SOL     OW15925   1.722   6.157   2.950
 5009SOL    HW115926   1.634   6.201   2.936
 5009SOL    HW215927   1.714   6.086   3.020
 5010SOL     OW15928   3.288   3.065   4.598
 5010SOL    HW115929   3.215   3.115   4.645
 5010SOL    HW215930   3.352   3.027   4.665
 5011SOL     OW15931   1.057   2.949   3.331
 5011SOL    HW115932   1.044   2.855   3.300
 5011SOL    HW215933   0.992   3.009   3.284
 5012SOL     OW15934   5.659   3.565   0.092
 5012SOL    HW115935   5.649   3.589   7.022
 5012SOL    HW215936   5.597   3.490   0.114
 5013SOL     OW15937   5.086   1.869   5.549
 5013SOL    HW115938   5.136   1.860   5.463
 5013SOL    HW215939   5.150   1.892   5.623
 5014SOL     OW15940   5.891   6.609   6.877
 5014SOL    HW115941   5.918   6.609   6.973
 5014SOL    HW215942   5.814   6.547   6.864
 5015SOL     OW15943   5.505   2.099   3.238
 5015SOL    HW115944   5.554   2.106   3.325
 5015SOL    HW215945   5.497   2.190   3.197
 5016SOL     OW15946   2.154   6.639   2.236
 5016SOL    HW115947   2.092   6.656   2.312
 5016SOL    HW215948   2.152   6.716   2.172
 5017SOL     OW15949   2.523   2.125   1.716
 5017SOL    HW115950   2.568   2.138   1.804
 5017SOL    HW215951   2.424   2.119   1.730
 5018SOL     OW15952   6.541   5.172   3.923
 5018SOL    HW115953   6.487   5.253   3.904
 5018SOL    HW215954   6.517   5.135   4.013
 5019SOL     OW15955   3.003   5.511   6.086
 5019SOL    HW115956   2.905   5.531   6.091
 5019SOL    HW215957   3.035   5.477   6.175
 5020SOL     OW15958   4.750   5.320   6.515
 5020SOL    HW115959   4.811   5.365   6.451
 5020SOL    HW215960   4.752   5.368   6.603
 5021SOL     OW15961   2.492   4.616   5.585
 5021SOL    HW115962   2.453   4.553   5.517
 5021SOL    HW215963   2.592   4.608   5.585
 5022SOL     OW15964   1.795   4.495   0.605
 5022SOL    HW115965   1.774   4.592   0.591
 5022SOL    HW215966   1.810   4.451   0.516
 5023SOL     OW15967   6.573   2.551   3.626
 5023SOL    HW115968   6.503   2.591   3.567
 5023SOL    HW215969   6.610   2.620   3.687
 5024SOL     OW15970   5.621   3.183   5.573
 5024SOL    HW115971   5.634   3.217   5.666
 5024SOL    HW215972   5.524   3.163   5.558
 5025SOL     OW15973   6.477   1.329   3.186
 5025SOL    HW115974   6.391   1.309   3.233
 5025SOL    HW215975   6.536   1.382   3.247
 5026SOL     OW15976   0.452   5.861   2.903
 5026SOL    HW115977   0.372   5.919   2.885
 5026SOL    HW215978   0.478   5.869   3.000
 5027SOL     OW15979   0.706   6.270   3.680
 5027SOL    HW115980   0.745   6.279   3.772
 5027SOL    HW215981   0.659   6.182   3.673
 5028SOL     OW15982   1.109   0.216   2.604
 5028SOL    HW115983   1.170   0.225   2.525
 5028SOL    HW215984   1.023   0.261   2.584
 5029SOL     OW15985   0.653   0.978   3.286
 5029SOL    HW115986   0.559   0.944   3.273
 5029SOL    HW215987   0.682   0.958   3.379
 5030SOL     OW15988   2.050   5.774   6.757
 5030SOL    HW115989   1.958   5.735   6.761
 5030SOL    HW215990   2.052   5.847   6.689
 5031SOL     OW15991   5.615   0.808   5.410
 5031SOL    HW115992   5.669   0.737   5.456
 5031SOL    HW215993   5.647   0.898   5.441
 5032SOL     OW15994   0.915   6.064   1.664
 5032SOL    HW115995   0.928   6.159   1.692
 5032SOL    HW215996   0.875   6.060   1.573
 5033SOL     OW15997   6.813   4.434   5.581
 5033SOL    HW115998   6.841   4.393   5.494
 5033SOL    HW215999   6.714   4.447   5.581
 5034SOL     OW16000   6.778   4.050   6.487
 5034SOL    HW116001   6.787   3.952   6.466
 5034SOL    HW216002   6.869   4.090   6.497
 5035SOL     OW16003   5.556   4.635   1.452
 5035SOL    HW116004   5.463   4.632   1.489
 5035SOL    HW216005   5.555   4.599   1.358
 5036SOL     OW16006   1.568   0.608   2.298
 5036SOL    HW116007   1.551   0.572   2.390
 5036SOL    HW216008   1.486   0.652   2.263
 5037SOL     OW16009   4.715   2.595   2.760
 5037SOL    HW116010   4.800   2.629   2.800
 5037SOL    HW216011   4.654   2.565   2.834
 5038SOL     OW16012   2.661   6.104   5.541
 5038SOL    HW116013   2.754   6.090   5.507
 5038SOL    HW216014   2.596   6.083   5.468
 5039SOL     OW16015   1.215   1.748   3.310
 5039SOL    HW116016   1.210   1.845   3.287
 5039SOL    HW216017   1.304   1.727   3.350
 5040SOL     OW16018   2.969   3.765   6.114
 5040SOL    HW116019   3.019   3.849   6.090
 5040SOL    HW216020   3.015   3.686   6.075
 5041SOL     OW16021   0.573   5.509   0.531
 5041SOL    HW116022   0.622   5.528   0.616
 5041SOL    HW216023   0.638   5.501   0.455
 5042SOL     OW16024   6.346   2.012   6.091
 5042SOL    HW116025   6.281   2.010   6.167
 5042SOL    HW216026   6.297   2.000   6.005
 5043SOL     OW16027   4.935   0.395   3.530
 5043SOL    HW116028   5.013   0.363   3.476
 5043SOL    HW216029   4.938   0.494   3.536
 5044SOL     OW16030   5.382   4.363   2.814
 5044SOL    HW116031   5.298   4.394   2.770
 5044SOL    HW216032   5.374   4.375   2.913
 5045SOL     OW16033   5.670   3.559   5.080
 5045SOL    HW116034   5.656   3.633   5.146
 5045SOL    HW216035   5.636   3.473   5.119
 5046SOL     OW16036   3.516   2.963   5.088
 5046SOL    HW116037   3.483   2.909   5.166
 5046SOL    HW216038   3.615   2.959   5.085
 5047SOL     OW16039   0.730   1.623   2.245
 5047SOL    HW116040   0.677   1.555   2.194
 5047SOL    HW216041   0.768   1.580   2.327
 5048SOL     OW16042   5.971   3.695   1.232
 5048SOL    HW116043   5.876   3.687   1.260
 5048SOL    HW216044   6.015   3.769   1.283
 5049SOL     OW16045   1.264   1.818   1.585
 5049SOL    HW116046   1.223   1.746   1.530
 5049SOL    HW216047   1.261   1.792   1.682
 5050SOL     OW16048   1.232   3.531   0.718
 5050SOL    HW116049   1.157   3.596   0.724
 5050SOL    HW216050   1.254   3.498   0.810
 5051SOL     OW16051   1.712   3.666   0.333
 5051SOL    HW116052   1.620   3.629   0.349
 5051SOL    HW216053   1.705   3.747   0.275
 5052SOL     OW16054   5.306   3.502   0.788
 5052SOL    HW116055   5.331   3.563   0.714
 5052SOL    HW216056   5.388   3.454   0.821
 5053SOL     OW16057   2.370   4.188   0.416
 5053SOL    HW116058   2.362   4.276   0.464
 5053SOL    HW216059   2.291   4.131   0.438
 5054SOL     OW16060   3.826   5.929   4.954
 5054SOL    HW116061   3.909   5.940   5.008
 5054SOL    HW216062   3.826   5.839   4.911
 5055SOL     OW16063   1.634   1.745   3.622
 5055SOL    HW116064   1.650   1.838   3.655
 5055SOL    HW216065   1.629   1.745   3.522
 5056SOL     OW16066   2.732   2.306   5.167
 5056SOL    HW116067   2.759   2.238   5.099
 5056SOL    HW216068   2.682   2.380   5.122
 5057SOL     OW16069   0.262   4.320   2.707
 5057SOL    HW116070   0.201   4.280   2.776
 5057SOL    HW216071   0.347   4.268   2.705
 5058SOL     OW16072   3.554   3.012   0.245
 5058SOL    HW116073   3.533   2.934   0.304
 5058SOL    HW216074   3.626   3.067   0.286
 5059SOL     OW16075   4.692   1.729   2.966
 5059SOL    HW116076   4.683   1.660   3.038
 5059SOL    HW216077   4.789   1.747   2.949
 5060SOL     OW16078   0.197   3.406   5.327
 5060SOL    HW116079   0.110   3.417   5.280
 5060SOL    HW216080   0.227   3.494   5.365
 5061SOL     OW16081   4.030   2.000   5.563
 5061SOL    HW116082   4.053   2.017   5.659
 5061SOL    HW216083   3.957   1.932   5.557
 5062SOL     OW16084   5.442   1.064   3.510
 5062SOL    HW116085   5.438   0.969   3.480
 5062SOL    HW216086   5.350   1.094   3.537
 5063SOL     OW16087   1.032   1.189   1.440
 5063SOL    HW116088   1.036   1.160   1.344
 5063SOL    HW216089   0.972   1.268   1.448
 5064SOL     OW16090   4.949   5.068   0.814
 5064SOL    HW116091   4.917   5.112   0.730
 5064SOL    HW216092   4.900   5.107   0.892
 5065SOL     OW16093   2.164   1.224   2.098
 5065SOL    HW116094   2.209   1.226   2.187
 5065SOL    HW216095   2.098   1.149   2.096
 5066SOL     OW16096   1.833   5.165   2.716
 5066SOL    HW116097   1.847   5.117   2.629
 5066SOL    HW216098   1.865   5.107   2.791
 5067SOL     OW16099   5.761   2.861   0.926
 5067SOL    HW116100   5.714   2.815   0.851
 5067SOL    HW216101   5.813   2.794   0.979
 5068SOL     OW16102   2.274   5.710   0.708
 5068SOL    HW116103   2.311   5.691   0.617
 5068SOL    HW216104   2.297   5.804   0.735
 5069SOL     OW16105   3.971   5.269   5.173
 5069SOL    HW116106   3.908   5.233   5.241
 5069SOL    HW216107   4.007   5.194   5.118
 5070SOL     OW16108   5.923   3.901   5.040
 5070SOL    HW116109   5.932   3.801   5.043
 5070SOL    HW216110   5.831   3.927   5.069
 5071SOL     OW16111   2.988   6.782   3.470
 5071SOL    HW116112   2.927   6.723   3.523
 5071SOL    HW216113   3.079   6.743   3.468
 5072SOL     OW16114   0.824   1.436   1.367
 5072SOL    HW116115   0.843   1.451   1.270
 5072SOL    HW216116   0.873   1.503   1.422
 5073SOL     OW16117   2.247   1.178   3.200
 5073SOL    HW116118   2.310   1.255   3.208
 5073SOL    HW216119   2.248   1.125   3.285
 5074SOL     OW16120   3.514   2.291   1.599
 5074SOL    HW116121   3.570   2.277   1.681
 5074SOL    HW216122   3.449   2.365   1.616
 5075SOL     OW16123   0.030   3.351   0.354
 5075SOL    HW116124   0.037   3.251   0.350
 5075SOL    HW216125   6.960   3.377   0.354
 5076SOL     OW16126   0.530   0.034   6.117
 5076SOL    HW116127   0.621   7.025   6.137
 5076SOL    HW216128   0.482   6.998   6.055
 5077SOL     OW16129   0.843   4.040   3.813
 5077SOL    HW116130   0.753   4.078   3.790
 5077SOL    HW216131   0.892   4.017   3.729
 5078SOL     OW16132   0.195   1.937   3.922
 5078SOL    HW116133   0.161   1.884   4.000
 5078SOL    HW216134   0.290   1.962   3.939
 5079SOL     OW16135   1.791   3.451   5.724
 5079SOL    HW116136   1.804   3.485   5.817
 5079SOL    HW216137   1.781   3.528   5.661
 5080SOL     OW16138   5.936   5.492   0.577
 5080SOL    HW116139   5.933   5.591   0.595
 5080SOL    HW216140   5.902   5.475   0.484
 5081SOL     OW16141   2.365   4.765   5.283
 5081SOL    HW116142   2.347   4.827   5.359
 5081SOL    HW216143   2.463   4.746   5.278
 5082SOL     OW16144   5.681   5.461   1.152
 5082SOL    HW116145   5.696   5.490   1.247
 5082SOL    HW216146   5.693   5.362   1.145
 5083SOL     OW16147   2.381   0.160   3.889
 5083SOL    HW116148   2.385   0.093   3.814
 5083SOL    HW216149   2.458   0.224   3.881
 5084SOL     OW16150   2.883   4.067   5.670
 5084SOL    HW116151   2.839   4.004   5.607
 5084SOL    HW216152   2.980   4.045   5.678
 5085SOL     OW16153   0.386   4.596   4.919
 5085SOL    HW116154   0.373   4.632   5.011
 5085SOL    HW216155   0.347   4.659   4.852
 5086SOL     OW16156   1.961   5.375   1.688
 5086SOL    HW116157   1.986   5.310   1.759
 5086SOL    HW216158   2.040   5.390   1.628
 5087SOL     OW16159   6.554   4.455   2.649
 5087SOL    HW116160   6.517   4.425   2.562
 5087SOL    HW216161   6.581   4.376   2.704
 5088SOL     OW16162   5.112   5.859   2.112
 5088SOL    HW116163   5.180   5.827   2.178
 5088SOL    HW216164   5.152   5.932   2.057
 5089SOL     OW16165   5.253   5.737   5.627
 5089SOL    HW116166   5.294   5.657   5.584
 5089SOL    HW216167   5.276   5.819   5.574
 5090SOL     OW16168   2.606   6.693   4.900
 5090SOL    HW116169   2.696   6.653   4.922
 5090SOL    HW216170   2.554   6.704   4.984
 5091SOL     OW16171   6.709   6.438   6.268
 5091SOL    HW116172   6.803   6.405   6.263
 5091SOL    HW216173   6.708   6.535   6.289
 5092SOL     OW16174   3.888   3.599   4.174
 5092SOL    HW116175   3.847   3.615   4.084
 5092SOL    HW216176   3.964   3.662   4.187
 5093SOL     OW16177   2.866   2.160   2.615
 5093SOL    HW116178   2.895   2.086   2.555
 5093SOL    HW216179   2.767   2.171   2.608
 5094SOL     OW16180   1.414   6.147   4.822
 5094SOL    HW116181   1.371   6.169   4.734
 5094SOL    HW216182   1.466   6.226   4.855
 5095SOL     OW16183   6.739   1.033   2.814
 5095SOL    HW116184   6.658   1.014   2.759
 5095SOL    HW216185   6.711   1.057   2.907
 5096SOL     OW16186   6.055   3.142   4.858
 5096SOL    HW116187   6.069   3.136   4.760
 5096SOL    HW216188   6.093   3.061   4.903
 5097SOL     OW16189   1.206   0.515   5.672
 5097SOL    HW116190   1.271   0.512   5.748
 5097SOL    HW216191   1.255   0.496   5.587
 5098SOL     OW16192   3.548   3.250   0.551
 5098SOL    HW116193   3.608   3.255   0.470
 5098SOL    HW216194   3.499   3.337   0.561
 5099SOL     OW16195   1.749   6.590   2.078
 5099SOL    HW116196   1.774   6.685   2.057
 5099SOL    HW216197   1.815   6.552   2.142
 5100SOL     OW16198   4.889   3.697   2.001
 5100SOL    HW116199   4.832   3.754   2.061
 5100SOL    HW216200   4.866   3.601   2.015
 5101SOL     OW16201   3.249   0.288   5.671
 5101SOL    HW116202   3.227   0.261   5.765
 5101SOL    HW216203   3.165   0.317   5.624
 5102SOL     OW16204   5.259   5.198   4.145
 5102SOL    HW116205   5.224   5.260   4.074
 5102SOL    HW216206   5.220   5.107   4.132
 5103SOL     OW16207   1.211   0.769   6.648
 5103SOL    HW116208   1.171   0.710   6.577
 5103SOL    HW216209   1.262   0.843   6.604
 5104SOL     OW16210   3.902   3.421   2.159
 5104SOL    HW116211   3.829   3.484   2.182
 5104SOL    HW216212   3.977   3.471   2.115
 5105SOL     OW16213   4.367   2.982   6.616
 5105SOL    HW116214   4.277   3.024   6.603
 5105SOL    HW216215   4.437   3.053   6.621
 5106SOL     OW16216   4.154   2.015   1.171
 5106SOL    HW116217   4.144   2.108   1.136
 5106SOL    HW216218   4.087   1.999   1.243
 5107SOL     OW16219   5.346   4.435   0.520
 5107SOL    HW116220   5.428   4.485   0.492
 5107SOL    HW216221   5.274   4.449   0.452
 5108SOL     OW16222   3.692   4.611   0.663
 5108SOL    HW116223   3.704   4.564   0.576
 5108SOL    HW216224   3.772   4.669   0.681
 5109SOL     OW16225   1.006   2.551   1.494
 5109SOL    HW116226   1.073   2.624   1.484
 5109SOL    HW216227   1.004   2.519   1.588
 5110SOL     OW16228   5.038   0.191   5.528
 5110SOL    HW116229   4.995   0.150   5.608
 5110SOL    HW216230   5.102   0.262   5.558
 5111SOL     OW16231   0.721   5.509   5.236
 5111SOL    HW116232   0.694   5.434   5.176
 5111SOL    HW216233   0.821   5.514   5.241
 5112SOL     OW16234   0.480   6.863   3.213
 5112SOL    HW116235   0.511   6.903   3.299
 5112SOL    HW216236   0.559   6.844   3.154
 5113SOL     OW16237   1.851   4.119   0.086
 5113SOL    HW116238   1.782   4.190   0.075
 5113SOL    HW216239   1.891   4.098   7.023
 5114SOL     OW16240   4.298   4.734   1.795
 5114SOL    HW116241   4.372   4.671   1.817
 5114SOL    HW216242   4.230   4.733   1.868
 5115SOL     OW16243   2.098   3.743   0.912
 5115SOL    HW116244   2.069   3.805   0.840
 5115SOL    HW216245   2.124   3.796   0.993
 5116SOL     OW16246   1.046   6.872   5.560
 5116SOL    HW116247   1.017   6.967   5.574
 5116SOL    HW216248   1.120   6.869   5.493
 5117SOL     OW16249   0.201   2.355   3.670
 5117SOL    HW116250   0.105   2.374   3.652
 5117SOL    HW216251   0.220   2.258   3.656
 5118SOL     OW16252   4.152   5.419   0.009
 5118SOL    HW116253   4.235   5.387   6.990
 5118SOL    HW216254   4.132   5.360   0.087
 5119SOL     OW16255   5.728   1.284   0.505
 5119SOL    HW116256   5.754   1.233   0.422
 5119SOL    HW216257   5.781   1.249   0.583
 5120SOL     OW16258   5.222   6.730   6.991
 5120SOL    HW116259   5.170   6.648   6.967
 5120SOL    HW216260   5.231   6.737   0.064
 5121SOL     OW16261   1.126   3.413   5.698
 5121SOL    HW116262   1.226   3.415   5.705
 5121SOL    HW216263   1.094   3.319   5.713
 5122SOL     OW16264   4.874   5.096   4.085
 5122SOL    HW116265   4.952   5.100   4.023
 5122SOL    HW216266   4.790   5.084   4.033
 5123SOL     OW16267   5.074   2.934   2.014
 5123SOL    HW116268   5.005   2.989   2.060
 5123SOL    HW216269   5.042   2.909   1.923
 5124SOL     OW16270   1.948   6.486   5.278
 5124SOL    HW116271   1.889   6.459   5.353
 5124SOL    HW216272   1.979   6.404   5.228
 5125SOL     OW16273   6.507   1.996   3.346
 5125SOL    HW116274   6.558   1.939   3.283
 5125SOL    HW216275   6.409   1.975   3.339
 5126SOL     OW16276   1.732   0.355   1.677
 5126SOL    HW116277   1.781   0.399   1.601
 5126SOL    HW216278   1.793   0.291   1.724
 5127SOL     OW16279   2.281   6.062   6.825
 5127SOL    HW116280   2.188   6.043   6.856
 5127SOL    HW216281   2.327   6.119   6.892
 5128SOL     OW16282   6.137   0.094   1.999
 5128SOL    HW116283   6.178   0.172   1.953
 5128SOL    HW216284   6.039   0.107   2.007
 5129SOL     OW16285   6.664   6.774   0.260
 5129SOL    HW116286   6.669   6.678   0.286
 5129SOL    HW216287   6.708   6.830   0.330
 5130SOL     OW16288   6.162   4.855   3.119
 5130SOL    HW116289   6.075   4.831   3.076
 5130SOL    HW216290   6.236   4.842   3.052
 5131SOL     OW16291   2.550   2.410   2.859
 5131SOL    HW116292   2.615   2.397   2.934
 5131SOL    HW216293   2.489   2.486   2.880
 5132SOL     OW16294   2.800   5.816   5.038
 5132SOL    HW116295   2.742   5.844   4.962
 5132SOL    HW216296   2.753   5.832   5.124
 5133SOL     OW16297   3.872   6.369   5.243
 5133SOL    HW116298   3.937   6.444   5.251
 5133SOL    HW216299   3.921   6.282   5.250
 5134SOL     OW16300   6.034   4.228   6.304
 5134SOL    HW116301   5.969   4.287   6.351
 5134SOL    HW216302   6.120   4.227   6.354
 5135SOL     OW16303   5.453   1.818   4.199
 5135SOL    HW116304   5.439   1.916   4.212
 5135SOL    HW216305   5.451   1.772   4.288
 5136SOL     OW16306   3.827   1.312   5.008
 5136SOL    HW116307   3.766   1.338   4.933
 5136SOL    HW216308   3.868   1.394   5.048
 5137SOL     OW16309   3.531   4.015   6.685
 5137SOL    HW116310   3.473   3.993   6.607
 5137SOL    HW216311   3.597   4.085   6.660
 5138SOL     OW16312   2.233   3.151   5.952
 5138SOL    HW116313   2.163   3.079   5.963
 5138SOL    HW216314   2.188   3.239   5.938
 5139SOL     OW16315   0.524   0.141   3.909
 5139SOL    HW116316   0.551   0.225   3.956
 5139SOL    HW216317   0.487   0.164   3.819
 5140SOL     OW16318   3.803   2.876   1.894
 5140SOL    HW116319   3.774   2.968   1.870
 5140SOL    HW216320   3.871   2.843   1.828
 5141SOL     OW16321   6.915   3.460   5.303
 5141SOL    HW116322   6.859   3.418   5.231
 5141SOL    HW216323   6.869   3.450   5.391
 5142SOL     OW16324   5.706   3.247   3.375
 5142SOL    HW116325   5.729   3.216   3.467
 5142SOL    HW216326   5.660   3.173   3.325
 5143SOL     OW16327   6.967   5.437   4.836
 5143SOL    HW116328   6.868   5.439   4.823
 5143SOL    HW216329   6.991   5.497   4.912
 5144SOL     OW16330   2.290   1.098   4.651
 5144SOL    HW116331   2.198   1.131   4.631
 5144SOL    HW216332   2.297   1.002   4.625
 5145SOL     OW16333   3.319   5.945   5.843
 5145SOL    HW116334   3.355   5.853   5.826
 5145SOL    HW216335   3.318   5.997   5.757
 5146SOL     OW16336   2.702   4.840   0.161
 5146SOL    HW116337   2.798   4.825   0.134
 5146SOL    HW216338   2.697   4.919   0.222
 5147SOL     OW16339   6.608   5.145   6.522
 5147SOL    HW116340   6.578   5.236   6.493
 5147SOL    HW216341   6.606   5.141   6.622
 5148SOL     OW16342   0.505   6.787   1.841
 5148SOL    HW116343   0.469   6.741   1.760
 5148SOL    HW216344   0.576   6.730   1.883
 5149SOL     OW16345   6.532   0.993   6.039
 5149SOL    HW116346   6.500   0.899   6.028
 5149SOL    HW216347   6.601   1.014   5.970
 5150SOL     OW16348   1.800   5.066   3.616
 5150SOL    HW116349   1.850   5.147   3.646
 5150SOL    HW216350   1.782   5.007   3.695
 5151SOL     OW16351   4.895   0.963   6.340
 5151SOL    HW116352   4.862   0.914   6.260
 5151SOL    HW216353   4.818   0.982   6.401
 5152SOL     OW16354   0.700   5.155   0.749
 5152SOL    HW116355   0.625   5.180   0.687
 5152SOL    HW216356   0.716   5.056   0.744
 5153SOL     OW16357   1.811   1.998   1.025
 5153SOL    HW116358   1.900   1.977   1.065
 5153SOL    HW216359   1.739   1.972   1.088
 5154SOL     OW16360   1.934   3.656   5.045
 5154SOL    HW116361   2.032   3.657   5.027
 5154SOL    HW216362   1.906   3.563   5.069
 5155SOL     OW16363   3.682   1.015   2.063
 5155SOL    HW116364   3.755   0.967   2.014
 5155SOL    HW216365   3.683   0.986   2.159
 5156SOL     OW16366   5.878   2.522   5.904
 5156SOL    HW116367   5.937   2.546   5.981
 5156SOL    HW216368   5.835   2.604   5.867
 5157SOL     OW16369   5.937   2.407   4.345
 5157SOL    HW116370   5.888   2.343   4.285
 5157SOL    HW216371   5.882   2.426   4.426
 5158SOL     OW16372   3.915   1.028   0.689
 5158SOL    HW116373   3.869   0.941   0.706
 5158SOL    HW216374   3.934   1.036   0.591
 5159SOL     OW16375   1.912   3.241   4.861
 5159SOL    HW116376   1.867   3.167   4.911
 5159SOL    HW216377   1.845   3.314   4.843
 5160SOL     OW16378   1.818   2.760   4.547
 5160SOL    HW116379   1.745   2.733   4.485
 5160SOL    HW216380   1.863   2.842   4.511
 5161SOL     OW16381   1.536   3.523   6.252
 5161SOL    HW116382   1.487   3.604   6.285
 5161SOL    HW216383   1.515   3.445   6.311
 5162SOL     OW16384   6.074   5.741   4.451
 5162SOL    HW116385   6.000   5.685   4.488
 5162SOL    HW216386   6.092   5.817   4.514
 5163SOL     OW16387   5.208   3.854   1.082
 5163SOL    HW116388   5.181   3.853   1.179
 5163SOL    HW216389   5.223   3.948   1.052
 5164SOL     OW16390   5.921   5.340   5.807
 5164SOL    HW116391   5.995   5.279   5.837
 5164SOL    HW216392   5.904   5.409   5.877
 5165SOL     OW16393   6.256   3.840   4.126
 5165SOL    HW116394   6.309   3.914   4.167
 5165SOL    HW216395   6.214   3.785   4.198
 5166SOL     OW16396   1.402   0.002   1.644
 5166SOL    HW116397   1.302   7.022   1.650
 5166SOL    HW216398   1.432   0.089   1.684
 5167SOL     OW16399   1.214   6.739   5.376
 5167SOL    HW116400   1.229   6.659   5.318
 5167SOL    HW216401   1.265   6.817   5.339
 5168SOL     OW16402   3.826   1.703   2.912
 5168SOL    HW116403   3.887   1.631   2.946
 5168SOL    HW216404   3.791   1.756   2.989
 5169SOL     OW16405   4.143   4.085   6.470
 5169SOL    HW116406   4.144   4.073   6.371
 5169SOL    HW216407   4.124   4.181   6.491
 5170SOL     OW16408   4.438   4.932   4.391
 5170SOL    HW116409   4.408   5.027   4.379
 5170SOL    HW216410   4.359   4.871   4.381
 5171SOL     OW16411   2.449   4.508   4.708
 5171SOL    HW116412   2.448   4.510   4.808
 5171SOL    HW216413   2.401   4.427   4.676
 5172SOL     OW16414   1.985   4.839   0.033
 5172SOL    HW116415   2.075   4.813   0.068
 5172SOL    HW216416   1.915   4.808   0.098
 5173SOL     OW16417   6.378   3.593   5.770
 5173SOL    HW116418   6.314   3.658   5.811
 5173SOL    HW216419   6.467   3.636   5.760
 5174SOL     OW16420   1.908   4.251   6.265
 5174SOL    HW116421   1.938   4.347   6.273
 5174SOL    HW216422   1.818   4.248   6.222
 5175SOL     OW16423   0.371   5.234   6.282
 5175SOL    HW116424   0.320   5.168   6.336
 5175SOL    HW216425   0.307   5.290   6.228
 5176SOL     OW16426   5.334   4.042   6.596
 5176SOL    HW116427   5.418   3.993   6.573
 5176SOL    HW216428   5.295   4.003   6.680
 5177SOL     OW16429   5.256   6.421   6.777
 5177SOL    HW116430   5.176   6.439   6.834
 5177SOL    HW216431   5.328   6.380   6.832
 5178SOL     OW16432   2.932   2.288   1.725
 5178SOL    HW116433   2.934   2.358   1.797
 5178SOL    HW216434   2.895   2.203   1.762
 5179SOL     OW16435   3.074   5.744   4.847
 5179SOL    HW116436   3.144   5.740   4.919
 5179SOL    HW216437   3.007   5.671   4.861
 5180SOL     OW16438   3.004   2.652   0.199
 5180SOL    HW116439   2.950   2.644   0.283
 5180SOL    HW216440   2.944   2.650   0.120
 5181SOL     OW16441   2.908   5.629   2.450
 5181SOL    HW116442   2.929   5.638   2.353
 5181SOL    HW216443   2.810   5.646   2.466
 5182SOL     OW16444   4.525   4.083   1.702
 5182SOL    HW116445   4.554   4.128   1.618
 5182SOL    HW216446   4.483   4.150   1.763
 5183SOL     OW16447   3.943   0.854   3.258
 5183SOL    HW116448   3.851   0.831   3.291
 5183SOL    HW216449   3.963   0.800   3.177
 5184SOL     OW16450   1.208   1.815   2.759
 5184SOL    HW116451   1.272   1.850   2.828
 5184SOL    HW216452   1.216   1.869   2.676
 5185SOL     OW16453   4.013   0.401   1.973
 5185SOL    HW116454   4.030   0.482   1.915
 5185SOL    HW216455   4.057   0.414   2.061
 5186SOL     OW16456   5.737   4.495   0.039
 5186SOL    HW116457   5.733   4.569   0.107
 5186SOL    HW216458   5.792   4.525   6.988
 5187SOL     OW16459   4.988   2.233   4.405
 5187SOL    HW116460   4.916   2.186   4.457
 5187SOL    HW216461   4.949   2.308   4.352
 5188SOL     OW16462   0.781   3.205   4.492
 5188SOL    HW116463   0.869   3.203   4.538
 5188SOL    HW216464   0.710   3.232   4.557
 5189SOL     OW16465   4.200   5.458   6.479
 5189SOL    HW116466   4.177   5.471   6.383
 5189SOL    HW216467   4.299   5.450   6.489
 5190SOL     OW16468   2.056   2.343   3.201
 5190SOL    HW116469   1.971   2.296   3.177
 5190SOL    HW216470   2.121   2.336   3.125
 5191SOL     OW16471   4.820   0.760   2.509
 5191SOL    HW116472   4.744   0.809   2.551
 5191SOL    HW216473   4.882   0.728   2.580
 5192SOL     OW16474   5.745   4.595   2.150
 5192SOL    HW116475   5.826   4.543   2.124
 5192SOL    HW216476   5.674   4.533   2.182
 5193SOL     OW16477   4.910   3.902   2.419
 5193SOL    HW116478   4.857   3.969   2.471
 5193SOL    HW216479   5.003   3.898   2.454
 5194SOL     OW16480   5.229   1.756   6.605
 5194SOL    HW116481   5.148   1.767   6.548
 5194SOL    HW216482   5.301   1.711   6.553
 5195SOL     OW16483   6.141   6.360   5.406
 5195SOL    HW116484   6.148   6.397   5.499
 5195SOL    HW216485   6.047   6.371   5.373
 5196SOL     OW16486   0.602   3.097   1.752
 5196SOL    HW116487   0.542   3.018   1.756
 5196SOL    HW216488   0.578   3.155   1.674
 5197SOL     OW16489   3.525   6.091   5.277
 5197SOL    HW116490   3.570   6.092   5.187
 5197SOL    HW216491   3.443   6.034   5.272
 5198SOL     OW16492   4.256   0.360   5.883
 5198SOL    HW116493   4.222   0.286   5.824
 5198SOL    HW216494   4.307   0.426   5.828
 5199SOL     OW16495   0.148   5.126   1.919
 5199SOL    HW116496   0.214   5.088   1.854
 5199SOL    HW216497   0.056   5.113   1.883
 5200SOL     OW16498   0.247   7.020   5.306
 5200SOL    HW116499   0.282   0.013   5.214
 5200SOL    HW216500   0.320   6.981   5.362
 5201SOL     OW16501   5.800   4.512   4.891
 5201SOL    HW116502   5.846   4.441   4.945
 5201SOL    HW216503   5.738   4.563   4.950
 5202SOL     OW16504   3.425   3.293   5.456
 5202SOL    HW116505   3.346   3.233   5.448
 5202SOL    HW216506   3.407   3.379   5.409
 5203SOL     OW16507   1.452   0.478   6.256
 5203SOL    HW116508   1.387   0.553   6.267
 5203SOL    HW216509   1.543   0.514   6.238
 5204SOL     OW16510   2.294   0.938   0.837
 5204SOL    HW116511   2.375   0.900   0.882
 5204SOL    HW216512   2.282   0.896   0.747
 5205SOL     OW16513   6.965   6.708   1.278
 5205SOL    HW116514   6.988   6.665   1.191
 5205SOL    HW216515   6.890   6.772   1.264
 5206SOL     OW16516   1.215   4.663   3.504
 5206SOL    HW116517   1.286   4.624   3.562
 5206SOL    HW216518   1.211   4.762   3.519
 5207SOL     OW16519   6.153   6.421   4.655
 5207SOL    HW116520   6.086   6.387   4.720
 5207SOL    HW216521   6.191   6.508   4.688
 5208SOL     OW16522   6.377   2.371   0.611
 5208SOL    HW116523   6.302   2.319   0.570
 5208SOL    HW216524   6.462   2.320   0.602
 5209SOL     OW16525   5.177   6.841   3.253
 5209SOL    HW116526   5.097   6.869   3.201
 5209SOL    HW216527   5.191   6.904   3.330
 5210SOL     OW16528   5.669   4.905   0.868
 5210SOL    HW116529   5.662   4.825   0.808
 5210SOL    HW216530   5.672   4.874   0.963
 5211SOL     OW16531   5.338   2.364   4.796
 5211SOL    HW116532   5.304   2.375   4.889
 5211SOL    HW216533   5.261   2.362   4.732
 5212SOL     OW16534   6.882   4.080   0.749
 5212SOL    HW116535   6.823   4.079   0.829
 5212SOL    HW216536   6.840   4.025   0.676
 5213SOL     OW16537   4.084   3.524   2.941
 5213SOL    HW116538   4.142   3.596   2.981
 5213SOL    HW216539   3.997   3.564   2.914
 5214SOL     OW16540   5.488   3.334   5.120
 5214SOL    HW116541   5.534   3.332   5.031
 5214SOL    HW216542   5.421   3.408   5.121
 5215SOL     OW16543   0.289   5.061   5.129
 5215SOL    HW116544   0.254   5.029   5.041
 5215SOL    HW216545   0.224   5.125   5.170
 5216SOL     OW16546   5.145   5.097   1.483
 5216SOL    HW116547   5.176   5.183   1.442
 5216SOL    HW216548   5.173   5.020   1.425
 5217SOL     OW16549   4.774   6.720   2.782
 5217SOL    HW116550   4.861   6.760   2.753
 5217SOL    HW216551   4.714   6.709   2.703
 5218SOL     OW16552   6.334   0.130   0.302
 5218SOL    HW116553   6.374   0.043   0.273
 5218SOL    HW216554   6.286   0.173   0.225
 5219SOL     OW16555   3.190   0.961   5.789
 5219SOL    HW116556   3.224   0.954   5.695
 5219SOL    HW216557   3.217   0.880   5.841
 5220SOL     OW16558   2.113   4.944   4.425
 5220SOL    HW116559   2.031   4.887   4.431
 5220SOL    HW216560   2.149   4.960   4.517
 5221SOL     OW16561   6.054   5.653   1.558
 5221SOL    HW116562   6.087   5.567   1.518
 5221SOL    HW216563   5.961   5.640   1.593
 5222SOL     OW16564   6.875   3.449   1.433
 5222SOL    HW116565   6.957   3.507   1.427
 5222SOL    HW216566   6.895   3.370   1.490
 5223SOL     OW16567   6.235   2.795   0.628
 5223SOL    HW116568   6.244   2.824   0.723
 5223SOL    HW216569   6.158   2.843   0.586
 5224SOL     OW16570   0.640   1.213   5.230
 5224SOL    HW116571   0.632   1.265   5.145
 5224SOL    HW216572   0.549   1.192   5.265
 5225SOL     OW16573   6.740   1.465   4.727
 5225SOL    HW116574   6.825   1.519   4.723
 5225SOL    HW216575   6.733   1.422   4.817
 5226SOL     OW16576   0.374   6.671   3.957
 5226SOL    HW116577   0.276   6.690   3.968
 5226SOL    HW216578   0.392   6.643   3.863
 5227SOL     OW16579   0.547   3.967   5.690
 5227SOL    HW116580   0.604   3.885   5.687
 5227SOL    HW216581   0.601   4.044   5.726
 5228SOL     OW16582   0.728   2.043   5.637
 5228SOL    HW116583   0.820   2.004   5.640
 5228SOL    HW216584   0.677   2.014   5.718
 5229SOL     OW16585   3.058   1.763   6.200
 5229SOL    HW116586   3.109   1.698   6.256
 5229SOL    HW216587   2.977   1.794   6.249
 5230SOL     OW16588   6.944   0.076   2.322
 5230SOL    HW116589   6.918   0.172   2.326
 5230SOL    HW216590   6.989   0.058   2.234
 5231SOL     OW16591   6.369   3.361   2.154
 5231SOL    HW116592   6.450   3.392   2.204
 5231SOL    HW216593   6.385   3.372   2.056
 5232SOL     OW16594   1.682   2.630   5.908
 5232SOL    HW116595   1.742   2.562   5.865
 5232SOL    HW216596   1.730   2.672   5.985
 5233SOL     OW16597   3.611   6.461   2.403
 5233SOL    HW116598   3.529   6.413   2.434
 5233SOL    HW216599   3.664   6.401   2.343
 5234SOL     OW16600   3.069   2.245   6.058
 5234SOL    HW116601   3.106   2.309   5.991
 5234SOL    HW216602   3.053   2.156   6.014
 5235SOL     OW16603   2.713   1.950   1.562
 5235SOL    HW116604   2.662   1.866   1.584
 5235SOL    HW216605   2.675   2.026   1.614
 5236SOL     OW16606   3.163   5.053   1.811
 5236SOL    HW116607   3.089   5.015   1.867
 5236SOL    HW216608   3.207   4.980   1.759
 5237SOL     OW16609   2.059   2.077   2.017
 5237SOL    HW116610   2.092   2.044   1.929
 5237SOL    HW216611   2.116   2.039   2.090
 5238SOL     OW16612   0.518   0.169   3.046
 5238SOL    HW116613   0.581   0.120   3.106
 5238SOL    HW216614   0.557   0.258   3.022
 5239SOL     OW16615   2.782   4.056   0.957
 5239SOL    HW116616   2.774   4.148   0.995
 5239SOL    HW216617   2.705   4.039   0.896
 5240SOL     OW16618   2.133   4.444   5.649
 5240SOL    HW116619   2.194   4.459   5.571
 5240SOL    HW216620   2.169   4.369   5.705
 5241SOL     OW16621   1.652   6.560   2.690
 5241SOL    HW116622   1.668   6.465   2.718
 5241SOL    HW216623   1.558   6.587   2.713
 5242SOL     OW16624   3.634   0.261   6.270
 5242SOL    HW116625   3.699   0.337   6.264
 5242SOL    HW216626   3.684   0.176   6.284
 5243SOL     OW16627   2.636   6.392   2.315
 5243SOL    HW116628   2.696   6.455   2.365
 5243SOL    HW216629   2.542   6.403   2.347
 5244SOL     OW16630   4.701   1.228   0.163
 5244SOL    HW116631   4.658   1.273   0.084
 5244SOL    HW216632   4.658   1.261   0.247
 5245SOL     OW16633   3.047   4.045   1.450
 5245SOL    HW116634   3.044   3.947   1.430
 5245SOL    HW216635   3.016   4.060   1.544
 5246SOL     OW16636   5.792   3.979   6.568
 5246SOL    HW116637   5.890   3.993   6.571
 5246SOL    HW216638   5.746   4.065   6.542
 5247SOL     OW16639   4.572   1.765   6.708
 5247SOL    HW116640   4.475   1.743   6.698
 5247SOL    HW216641   4.619   1.748   6.621
 5248SOL     OW16642   5.472   1.153   4.032
 5248SOL    HW116643   5.403   1.086   4.058
 5248SOL    HW216644   5.449   1.242   4.073
 5249SOL     OW16645   0.173   5.106   0.824
 5249SOL    HW116646   0.188   5.101   0.923
 5249SOL    HW216647   0.148   5.015   0.790
 5250SOL     OW16648   2.482   5.926   1.260
 5250SOL    HW116649   2.442   5.914   1.351
 5250SOL    HW216650   2.510   5.837   1.223
 5251SOL     OW16651   0.256   4.757   0.575
 5251SOL    HW116652   0.195   4.788   0.649
 5251SOL    HW216653   0.302   4.836   0.535
 5252SOL     OW16654   3.882   5.912   2.295
 5252SOL    HW116655   3.885   5.941   2.200
 5252SOL    HW216656   3.804   5.851   2.310
 5253SOL     OW16657   6.643   6.063   4.424
 5253SOL    HW116658   6.656   6.160   4.444
 5253SOL    HW216659   6.700   6.008   4.485
 5254SOL     OW16660   4.589   5.888   3.164
 5254SOL    HW116661   4.637   5.801   3.164
 5254SOL    HW216662   4.653   5.962   3.185
 5255SOL     OW16663   6.390   1.888   5.362
 5255SOL    HW116664   6.294   1.894   5.334
 5255SOL    HW216665   6.399   1.822   5.437
 5256SOL     OW16666   6.657   2.126   2.247
 5256SOL    HW116667   6.739   2.110   2.301
 5256SOL    HW216668   6.655   2.062   2.170
 5257SOL     OW16669   4.217   1.716   6.259
 5257SOL    HW116670   4.301   1.664   6.276
 5257SOL    HW216671   4.220   1.755   6.167
 5258SOL     OW16672   5.059   1.477   4.499
 5258SOL    HW116673   5.056   1.388   4.545
 5258SOL    HW216674   4.972   1.524   4.513
 5259SOL     OW16675   6.212   5.101   3.724
 5259SOL    HW116676   6.221   5.138   3.816
 5259SOL    HW216677   6.197   5.002   3.729
 5260SOL     OW16678   1.727   6.797   1.345
 5260SOL    HW116679   1.821   6.768   1.362
 5260SOL    HW216680   1.701   6.867   1.412
 5261SOL     OW16681   5.501   4.498   6.844
 5261SOL    HW116682   5.449   4.528   6.765
 5261SOL    HW216683   5.444   4.504   6.926
 5262SOL     OW16684   1.510   1.273   1.780
 5262SOL    HW116685   1.498   1.188   1.831
 5262SOL    HW216686   1.524   1.252   1.683
 5263SOL     OW16687   1.581   6.160   2.557
 5263SOL    HW116688   1.643   6.093   2.597
 5263SOL    HW216689   1.497   6.163   2.610
 5264SOL     OW16690   6.801   2.212   1.778
 5264SOL    HW116691   6.797   2.310   1.799
 5264SOL    HW216692   6.887   2.174   1.812
 5265SOL     OW16693   6.761   5.599   5.609
 5265SOL    HW116694   6.701   5.522   5.631
 5265SOL    HW216695   6.798   5.638   5.694
 5266SOL     OW16696   1.407   0.060   6.687
 5266SOL    HW116697   1.402   0.086   6.784
 5266SOL    HW216698   1.486   0.106   6.645
 5267SOL     OW16699   5.415   2.502   3.769
 5267SOL    HW116700   5.480   2.470   3.700
 5267SOL    HW216701   5.345   2.558   3.726
 5268SOL     OW16702   5.576   0.437   6.354
 5268SOL    HW116703   5.602   0.477   6.442
 5268SOL    HW216704   5.649   0.454   6.287
 5269SOL     OW16705   1.081   6.882   3.956
 5269SOL    HW116706   1.113   6.975   3.971
 5269SOL    HW216707   1.149   6.817   3.992
 5270SOL     OW16708   0.581   1.737   6.407
 5270SOL    HW116709   0.562   1.686   6.323
 5270SOL    HW216710   0.562   1.680   6.487
 5271SOL     OW16711   1.187   4.939   3.232
 5271SOL    HW116712   1.102   4.965   3.186
 5271SOL    HW216713   1.171   4.930   3.330
 5272SOL     OW16714   4.167   0.268   6.973
 5272SOL    HW116715   4.207   0.358   6.990
 5272SOL    HW216716   4.083   0.258   0.000
 5273SOL     OW16717   2.855   1.746   2.775
 5273SOL    HW116718   2.882   1.650   2.788
 5273SOL    HW216719   2.788   1.772   2.845
 5274SOL     OW16720   5.486   4.994   1.604
 5274SOL    HW116721   5.585   4.987   1.622
 5274SOL    HW216722   5.458   5.090   1.613
 5275SOL     OW16723   4.315   1.618   6.658
 5275SOL    HW116724   4.283   1.566   6.578
 5275SOL    HW216725   4.278   1.711   6.654
 5276SOL     OW16726   4.008   6.686   2.044
 5276SOL    HW116727   3.991   6.769   2.098
 5276SOL    HW216728   3.992   6.605   2.100
 5277SOL     OW16729   2.180   2.504   2.124
 5277SOL    HW116730   2.113   2.475   2.056
 5277SOL    HW216731   2.135   2.519   2.212
 5278SOL     OW16732   4.063   3.472   1.833
 5278SOL    HW116733   4.131   3.402   1.810
 5278SOL    HW216734   4.090   3.519   1.917
 5279SOL     OW16735   1.851   6.460   2.291
 5279SOL    HW116736   1.939   6.411   2.288
 5279SOL    HW216737   1.778   6.395   2.312
 5280SOL     OW16738   3.865   0.508   5.004
 5280SOL    HW116739   3.832   0.490   4.912
 5280SOL    HW216740   3.858   0.606   5.024
 5281SOL     OW16741   0.131   2.734   3.344
 5281SOL    HW116742   0.226   2.705   3.339
 5281SOL    HW216743   0.124   2.818   3.398
 5282SOL     OW16744   4.839   1.022   1.240
 5282SOL    HW116745   4.766   1.081   1.205
 5282SOL    HW216746   4.855   1.042   1.337
 5283SOL     OW16747   4.862   5.067   5.628
 5283SOL    HW116748   4.907   5.001   5.569
 5283SOL    HW216749   4.873   5.039   5.724
 5284SOL     OW16750   5.018   2.574   3.424
 5284SOL    HW116751   4.982   2.603   3.513
 5284SOL    HW216752   5.081   2.497   3.438
 5285SOL     OW16753   4.037   6.131   2.757
 5285SOL    HW116754   3.937   6.132   2.766
 5285SOL    HW216755   4.063   6.071   2.682
 5286SOL     OW16756   2.624   5.749   2.451
 5286SOL    HW116757   2.535   5.712   2.424
 5286SOL    HW216758   2.617   5.792   2.541
 5287SOL     OW16759   0.726   1.495   1.815
 5287SOL    HW116760   0.650   1.560   1.815
 5287SOL    HW216761   0.733   1.451   1.726
 5288SOL     OW16762   4.224   0.813   0.876
 5288SOL    HW116763   4.209   0.764   0.791
 5288SOL    HW216764   4.193   0.908   0.866
 5289SOL     OW16765   1.840   5.937   0.839
 5289SOL    HW116766   1.882   5.849   0.818
 5289SOL    HW216767   1.867   6.004   0.770
 5290SOL     OW16768   5.317   5.851   0.669
 5290SOL    HW116769   5.231   5.902   0.667
 5290SOL    HW216770   5.300   5.757   0.697
 5291SOL     OW16771   0.965   5.101   6.361
 5291SOL    HW116772   0.881   5.122   6.311
 5291SOL    HW216773   1.016   5.029   6.312
 5292SOL     OW16774   5.432   2.031   0.240
 5292SOL    HW116775   5.480   1.966   0.299
 5292SOL    HW216776   5.334   2.026   0.257
 5293SOL     OW16777   1.787   1.542   3.730
 5293SOL    HW116778   1.771   1.521   3.826
 5293SOL    HW216779   1.726   1.615   3.700
 5294SOL     OW16780   4.592   2.826   5.349
 5294SOL    HW116781   4.679   2.861   5.314
 5294SOL    HW216782   4.545   2.775   5.276
 5295SOL     OW16783   6.115   0.904   2.166
 5295SOL    HW116784   6.027   0.949   2.149
 5295SOL    HW216785   6.163   0.892   2.079
 5296SOL     OW16786   0.287   3.384   0.251
 5296SOL    HW116787   0.192   3.355   0.260
 5296SOL    HW216788   0.338   3.317   0.197
 5297SOL     OW16789   1.438   3.026   2.227
 5297SOL    HW116790   1.436   3.019   2.327
 5297SOL    HW216791   1.513   3.085   2.199
 5298SOL     OW16792   1.052   5.102   2.006
 5298SOL    HW116793   1.019   5.070   1.916
 5298SOL    HW216794   0.997   5.179   2.036
 5299SOL     OW16795   2.984   0.389   1.077
 5299SOL    HW116796   3.051   0.389   1.152
 5299SOL    HW216797   3.000   0.310   1.018
 5300SOL     OW16798   0.039   5.462   3.954
 5300SOL    HW116799   0.034   5.545   3.899
 5300SOL    HW216800   7.000   5.467   4.029
 5301SOL     OW16801   4.785   0.357   0.516
 5301SOL    HW116802   4.747   0.298   0.588
 5301SOL    HW216803   4.773   0.312   0.427
 5302SOL     OW16804   6.493   4.239   3.569
 5302SOL    HW116805   6.587   4.239   3.535
 5302SOL    HW216806   6.452   4.149   3.554
 5303SOL     OW16807   1.262   5.351   2.742
 5303SOL    HW116808   1.357   5.366   2.715
 5303SOL    HW216809   1.203   5.359   2.662
 5304SOL     OW16810   4.812   2.348   5.492
 5304SOL    HW116811   4.891   2.287   5.485
 5304SOL    HW216812   4.844   2.440   5.515
 5305SOL     OW16813   2.737   1.133   3.743
 5305SOL    HW116814   2.820   1.162   3.696
 5305SOL    HW216815   2.760   1.072   3.819
 5306SOL     OW16816   2.725   6.316   4.659
 5306SOL    HW116817   2.689   6.406   4.632
 5306SOL    HW216818   2.774   6.325   4.746
 5307SOL     OW16819   4.062   6.866   0.209
 5307SOL    HW116820   3.967   6.895   0.216
 5307SOL    HW216821   4.065   6.768   0.191
 5308SOL     OW16822   0.143   1.089   1.998
 5308SOL    HW116823   0.204   1.045   2.064
 5308SOL    HW216824   0.144   1.037   1.913
 5309SOL     OW16825   3.179   3.702   4.626
 5309SOL    HW116826   3.094   3.703   4.574
 5309SOL    HW216827   3.187   3.615   4.676
 5310SOL     OW16828   5.709   2.935   0.010
 5310SOL    HW116829   5.636   2.993   0.045
 5310SOL    HW216830   5.791   2.948   0.065
 5311SOL     OW16831   0.758   6.185   6.642
 5311SOL    HW116832   0.829   6.238   6.597
 5311SOL    HW216833   0.677   6.182   6.583
 5312SOL     OW16834   0.083   3.336   1.718
 5312SOL    HW116835   0.107   3.247   1.756
 5312SOL    HW216836   0.166   3.386   1.693
 5313SOL     OW16837   1.187   6.448   0.685
 5313SOL    HW116838   1.119   6.402   0.742
 5313SOL    HW216839   1.184   6.411   0.592
 5314SOL     OW16840   3.670   5.089   1.125
 5314SOL    HW116841   3.736   5.048   1.062
 5314SOL    HW216842   3.619   5.161   1.078
 5315SOL     OW16843   5.825   2.509   1.916
 5315SOL    HW116844   5.854   2.592   1.869
 5315SOL    HW216845   5.871   2.430   1.874
 5316SOL     OW16846   5.643   5.505   4.422
 5316SOL    HW116847   5.598   5.423   4.458
 5316SOL    HW216848   5.581   5.583   4.429
 5317SOL     OW16849   6.437   5.567   3.041
 5317SOL    HW116850   6.445   5.519   2.953
 5317SOL    HW216851   6.468   5.507   3.115
 5318SOL     OW16852   0.308   2.239   4.366
 5318SOL    HW116853   0.386   2.300   4.355
 5318SOL    HW216854   0.231   2.272   4.311
 5319SOL     OW16855   3.733   6.880   2.005
 5319SOL    HW116856   3.691   6.949   1.946
 5319SOL    HW216857   3.713   6.901   2.101
 5320SOL     OW16858   6.276   3.339   5.823
 5320SOL    HW116859   6.340   3.415   5.822
 5320SOL    HW216860   6.319   3.259   5.781
 5321SOL     OW16861   2.203   4.695   5.913
 5321SOL    HW116862   2.259   4.617   5.886
 5321SOL    HW216863   2.107   4.674   5.894
 5322SOL     OW16864   2.326   5.965   0.767
 5322SOL    HW116865   2.277   6.012   0.839
 5322SOL    HW216866   2.323   6.019   0.683
 5323SOL     OW16867   5.375   3.379   0.338
 5323SOL    HW116868   5.409   3.468   0.368
 5323SOL    HW216869   5.380   3.315   0.415
 5324SOL     OW16870   3.792   3.820   1.357
 5324SOL    HW116871   3.787   3.920   1.358
 5324SOL    HW216872   3.832   3.788   1.442
 5325SOL     OW16873   4.191   6.063   4.724
 5325SOL    HW116874   4.259   6.055   4.797
 5325SOL    HW216875   4.136   5.980   4.721
 5326SOL     OW16876   0.049   0.102   2.997
 5326SOL    HW116877   7.025   0.096   2.911
 5326SOL    HW216878   0.045   0.195   3.033
 5327SOL     OW16879   0.057   0.269   4.145
 5327SOL    HW116880   0.024   0.328   4.072
 5327SOL    HW216881   0.137   0.217   4.113
 5328SOL     OW16882   3.675   4.981   0.138
 5328SOL    HW116883   3.607   4.919   0.098
 5328SOL    HW216884   3.632   5.034   0.212
 5329SOL     OW16885   0.250   5.613   0.322
 5329SOL    HW116886   0.333   5.659   0.289
 5329SOL    HW216887   0.260   5.514   0.312
 5330SOL     OW16888   3.381   4.060   0.400
 5330SOL    HW116889   3.406   4.156   0.401
 5330SOL    HW216890   3.360   4.029   0.493
 5331SOL     OW16891   5.134   1.615   6.819
 5331SOL    HW116892   5.100   1.693   6.872
 5331SOL    HW216893   5.180   1.649   6.736
 5332SOL     OW16894   5.651   3.277   6.915
 5332SOL    HW116895   5.620   3.198   6.861
 5332SOL    HW216896   5.581   3.300   6.983
 5333SOL     OW16897   1.577   0.960   4.583
 5333SOL    HW116898   1.479   0.950   4.569
 5333SOL    HW216899   1.593   1.011   4.667
 5334SOL     OW16900   3.476   6.281   1.894
 5334SOL    HW116901   3.457   6.214   1.966
 5334SOL    HW216902   3.527   6.357   1.933
 5335SOL     OW16903   0.115   4.760   1.817
 5335SOL    HW116904   0.017   4.764   1.800
 5335SOL    HW216905   0.162   4.727   1.735
 5336SOL     OW16906   1.765   2.989   5.244
 5336SOL    HW116907   1.815   2.984   5.157
 5336SOL    HW216908   1.710   3.073   5.246
 5337SOL     OW16909   6.925   3.440   1.149
 5337SOL    HW116910   6.930   3.521   1.091
 5337SOL    HW216911   6.887   3.463   1.238
 5338SOL     OW16912   6.980   3.572   0.714
 5338SOL    HW116913   6.954   3.476   0.729
 5338SOL    HW216914   0.027   3.577   0.647
 5339SOL     OW16915   5.606   3.310   2.286
 5339SOL    HW116916   5.532   3.286   2.350
 5339SOL    HW216917   5.578   3.388   2.231
 5340SOL     OW16918   4.578   3.492   1.647
 5340SOL    HW116919   4.641   3.415   1.656
 5340SOL    HW216920   4.540   3.516   1.736
 5341SOL     OW16921   4.821   4.771   3.701
 5341SOL    HW116922   4.749   4.746   3.636
 5341SOL    HW216923   4.837   4.870   3.697
 5342SOL     OW16924   6.277   5.823   4.759
 5342SOL    HW116925   6.212   5.753   4.728
 5342SOL    HW216926   6.283   5.895   4.690
 5343SOL     OW16927   3.863   3.353   6.517
 5343SOL    HW116928   3.877   3.450   6.536
 5343SOL    HW216929   3.818   3.310   6.596
 5344SOL     OW16930   6.878   1.323   6.763
 5344SOL    HW116931   6.945   1.292   6.695
 5344SOL    HW216932   6.917   1.398   6.817
 5345SOL     OW16933   4.655   1.079   6.758
 5345SOL    HW116934   4.698   0.990   6.769
 5345SOL    HW216935   4.723   1.151   6.771
 5346SOL     OW16936   3.230   6.138   3.430
 5346SOL    HW116937   3.214   6.045   3.462
 5346SOL    HW216938   3.189   6.150   3.340
 5347SOL     OW16939   5.277   1.617   4.585
 5347SOL    HW116940   5.212   1.570   4.525
 5347SOL    HW216941   5.267   1.716   4.571
 5348SOL     OW16942   4.825   3.030   5.033
 5348SOL    HW116943   4.781   2.958   4.980
 5348SOL    HW216944   4.879   3.088   4.973
 5349SOL     OW16945   0.692   3.925   1.403
 5349SOL    HW116946   0.612   3.937   1.346
 5349SOL    HW216947   0.774   3.949   1.352
 5350SOL     OW16948   1.096   0.147   6.737
 5350SOL    HW116949   1.005   0.129   6.774
 5350SOL    HW216950   1.099   0.240   6.700
 5351SOL     OW16951   0.143   6.057   3.163
 5351SOL    HW116952   0.151   5.959   3.181
 5351SOL    HW216953   0.047   6.085   3.169
 5352SOL     OW16954   1.435   2.704   5.933
 5352SOL    HW116955   1.527   2.674   5.907
 5352SOL    HW216956   1.372   2.626   5.929
 5353SOL     OW16957   3.871   5.294   3.638
 5353SOL    HW116958   3.790   5.243   3.666
 5353SOL    HW216959   3.852   5.392   3.643
 5354SOL     OW16960   3.972   5.627   1.082
 5354SOL    HW116961   3.983   5.675   1.169
 5354SOL    HW216962   3.944   5.691   1.012
 5355SOL     OW16963   4.833   6.026   4.975
 5355SOL    HW116964   4.882   5.958   5.031
 5355SOL    HW216965   4.845   6.117   5.015
 5356SOL     OW16966   1.140   6.210   1.219
 5356SOL    HW116967   1.236   6.202   1.193
 5356SOL    HW216968   1.082   6.186   1.141
 5357SOL     OW16969   6.395   3.273   2.874
 5357SOL    HW116970   6.342   3.358   2.867
 5357SOL    HW216971   6.333   3.195   2.867
 5358SOL     OW16972   6.209   0.389   6.449
 5358SOL    HW116973   6.278   0.358   6.383
 5358SOL    HW216974   6.137   0.439   6.400
 5359SOL     OW16975   2.862   2.957   0.067
 5359SOL    HW116976   2.815   2.929   0.151
 5359SOL    HW216977   2.948   3.002   0.091
 5360SOL     OW16978   5.198   5.360   3.931
 5360SOL    HW116979   5.115   5.374   3.878
 5360SOL    HW216980   5.239   5.448   3.952
 5361SOL     OW16981   1.333   4.371   3.325
 5361SOL    HW116982   1.392   4.348   3.248
 5361SOL    HW216983   1.275   4.448   3.300
 5362SOL     OW16984   6.404   1.379   2.740
 5362SOL    HW116985   6.380   1.286   2.713
 5362SOL    HW216986   6.503   1.387   2.747
 5363SOL     OW16987   5.774   5.568   3.680
 5363SOL    HW116988   5.773   5.622   3.763
 5363SOL    HW216989   5.854   5.593   3.625
 5364SOL     OW16990   4.392   2.370   2.411
 5364SOL    HW116991   4.305   2.386   2.366
 5364SOL    HW216992   4.386   2.397   2.507
 5365SOL     OW16993   2.943   3.967   5.066
 5365SOL    HW116994   2.932   3.886   5.009
 5365SOL    HW216995   2.892   3.954   5.151
 5366SOL     OW16996   6.461   5.630   3.380
 5366SOL    HW116997   6.442   5.724   3.352
 5366SOL    HW216998   6.381   5.573   3.364
 5367SOL     OW16999   6.223   6.283   1.407
 5367SOL    HW117000   6.171   6.356   1.451
 5367SOL    HW217001   6.304   6.262   1.462
 5368SOL     OW17002   0.242   6.134   4.540
 5368SOL    HW117003   0.294   6.051   4.559
 5368SOL    HW217004   0.257   6.162   4.445
 5369SOL     OW17005   4.333   6.671   2.529
 5369SOL    HW117006   4.291   6.618   2.603
 5369SOL    HW217007   4.332   6.616   2.445
 5370SOL     OW17008   1.577   2.964   0.100
 5370SOL    HW117009   1.672   2.933   0.106
 5370SOL    HW217010   1.519   2.887   0.072
 5371SOL     OW17011   6.207   5.620   4.247
 5371SOL    HW117012   6.300   5.645   4.222
 5371SOL    HW217013   6.180   5.671   4.330
 5372SOL     OW17014   2.380   6.871   3.166
 5372SOL    HW117015   2.332   6.820   3.095
 5372SOL    HW217016   2.479   6.866   3.151
 5373SOL     OW17017   3.133   1.115   6.457
 5373SOL    HW117018   3.049   1.158   6.425
 5373SOL    HW217019   3.152   1.033   6.402
 5374SOL     OW17020   1.245   4.217   1.343
 5374SOL    HW117021   1.345   4.213   1.354
 5374SOL    HW217022   1.220   4.172   1.257
 5375SOL     OW17023   2.259   4.264   4.653
 5375SOL    HW117024   2.180   4.322   4.671
 5375SOL    HW217025   2.276   4.205   4.732
 5376SOL     OW17026   1.256   0.101   0.712
 5376SOL    HW117027   1.279   0.129   0.619
 5376SOL    HW217028   1.334   0.118   0.773
 5377SOL     OW17029   1.407   1.981   2.533
 5377SOL    HW117030   1.431   2.056   2.594
 5377SOL    HW217031   1.485   1.919   2.523
 5378SOL     OW17032   4.755   0.031   2.155
 5378SOL    HW117033   4.848   0.069   2.166
 5378SOL    HW217034   4.739   6.987   2.224
 5379SOL     OW17035   2.224   1.871   3.176
 5379SOL    HW117036   2.324   1.865   3.179
 5379SOL    HW217037   2.188   1.869   3.270
 5380SOL     OW17038   4.942   6.105   1.214
 5380SOL    HW117039   4.918   6.054   1.131
 5380SOL    HW217040   5.035   6.081   1.242
 5381SOL     OW17041   3.490   1.442   3.416
 5381SOL    HW117042   3.445   1.373   3.360
 5381SOL    HW217043   3.587   1.448   3.390
 5382SOL     OW17044   4.005   1.672   2.706
 5382SOL    HW117045   3.966   1.696   2.795
 5382SOL    HW217046   3.996   1.750   2.643
 5383SOL     OW17047   2.150   3.342   4.892
 5383SOL    HW117048   2.191   3.309   4.977
 5383SOL    HW217049   2.051   3.327   4.894
 5384SOL     OW17050   5.216   6.029   6.191
 5384SOL    HW117051   5.151   6.017   6.116
 5384SOL    HW217052   5.254   6.122   6.187
 5385SOL     OW17053   4.288   3.663   6.924
 5385SOL    HW117054   4.349   3.596   6.881
 5385SOL    HW217055   4.247   3.623   7.006
 5386SOL     OW17056   4.645   5.079   3.936
 5386SOL    HW117057   4.561   5.032   3.961
 5386SOL    HW217058   4.659   5.074   3.837
 5387SOL     OW17059   1.195   2.234   4.145
 5387SOL    HW117060   1.252   2.165   4.189
 5387SOL    HW217061   1.104   2.196   4.128
 5388SOL     OW17062   6.442   6.354   4.262
 5388SOL    HW117063   6.423   6.398   4.349
 5388SOL    HW217064   6.479   6.420   4.197
 5389SOL     OW17065   5.412   1.185   4.744
 5389SOL    HW117066   5.371   1.218   4.829
 5389SOL    HW217067   5.369   1.099   4.717
 5390SOL     OW17068   5.860   3.714   3.272
 5390SOL    HW117069   5.842   3.629   3.221
 5390SOL    HW217070   5.905   3.691   3.358
 5391SOL     OW17071   3.945   2.733   1.213
 5391SOL    HW117072   3.927   2.813   1.270
 5391SOL    HW217073   3.898   2.654   1.251
 5392SOL     OW17074   5.265   0.171   4.481
 5392SOL    HW117075   5.326   0.240   4.521
 5392SOL    HW217076   5.209   0.212   4.410
 5393SOL     OW17077   4.687   1.090   4.063
 5393SOL    HW117078   4.631   1.007   4.063
 5393SOL    HW217079   4.631   1.169   4.036
 5394SOL     OW17080   7.007   3.226   2.111
 5394SOL    HW117081   7.005   3.152   2.179
 5394SOL    HW217082   6.973   3.310   2.153
 5395SOL     OW17083   0.646   1.574   1.095
 5395SOL    HW117084   0.737   1.601   1.124
 5395SOL    HW217085   0.609   1.643   1.032
 5396SOL     OW17086   3.503   3.000   0.996
 5396SOL    HW117087   3.414   2.999   1.042
 5396SOL    HW217088   3.512   3.084   0.943
 5397SOL     OW17089   0.065   0.576   2.355
 5397SOL    HW117090   7.022   0.563   2.425
 5397SOL    HW217091   0.103   0.488   2.328
 5398SOL     OW17092   6.742   2.427   3.443
 5398SOL    HW117093   6.675   2.359   3.415
 5398SOL    HW217094   6.701   2.489   3.510
 5399SOL     OW17095   2.195   3.152   0.979
 5399SOL    HW117096   2.215   3.173   0.884
 5399SOL    HW217097   2.183   3.053   0.989
 5400SOL     OW17098   4.876   3.176   1.505
 5400SOL    HW117099   4.917   3.236   1.437
 5400SOL    HW217100   4.840   3.094   1.460
 5401SOL     OW17101   5.270   3.031   1.127
 5401SOL    HW117102   5.368   3.013   1.123
 5401SOL    HW217103   5.243   3.084   1.046
 5402SOL     OW17104   1.256   6.600   1.868
 5402SOL    HW117105   1.289   6.643   1.952
 5402SOL    HW217106   1.290   6.506   1.863
 5403SOL     OW17107   5.278   2.259   6.056
 5403SOL    HW117108   5.247   2.353   6.045
 5403SOL    HW217109   5.369   2.248   6.015
 5404SOL     OW17110   4.742   6.407   0.368
 5404SOL    HW117111   4.652   6.437   0.336
 5404SOL    HW217112   4.814   6.447   0.311
 5405SOL     OW17113   0.121   5.223   6.994
 5405SOL    HW117114   0.095   5.150   6.930
 5405SOL    HW217115   0.052   5.231   0.039
 5406SOL     OW17116   2.677   1.392   5.931
 5406SOL    HW117117   2.736   1.470   5.950
 5406SOL    HW217118   2.660   1.386   5.833
 5407SOL     OW17119   1.467   6.537   3.615
 5407SOL    HW117120   1.425   6.621   3.649
 5407SOL    HW217121   1.489   6.548   3.518
 5408SOL     OW17122   2.400   2.015   4.335
 5408SOL    HW117123   2.333   1.979   4.270
 5408SOL    HW217124   2.485   2.036   4.287
 5409SOL     OW17125   0.605   2.549   2.665
 5409SOL    HW117126   0.589   2.628   2.723
 5409SOL    HW217127   0.703   2.525   2.667
 5410SOL     OW17128   6.711   2.866   0.460
 5410SOL    HW117129   6.627   2.874   0.406
 5410SOL    HW217130   6.720   2.945   0.520
 5411SOL     OW17131   3.448   5.492   0.797
 5411SOL    HW117132   3.461   5.530   0.889
 5411SOL    HW217133   3.360   5.522   0.761
 5412SOL     OW17134   1.375   2.493   4.841
 5412SOL    HW117135   1.448   2.437   4.801
 5412SOL    HW217136   1.367   2.474   4.939
 5413SOL     OW17137   0.125   5.132   5.539
 5413SOL    HW117138   0.211   5.142   5.589
 5413SOL    HW217139   0.145   5.127   5.441
 5414SOL     OW17140   5.537   4.525   5.827
 5414SOL    HW117141   5.479   4.507   5.907
 5414SOL    HW217142   5.499   4.478   5.747
 5415SOL     OW17143   1.753   1.695   6.219
 5415SOL    HW117144   1.748   1.614   6.278
 5415SOL    HW217145   1.848   1.724   6.211
 5416SOL     OW17146   3.326   6.180   6.982
 5416SOL    HW117147   3.408   6.127   7.001
 5416SOL    HW217148   3.280   6.143   6.901
 5417SOL     OW17149   5.917   0.369   3.239
 5417SOL    HW117150   5.820   0.379   3.260
 5417SOL    HW217151   5.930   0.370   3.140
 5418SOL     OW17152   6.903   4.098   5.503
 5418SOL    HW117153   6.971   4.169   5.486
 5418SOL    HW217154   6.898   4.080   5.602
 5419SOL     OW17155   3.821   1.839   6.651
 5419SOL    HW117156   3.733   1.883   6.667
 5419SOL    HW217157   3.824   1.803   6.557
 5420SOL     OW17158   1.470   2.034   1.628
 5420SOL    HW117159   1.412   1.969   1.579
 5420SOL    HW217160   1.493   1.998   1.718
 5421SOL     OW17161   4.096   5.486   1.758
 5421SOL    HW117162   4.148   5.515   1.838
 5421SOL    HW217163   4.085   5.386   1.759
 5422SOL     OW17164   2.768   5.478   3.611
 5422SOL    HW117165   2.747   5.390   3.653
 5422SOL    HW217166   2.687   5.537   3.615
 5423SOL     OW17167   4.956   6.587   1.221
 5423SOL    HW117168   5.028   6.633   1.274
 5423SOL    HW217169   4.998   6.519   1.161
 5424SOL     OW17170   4.187   3.203   5.276
 5424SOL    HW117171   4.197   3.296   5.241
 5424SOL    HW217172   4.277   3.166   5.300
 5425SOL     OW17173   1.200   5.124   5.876
 5425SOL    HW117174   1.226   5.034   5.842
 5425SOL    HW217175   1.122   5.115   5.938
 5426SOL     OW17176   6.484   4.489   1.178
 5426SOL    HW117177   6.576   4.523   1.162
 5426SOL    HW217178   6.451   4.524   1.266
 5427SOL     OW17179   4.737   2.759   0.505
 5427SOL    HW117180   4.722   2.660   0.517
 5427SOL    HW217181   4.741   2.803   0.595
 5428SOL     OW17182   4.856   5.344   3.246
 5428SOL    HW117183   4.940   5.295   3.221
 5428SOL    HW217184   4.788   5.332   3.173
 5429SOL     OW17185   2.790   6.975   3.876
 5429SOL    HW117186   2.866   6.940   3.931
 5429SOL    HW217187   2.782   0.047   3.890
 5430SOL     OW17188   2.007   4.049   5.760
 5430SOL    HW117189   2.041   4.001   5.841
 5430SOL    HW217190   1.968   4.137   5.787
 5431SOL     OW17191   4.688   4.915   0.037
 5431SOL    HW117192   4.777   4.878   0.063
 5431SOL    HW217193   4.680   5.009   0.069
 5432SOL     OW17194   0.038   5.006   6.786
 5432SOL    HW117195   7.026   5.035   6.699
 5432SOL    HW217196   7.007   4.936   6.828
 5433SOL     OW17197   3.424   0.173   1.193
 5433SOL    HW117198   3.421   0.205   1.098
 5433SOL    HW217199   3.344   0.115   1.211
 5434SOL     OW17200   4.804   6.669   4.239
 5434SOL    HW117201   4.787   6.669   4.338
 5434SOL    HW217202   4.887   6.617   4.220
 5435SOL     OW17203   6.721   4.734   6.672
 5435SOL    HW117204   6.627   4.717   6.641
 5435SOL    HW217205   6.720   4.797   6.749
 5436SOL     OW17206   1.995   4.719   2.300
 5436SOL    HW117207   2.017   4.701   2.204
 5436SOL    HW217208   2.017   4.638   2.354
 5437SOL     OW17209   3.302   6.260   1.098
 5437SOL    HW117210   3.296   6.240   1.000
 5437SOL    HW217211   3.392   6.298   1.119
 5438SOL     OW17212   4.376   6.675   2.078
 5438SOL    HW117213   4.410   6.740   2.147
 5438SOL    HW217214   4.341   6.726   1.999
 5439SOL     OW17215   1.463   3.994   1.346
 5439SOL    HW117216   1.548   3.945   1.327
 5439SOL    HW217217   1.476   4.055   1.424
 5440SOL     OW17218   5.718   6.788   3.723
 5440SOL    HW117219   5.746   6.883   3.710
 5440SOL    HW217220   5.758   6.752   3.807
 5441SOL     OW17221   5.783   2.198   4.801
 5441SOL    HW117222   5.685   2.204   4.780
 5441SOL    HW217223   5.831   2.159   4.722
 5442SOL     OW17224   2.688   0.699   6.861
 5442SOL    HW117225   2.775   0.672   6.902
 5442SOL    HW217226   2.704   0.768   6.790
 5443SOL     OW17227   6.093   1.031   2.756
 5443SOL    HW117228   5.996   1.048   2.738
 5443SOL    HW217229   6.103   0.943   2.804
 5444SOL     OW17230   0.547   1.315   6.412
 5444SOL    HW117231   0.541   1.350   6.318
 5444SOL    HW217232   0.643   1.302   6.437
 5445SOL     OW17233   5.649   6.517   5.398
 5445SOL    HW117234   5.667   6.615   5.387
 5445SOL    HW217235   5.561   6.504   5.444
 5446SOL     OW17236   1.128   3.999   6.364
 5446SOL    HW117237   1.032   4.005   6.336
 5446SOL    HW217238   1.133   3.968   6.459
 5447SOL     OW17239   6.338   2.134   1.889
 5447SOL    HW117240   6.386   2.049   1.868
 5447SOL    HW217241   6.240   2.120   1.880
 5448SOL     OW17242   6.123   4.833   2.274
 5448SOL    HW117243   6.179   4.831   2.356
 5448SOL    HW217244   6.028   4.852   2.299
 5449SOL     OW17245   1.939   0.582   1.581
 5449SOL    HW117246   1.959   0.484   1.568
 5449SOL    HW217247   1.976   0.612   1.669
 5450SOL     OW17248   4.684   5.936   1.681
 5450SOL    HW117249   4.697   5.849   1.633
 5450SOL    HW217250   4.768   5.960   1.729
 5451SOL     OW17251   0.089   6.640   3.994
 5451SOL    HW117252   0.061   6.557   3.945
 5451SOL    HW217253   0.031   6.652   4.074
 5452SOL     OW17254   2.527   4.505   2.551
 5452SOL    HW117255   2.583   4.572   2.503
 5452SOL    HW217256   2.472   4.552   2.620
 5453SOL     OW17257   5.938   4.602   4.168
 5453SOL    HW117258   5.877   4.679   4.150
 5453SOL    HW217259   5.934   4.578   4.265
 5454SOL     OW17260   5.753   4.192   2.739
 5454SOL    HW117261   5.795   4.136   2.810
 5454SOL    HW217262   5.787   4.163   2.649
 5455SOL     OW17263   2.923   2.006   3.535
 5455SOL    HW117264   2.938   1.954   3.451
 5455SOL    HW217265   2.826   2.003   3.559
 5456SOL     OW17266   5.979   2.294   0.252
 5456SOL    HW117267   5.974   2.314   0.154
 5456SOL    HW217268   5.910   2.347   0.300
 5457SOL     OW17269   6.158   1.004   6.750
 5457SOL    HW117270   6.216   1.041   6.822
 5457SOL    HW217271   6.133   1.076   6.686
 5458SOL     OW17272   4.843   4.620   6.413
 5458SOL    HW117273   4.818   4.528   6.383
 5458SOL    HW217274   4.765   4.663   6.459
 5459SOL     OW17275   2.431   2.795   5.293
 5459SOL    HW117276   2.511   2.828   5.344
 5459SOL    HW217277   2.408   2.861   5.222
 5460SOL     OW17278   0.485   0.770   0.881
 5460SOL    HW117279   0.569   0.786   0.830
 5460SOL    HW217280   0.498   0.799   0.976
 5461SOL     OW17281   5.712   1.876   6.453
 5461SOL    HW117282   5.627   1.908   6.410
 5461SOL    HW217283   5.694   1.854   6.549
 5462SOL     OW17284   5.332   5.141   5.897
 5462SOL    HW117285   5.327   5.042   5.904
 5462SOL    HW217286   5.270   5.173   5.825
 5463SOL     OW17287   1.498   4.507   5.697
 5463SOL    HW117288   1.530   4.520   5.603
 5463SOL    HW217289   1.552   4.564   5.759
 5464SOL     OW17290   1.813   5.148   4.904
 5464SOL    HW117291   1.734   5.210   4.903
 5464SOL    HW217292   1.855   5.150   4.995
 5465SOL     OW17293   0.606   0.115   5.310
 5465SOL    HW117294   0.585   0.037   5.369
 5465SOL    HW217295   0.532   0.182   5.316
 5466SOL     OW17296   5.271   1.635   4.852
 5466SOL    HW117297   5.278   1.732   4.875
 5466SOL    HW217298   5.279   1.624   4.753
 5467SOL     OW17299   4.821   3.091   4.643
 5467SOL    HW117300   4.804   3.184   4.610
 5467SOL    HW217301   4.880   3.094   4.724
 5468SOL     OW17302   6.977   2.160   1.274
 5468SOL    HW117303   6.903   2.096   1.250
 5468SOL    HW217304   6.937   2.250   1.294
 5469SOL     OW17305   3.365   1.226   4.504
 5469SOL    HW117306   3.364   1.214   4.405
 5469SOL    HW217307   3.344   1.321   4.527
 5470SOL     OW17308   4.149   5.348   3.925
 5470SOL    HW117309   4.216   5.288   3.970
 5470SOL    HW217310   4.128   5.312   3.834
 5471SOL     OW17311   5.281   0.518   2.239
 5471SOL    HW117312   5.229   0.434   2.258
 5471SOL    HW217313   5.373   0.510   2.277
 5472SOL     OW17314   2.442   3.642   0.636
 5472SOL    HW117315   2.367   3.613   0.694
 5472SOL    HW217316   2.529   3.615   0.677
 5473SOL     OW17317   3.196   4.846   2.232
 5473SOL    HW117318   3.173   4.943   2.235
 5473SOL    HW217319   3.112   4.792   2.224
 5474SOL     OW17320   1.628   4.803   2.246
 5474SOL    HW117321   1.623   4.806   2.346
 5474SOL    HW217322   1.716   4.764   2.219
 5475SOL     OW17323   1.445   1.504   5.308
 5475SOL    HW117324   1.425   1.494   5.211
 5475SOL    HW217325   1.529   1.454   5.331
 5476SOL     OW17326   1.836   0.137   4.825
 5476SOL    HW117327   1.846   0.082   4.742
 5476SOL    HW217328   1.847   0.079   4.905
 5477SOL     OW17329   2.134   3.278   3.618
 5477SOL    HW117330   2.203   3.212   3.649
 5477SOL    HW217331   2.076   3.235   3.549
 5478SOL     OW17332   5.096   4.662   5.476
 5478SOL    HW117333   5.146   4.650   5.561
 5478SOL    HW217334   5.132   4.742   5.427
 5479SOL     OW17335   5.324   2.594   4.350
 5479SOL    HW117336   5.421   2.616   4.338
 5479SOL    HW217337   5.289   2.550   4.267
 5480SOL     OW17338   1.098   3.372   4.253
 5480SOL    HW117339   1.127   3.406   4.164
 5480SOL    HW217340   1.067   3.278   4.245
 5481SOL     OW17341   3.726   1.506   6.637
 5481SOL    HW117342   3.627   1.513   6.653
 5481SOL    HW217343   3.749   1.412   6.616
 5482SOL     OW17344   5.649   3.532   1.790
 5482SOL    HW117345   5.584   3.459   1.809
 5482SOL    HW217346   5.742   3.494   1.790
 5483SOL     OW17347   6.969   3.079   0.026
 5483SOL    HW117348   6.900   3.106   6.985
 5483SOL    HW217349   6.981   3.152   0.093
 5484SOL     OW17350   6.498   0.258   5.423
 5484SOL    HW117351   6.478   0.319   5.346
 5484SOL    HW217352   6.586   0.282   5.463
 5485SOL     OW17353   3.531   0.363   4.966
 5485SOL    HW117354   3.471   0.288   4.935
 5485SOL    HW217355   3.554   0.421   4.888
 5486SOL     OW17356   0.936   0.875   4.291
 5486SOL    HW117357   1.021   0.849   4.339
 5486SOL    HW217358   0.888   0.945   4.344
 5487SOL     OW17359   4.631   5.356   0.646
 5487SOL    HW117360   4.587   5.266   0.646
 5487SOL    HW217361   4.730   5.344   0.639
 5488SOL     OW17362   5.459   1.125   5.933
 5488SOL    HW117363   5.443   1.158   6.026
 5488SOL    HW217364   5.376   1.134   5.879
 5489SOL     OW17365   6.864   3.985   3.483
 5489SOL    HW117366   6.823   3.989   3.392
 5489SOL    HW217367   6.798   3.946   3.548
 5490SOL     OW17368   2.271   2.474   6.119
 5490SOL    HW117369   2.196   2.502   6.059
 5490SOL    HW217370   2.343   2.544   6.117
 5491SOL     OW17371   0.120   6.022   1.659
 5491SOL    HW117372   0.159   6.067   1.579
 5491SOL    HW217373   0.168   5.936   1.676
 5492SOL     OW17374   1.404   1.217   4.811
 5492SOL    HW117375   1.395   1.226   4.910
 5492SOL    HW217376   1.321   1.250   4.767
 5493SOL     OW17377   3.156   2.467   0.352
 5493SOL    HW117378   3.116   2.547   0.305
 5493SOL    HW217379   3.160   2.485   0.450
 5494SOL     OW17380   6.097   3.312   2.225
 5494SOL    HW117381   6.195   3.325   2.215
 5494SOL    HW217382   6.076   3.215   2.236
 5495SOL     OW17383   3.829   3.142   3.148
 5495SOL    HW117384   3.846   3.204   3.072
 5495SOL    HW217385   3.792   3.056   3.112
 5496SOL     OW17386   4.063   5.204   1.767
 5496SOL    HW117387   4.156   5.175   1.790
 5496SOL    HW217388   4.013   5.128   1.726
 5497SOL     OW17389   6.184   0.160   1.466
 5497SOL    HW117390   6.258   0.184   1.528
 5497SOL    HW217391   6.134   0.242   1.438
 5498SOL     OW17392   4.400   0.357   5.071
 5498SOL    HW117393   4.427   0.422   5.000
 5498SOL    HW217394   4.302   0.341   5.065
 5499SOL     OW17395   0.671   1.357   5.481
 5499SOL    HW117396   0.662   1.379   5.384
 5499SOL    HW217397   0.721   1.430   5.528
 5500SOL     OW17398   2.032   5.731   0.907
 5500SOL    HW117399   2.100   5.773   0.967
 5500SOL    HW217400   2.072   5.651   0.862
 5501SOL     OW17401   2.759   0.525   2.502
 5501SOL    HW117402   2.741   0.462   2.577
 5501SOL    HW217403   2.728   0.617   2.527
 5502SOL     OW17404   4.636   3.311   0.718
 5502SOL    HW117405   4.567   3.291   0.649
 5502SOL    HW217406   4.643   3.410   0.731
 5503SOL     OW17407   0.650   6.427   4.362
 5503SOL    HW117408   0.600   6.497   4.311
 5503SOL    HW217409   0.622   6.430   4.458
 5504SOL     OW17410   3.570   2.027   4.482
 5504SOL    HW117411   3.484   2.058   4.441
 5504SOL    HW217412   3.560   1.932   4.511
 5505SOL     OW17413   3.606   4.411   6.876
 5505SOL    HW117414   3.541   4.388   6.949
 5505SOL    HW217415   3.671   4.479   6.910
 5506SOL     OW17416   0.473   6.666   5.555
 5506SOL    HW117417   0.396   6.641   5.615
 5506SOL    HW217418   0.552   6.609   5.577
 5507SOL     OW17419   4.026   5.859   4.677
 5507SOL    HW117420   4.033   5.768   4.637
 5507SOL    HW217421   3.938   5.900   4.652
 5508SOL     OW17422   1.934   0.489   6.035
 5508SOL    HW117423   2.027   0.454   6.024
 5508SOL    HW217424   1.934   0.588   6.020
 5509SOL     OW17425   6.163   6.371   6.961
 5509SOL    HW117426   6.084   6.327   7.003
 5509SOL    HW217427   6.219   6.414   0.006
 5510SOL     OW17428   6.058   0.409   6.171
 5510SOL    HW117429   6.050   0.324   6.119
 5510SOL    HW217430   6.087   0.483   6.111
 5511SOL     OW17431   6.883   2.163   0.936
 5511SOL    HW117432   6.840   2.129   1.020
 5511SOL    HW217433   6.955   2.100   0.908
 5512SOL     OW17434   0.567   0.187   0.871
 5512SOL    HW117435   0.574   0.236   0.784
 5512SOL    HW217436   0.610   0.240   0.943
 5513SOL     OW17437   3.431   5.247   4.729
 5513SOL    HW117438   3.360   5.308   4.765
 5513SOL    HW217439   3.455   5.277   4.636
 5514SOL     OW17440   6.136   5.299   4.025
 5514SOL    HW117441   6.046   5.336   4.001
 5514SOL    HW217442   6.131   5.199   4.026
 5515SOL     OW17443   6.771   2.847   2.777
 5515SOL    HW117444   6.747   2.926   2.833
 5515SOL    HW217445   6.869   2.827   2.789
 5516SOL     OW17446   1.471   3.339   6.467
 5516SOL    HW117447   1.455   3.240   6.465
 5516SOL    HW217448   1.548   3.359   6.528
 5517SOL     OW17449   2.378   1.476   1.833
 5517SOL    HW117450   2.393   1.411   1.758
 5517SOL    HW217451   2.407   1.435   1.919
 5518SOL     OW17452   5.255   5.239   5.412
 5518SOL    HW117453   5.304   5.316   5.455
 5518SOL    HW217454   5.315   5.196   5.344
 5519SOL     OW17455   5.314   3.769   3.451
 5519SOL    HW117456   5.265   3.749   3.536
 5519SOL    HW217457   5.408   3.736   3.457
 5520SOL     OW17458   1.878   3.171   0.835
 5520SOL    HW117459   1.897   3.144   0.740
 5520SOL    HW217460   1.824   3.099   0.879
 5521SOL     OW17461   4.939   5.677   1.380
 5521SOL    HW117462   4.925   5.578   1.380
 5521SOL    HW217463   4.855   5.723   1.407
 5522SOL     OW17464   2.034   3.042   2.315
 5522SOL    HW117465   1.986   3.096   2.246
 5522SOL    HW217466   1.994   2.950   2.320
 5523SOL     OW17467   3.420   0.985   1.430
 5523SOL    HW117468   3.431   0.886   1.444
 5523SOL    HW217469   3.353   1.001   1.357
 5524SOL     OW17470   6.127   5.822   6.478
 5524SOL    HW117471   6.091   5.753   6.415
 5524SOL    HW217472   6.062   5.834   6.553
 5525SOL     OW17473   6.620   6.346   4.547
 5525SOL    HW117474   6.635   6.379   4.454
 5525SOL    HW217475   6.616   6.423   4.610
 5526SOL     OW17476   5.343   3.005   4.654
 5526SOL    HW117477   5.375   2.912   4.670
 5526SOL    HW217478   5.395   3.047   4.580
 5527SOL     OW17479   2.491   3.306   0.840
 5527SOL    HW117480   2.408   3.280   0.791
 5527SOL    HW217481   2.508   3.404   0.827
 5528SOL     OW17482   0.395   3.420   2.833
 5528SOL    HW117483   0.378   3.513   2.801
 5528SOL    HW217484   0.316   3.388   2.886
 5529SOL     OW17485   1.621   1.581   4.996
 5529SOL    HW117486   1.695   1.514   5.004
 5529SOL    HW217487   1.553   1.548   4.930
 5530SOL     OW17488   0.486   3.098   0.529
 5530SOL    HW117489   0.564   3.107   0.591
 5530SOL    HW217490   0.520   3.078   0.437
 5531SOL     OW17491   1.463   2.639   6.191
 5531SOL    HW117492   1.448   2.663   6.095
 5531SOL    HW217493   1.383   2.591   6.226
 5532SOL     OW17494   2.534   2.279   1.212
 5532SOL    HW117495   2.620   2.228   1.208
 5532SOL    HW217496   2.466   2.235   1.154
 5533SOL     OW17497   4.159   0.298   0.782
 5533SOL    HW117498   4.074   0.350   0.782
 5533SOL    HW217499   4.222   0.337   0.715
 5534SOL     OW17500   6.715   5.044   5.366
 5534SOL    HW117501   6.665   5.057   5.452
 5534SOL    HW217502   6.800   4.996   5.384
 5535SOL     OW17503   5.619   3.722   3.403
 5535SOL    HW117504   5.584   3.630   3.419
 5535SOL    HW217505   5.663   3.725   3.313
 5536SOL     OW17506   2.510   0.456   4.123
 5536SOL    HW117507   2.570   0.382   4.155
 5536SOL    HW217508   2.415   0.428   4.133
 5537SOL     OW17509   4.697   1.299   4.798
 5537SOL    HW117510   4.608   1.311   4.840
 5537SOL    HW217511   4.764   1.359   4.842
 5538SOL     OW17512   5.482   2.552   1.360
 5538SOL    HW117513   5.556   2.515   1.417
 5538SOL    HW217514   5.432   2.622   1.411
 5539SOL     OW17515   2.518   6.530   0.391
 5539SOL    HW117516   2.588   6.485   0.447
 5539SOL    HW217517   2.494   6.618   0.432
 5540SOL     OW17518   5.221   0.592   7.024
 5540SOL    HW117519   5.287   0.617   6.953
 5540SOL    HW217520   5.158   0.523   6.988
 5541SOL     OW17521   4.975   3.191   6.678
 5541SOL    HW117522   5.001   3.261   6.745
 5541SOL    HW217523   5.046   3.184   6.608
 5542SOL     OW17524   4.179   4.303   6.897
 5542SOL    HW117525   4.268   4.314   6.853
 5542SOL    HW217526   4.118   4.377   6.868
 5543SOL     OW17527   1.792   0.252   0.325
 5543SOL    HW117528   1.851   0.252   0.406
 5543SOL    HW217529   1.846   0.228   0.244
 5544SOL     OW17530   3.745   5.258   6.218
 5544SOL    HW117531   3.658   5.275   6.170
 5544SOL    HW217532   3.765   5.336   6.278
 5545SOL     OW17533   4.808   0.816   3.303
 5545SOL    HW117534   4.765   0.765   3.229
 5545SOL    HW217535   4.906   0.798   3.304
 5546SOL     OW17536   0.243   5.518   4.618
 5546SOL    HW117537   0.160   5.493   4.568
 5546SOL    HW217538   0.300   5.437   4.631
 5547SOL     OW17539   5.152   1.526   5.096
 5547SOL    HW117540   5.233   1.548   5.150
 5547SOL    HW217541   5.175   1.532   4.999
 5548SOL     OW17542   0.622   4.380   4.244
 5548SOL    HW117543   0.644   4.285   4.223
 5548SOL    HW217544   0.551   4.382   4.315
 5549SOL     OW17545   4.555   2.894   0.394
 5549SOL    HW117546   4.556   2.868   0.298
 5549SOL    HW217547   4.627   2.844   0.443
 5550SOL     OW17548   1.745   3.943   1.486
 5550SOL    HW117549   1.707   3.851   1.489
 5550SOL    HW217550   1.674   4.009   1.509
 5551SOL     OW17551   1.759   5.299   3.198
 5551SOL    HW117552   1.743   5.200   3.190
 5551SOL    HW217553   1.744   5.327   3.293
 5552SOL     OW17554   0.163   6.413   6.871
 5552SOL    HW117555   0.257   6.379   6.870
 5552SOL    HW217556   0.100   6.340   6.845
 5553SOL     OW17557   5.067   0.402   6.845
 5553SOL    HW117558   5.115   0.396   6.757
 5553SOL    HW217559   5.007   0.323   6.856
 5554SOL     OW17560   5.656   1.871   1.502
 5554SOL    HW117561   5.644   1.781   1.462
 5554SOL    HW217562   5.566   1.907   1.529
 5555SOL     OW17563   1.915   4.972   2.936
 5555SOL    HW117564   1.956   4.884   2.910
 5555SOL    HW217565   1.818   4.958   2.957
 5556SOL     OW17566   0.748   0.917   4.567
 5556SOL    HW117567   0.657   0.913   4.608
 5556SOL    HW217568   0.788   0.826   4.563
 5557SOL     OW17569   3.625   5.534   3.449
 5557SOL    HW117570   3.584   5.545   3.539
 5557SOL    HW217571   3.553   5.541   3.379
 5558SOL     OW17572   4.446   4.275   6.744
 5558SOL    HW117573   4.444   4.348   6.675
 5558SOL    HW217574   4.524   4.290   6.805
 5559SOL     OW17575   2.600   0.771   2.580
 5559SOL    HW117576   2.604   0.865   2.613
 5559SOL    HW217577   2.579   0.771   2.482
 5560SOL     OW17578   0.683   5.844   3.210
 5560SOL    HW117579   0.693   5.748   3.183
 5560SOL    HW217580   0.587   5.864   3.227
 5561SOL     OW17581   3.869   6.838   3.404
 5561SOL    HW117582   3.859   6.899   3.483
 5561SOL    HW217583   3.819   6.753   3.421
 5562SOL     OW17584   3.583   3.990   0.977
 5562SOL    HW117585   3.679   4.014   0.959
 5562SOL    HW217586   3.576   3.946   1.067
 5563SOL     OW17587   2.319   4.317   2.536
 5563SOL    HW117588   2.381   4.394   2.527
 5563SOL    HW217589   2.338   4.269   2.621
 5564SOL     OW17590   5.516   0.709   6.105
 5564SOL    HW117591   5.473   0.735   6.019
 5564SOL    HW217592   5.575   0.630   6.091
 5565SOL     OW17593   3.321   2.156   6.208
 5565SOL    HW117594   3.317   2.225   6.281
 5565SOL    HW217595   3.229   2.138   6.175
 5566SOL     OW17596   1.398   3.727   6.601
 5566SOL    HW117597   1.351   3.640   6.614
 5566SOL    HW217598   1.337   3.802   6.628
 5567SOL     OW17599   0.146   4.053   1.054
 5567SOL    HW117600   0.053   4.021   1.074
 5567SOL    HW217601   0.159   4.060   0.956
 5568SOL     OW17602   4.657   5.306   1.505
 5568SOL    HW117603   4.663   5.386   1.564
 5568SOL    HW217604   4.685   5.224   1.555
 5569SOL     OW17605   2.312   2.724   3.614
 5569SOL    HW117606   2.379   2.651   3.599
 5569SOL    HW217607   2.328   2.798   3.549
 5570SOL     OW17608   0.579   3.543   2.592
 5570SOL    HW117609   0.556   3.461   2.645
 5570SOL    HW217610   0.581   3.622   2.653
 5571SOL     OW17611   5.878   4.700   1.855
 5571SOL    HW117612   5.824   4.658   1.782
 5571SOL    HW217613   5.833   4.684   1.943
 5572SOL     OW17614   1.904   4.151   4.692
 5572SOL    HW117615   1.926   4.085   4.764
 5572SOL    HW217616   1.805   4.161   4.685
 5573SOL     OW17617   3.325   5.151   3.800
 5573SOL    HW117618   3.355   5.201   3.719
 5573SOL    HW217619   3.390   5.165   3.874
 5574SOL     OW17620   0.582   2.920   6.318
 5574SOL    HW117621   0.504   2.858   6.330
 5574SOL    HW217622   0.608   2.922   6.221
 5575SOL     OW17623   0.432   6.602   2.154
 5575SOL    HW117624   0.520   6.606   2.107
 5575SOL    HW217625   0.387   6.515   2.135
 5576SOL     OW17626   1.306   4.927   3.528
 5576SOL    HW117627   1.400   4.961   3.520
 5576SOL    HW217628   1.259   4.975   3.601
 5577SOL     OW17629   1.852   2.713   5.415
 5577SOL    HW117630   1.811   2.749   5.499
 5577SOL    HW217631   1.779   2.680   5.354
 5578SOL     OW17632   4.059   3.678   3.506
 5578SOL    HW117633   4.026   3.761   3.550
 5578SOL    HW217634   4.125   3.632   3.565
 5579SOL     OW17635   0.273   3.538   1.671
 5579SOL    HW117636   0.242   3.631   1.653
 5579SOL    HW217637   0.350   3.540   1.735
 5580SOL     OW17638   5.372   1.530   5.298
 5580SOL    HW117639   5.427   1.500   5.220
 5580SOL    HW217640   5.326   1.452   5.339
 5581SOL     OW17641   1.155   2.270   6.498
 5581SOL    HW117642   1.111   2.181   6.486
 5581SOL    HW217643   1.111   2.337   6.439
 5582SOL     OW17644   2.492   3.038   6.387
 5582SOL    HW117645   2.402   3.009   6.421
 5582SOL    HW217646   2.480   3.087   6.300
 5583SOL     OW17647   5.418   0.867   2.114
 5583SOL    HW117648   5.452   0.915   2.033
 5583SOL    HW217649   5.371   0.932   2.174
 5584SOL     OW17650   1.054   3.619   4.789
 5584SOL    HW117651   1.083   3.526   4.770
 5584SOL    HW217652   1.130   3.682   4.774
 5585SOL     OW17653   4.868   4.917   2.478
 5585SOL    HW117654   4.836   5.010   2.456
 5585SOL    HW217655   4.968   4.914   2.470
 5586SOL     OW17656   6.165   3.739   6.668
 5586SOL    HW117657   6.262   3.757   6.682
 5586SOL    HW217658   6.123   3.815   6.619
 5587SOL     OW17659   5.819   0.829   6.077
 5587SOL    HW117660   5.828   0.760   6.005
 5587SOL    HW217661   5.833   0.920   6.037
 5588SOL     OW17662   3.720   6.245   0.912
 5588SOL    HW117663   3.813   6.270   0.883
 5588SOL    HW217664   3.654   6.300   0.862
 5589SOL     OW17665   5.815   4.914   5.615
 5589SOL    HW117666   5.893   4.865   5.653
 5589SOL    HW217667   5.730   4.875   5.653
 5590SOL     OW17668   5.790   5.914   3.786
 5590SOL    HW117669   5.866   5.956   3.836
 5590SOL    HW217670   5.751   5.840   3.840
 5591SOL     OW17671   5.784   1.352   1.623
 5591SOL    HW117672   5.826   1.437   1.592
 5591SOL    HW217673   5.797   1.343   1.722
 5592SOL     OW17674   0.677   3.686   3.225
 5592SOL    HW117675   0.711   3.747   3.153
 5592SOL    HW217676   0.752   3.630   3.259
 5593SOL     OW17677   0.099   3.055   0.344
 5593SOL    HW117678   0.180   3.025   0.294
 5593SOL    HW217679   0.023   2.991   0.326
 5594SOL     OW17680   5.597   2.183   5.675
 5594SOL    HW117681   5.601   2.262   5.614
 5594SOL    HW217682   5.532   2.116   5.637
 5595SOL     OW17683   0.692   2.843   5.305
 5595SOL    HW117684   0.785   2.822   5.276
 5595SOL    HW217685   0.695   2.913   5.376
 5596SOL     OW17686   3.922   6.704   3.155
 5596SOL    HW117687   3.923   6.735   3.060
 5596SOL    HW217688   3.896   6.780   3.215
 5597SOL     OW17689   5.194   3.281   2.953
 5597SOL    HW117690   5.290   3.289   2.925
 5597SOL    HW217691   5.156   3.196   2.917
 5598SOL     OW17692   5.601   1.911   4.938
 5598SOL    HW117693   5.590   2.006   4.909
 5598SOL    HW217694   5.654   1.909   5.023
 5599SOL     OW17695   0.637   0.923   3.855
 5599SOL    HW117696   0.668   0.843   3.908
 5599SOL    HW217697   0.716   0.980   3.833
 5600SOL     OW17698   1.391   2.066   4.242
 5600SOL    HW117699   1.416   2.124   4.319
 5600SOL    HW217700   1.474   2.032   4.197
 5601SOL     OW17701   2.487   0.633   6.123
 5601SOL    HW117702   2.498   0.630   6.024
 5601SOL    HW217703   2.397   0.672   6.145
 5602SOL     OW17704   1.314   1.888   0.250
 5602SOL    HW117705   1.281   1.823   0.181
 5602SOL    HW217706   1.273   1.867   0.339
 5603SOL     OW17707   5.554   3.492   6.282
 5603SOL    HW117708   5.573   3.575   6.335
 5603SOL    HW217709   5.611   3.418   6.316
 5604SOL     OW17710   6.563   1.909   6.196
 5604SOL    HW117711   6.481   1.950   6.156
 5604SOL    HW217712   6.538   1.832   6.254
 5605SOL     OW17713   0.435   1.974   5.074
 5605SOL    HW117714   0.461   2.022   4.989
 5605SOL    HW217715   0.451   2.034   5.152
 5606SOL     OW17716   4.953   0.055   1.868
 5606SOL    HW117717   4.869   0.015   1.829
 5606SOL    HW217718   5.032   0.025   1.814
 5607SOL     OW17719   5.963   0.817   1.828
 5607SOL    HW117720   6.045   0.832   1.771
 5607SOL    HW217721   5.977   0.734   1.882
 5608SOL     OW17722   4.297   6.596   5.161
 5608SOL    HW117723   4.377   6.537   5.173
 5608SOL    HW217724   4.292   6.662   5.235
 5609SOL     OW17725   2.063   6.105   5.592
 5609SOL    HW117726   2.131   6.110   5.666
 5609SOL    HW217727   2.029   6.197   5.572
 5610SOL     OW17728   5.115   0.501   6.580
 5610SOL    HW117729   5.088   0.427   6.518
 5610SOL    HW217730   5.081   0.588   6.545
 5611SOL     OW17731   1.644   4.917   2.955
 5611SOL    HW117732   1.608   4.827   2.978
 5611SOL    HW217733   1.584   4.961   2.887
 5612SOL     OW17734   2.548   0.179   5.615
 5612SOL    HW117735   2.599   0.107   5.662
 5612SOL    HW217736   2.514   0.245   5.681
 5613SOL     OW17737   3.881   4.976   1.649
 5613SOL    HW117738   3.806   5.035   1.620
 5613SOL    HW217739   3.879   4.967   1.749
 5614SOL     OW17740   4.603   2.089   3.282
 5614SOL    HW117741   4.538   2.154   3.243
 5614SOL    HW217742   4.686   2.087   3.227
 5615SOL     OW17743   0.900   1.341   0.885
 5615SOL    HW117744   0.980   1.397   0.908
 5615SOL    HW217745   0.820   1.376   0.933
 5616SOL     OW17746   2.480   0.576   4.522
 5616SOL    HW117747   2.559   0.576   4.460
 5616SOL    HW217748   2.416   0.504   4.494
 5617SOL     OW17749   1.591   1.013   5.139
 5617SOL    HW117750   1.610   0.993   5.235
 5617SOL    HW217751   1.647   0.955   5.081
 5618SOL     OW17752   6.767   4.311   3.073
 5618SOL    HW117753   6.855   4.345   3.106
 5618SOL    HW217754   6.782   4.231   3.015
 5619SOL     OW17755   2.209   3.310   5.396
 5619SOL    HW117756   2.138   3.347   5.455
 5619SOL    HW217757   2.253   3.232   5.441
 5620SOL     OW17758   3.781   2.122   5.980
 5620SOL    HW117759   3.687   2.155   5.987
 5620SOL    HW217760   3.810   2.085   6.069
 5621SOL     OW17761   1.967   2.611   5.793
 5621SOL    HW117762   1.993   2.553   5.716
 5621SOL    HW217763   1.981   2.561   5.878
 5622SOL     OW17764   6.155   0.651   6.035
 5622SOL    HW117765   6.167   0.731   6.093
 5622SOL    HW217766   6.158   0.679   5.939
 5623SOL     OW17767   0.825   6.132   0.200
 5623SOL    HW117768   0.803   6.083   0.115
 5623SOL    HW217769   0.740   6.166   0.241
 5624SOL     OW17770   1.073   3.845   3.026
 5624SOL    HW117771   1.139   3.833   2.952
 5624SOL    HW217772   1.090   3.931   3.073
 5625SOL     OW17773   6.855   2.470   5.464
 5625SOL    HW117774   6.807   2.550   5.427
 5625SOL    HW217775   6.919   2.499   5.534
 5626SOL     OW17776   4.155   0.056   4.360
 5626SOL    HW117777   4.183   0.048   4.264
 5626SOL    HW217778   4.122   6.994   4.392
 5627SOL     OW17779   1.024   6.014   0.359
 5627SOL    HW117780   1.043   5.935   0.300
 5627SOL    HW217781   0.957   6.073   0.315
 5628SOL     OW17782   1.817   0.841   4.510
 5628SOL    HW117783   1.731   0.875   4.547
 5628SOL    HW217784   1.822   0.862   4.412
 5629SOL     OW17785   3.520   3.810   2.694
 5629SOL    HW117786   3.564   3.759   2.620
 5629SOL    HW217787   3.589   3.855   2.749
 5630SOL     OW17788   0.246   4.534   1.894
 5630SOL    HW117789   0.312   4.543   1.968
 5630SOL    HW217790   0.204   4.624   1.875
 5631SOL     OW17791   4.978   0.735   0.268
 5631SOL    HW117792   4.888   0.742   0.227
 5631SOL    HW217793   4.988   0.645   0.310
 5632SOL     OW17794   3.920   3.817   0.070
 5632SOL    HW117795   3.957   3.902   0.106
 5632SOL    HW217796   3.857   3.837   7.021
 5633SOL     OW17797   6.265   2.582   4.666
 5633SOL    HW117798   6.304   2.589   4.574
 5633SOL    HW217799   6.182   2.526   4.663
 5634SOL     OW17800   4.282   6.020   4.464
 5634SOL    HW117801   4.363   5.971   4.432
 5634SOL    HW217802   4.274   6.010   4.564
 5635SOL     OW17803   3.276   2.063   5.111
 5635SOL    HW117804   3.228   2.129   5.054
 5635SOL    HW217805   3.255   2.081   5.208
 5636SOL     OW17806   3.574   5.796   3.837
 5636SOL    HW117807   3.572   5.820   3.934
 5636SOL    HW217808   3.667   5.769   3.812
 5637SOL     OW17809   5.431   6.994   3.402
 5637SOL    HW117810   5.400   0.055   3.439
 5637SOL    HW217811   5.428   6.924   3.474
 5638SOL     OW17812   5.088   3.612   6.186
 5638SOL    HW117813   5.166   3.557   6.156
 5638SOL    HW217814   5.098   3.705   6.151
 5639SOL     OW17815   2.874   0.917   6.233
 5639SOL    HW117816   2.893   1.002   6.282
 5639SOL    HW217817   2.817   0.858   6.289
 5640SOL     OW17818   2.610   0.050   3.592
 5640SOL    HW117819   2.527   0.002   3.619
 5640SOL    HW217820   2.619   0.048   3.492
 5641SOL     OW17821   5.631   5.643   4.764
 5641SOL    HW117822   5.663   5.660   4.857
 5641SOL    HW217823   5.575   5.720   4.734
 5642SOL     OW17824   1.527   2.004   6.657
 5642SOL    HW117825   1.447   1.956   6.621
 5642SOL    HW217826   1.592   1.938   6.693
 5643SOL     OW17827   5.930   2.490   4.902
 5643SOL    HW117828   5.907   2.525   4.811
 5643SOL    HW217829   5.885   2.402   4.915
 5644SOL     OW17830   3.130   0.247   5.936
 5644SOL    HW117831   3.062   0.282   6.000
 5644SOL    HW217832   3.166   0.160   5.970
 5645SOL     OW17833   4.716   2.863   4.772
 5645SOL    HW117834   4.733   2.936   4.706
 5645SOL    HW217835   4.803   2.821   4.797
 5646SOL     OW17836   1.844   4.170   2.534
 5646SOL    HW117837   1.916   4.236   2.511
 5646SOL    HW217838   1.756   4.218   2.541
 5647SOL     OW17839   6.561   6.144   2.826
 5647SOL    HW117840   6.518   6.056   2.806
 5647SOL    HW217841   6.623   6.169   2.751
 5648SOL     OW17842   4.383   6.600   3.383
 5648SOL    HW117843   4.360   6.649   3.299
 5648SOL    HW217844   4.332   6.514   3.387
 5649SOL     OW17845   1.054   6.227   4.113
 5649SOL    HW117846   1.012   6.224   4.022
 5649SOL    HW217847   1.081   6.135   4.141
 5650SOL     OW17848   6.567   4.323   6.801
 5650SOL    HW117849   6.544   4.229   6.826
 5650SOL    HW217850   6.521   4.386   6.864
 5651SOL     OW17851   2.292   0.785   1.671
 5651SOL    HW117852   2.210   0.801   1.726
 5651SOL    HW217853   2.350   0.867   1.672
 5652SOL     OW17854   0.852   5.547   1.439
 5652SOL    HW117855   0.919   5.527   1.368
 5652SOL    HW217856   0.797   5.626   1.412
 5653SOL     OW17857   6.938   0.088   1.601
 5653SOL    HW117858   6.925   0.180   1.566
 5653SOL    HW217859   7.004   0.090   1.677
 5654SOL     OW17860   3.109   5.099   4.243
 5654SOL    HW117861   3.177   5.139   4.304
 5654SOL    HW217862   3.073   5.169   4.182
 5655SOL     OW17863   6.138   2.521   5.065
 5655SOL    HW117864   6.200   2.443   5.058
 5655SOL    HW217865   6.063   2.510   5.000
 5656SOL     OW17866   6.727   3.809   7.020
 5656SOL    HW117867   6.752   3.890   0.047
 5656SOL    HW217868   6.657   3.757   0.043
 5657SOL     OW17869   4.958   5.722   5.470
 5657SOL    HW117870   5.041   5.675   5.441
 5657SOL    HW217871   4.950   5.809   5.421
 5658SOL     OW17872   2.714   2.895   6.248
 5658SOL    HW117873   2.766   2.842   6.315
 5658SOL    HW217874   2.630   2.929   6.290
 5659SOL     OW17875   3.351   3.624   6.814
 5659SOL    HW117876   3.446   3.642   6.842
 5659SOL    HW217877   3.339   3.526   6.798
 5660SOL     OW17878   4.713   0.549   6.360
 5660SOL    HW117879   4.723   0.476   6.428
 5660SOL    HW217880   4.769   0.627   6.388
 5661SOL     OW17881   1.124   5.174   5.171
 5661SOL    HW117882   1.117   5.259   5.117
 5661SOL    HW217883   1.199   5.118   5.134
 5662SOL     OW17884   2.719   6.598   1.937
 5662SOL    HW117885   2.671   6.586   2.024
 5662SOL    HW217886   2.746   6.509   1.901
 5663SOL     OW17887   1.263   3.101   6.167
 5663SOL    HW117888   1.331   3.085   6.096
 5663SOL    HW217889   1.253   3.199   6.181
 5664SOL     OW17890   4.845   4.846   4.628
 5664SOL    HW117891   4.945   4.849   4.616
 5664SOL    HW217892   4.801   4.846   4.538
 5665SOL     OW17893   1.695   1.843   0.632
 5665SOL    HW117894   1.698   1.748   0.662
 5665SOL    HW217895   1.667   1.902   0.708
 5666SOL     OW17896   5.566   1.637   4.927
 5666SOL    HW117897   5.582   1.736   4.935
 5666SOL    HW217898   5.474   1.621   4.891
 5667SOL     OW17899   2.074   4.647   4.502
 5667SOL    HW117900   2.064   4.576   4.571
 5667SOL    HW217901   2.164   4.690   4.512
 5668SOL     OW17902   5.092   4.018   4.143
 5668SOL    HW117903   5.039   3.941   4.108
 5668SOL    HW217904   5.029   4.094   4.165
 5669SOL     OW17905   6.185   4.491   5.642
 5669SOL    HW117906   6.201   4.526   5.550
 5669SOL    HW217907   6.235   4.405   5.654
 5670SOL     OW17908   1.077   2.105   3.281
 5670SOL    HW117909   0.982   2.084   3.301
 5670SOL    HW217910   1.102   2.192   3.324
 5671SOL     OW17911   0.511   6.301   3.349
 5671SOL    HW117912   0.436   6.358   3.383
 5671SOL    HW217913   0.589   6.308   3.411
 5672SOL     OW17914   5.188   2.909   4.924
 5672SOL    HW117915   5.175   3.006   4.945
 5672SOL    HW217916   5.188   2.857   5.010
 5673SOL     OW17917   0.681   1.406   0.420
 5673SOL    HW117918   0.591   1.390   0.379
 5673SOL    HW217919   0.670   1.455   0.506
 5674SOL     OW17920   2.426   4.990   5.114
 5674SOL    HW117921   2.373   4.941   5.184
 5674SOL    HW217922   2.496   4.929   5.077
 5675SOL     OW17923   2.887   2.157   0.896
 5675SOL    HW117924   2.964   2.125   0.951
 5675SOL    HW217925   2.919   2.179   0.804
 5676SOL     OW17926   2.599   1.368   2.347
 5676SOL    HW117927   2.668   1.310   2.391
 5676SOL    HW217928   2.544   1.413   2.418
 5677SOL     OW17929   6.428   1.528   0.361
 5677SOL    HW117930   6.389   1.438   0.379
 5677SOL    HW217931   6.356   1.590   0.328
 5678SOL     OW17932   3.178   1.722   2.117
 5678SOL    HW117933   3.248   1.790   2.095
 5678SOL    HW217934   3.088   1.757   2.088
 5679SOL     OW17935   6.033   3.575   4.762
 5679SOL    HW117936   6.067   3.660   4.723
 5679SOL    HW217937   5.933   3.578   4.767
 5680SOL     OW17938   1.034   5.973   5.058
 5680SOL    HW117939   1.029   6.024   5.144
 5680SOL    HW217940   1.122   5.925   5.053
 5681SOL     OW17941   1.113   3.090   4.166
 5681SOL    HW117942   1.174   3.040   4.227
 5681SOL    HW217943   1.162   3.114   4.082
 5682SOL     OW17944   2.196   4.229   1.658
 5682SOL    HW117945   2.200   4.328   1.665
 5682SOL    HW217946   2.246   4.187   1.733
 5683SOL     OW17947   6.699   1.187   6.197
 5683SOL    HW117948   6.648   1.246   6.260
 5683SOL    HW217949   6.640   1.114   6.164
 5684SOL     OW17950   2.163   2.361   4.945
 5684SOL    HW117951   2.152   2.452   4.986
 5684SOL    HW217952   2.112   2.294   4.998
 5685SOL     OW17953   2.923   1.903   2.529
 5685SOL    HW117954   2.899   1.847   2.609
 5685SOL    HW217955   2.931   1.844   2.449
 5686SOL     OW17956   4.326   5.698   5.913
 5686SOL    HW117957   4.239   5.742   5.888
 5686SOL    HW217958   4.326   5.604   5.879
 5687SOL     OW17959   2.149   6.413   6.869
 5687SOL    HW117960   2.244   6.441   6.885
 5687SOL    HW217961   2.123   6.343   6.936
 5688SOL     OW17962   1.639   1.841   3.292
 5688SOL    HW117963   1.606   1.766   3.234
 5688SOL    HW217964   1.561   1.892   3.328
 5689SOL     OW17965   0.210   2.799   1.597
 5689SOL    HW117966   0.169   2.746   1.523
 5689SOL    HW217967   0.140   2.824   1.663
 5690SOL     OW17968   1.626   5.239   6.927
 5690SOL    HW117969   1.691   5.308   6.962
 5690SOL    HW217970   1.551   5.229   6.992
 5691SOL     OW17971   3.135   1.336   3.215
 5691SOL    HW117972   3.219   1.311   3.262
 5691SOL    HW217973   3.127   1.436   3.213
 5692SOL     OW17974   4.951   5.091   2.143
 5692SOL    HW117975   4.990   5.148   2.215
 5692SOL    HW217976   4.852   5.082   2.158
 5693SOL     OW17977   4.287   0.973   1.239
 5693SOL    HW117978   4.223   1.018   1.177
 5693SOL    HW217979   4.293   0.876   1.215
 5694SOL     OW17980   0.965   6.397   2.099
 5694SOL    HW117981   1.030   6.336   2.053
 5694SOL    HW217982   0.885   6.344   2.128
 5695SOL     OW17983   2.251   0.565   1.312
 5695SOL    HW117984   2.260   0.507   1.393
 5695SOL    HW217985   2.219   0.510   1.235
 5696SOL     OW17986   1.601   0.223   3.970
 5696SOL    HW117987   1.688   0.200   4.013
 5696SOL    HW217988   1.549   0.284   4.031
 5697SOL     OW17989   6.531   3.401   0.780
 5697SOL    HW117990   6.601   3.431   0.846
 5697SOL    HW217991   6.468   3.338   0.824
 5698SOL     OW17992   3.085   2.145   4.127
 5698SOL    HW117993   3.050   2.226   4.080
 5698SOL    HW217994   3.079   2.159   4.226
 5699SOL     OW17995   1.819   2.887   2.728
 5699SOL    HW117996   1.874   2.827   2.670
 5699SOL    HW217997   1.816   2.978   2.689
 5700SOL     OW17998   6.426   0.461   3.312
 5700SOL    HW117999   6.406   0.373   3.269
 5700SOL    HW218000   6.498   0.449   3.381
 5701SOL     OW18001   0.315   0.583   0.833
 5701SOL    HW118002   0.279   0.583   0.740
 5701SOL    HW218003   0.398   0.637   0.836
 5702SOL     OW18004   2.766   6.793   4.639
 5702SOL    HW118005   2.702   6.753   4.704
 5702SOL    HW218006   2.783   6.889   4.663
 5703SOL     OW18007   0.193   3.069   6.258
 5703SOL    HW118008   0.114   3.011   6.276
 5703SOL    HW218009   0.171   3.164   6.281
 5704SOL     OW18010   4.168   5.608   4.046
 5704SOL    HW118011   4.207   5.669   3.977
 5704SOL    HW218012   4.162   5.515   4.010
 5705SOL     OW18013   6.203   0.154   5.549
 5705SOL    HW118014   6.108   0.125   5.551
 5705SOL    HW218015   6.208   0.254   5.548
 5706SOL     OW18016   4.980   2.089   0.012
 5706SOL    HW118017   4.882   2.106   0.008
 5706SOL    HW218018   4.999   1.996   7.005
 5707SOL     OW18019   5.271   5.720   1.843
 5707SOL    HW118020   5.220   5.798   1.881
 5707SOL    HW218021   5.278   5.730   1.744
 5708SOL     OW18022   4.590   6.257   2.542
 5708SOL    HW118023   4.531   6.189   2.498
 5708SOL    HW218024   4.676   6.263   2.492
 5709SOL     OW18025   0.246   2.152   2.405
 5709SOL    HW118026   0.161   2.106   2.377
 5709SOL    HW218027   0.285   2.201   2.327
 5710SOL     OW18028   3.439   2.121   0.890
 5710SOL    HW118029   3.493   2.143   0.971
 5710SOL    HW218030   3.464   2.030   0.857
 5711SOL     OW18031   5.403   1.592   2.637
 5711SOL    HW118032   5.337   1.520   2.613
 5711SOL    HW218033   5.473   1.554   2.697
 5712SOL     OW18034   6.134   0.494   0.927
 5712SOL    HW118035   6.149   0.492   1.026
 5712SOL    HW218036   6.107   0.587   0.899
 5713SOL     OW18037   2.630   0.860   0.808
 5713SOL    HW118038   2.582   0.816   0.884
 5713SOL    HW218039   2.685   0.935   0.842
 5714SOL     OW18040   6.152   0.225   0.849
 5714SOL    HW118041   6.194   0.216   0.758
 5714SOL    HW218042   6.083   0.297   0.847
 5715SOL     OW18043   0.213   0.191   1.735
 5715SOL    HW118044   0.228   0.098   1.769
 5715SOL    HW218045   0.240   0.257   1.805
 5716SOL     OW18046   6.218   4.401   4.756
 5716SOL    HW118047   6.187   4.364   4.844
 5716SOL    HW218048   6.275   4.482   4.773
 5717SOL     OW18049   1.599   5.065   3.173
 5717SOL    HW118050   1.534   5.128   3.131
 5717SOL    HW218051   1.644   5.011   3.103
 5718SOL     OW18052   1.034   3.244   0.080
 5718SOL    HW118053   1.059   3.155   0.118
 5718SOL    HW218054   0.967   3.288   0.140
 5719SOL     OW18055   2.098   3.390   0.554
 5719SOL    HW118056   2.108   3.306   0.501
 5719SOL    HW218057   2.016   3.440   0.523
 5720SOL     OW18058   2.810   5.263   5.962
 5720SOL    HW118059   2.745   5.197   5.924
 5720SOL    HW218060   2.900   5.219   5.972
 5721SOL     OW18061   1.855   3.294   0.078
 5721SOL    HW118062   1.789   3.291   0.002
 5721SOL    HW218063   1.943   3.259   0.046
 5722SOL     OW18064   2.028   0.771   6.688
 5722SOL    HW118065   2.020   0.677   6.655
 5722SOL    HW218066   1.959   0.788   6.759
 5723SOL     OW18067   3.948   2.931   0.855
 5723SOL    HW118068   3.930   2.997   0.928
 5723SOL    HW218069   4.035   2.953   0.811
 5724SOL     OW18070   5.570   1.721   5.356
 5724SOL    HW118071   5.662   1.691   5.332
 5724SOL    HW218072   5.506   1.645   5.347
 5725SOL     OW18073   0.176   4.277   4.284
 5725SOL    HW118074   0.263   4.295   4.330
 5725SOL    HW218075   0.116   4.227   4.347
 5726SOL     OW18076   5.726   3.894   2.683
 5726SOL    HW118077   5.680   3.976   2.718
 5726SOL    HW218078   5.738   3.828   2.757
 5727SOL     OW18079   0.552   1.984   5.392
 5727SOL    HW118080   0.560   2.062   5.330
 5727SOL    HW218081   0.589   2.008   5.481
 5728SOL     OW18082   4.629   6.690   5.063
 5728SOL    HW118083   4.726   6.693   5.085
 5728SOL    HW218084   4.585   6.614   5.110
 5729SOL     OW18085   2.706   1.941   4.757
 5729SOL    HW118086   2.648   1.991   4.693
 5729SOL    HW218087   2.668   1.850   4.771
 5730SOL     OW18088   6.897   4.398   4.760
 5730SOL    HW118089   6.983   4.389   4.810
 5730SOL    HW218090   6.900   4.341   4.678
 5731SOL     OW18091   0.963   6.963   2.743
 5731SOL    HW118092   1.061   6.951   2.733
 5731SOL    HW218093   0.918   6.956   2.654
 5732SOL     OW18094   0.677   0.075   3.599
 5732SOL    HW118095   0.644   0.055   3.507
 5732SOL    HW218096   0.642   0.006   3.662
 5733SOL     OW18097   2.968   6.903   5.830
 5733SOL    HW118098   2.936   6.974   5.767
 5733SOL    HW218099   2.906   6.897   5.908
 5734SOL     OW18100   1.750   6.385   3.414
 5734SOL    HW118101   1.778   6.391   3.510
 5734SOL    HW218102   1.831   6.388   3.355
 5735SOL     OW18103   3.227   1.326   1.817
 5735SOL    HW118104   3.327   1.326   1.821
 5735SOL    HW218105   3.196   1.385   1.742
 5736SOL     OW18106   1.093   5.281   6.548
 5736SOL    HW118107   1.052   5.208   6.495
 5736SOL    HW218108   1.129   5.245   6.634
 5737SOL     OW18109   5.315   4.339   0.822
 5737SOL    HW118110   5.396   4.397   0.812
 5737SOL    HW218111   5.300   4.288   0.737
 5738SOL     OW18112   1.411   4.070   5.908
 5738SOL    HW118113   1.415   4.092   5.811
 5738SOL    HW218114   1.446   3.977   5.923
 5739SOL     OW18115   1.147   1.590   1.438
 5739SOL    HW118116   1.146   1.555   1.344
 5739SOL    HW218117   1.053   1.600   1.471
 5740SOL     OW18118   3.831   5.785   6.506
 5740SOL    HW118119   3.821   5.704   6.448
 5740SOL    HW218120   3.785   5.769   6.593
 5741SOL     OW18121   6.923   4.438   2.853
 5741SOL    HW118122   6.887   4.495   2.778
 5741SOL    HW218123   6.860   4.441   2.931
 5742SOL     OW18124   6.886   6.469   4.763
 5742SOL    HW118125   6.935   6.519   4.835
 5742SOL    HW218126   6.798   6.514   4.746
 5743SOL     OW18127   1.902   6.547   4.093
 5743SOL    HW118128   1.841   6.496   4.153
 5743SOL    HW218129   1.851   6.622   4.050
 5744SOL     OW18130   5.544   0.009   1.959
 5744SOL    HW118131   5.592   0.057   1.885
 5744SOL    HW218132   5.458   0.056   1.979
 5745SOL     OW18133   1.317   2.061   3.646
 5745SOL    HW118134   1.226   2.101   3.652
 5745SOL    HW218135   1.386   2.132   3.664
 5746SOL     OW18136   6.328   4.686   6.937
 5746SOL    HW118137   6.412   4.656   6.984
 5746SOL    HW218138   6.339   4.780   6.907
 5747SOL     OW18139   0.785   6.133   2.683
 5747SOL    HW118140   0.874   6.126   2.728
 5747SOL    HW218141   0.728   6.199   2.731
 5748SOL     OW18142   2.366   6.438   3.216
 5748SOL    HW118143   2.294   6.373   3.195
 5748SOL    HW218144   2.338   6.496   3.293
 5749SOL     OW18145   2.339   1.364   2.803
 5749SOL    HW118146   2.380   1.454   2.822
 5749SOL    HW218147   2.384   1.295   2.859
 5750SOL     OW18148   6.405   5.577   2.739
 5750SOL    HW118149   6.449   5.584   2.650
 5750SOL    HW218150   6.382   5.482   2.759
 5751SOL     OW18151   1.412   2.948   5.858
 5751SOL    HW118152   1.459   3.008   5.923
 5751SOL    HW218153   1.428   2.852   5.883
 5752SOL     OW18154   0.193   1.102   0.239
 5752SOL    HW118155   0.189   1.078   0.142
 5752SOL    HW218156   0.104   1.082   0.281
 5753SOL     OW18157   4.514   2.098   0.710
 5753SOL    HW118158   4.450   2.059   0.777
 5753SOL    HW218159   4.544   2.027   0.647
 5754SOL     OW18160   6.632   5.038   0.742
 5754SOL    HW118161   6.536   5.025   0.768
 5754SOL    HW218162   6.643   5.016   0.645
 5755SOL     OW18163   3.202   3.417   1.454
 5755SOL    HW118164   3.290   3.462   1.463
 5755SOL    HW218165   3.213   3.318   1.464
 5756SOL     OW18166   6.911   6.881   4.649
 5756SOL    HW118167   6.935   6.847   4.739
 5756SOL    HW218168   6.985   6.938   4.614
 5757SOL     OW18169   0.071   6.319   1.945
 5757SOL    HW118170   0.122   6.262   2.009
 5757SOL    HW218171   0.104   6.302   1.852
 5758SOL     OW18172   1.807   1.193   5.794
 5758SOL    HW118173   1.883   1.141   5.835
 5758SOL    HW218174   1.725   1.136   5.793
 5759SOL     OW18175   6.376   1.781   5.604
 5759SOL    HW118176   6.276   1.788   5.604
 5759SOL    HW218177   6.405   1.716   5.674
 5760SOL     OW18178   1.315   5.165   1.766
 5760SOL    HW118179   1.270   5.253   1.781
 5760SOL    HW218180   1.296   5.105   1.843
 5761SOL     OW18181   5.161   0.829   4.960
 5761SOL    HW118182   5.148   0.749   5.018
 5761SOL    HW218183   5.167   0.911   5.017
 5762SOL     OW18184   5.552   6.232   1.407
 5762SOL    HW118185   5.638   6.209   1.361
 5762SOL    HW218186   5.569   6.300   1.477
 5763SOL     OW18187   0.922   1.594   1.153
 5763SOL    HW118188   1.008   1.544   1.158
 5763SOL    HW218189   0.940   1.690   1.134
 5764SOL     OW18190   4.497   3.285   5.551
 5764SOL    HW118191   4.532   3.277   5.644
 5764SOL    HW218192   4.560   3.340   5.496
 5765SOL     OW18193   6.273   5.049   0.573
 5765SOL    HW118194   6.269   5.134   0.519
 5765SOL    HW218195   6.300   4.974   0.513
 5766SOL     OW18196   2.867   0.728   3.599
 5766SOL    HW118197   2.952   0.715   3.548
 5766SOL    HW218198   2.869   0.818   3.644
 5767SOL     OW18199   6.461   0.358   0.869
 5767SOL    HW118200   6.495   0.269   0.839
 5767SOL    HW218201   6.398   0.394   0.801
 5768SOL     OW18202   6.086   0.387   2.138
 5768SOL    HW118203   6.086   0.369   2.237
 5768SOL    HW218204   6.065   0.303   2.089
 5769SOL     OW18205   2.166   5.659   3.442
 5769SOL    HW118206   2.135   5.571   3.405
 5769SOL    HW218207   2.258   5.678   3.409
 5770SOL     OW18208   5.909   1.592   1.608
 5770SOL    HW118209   6.009   1.594   1.616
 5770SOL    HW218210   5.884   1.609   1.513
 5771SOL     OW18211   0.516   1.147   1.838
 5771SOL    HW118212   0.476   1.124   1.749
 5771SOL    HW218213   0.604   1.194   1.823
 5772SOL     OW18214   0.026   4.340   6.433
 5772SOL    HW118215   0.037   4.323   6.531
 5772SOL    HW218216   0.104   4.394   6.400
 5773SOL     OW18217   5.090   6.086   4.839
 5773SOL    HW118218   5.111   6.048   4.929
 5773SOL    HW218219   5.006   6.045   4.804
 5774SOL     OW18220   2.887   4.981   2.932
 5774SOL    HW118221   2.937   4.953   3.014
 5774SOL    HW218222   2.893   5.080   2.922
 5775SOL     OW18223   1.013   0.786   0.453
 5775SOL    HW118224   1.105   0.794   0.415
 5775SOL    HW218225   0.990   0.689   0.465
 5776SOL     OW18226   4.768   1.490   5.988
 5776SOL    HW118227   4.805   1.398   5.977
 5776SOL    HW218228   4.726   1.499   6.079
 5777SOL     OW18229   5.565   0.938   5.748
 5777SOL    HW118230   5.544   1.020   5.802
 5777SOL    HW218231   5.582   0.963   5.653
 5778SOL     OW18232   2.903   6.583   3.668
 5778SOL    HW118233   2.831   6.651   3.679
 5778SOL    HW218234   2.898   6.517   3.743
 5779SOL     OW18235   4.151   0.413   1.625
 5779SOL    HW118236   4.207   0.471   1.566
 5779SOL    HW218237   4.187   0.320   1.624
 5780SOL     OW18238   5.696   3.654   1.168
 5780SOL    HW118239   5.693   3.666   1.069
 5780SOL    HW218240   5.625   3.710   1.210
 5781SOL     OW18241   3.060   4.733   5.402
 5781SOL    HW118242   3.005   4.749   5.320
 5781SOL    HW218243   3.099   4.641   5.399
 5782SOL     OW18244   4.103   1.868   3.284
 5782SOL    HW118245   4.065   1.846   3.374
 5782SOL    HW218246   4.192   1.823   3.274
 5783SOL     OW18247   2.285   6.971   1.767
 5783SOL    HW118248   2.359   6.904   1.764
 5783SOL    HW218249   2.205   6.934   1.721
 5784SOL     OW18250   0.990   5.491   0.046
 5784SOL    HW118251   1.052   5.502   6.996
 5784SOL    HW218252   1.034   5.436   0.117
 5785SOL     OW18253   2.432   1.490   0.276
 5785SOL    HW118254   2.488   1.567   0.246
 5785SOL    HW218255   2.489   1.425   0.328
 5786SOL     OW18256   0.473   3.129   6.553
 5786SOL    HW118257   0.471   3.056   6.620
 5786SOL    HW218258   0.504   3.093   6.465
 5787SOL     OW18259   6.995   3.204   5.485
 5787SOL    HW118260   0.033   3.254   5.543
 5787SOL    HW218261   6.923   3.267   5.454
 5788SOL     OW18262   1.419   2.551   2.067
 5788SOL    HW118263   1.455   2.489   1.996
 5788SOL    HW218264   1.337   2.596   2.032
 5789SOL     OW18265   2.839   5.300   0.108
 5789SOL    HW118266   2.778   5.229   0.144
 5789SOL    HW218267   2.929   5.260   0.091
 5790SOL     OW18268   6.617   6.493   3.059
 5790SOL    HW118269   6.709   6.487   3.021
 5790SOL    HW218270   6.570   6.572   3.019
 5791SOL     OW18271   4.125   1.108   1.054
 5791SOL    HW118272   4.048   1.104   1.119
 5791SOL    HW218273   4.150   1.203   1.038
 5792SOL     OW18274   4.211   2.041   3.094
 5792SOL    HW118275   4.171   2.061   3.005
 5792SOL    HW218276   4.148   1.981   3.145
 5793SOL     OW18277   3.699   2.279   0.249
 5793SOL    HW118278   3.765   2.218   0.293
 5793SOL    HW218279   3.625   2.224   0.209
 5794SOL     OW18280   3.786   6.072   6.865
 5794SOL    HW118281   3.715   6.142   6.872
 5794SOL    HW218282   3.851   6.084   6.940
 5795SOL     OW18283   1.488   6.815   1.852
 5795SOL    HW118284   1.513   6.868   1.932
 5795SOL    HW218285   1.467   6.876   1.776
 5796SOL     OW18286   5.051   0.868   6.665
 5796SOL    HW118287   5.040   0.796   6.734
 5796SOL    HW218288   5.063   0.826   6.575
 5797SOL     OW18289   0.035   2.565   0.345
 5797SOL    HW118290   6.999   2.487   0.353
 5797SOL    HW218291   0.098   2.549   0.270
 5798SOL     OW18292   1.749   3.267   4.036
 5798SOL    HW118293   1.819   3.278   3.965
 5798SOL    HW218294   1.792   3.235   4.120
 5799SOL     OW18295   2.928   0.123   3.352
 5799SOL    HW118296   2.955   0.219   3.342
 5799SOL    HW218297   2.981   0.081   3.426
 5800SOL     OW18298   1.009   7.009   2.214
 5800SOL    HW118299   1.088   0.018   2.163
 5800SOL    HW218300   1.034   6.997   2.310
 5801SOL     OW18301   1.762   1.230   2.545
 5801SOL    HW118302   1.738   1.157   2.608
 5801SOL    HW218303   1.787   1.191   2.456
 5802SOL     OW18304   0.904   0.214   2.859
 5802SOL    HW118305   0.956   0.239   2.941
 5802SOL    HW218306   0.961   0.159   2.798
 5803SOL     OW18307   0.367   6.328   4.683
 5803SOL    HW118308   0.326   6.265   4.617
 5803SOL    HW218309   0.295   6.386   4.723
 5804SOL     OW18310   6.649   2.233   2.963
 5804SOL    HW118311   6.592   2.158   2.997
 5804SOL    HW218312   6.667   2.298   3.037
 5805SOL     OW18313   1.033   2.516   1.782
 5805SOL    HW118314   1.131   2.515   1.764
 5805SOL    HW218315   1.007   2.434   1.833
 5806SOL     OW18316   6.562   3.920   2.481
 5806SOL    HW118317   6.625   3.968   2.543
 5806SOL    HW218318   6.468   3.933   2.512
 5807SOL     OW18319   1.121   1.179   2.624
 5807SOL    HW118320   1.134   1.178   2.723
 5807SOL    HW218321   1.033   1.221   2.602
 5808SOL     OW18322   0.126   0.551   5.749
 5808SOL    HW118323   0.177   0.491   5.687
 5808SOL    HW218324   0.117   0.641   5.709
 5809SOL     OW18325   0.433   3.734   4.503
 5809SOL    HW118326   0.459   3.790   4.425
 5809SOL    HW218327   0.505   3.737   4.572
 5810SOL     OW18328   2.498   6.036   5.322
 5810SOL    HW118329   2.414   6.071   5.281
 5810SOL    HW218330   2.576   6.064   5.266
 5811SOL     OW18331   4.007   4.514   6.790
 5811SOL    HW118332   4.060   4.583   6.740
 5811SOL    HW218333   3.921   4.555   6.821
 5812SOL     OW18334   5.600   3.106   6.590
 5812SOL    HW118335   5.514   3.153   6.569
 5812SOL    HW218336   5.592   3.009   6.563
 5813SOL     OW18337   5.206   4.721   0.919
 5813SOL    HW118338   5.305   4.726   0.914
 5813SOL    HW218339   5.176   4.626   0.926
 5814SOL     OW18340   6.375   1.159   2.136
 5814SOL    HW118341   6.453   1.220   2.123
 5814SOL    HW218342   6.292   1.204   2.104
 5815SOL     OW18343   6.279   3.221   4.481
 5815SOL    HW118344   6.349   3.270   4.534
 5815SOL    HW218345   6.322   3.144   4.433
 5816SOL     OW18346   6.750   3.905   1.593
 5816SOL    HW118347   6.727   3.995   1.630
 5816SOL    HW218348   6.667   3.860   1.560
 5817SOL     OW18349   6.432   2.904   3.645
 5817SOL    HW118350   6.491   2.886   3.724
 5817SOL    HW218351   6.487   2.937   3.569
 5818SOL     OW18352   2.416   0.233   4.729
 5818SOL    HW118353   2.478   0.218   4.651
 5818SOL    HW218354   2.332   0.181   4.715
 5819SOL     OW18355   3.891   4.219   0.472
 5819SOL    HW118356   3.904   4.195   0.568
 5819SOL    HW218357   3.971   4.270   0.439
 5820SOL     OW18358   6.650   0.172   3.199
 5820SOL    HW118359   6.618   0.155   3.292
 5820SOL    HW218360   6.590   0.124   3.134
 5821SOL     OW18361   6.360   6.684   2.064
 5821SOL    HW118362   6.435   6.618   2.068
 5821SOL    HW218363   6.384   6.764   2.119
 5822SOL     OW18364   0.702   3.871   2.345
 5822SOL    HW118365   0.746   3.804   2.404
 5822SOL    HW218366   0.657   3.824   2.269
 5823SOL     OW18367   2.697   6.562   4.477
 5823SOL    HW118368   2.709   6.653   4.517
 5823SOL    HW218369   2.738   6.560   4.386
 5824SOL     OW18370   2.068   6.673   2.523
 5824SOL    HW118371   2.031   6.695   2.613
 5824SOL    HW218372   2.083   6.575   2.515
 5825SOL     OW18373   4.598   1.632   4.639
 5825SOL    HW118374   4.626   1.556   4.579
 5825SOL    HW218375   4.566   1.595   4.726
 5826SOL     OW18376   1.754   6.466   5.096
 5826SOL    HW118377   1.796   6.468   5.006
 5826SOL    HW218378   1.819   6.500   5.164
 5827SOL     OW18379   2.140   3.573   3.070
 5827SOL    HW118380   2.154   3.627   3.152
 5827SOL    HW218381   2.151   3.630   2.989
 5828SOL     OW18382   5.128   0.608   5.722
 5828SOL    HW118383   5.124   0.571   5.629
 5828SOL    HW218384   5.036   0.637   5.750
 5829SOL     OW18385   2.406   0.699   3.171
 5829SOL    HW118386   2.374   0.609   3.200
 5829SOL    HW218387   2.351   0.770   3.216
 5830SOL     OW18388   4.146   5.054   4.372
 5830SOL    HW118389   4.174   5.136   4.422
 5830SOL    HW218390   4.182   4.973   4.419
 5831SOL     OW18391   2.304   2.683   4.721
 5831SOL    HW118392   2.358   2.620   4.777
 5831SOL    HW218393   2.279   2.763   4.776
 5832SOL     OW18394   3.204   5.888   3.130
 5832SOL    HW118395   3.150   5.854   3.207
 5832SOL    HW218396   3.181   5.984   3.112
 5833SOL     OW18397   3.571   5.688   0.424
 5833SOL    HW118398   3.527   5.772   0.456
 5833SOL    HW218399   3.599   5.633   0.503
 5834SOL     OW18400   6.742   3.094   6.096
 5834SOL    HW118401   6.738   3.190   6.123
 5834SOL    HW218402   6.653   3.051   6.111
 5835SOL     OW18403   4.629   1.480   3.153
 5835SOL    HW118404   4.615   1.426   3.070
 5835SOL    HW218405   4.721   1.464   3.188
 5836SOL     OW18406   4.798   5.948   1.424
 5836SOL    HW118407   4.837   5.953   1.332
 5836SOL    HW218408   4.871   5.962   1.491
 5837SOL     OW18409   3.324   4.513   6.567
 5837SOL    HW118410   3.381   4.532   6.487
 5837SOL    HW218411   3.318   4.414   6.580
 5838SOL     OW18412   3.623   3.222   7.004
 5838SOL    HW118413   3.684   3.269   0.041
 5838SOL    HW218414   3.579   3.145   0.024
 5839SOL     OW18415   2.101   2.039   0.477
 5839SOL    HW118416   2.081   2.007   0.570
 5839SOL    HW218417   2.078   1.966   0.412
 5840SOL     OW18418   0.892   3.410   3.263
 5840SOL    HW118419   0.968   3.436   3.322
 5840SOL    HW218420   0.899   3.460   3.176
 5841SOL     OW18421   5.732   1.616   0.298
 5841SOL    HW118422   5.746   1.694   0.237
 5841SOL    HW218423   5.651   1.565   0.269
 5842SOL     OW18424   3.459   2.009   1.587
 5842SOL    HW118425   3.461   2.094   1.639
 5842SOL    HW218426   3.534   1.950   1.616
 5843SOL     OW18427   3.832   3.343   0.130
 5843SOL    HW118428   3.812   3.430   0.175
 5843SOL    HW218429   3.895   3.359   0.054
 5844SOL     OW18430   0.664   5.764   5.171
 5844SOL    HW118431   0.736   5.781   5.103
 5844SOL    HW218432   0.654   5.666   5.185
 5845SOL     OW18433   2.246   0.227   2.733
 5845SOL    HW118434   2.175   0.245   2.665
 5845SOL    HW218435   2.204   0.198   2.819
 5846SOL     OW18436   0.631   4.560   5.095
 5846SOL    HW118437   0.583   4.584   5.010
 5846SOL    HW218438   0.586   4.483   5.139
 5847SOL     OW18439   1.937   4.296   6.593
 5847SOL    HW118440   1.902   4.389   6.606
 5847SOL    HW218441   1.861   4.232   6.587
 5848SOL     OW18442   2.212   6.437   1.565
 5848SOL    HW118443   2.172   6.505   1.504
 5848SOL    HW218444   2.305   6.414   1.533
 5849SOL     OW18445   2.570   5.494   6.727
 5849SOL    HW118446   2.575   5.480   6.628
 5849SOL    HW218447   2.554   5.591   6.746
 5850SOL     OW18448   6.976   1.569   1.417
 5850SOL    HW118449   7.000   1.576   1.514
 5850SOL    HW218450   6.956   1.473   1.395
 5851SOL     OW18451   6.723   3.495   4.706
 5851SOL    HW118452   6.653   3.454   4.648
 5851SOL    HW218453   6.791   3.426   4.730
 5852SOL     OW18454   4.820   4.139   2.499
 5852SOL    HW118455   4.765   4.194   2.437
 5852SOL    HW218456   4.774   4.131   2.587
 5853SOL     OW18457   4.483   4.618   6.821
 5853SOL    HW118458   4.474   4.588   6.916
 5853SOL    HW218459   4.517   4.713   6.820
 5854SOL     OW18460   3.337   4.665   5.622
 5854SOL    HW118461   3.341   4.688   5.719
 5854SOL    HW218462   3.340   4.565   5.611
 5855SOL     OW18463   2.593   2.547   3.927
 5855SOL    HW118464   2.641   2.485   3.865
 5855SOL    HW218465   2.624   2.532   4.021
 5856SOL     OW18466   1.102   0.266   3.052
 5856SOL    HW118467   1.179   0.218   3.012
 5856SOL    HW218468   1.128   0.360   3.075
 5857SOL     OW18469   5.501   4.774   6.833
 5857SOL    HW118470   5.594   4.786   6.869
 5857SOL    HW218471   5.465   4.686   6.863
 5858SOL     OW18472   2.428   1.461   2.547
 5858SOL    HW118473   2.338   1.433   2.513
 5858SOL    HW218474   2.417   1.521   2.626
 5859SOL     OW18475   5.191   5.465   1.962
 5859SOL    HW118476   5.216   5.550   1.915
 5859SOL    HW218477   5.096   5.472   1.994
 5860SOL     OW18478   1.061   4.019   2.424
 5860SOL    HW118479   1.034   3.970   2.508
 5860SOL    HW218480   1.120   3.961   2.369
 5861SOL     OW18481   5.401   0.478   5.961
 5861SOL    HW118482   5.362   0.570   5.951
 5861SOL    HW218483   5.466   0.462   5.887
 5862SOL     OW18484   6.908   4.936   3.731
 5862SOL    HW118485   6.873   4.854   3.775
 5862SOL    HW218486   6.846   5.013   3.747
 5863SOL     OW18487   3.799   6.763   6.081
 5863SOL    HW118488   3.744   6.822   6.021
 5863SOL    HW218489   3.890   6.752   6.041
 5864SOL     OW18490   4.129   3.596   2.077
 5864SOL    HW118491   4.069   3.672   2.100
 5864SOL    HW218492   4.213   3.603   2.132
 5865SOL     OW18493   6.808   0.120   0.238
 5865SOL    HW118494   6.883   0.080   0.186
 5865SOL    HW218495   6.790   0.213   0.204
 5866SOL     OW18496   3.689   3.220   2.646
 5866SOL    HW118497   3.717   3.125   2.660
 5866SOL    HW218498   3.768   3.275   2.619
 5867SOL     OW18499   3.522   1.672   1.377
 5867SOL    HW118500   3.443   1.649   1.434
 5867SOL    HW218501   3.503   1.757   1.327
 5868SOL     OW18502   0.966   0.663   0.863
 5868SOL    HW118503   1.036   0.593   0.881
 5868SOL    HW218504   0.900   0.663   0.938
 5869SOL     OW18505   1.269   5.767   2.905
 5869SOL    HW118506   1.176   5.735   2.926
 5869SOL    HW218507   1.300   5.726   2.819
 5870SOL     OW18508   4.145   0.604   4.003
 5870SOL    HW118509   4.198   0.647   3.930
 5870SOL    HW218510   4.184   0.514   4.025
 5871SOL     OW18511   4.137   3.680   4.259
 5871SOL    HW118512   4.131   3.619   4.337
 5871SOL    HW218513   4.228   3.671   4.217
 5872SOL     OW18514   4.317   6.160   0.766
 5872SOL    HW118515   4.221   6.140   0.748
 5872SOL    HW218516   4.365   6.076   0.790
 5873SOL     OW18517   3.450   5.633   2.136
 5873SOL    HW118518   3.538   5.604   2.099
 5873SOL    HW218519   3.382   5.635   2.062
 5874SOL     OW18520   1.062   4.398   4.784
 5874SOL    HW118521   1.024   4.425   4.873
 5874SOL    HW218522   1.015   4.316   4.752
 5875SOL     OW18523   3.815   1.870   1.074
 5875SOL    HW118524   3.855   1.905   0.989
 5875SOL    HW218525   3.882   1.811   1.119
 5876SOL     OW18526   3.026   3.808   1.954
 5876SOL    HW118527   3.000   3.846   1.865
 5876SOL    HW218528   2.990   3.715   1.961
 5877SOL     OW18529   5.207   4.379   1.617
 5877SOL    HW118530   5.123   4.377   1.673
 5877SOL    HW218531   5.241   4.286   1.605
 5878SOL     OW18532   1.899   3.781   2.625
 5878SOL    HW118533   1.885   3.719   2.702
 5878SOL    HW218534   1.960   3.738   2.558
 5879SOL     OW18535   1.330   3.705   3.722
 5879SOL    HW118536   1.321   3.624   3.779
 5879SOL    HW218537   1.246   3.759   3.727
 5880SOL     OW18538   3.736   6.151   0.338
 5880SOL    HW118539   3.750   6.052   0.331
 5880SOL    HW218540   3.649   6.175   0.295
 5881SOL     OW18541   1.125   5.942   4.154
 5881SOL    HW118542   1.067   5.880   4.102
 5881SOL    HW218543   1.118   5.920   4.252
 5882SOL     OW18544   5.173   0.661   2.464
 5882SOL    HW118545   5.243   0.723   2.497
 5882SOL    HW218546   5.201   0.623   2.376
 5883SOL     OW18547   0.959   3.840   5.283
 5883SOL    HW118548   0.874   3.805   5.323
 5883SOL    HW218549   1.037   3.805   5.335
 5884SOL     OW18550   0.843   0.532   3.530
 5884SOL    HW118551   0.885   0.601   3.589
 5884SOL    HW218552   0.782   0.474   3.584
 5885SOL     OW18553   6.055   6.080   1.396
 5885SOL    HW118554   6.113   6.159   1.377
 5885SOL    HW218555   5.959   6.107   1.392
 5886SOL     OW18556   0.072   1.394   6.532
 5886SOL    HW118557   0.162   1.436   6.519
 5886SOL    HW218558   0.012   1.420   6.456
 5887SOL     OW18559   3.919   5.981   3.082
 5887SOL    HW118560   3.943   5.991   3.179
 5887SOL    HW218561   3.876   6.065   3.049
 5888SOL     OW18562   0.564   0.845   2.874
 5888SOL    HW118563   0.522   0.936   2.868
 5888SOL    HW218564   0.633   0.845   2.947
 5889SOL     OW18565   2.593   6.988   6.685
 5889SOL    HW118566   2.645   6.942   6.613
 5889SOL    HW218567   2.536   6.921   6.733
 5890SOL     OW18568   3.779   4.731   5.996
 5890SOL    HW118569   3.722   4.809   6.022
 5890SOL    HW218570   3.872   4.744   6.031
 5891SOL     OW18571   2.046   3.659   6.560
 5891SOL    HW118572   1.973   3.663   6.627
 5891SOL    HW218573   2.112   3.588   6.586
 5892SOL     OW18574   2.420   6.514   2.101
 5892SOL    HW118575   2.320   6.508   2.090
 5892SOL    HW218576   2.444   6.503   2.197
 5893SOL     OW18577   1.952   1.274   3.342
 5893SOL    HW118578   2.039   1.225   3.343
 5893SOL    HW218579   1.944   1.329   3.425
 5894SOL     OW18580   0.689   3.354   3.427
 5894SOL    HW118581   0.721   3.305   3.508
 5894SOL    HW218582   0.763   3.361   3.361
 5895SOL     OW18583   5.645   4.083   3.229
 5895SOL    HW118584   5.718   4.062   3.293
 5895SOL    HW218585   5.622   4.001   3.176
 5896SOL     OW18586   5.078   2.975   5.377
 5896SOL    HW118587   5.153   2.942   5.435
 5896SOL    HW218588   5.113   2.996   5.286
 5897SOL     OW18589   4.728   5.939   1.119
 5897SOL    HW118590   4.634   5.909   1.137
 5897SOL    HW218591   4.770   5.879   1.051
 5898SOL     OW18592   2.867   6.102   3.022
 5898SOL    HW118593   2.895   6.034   2.954
 5898SOL    HW218594   2.909   6.190   3.000
 5899SOL     OW18595   5.478   0.793   3.449
 5899SOL    HW118596   5.564   0.762   3.489
 5899SOL    HW218597   5.420   0.713   3.430
 5900SOL     OW18598   3.992   5.033   2.491
 5900SOL    HW118599   4.015   5.038   2.588
 5900SOL    HW218600   3.898   5.003   2.480
 5901SOL     OW18601   3.035   6.392   4.356
 5901SOL    HW118602   3.121   6.442   4.364
 5901SOL    HW218603   2.968   6.430   4.420
 5902SOL     OW18604   5.582   2.394   6.973
 5902SOL    HW118605   5.533   2.380   0.032
 5902SOL    HW218606   5.571   2.489   6.943
 5903SOL     OW18607   7.000   3.637   6.470
 5903SOL    HW118608   7.013   3.609   6.565
 5903SOL    HW218609   0.016   3.727   6.456
 5904SOL     OW18610   0.859   3.671   2.088
 5904SOL    HW118611   0.810   3.590   2.057
 5904SOL    HW218612   0.794   3.746   2.101
 5905SOL     OW18613   6.794   4.616   2.674
 5905SOL    HW118614   6.830   4.594   2.584
 5905SOL    HW218615   6.710   4.564   2.690
 5906SOL     OW18616   0.989   0.972   3.359
 5906SOL    HW118617   1.019   0.943   3.450
 5906SOL    HW218618   0.972   1.070   3.359
 5907SOL     OW18619   1.995   0.260   2.491
 5907SOL    HW118620   1.963   0.170   2.460
 5907SOL    HW218621   2.089   0.274   2.459
 5908SOL     OW18622   0.127   3.287   5.860
 5908SOL    HW118623   0.078   3.320   5.942
 5908SOL    HW218624   0.179   3.362   5.821
 5909SOL     OW18625   6.368   4.369   0.489
 5909SOL    HW118626   6.413   4.292   0.536
 5909SOL    HW218627   6.370   4.449   0.549
 5910SOL     OW18628   2.024   1.649   3.373
 5910SOL    HW118629   2.027   1.572   3.436
 5910SOL    HW218630   1.998   1.617   3.282
 5911SOL     OW18631   6.291   5.640   6.788
 5911SOL    HW118632   6.354   5.563   6.800
 5911SOL    HW218633   6.321   5.697   6.712
 5912SOL     OW18634   0.778   7.026   3.925
 5912SOL    HW118635   0.800   6.929   3.921
 5912SOL    HW218636   0.688   0.015   3.884
 5913SOL     OW18637   6.137   2.068   0.204
 5913SOL    HW118638   6.074   1.997   0.237
 5913SOL    HW218639   6.098   2.158   0.223
 5914SOL     OW18640   1.163   6.373   0.438
 5914SOL    HW118641   1.248   6.326   0.415
 5914SOL    HW218642   1.096   6.359   0.365
 5915SOL     OW18643   3.688   1.486   5.901
 5915SOL    HW118644   3.603   1.474   5.953
 5915SOL    HW218645   3.753   1.538   5.956
 5916SOL     OW18646   0.989   6.637   1.968
 5916SOL    HW118647   1.068   6.638   1.906
 5916SOL    HW218648   0.984   6.548   2.015
 5917SOL     OW18649   3.323   3.631   0.320
 5917SOL    HW118650   3.321   3.599   0.225
 5917SOL    HW218651   3.382   3.711   0.326
 5918SOL     OW18652   3.116   6.737   4.857
 5918SOL    HW118653   3.143   6.673   4.785
 5918SOL    HW218654   3.105   6.688   4.943
 5919SOL     OW18655   3.738   3.429   4.485
 5919SOL    HW118656   3.693   3.469   4.405
 5919SOL    HW218657   3.807   3.364   4.454
 5920SOL     OW18658   6.861   0.106   5.827
 5920SOL    HW118659   6.792   0.075   5.762
 5920SOL    HW218660   6.908   0.027   5.866
 5921SOL     OW18661   2.536   4.307   6.580
 5921SOL    HW118662   2.585   4.289   6.495
 5921SOL    HW218663   2.585   4.263   6.656
 5922SOL     OW18664   5.385   3.264   2.441
 5922SOL    HW118665   5.351   3.226   2.354
 5922SOL    HW218666   5.389   3.191   2.509
 5923SOL     OW18667   6.056   1.170   3.878
 5923SOL    HW118668   6.091   1.240   3.939
 5923SOL    HW218669   5.966   1.198   3.843
 5924SOL     OW18670   4.948   6.623   3.709
 5924SOL    HW118671   4.904   6.545   3.752
 5924SOL    HW218672   4.908   6.708   3.743
 5925SOL     OW18673   4.440   1.285   0.854
 5925SOL    HW118674   4.438   1.185   0.855
 5925SOL    HW218675   4.533   1.317   0.873
 5926SOL     OW18676   5.483   4.297   3.339
 5926SOL    HW118677   5.505   4.285   3.436
 5926SOL    HW218678   5.512   4.216   3.289
 5927SOL     OW18679   0.354   5.248   2.521
 5927SOL    HW118680   0.360   5.173   2.456
 5927SOL    HW218681   0.425   5.316   2.502
 5928SOL     OW18682   3.002   6.796   0.086
 5928SOL    HW118683   3.001   6.699   0.062
 5928SOL    HW218684   2.911   6.823   0.117
 5929SOL     OW18685   1.286   0.788   0.359
 5929SOL    HW118686   1.327   0.708   0.315
 5929SOL    HW218687   1.318   0.871   0.313
 5930SOL     OW18688   1.797   4.023   2.151
 5930SOL    HW118689   1.746   4.018   2.237
 5930SOL    HW218690   1.775   4.109   2.104
 5931SOL     OW18691   5.511   6.718   2.397
 5931SOL    HW118692   5.436   6.670   2.443
 5931SOL    HW218693   5.529   6.675   2.308
 5932SOL     OW18694   2.934   0.402   0.106
 5932SOL    HW118695   2.982   0.325   0.062
 5932SOL    HW218696   2.983   0.487   0.086
 5933SOL     OW18697   5.875   6.255   4.289
 5933SOL    HW118698   5.869   6.319   4.365
 5933SOL    HW218699   5.971   6.238   4.267
 5934SOL     OW18700   2.369   3.439   0.033
 5934SOL    HW118701   2.453   3.486   0.057
 5934SOL    HW218702   2.310   3.433   0.113
 5935SOL     OW18703   1.329   6.620   5.977
 5935SOL    HW118704   1.316   6.547   5.909
 5935SOL    HW218705   1.365   6.701   5.933
 5936SOL     OW18706   3.874   3.002   2.493
 5936SOL    HW118707   3.935   3.045   2.427
 5936SOL    HW218708   3.797   2.960   2.445
 5937SOL     OW18709   0.173   2.967   1.292
 5937SOL    HW118710   0.265   2.935   1.311
 5937SOL    HW218711   0.157   3.054   1.340
 5938SOL     OW18712   0.321   4.037   4.134
 5938SOL    HW118713   0.317   4.068   4.039
 5938SOL    HW218714   0.319   4.116   4.195
 5939SOL     OW18715   3.568   1.379   5.450
 5939SOL    HW118716   3.482   1.366   5.498
 5939SOL    HW218717   3.635   1.421   5.511
 5940SOL     OW18718   4.720   5.522   1.651
 5940SOL    HW118719   4.676   5.580   1.718
 5940SOL    HW218720   4.819   5.520   1.667
 5941SOL     OW18721   0.193   2.282   2.905
 5941SOL    HW118722   0.214   2.185   2.894
 5941SOL    HW218723   0.276   2.336   2.888
 5942SOL     OW18724   4.955   2.764   6.357
 5942SOL    HW118725   4.859   2.788   6.345
 5942SOL    HW218726   5.013   2.835   6.318
 5943SOL     OW18727   2.590   4.551   1.770
 5943SOL    HW118728   2.526   4.542   1.846
 5943SOL    HW218729   2.658   4.621   1.793
 5944SOL     OW18730   6.222   3.004   5.390
 5944SOL    HW118731   6.124   3.002   5.368
 5944SOL    HW218732   6.233   3.026   5.487
 5945SOL     OW18733   6.588   6.891   4.894
 5945SOL    HW118734   6.520   6.910   4.965
 5945SOL    HW218735   6.556   6.929   4.806
 5946SOL     OW18736   2.288   3.874   6.495
 5946SOL    HW118737   2.257   3.969   6.488
 5946SOL    HW218738   2.285   3.832   6.405
 5947SOL     OW18739   4.047   3.451   4.393
 5947SOL    HW118740   3.969   3.481   4.339
 5947SOL    HW218741   4.055   3.351   4.388
 5948SOL     OW18742   4.946   3.464   1.636
 5948SOL    HW118743   5.024   3.407   1.612
 5948SOL    HW218744   4.878   3.409   1.684
 5949SOL     OW18745   0.525   4.276   2.859
 5949SOL    HW118746   0.454   4.340   2.887
 5949SOL    HW218747   0.604   4.286   2.919
 5950SOL     OW18748   3.945   0.227   4.686
 5950SOL    HW118749   3.936   0.250   4.783
 5950SOL    HW218750   3.861   0.184   4.654
 5951SOL     OW18751   6.826   4.281   6.875
 5951SOL    HW118752   6.841   4.371   6.916
 5951SOL    HW218753   6.738   4.280   6.827
 5952SOL     OW18754   4.132   4.591   1.424
 5952SOL    HW118755   4.191   4.587   1.505
 5952SOL    HW218756   4.078   4.675   1.427
 5953SOL     OW18757   6.683   3.232   5.190
 5953SOL    HW118758   6.776   3.194   5.189
 5953SOL    HW218759   6.628   3.185   5.259
 5954SOL     OW18760   1.975   5.889   3.991
 5954SOL    HW118761   1.959   5.816   3.925
 5954SOL    HW218762   1.936   5.864   4.080
 5955SOL     OW18763   5.110   3.289   0.257
 5955SOL    HW118764   5.207   3.309   0.263
 5955SOL    HW218765   5.096   3.201   0.211
 5956SOL     OW18766   5.270   2.695   5.132
 5956SOL    HW118767   5.362   2.691   5.171
 5956SOL    HW218768   5.202   2.691   5.206
 5957SOL     OW18769   7.001   1.349   3.425
 5957SOL    HW118770   0.054   1.405   3.447
 5957SOL    HW218771   6.958   1.318   3.510
 5958SOL     OW18772   3.107   6.652   3.127
 5958SOL    HW118773   3.127   6.641   3.224
 5958SOL    HW218774   3.066   6.567   3.092
 5959SOL     OW18775   5.221   2.224   3.335
 5959SOL    HW118776   5.213   2.285   3.414
 5959SOL    HW218777   5.301   2.251   3.281
 5960SOL     OW18778   4.115   0.891   6.155
 5960SOL    HW118779   4.015   0.887   6.167
 5960SOL    HW218780   4.154   0.800   6.167
 5961SOL     OW18781   2.863   2.308   3.522
 5961SOL    HW118782   2.892   2.213   3.517
 5961SOL    HW218783   2.940   2.365   3.549
 5962SOL     OW18784   4.993   5.661   0.206
 5962SOL    HW118785   4.897   5.634   0.212
 5962SOL    HW218786   5.042   5.625   0.285
 5963SOL     OW18787   2.599   4.026   0.490
 5963SOL    HW118788   2.607   3.942   0.438
 5963SOL    HW218789   2.513   4.072   0.467
 5964SOL     OW18790   2.637   6.483   2.642
 5964SOL    HW118791   2.700   6.515   2.572
 5964SOL    HW218792   2.574   6.556   2.666
 5965SOL     OW18793   2.227   0.279   0.565
 5965SOL    HW118794   2.280   0.330   0.633
 5965SOL    HW218795   2.281   0.269   0.482
 5966SOL     OW18796   2.991   1.780   5.172
 5966SOL    HW118797   2.895   1.769   5.199
 5966SOL    HW218798   3.033   1.852   5.227
 5967SOL     OW18799   4.411   2.081   5.025
 5967SOL    HW118800   4.445   2.094   5.119
 5967SOL    HW218801   4.438   1.991   4.992
 5968SOL     OW18802   5.896   2.780   1.830
 5968SOL    HW118803   5.872   2.802   1.735
 5968SOL    HW218804   5.990   2.811   1.848
 5969SOL     OW18805   5.429   0.443   0.671
 5969SOL    HW118806   5.417   0.460   0.769
 5969SOL    HW218807   5.383   0.357   0.647
 5970SOL     OW18808   0.171   3.417   0.900
 5970SOL    HW118809   0.262   3.390   0.934
 5970SOL    HW218810   0.135   3.491   0.956
 5971SOL     OW18811   6.752   6.453   4.032
 5971SOL    HW118812   6.748   6.472   3.934
 5971SOL    HW218813   6.821   6.382   4.049
 5972SOL     OW18814   5.939   5.149   0.404
 5972SOL    HW118815   6.027   5.194   0.421
 5972SOL    HW218816   5.935   5.064   0.456
 5973SOL     OW18817   2.946   1.420   2.399
 5973SOL    HW118818   2.906   1.367   2.474
 5973SOL    HW218819   3.034   1.381   2.374
 5974SOL     OW18820   5.529   1.422   5.100
 5974SOL    HW118821   5.591   1.347   5.077
 5974SOL    HW218822   5.556   1.504   5.049
 5975SOL     OW18823   4.203   5.047   1.445
 5975SOL    HW118824   4.210   5.007   1.537
 5975SOL    HW218825   4.248   5.136   1.444
 5976SOL     OW18826   1.960   3.691   5.318
 5976SOL    HW118827   1.949   3.691   5.219
 5976SOL    HW218828   2.018   3.615   5.346
 5977SOL     OW18829   6.688   4.519   0.605
 5977SOL    HW118830   6.639   4.532   0.692
 5977SOL    HW218831   6.764   4.584   0.601
 5978SOL     OW18832   2.956   3.739   6.424
 5978SOL    HW118833   2.949   3.721   6.326
 5978SOL    HW218834   2.902   3.820   6.447
 5979SOL     OW18835   6.329   0.348   1.885
 5979SOL    HW118836   6.355   0.372   1.792
 5979SOL    HW218837   6.357   0.422   1.947
 5980SOL     OW18838   2.857   2.811   1.203
 5980SOL    HW118839   2.932   2.846   1.148
 5980SOL    HW218840   2.891   2.741   1.265
 5981SOL     OW18841   2.850   1.635   0.664
 5981SOL    HW118842   2.924   1.618   0.729
 5981SOL    HW218843   2.770   1.669   0.713
 5982SOL     OW18844   5.006   3.010   1.172
 5982SOL    HW118845   4.948   3.066   1.113
 5982SOL    HW218846   5.102   3.033   1.156
 5983SOL     OW18847   0.093   0.741   3.488
 5983SOL    HW118848   0.110   0.663   3.428
 5983SOL    HW218849   0.178   0.793   3.500
 5984SOL     OW18850   6.289   6.543   4.428
 5984SOL    HW118851   6.244   6.464   4.470
 5984SOL    HW218852   6.294   6.529   4.329
 5985SOL     OW18853   6.484   3.097   2.347
 5985SOL    HW118854   6.582   3.079   2.355
 5985SOL    HW218855   6.457   3.097   2.250
 5986SOL     OW18856   3.752   3.280   3.852
 5986SOL    HW118857   3.762   3.379   3.850
 5986SOL    HW218858   3.696   3.250   3.775
 5987SOL     OW18859   0.349   6.174   5.708
 5987SOL    HW118860   0.422   6.106   5.697
 5987SOL    HW218861   0.317   6.173   5.803
 5988SOL     OW18862   0.642   2.776   6.784
 5988SOL    HW118863   0.657   2.713   6.707
 5988SOL    HW218864   0.700   2.857   6.772
 5989SOL     OW18865   0.444   6.233   6.234
 5989SOL    HW118866   0.493   6.188   6.159
 5989SOL    HW218867   0.415   6.324   6.204
 5990SOL     OW18868   2.628   4.768   2.104
 5990SOL    HW118869   2.707   4.716   2.072
 5990SOL    HW218870   2.552   4.706   2.122
 5991SOL     OW18871   5.001   0.503   0.420
 5991SOL    HW118872   5.065   0.515   0.496
 5991SOL    HW218873   4.916   0.463   0.454
 5992SOL     OW18874   3.729   6.160   2.467
 5992SOL    HW118875   3.677   6.089   2.419
 5992SOL    HW218876   3.763   6.226   2.400
 5993SOL     OW18877   5.634   1.833   7.016
 5993SOL    HW118878   5.679   1.821   6.927
 5993SOL    HW218879   5.535   1.827   7.003
 5994SOL     OW18880   6.901   3.369   0.078
 5994SOL    HW118881   6.869   3.349   7.012
 5994SOL    HW218882   6.926   3.466   0.085
 5995SOL     OW18883   4.943   3.671   1.331
 5995SOL    HW118884   4.931   3.572   1.329
 5995SOL    HW218885   4.943   3.703   1.426
 5996SOL     OW18886   2.692   6.157   1.487
 5996SOL    HW118887   2.783   6.156   1.445
 5996SOL    HW218888   2.685   6.085   1.556
 5997SOL     OW18889   6.460   0.543   4.275
 5997SOL    HW118890   6.480   0.635   4.243
 5997SOL    HW218891   6.486   0.477   4.205
 5998SOL     OW18892   6.305   5.820   7.003
 5998SOL    HW118893   6.297   5.762   6.921
 5998SOL    HW218894   6.318   5.762   0.057
 5999SOL     OW18895   5.183   3.293   1.605
 5999SOL    HW118896   5.283   3.290   1.607
 5999SOL    HW218897   5.148   3.199   1.604
 6000SOL     OW18898   0.513   3.916   1.182
 6000SOL    HW118899   0.419   3.917   1.217
 6000SOL    HW218900   0.524   3.839   1.119
 6001SOL     OW18901   6.190   5.416   6.142
 6001SOL    HW118902   6.237   5.379   6.223
 6001SOL    HW218903   6.249   5.407   6.062
 6002SOL     OW18904   5.581   5.128   5.241
 6002SOL    HW118905   5.624   5.114   5.330
 6002SOL    HW218906   5.607   5.054   5.179
 6003SOL     OW18907   2.509   2.480   4.754
 6003SOL    HW118908   2.599   2.459   4.792
 6003SOL    HW218909   2.446   2.404   4.773
 6004SOL     OW18910   5.504   2.384   4.462
 6004SOL    HW118911   5.420   2.437   4.450
 6004SOL    HW218912   5.532   2.388   4.558
 6005SOL     OW18913   4.375   4.024   6.669
 6005SOL    HW118914   4.410   4.019   6.576
 6005SOL    HW218915   4.381   4.118   6.702
 6006SOL     OW18916   3.544   5.982   0.026
 6006SOL    HW118917   3.609   5.965   0.101
 6006SOL    HW218918   3.510   5.894   7.018
 6007SOL     OW18919   2.133   6.003   4.907
 6007SOL    HW118920   2.158   6.092   4.869
 6007SOL    HW218921   2.214   5.958   4.942
 6008SOL     OW18922   2.873   3.991   6.483
 6008SOL    HW118923   2.791   3.999   6.540
 6008SOL    HW218924   2.954   4.014   6.537
 6009SOL     OW18925   4.088   5.148   2.741
 6009SOL    HW118926   4.120   5.237   2.707
 6009SOL    HW218927   4.167   5.093   2.767
 6010SOL     OW18928   0.633   4.672   4.154
 6010SOL    HW118929   0.646   4.577   4.183
 6010SOL    HW218930   0.710   4.701   4.097
 6011SOL     OW18931   6.145   1.562   2.400
 6011SOL    HW118932   6.090   1.484   2.369
 6011SOL    HW218933   6.121   1.643   2.346
 6012SOL     OW18934   0.004   0.439   6.098
 6012SOL    HW118935   6.980   0.353   6.085
 6012SOL    HW218936   0.098   0.427   6.065
 6013SOL     OW18937   6.106   1.565   1.986
 6013SOL    HW118938   6.133   1.592   1.894
 6013SOL    HW218939   6.132   1.636   2.051
 6014SOL     OW18940   3.044   3.860   3.825
 6014SOL    HW118941   2.974   3.796   3.856
 6014SOL    HW218942   3.104   3.883   3.902
 6015SOL     OW18943   6.075   0.476   3.921
 6015SOL    HW118944   6.082   0.448   3.825
 6015SOL    HW218945   6.156   0.528   3.947
 6016SOL     OW18946   4.296   1.680   4.142
 6016SOL    HW118947   4.264   1.653   4.233
 6016SOL    HW218948   4.391   1.710   4.147
 6017SOL     OW18949   0.966   1.238   5.722
 6017SOL    HW118950   1.058   1.276   5.711
 6017SOL    HW218951   0.924   1.228   5.632
 6018SOL     OW18952   2.963   1.069   4.353
 6018SOL    HW118953   2.990   1.141   4.290
 6018SOL    HW218954   2.867   1.080   4.377
 6019SOL     OW18955   6.596   4.425   6.534
 6019SOL    HW118956   6.521   4.490   6.520
 6019SOL    HW218957   6.597   4.396   6.630
 6020SOL     OW18958   0.879   5.023   5.794
 6020SOL    HW118959   0.804   4.971   5.835
 6020SOL    HW218960   0.948   5.042   5.864
 6021SOL     OW18961   6.069   6.921   3.414
 6021SOL    HW118962   6.084   6.870   3.499
 6021SOL    HW218963   6.105   6.868   3.337
 6022SOL     OW18964   6.403   2.838   1.443
 6022SOL    HW118965   6.492   2.829   1.488
 6022SOL    HW218966   6.338   2.773   1.484
 6023SOL     OW18967   3.600   6.987   1.790
 6023SOL    HW118968   3.529   6.955   1.728
 6023SOL    HW218969   3.664   0.020   1.740
 6024SOL     OW18970   1.162   5.742   6.942
 6024SOL    HW118971   1.151   5.664   6.882
 6024SOL    HW218972   1.103   5.817   6.912
 6025SOL     OW18973   3.153   0.338   4.795
 6025SOL    HW118974   3.126   0.262   4.854
 6025SOL    HW218975   3.146   0.311   4.699
 6026SOL     OW18976   5.614   6.243   4.310
 6026SOL    HW118977   5.712   6.242   4.292
 6026SOL    HW218978   5.592   6.178   4.383
 6027SOL     OW18979   5.316   4.697   6.227
 6027SOL    HW118980   5.269   4.668   6.144
 6027SOL    HW218981   5.254   4.685   6.305
 6028SOL     OW18982   5.809   5.199   6.284
 6028SOL    HW118983   5.722   5.164   6.317
 6028SOL    HW218984   5.852   5.132   6.223
 6029SOL     OW18985   2.942   0.982   2.813
 6029SOL    HW118986   2.848   1.012   2.828
 6029SOL    HW218987   3.001   1.014   2.887
 6030SOL     OW18988   6.017   2.937   4.307
 6030SOL    HW118989   6.019   3.035   4.287
 6030SOL    HW218990   6.014   2.886   4.222
 6031SOL     OW18991   0.056   6.202   5.289
 6031SOL    HW118992   6.987   6.232   5.281
 6031SOL    HW218993   0.116   6.269   5.245
 6032SOL     OW18994   4.010   6.315   3.595
 6032SOL    HW118995   3.919   6.299   3.557
 6032SOL    HW218996   4.008   6.396   3.653
 6033SOL     OW18997   1.286   1.353   2.216
 6033SOL    HW118998   1.195   1.321   2.242
 6033SOL    HW218999   1.302   1.443   2.257
 6034SOL     OW19000   0.542   6.650   1.210
 6034SOL    HW119001   0.622   6.695   1.171
 6034SOL    HW219002   0.491   6.717   1.265
 6035SOL     OW19003   2.960   0.474   2.245
 6035SOL    HW119004   2.939   0.441   2.338
 6035SOL    HW219005   2.907   0.557   2.227
 6036SOL     OW19006   6.651   3.583   1.044
 6036SOL    HW119007   6.581   3.593   1.115
 6036SOL    HW219008   6.682   3.488   1.041
 6037SOL     OW19009   4.796   1.598   6.492
 6037SOL    HW119010   4.797   1.515   6.436
 6037SOL    HW219011   4.763   1.674   6.437
 6038SOL     OW19012   1.285   1.419   6.174
 6038SOL    HW119013   1.187   1.439   6.179
 6038SOL    HW219014   1.300   1.322   6.187
 6039SOL     OW19015   3.901   3.603   3.762
 6039SOL    HW119016   3.994   3.566   3.754
 6039SOL    HW219017   3.876   3.649   3.677
 6040SOL     OW19018   0.104   1.674   0.528
 6040SOL    HW119019   0.006   1.690   0.518
 6040SOL    HW219020   0.126   1.582   0.497
 6041SOL     OW19021   2.317   3.762   5.738
 6041SOL    HW119022   2.328   3.861   5.735
 6041SOL    HW219023   2.374   3.723   5.810
 6042SOL     OW19024   3.122   5.540   4.291
 6042SOL    HW119025   3.067   5.621   4.311
 6042SOL    HW219026   3.129   5.483   4.373
 6043SOL     OW19027   2.428   0.481   2.974
 6043SOL    HW119028   2.350   0.486   2.912
 6043SOL    HW219029   2.402   0.429   3.056
 6044SOL     OW19030   0.742   3.161   0.909
 6044SOL    HW119031   0.809   3.098   0.870
 6044SOL    HW219032   0.654   3.115   0.917
 6045SOL     OW19033   5.658   1.899   3.175
 6045SOL    HW119034   5.578   1.954   3.198
 6045SOL    HW219035   5.692   1.926   3.085
 6046SOL     OW19036   3.685   2.860   3.104
 6046SOL    HW119037   3.588   2.867   3.127
 6046SOL    HW219038   3.701   2.775   3.053
 6047SOL     OW19039   6.864   1.647   0.303
 6047SOL    HW119040   6.853   1.604   0.213
 6047SOL    HW219041   6.856   1.578   0.374
 6048SOL     OW19042   5.754   5.936   3.348
 6048SOL    HW119043   5.757   5.989   3.432
 6048SOL    HW219044   5.815   5.978   3.280
 6049SOL     OW19045   4.640   4.897   5.947
 6049SOL    HW119046   4.612   4.980   5.898
 6049SOL    HW219047   4.570   4.827   5.935
 6050SOL     OW19048   2.982   6.095   2.316
 6050SOL    HW119049   2.983   6.042   2.231
 6050SOL    HW219050   3.039   6.177   2.304
 6051SOL     OW19051   0.640   1.518   3.146
 6051SOL    HW119052   0.683   1.428   3.150
 6051SOL    HW219053   0.700   1.582   3.099
 6052SOL     OW19054   4.978   5.559   0.705
 6052SOL    HW119055   4.892   5.595   0.669
 6052SOL    HW219056   4.959   5.500   0.784
 6053SOL     OW19057   4.216   2.509   5.755
 6053SOL    HW119058   4.239   2.446   5.829
 6053SOL    HW219059   4.140   2.568   5.783
 6054SOL     OW19060   3.926   4.167   0.719
 6054SOL    HW119061   3.883   4.119   0.795
 6054SOL    HW219062   4.019   4.193   0.745
 6055SOL     OW19063   2.878   3.860   1.116
 6055SOL    HW119064   2.974   3.845   1.092
 6055SOL    HW219065   2.838   3.927   1.053
 6056SOL     OW19066   5.342   5.757   3.275
 6056SOL    HW119067   5.417   5.762   3.342
 6056SOL    HW219068   5.259   5.796   3.315
 6057SOL     OW19069   5.232   0.621   4.315
 6057SOL    HW119070   5.134   0.600   4.312
 6057SOL    HW219071   5.269   0.620   4.223
 6058SOL     OW19072   6.720   2.772   5.762
 6058SOL    HW119073   6.761   2.863   5.776
 6058SOL    HW219074   6.701   2.731   5.850
 6059SOL     OW19075   4.267   2.658   0.474
 6059SOL    HW119076   4.215   2.743   0.475
 6059SOL    HW219077   4.360   2.675   0.442
 6060SOL     OW19078   2.240   3.243   6.910
 6060SOL    HW119079   2.301   3.313   6.948
 6060SOL    HW219080   2.145   3.274   6.920
 6061SOL     OW19081   3.326   4.451   7.014
 6061SOL    HW119082   3.343   4.385   0.060
 6061SOL    HW219083   3.344   4.409   6.925
 6062SOL     OW19084   2.056   1.979   6.557
 6062SOL    HW119085   1.969   2.028   6.560
 6062SOL    HW219086   2.123   2.025   6.614
 6063SOL     OW19087   4.150   3.734   6.174
 6063SOL    HW119088   4.100   3.698   6.095
 6063SOL    HW219089   4.156   3.664   6.245
 6064SOL     OW19090   6.331   5.259   1.036
 6064SOL    HW119091   6.247   5.228   1.081
 6064SOL    HW219092   6.394   5.295   1.105
 6065SOL     OW19093   1.585   0.117   2.063
 6065SOL    HW119094   1.674   0.142   2.024
 6065SOL    HW219095   1.543   0.198   2.104
 6066SOL     OW19096   5.147   5.957   3.613
 6066SOL    HW119097   5.156   5.940   3.515
 6066SOL    HW219098   5.217   5.905   3.663
 6067SOL     OW19099   6.320   6.391   6.268
 6067SOL    HW119100   6.359   6.459   6.206
 6067SOL    HW219101   6.387   6.368   6.339
 6068SOL     OW19102   4.730   2.400   4.233
 6068SOL    HW119103   4.652   2.448   4.193
 6068SOL    HW219104   4.779   2.462   4.294
 6069SOL     OW19105   0.246   4.404   5.687
 6069SOL    HW119106   0.346   4.413   5.686
 6069SOL    HW219107   0.212   4.394   5.593
 6070SOL     OW19108   1.993   1.342   0.684
 6070SOL    HW119109   2.092   1.333   0.698
 6070SOL    HW219110   1.955   1.399   0.757
 6071SOL     OW19111   6.455   1.309   5.560
 6071SOL    HW119112   6.472   1.213   5.539
 6071SOL    HW219113   6.383   1.344   5.501
 6072SOL     OW19114   0.120   2.855   7.006
 6072SOL    HW119115   0.052   2.785   6.986
 6072SOL    HW219116   0.076   2.933   0.023
 6073SOL     OW19117   4.975   3.596   0.057
 6073SOL    HW119118   4.987   3.580   0.155
 6073SOL    HW219119   4.877   3.602   0.036
 6074SOL     OW19120   1.136   6.246   2.533
 6074SOL    HW119121   1.182   6.294   2.459
 6074SOL    HW219122   1.202   6.228   2.607
 6075SOL     OW19123   5.633   0.545   6.581
 6075SOL    HW119124   5.719   0.506   6.615
 6075SOL    HW219125   5.623   0.638   6.617
 6076SOL     OW19126   0.823   5.844   2.502
 6076SOL    HW119127   0.748   5.848   2.568
 6076SOL    HW219128   0.888   5.917   2.522
 6077SOL     OW19129   5.512   6.642   2.813
 6077SOL    HW119130   5.495   6.548   2.843
 6077SOL    HW219131   5.449   6.665   2.739
 6078SOL     OW19132   4.218   4.452   0.623
 6078SOL    HW119133   4.183   4.414   0.537
 6078SOL    HW219134   4.316   4.434   0.630
 6079SOL     OW19135   2.507   2.910   0.628
 6079SOL    HW119136   2.524   2.947   0.720
 6079SOL    HW219137   2.473   2.983   0.569
 6080SOL     OW19138   6.816   4.458   6.354
 6080SOL    HW119139   6.751   4.421   6.419
 6080SOL    HW219140   6.897   4.399   6.351
 6081SOL     OW19141   1.580   3.886   3.463
 6081SOL    HW119142   1.613   3.799   3.426
 6081SOL    HW219143   1.588   3.884   3.563
 6082SOL     OW19144   5.035   1.344   1.484
 6082SOL    HW119145   4.977   1.426   1.482
 6082SOL    HW219146   4.976   1.262   1.490
 6083SOL     OW19147   4.778   0.735   6.583
 6083SOL    HW119148   4.812   0.823   6.616
 6083SOL    HW219149   4.699   0.749   6.524
 6084SOL     OW19150   6.978   5.591   2.489
 6084SOL    HW119151   6.898   5.534   2.472
 6084SOL    HW219152   0.031   5.553   2.442
 6085SOL     OW19153   0.408   6.774   0.606
 6085SOL    HW119154   0.499   6.778   0.564
 6085SOL    HW219155   0.383   6.678   0.619
 6086SOL     OW19156   3.536   4.303   0.147
 6086SOL    HW119157   3.469   4.283   0.219
 6086SOL    HW219158   3.563   4.217   0.102
 6087SOL     OW19159   5.169   0.240   0.805
 6087SOL    HW119160   5.192   0.329   0.844
 6087SOL    HW219161   5.230   0.171   0.843
 6088SOL     OW19162   4.732   5.668   3.112
 6088SOL    HW119163   4.704   5.623   3.027
 6088SOL    HW219164   4.813   5.723   3.096
 6089SOL     OW19165   6.066   3.864   3.931
 6089SOL    HW119166   6.145   3.864   3.993
 6089SOL    HW219167   6.062   3.951   3.883
 6090SOL     OW19168   3.922   5.747   4.013
 6090SOL    HW119169   4.003   5.741   4.071
 6090SOL    HW219170   3.916   5.664   3.957
 6091SOL     OW19171   1.511   1.670   1.572
 6091SOL    HW119172   1.430   1.728   1.569
 6091SOL    HW219173   1.564   1.691   1.654
 6092SOL     OW19174   2.476   6.593   0.994
 6092SOL    HW119175   2.541   6.648   1.046
 6092SOL    HW219176   2.453   6.511   1.046
 6093SOL     OW19177   2.638   2.413   2.589
 6093SOL    HW119178   2.726   2.459   2.592
 6093SOL    HW219179   2.590   2.426   2.676
 6094SOL     OW19180   0.612   6.160   5.089
 6094SOL    HW119181   0.609   6.083   5.025
 6094SOL    HW219182   0.624   6.124   5.182
 6095SOL     OW19183   4.556   4.822   2.156
 6095SOL    HW119184   4.479   4.764   2.182
 6095SOL    HW219185   4.635   4.764   2.136
 6096SOL     OW19186   5.407   5.942   3.084
 6096SOL    HW119187   5.472   6.003   3.131
 6096SOL    HW219188   5.393   5.860   3.139
 6097SOL     OW19189   2.161   5.013   2.571
 6097SOL    HW119190   2.206   4.990   2.658
 6097SOL    HW219191   2.231   5.024   2.500
 6098SOL     OW19192   7.012   0.502   4.948
 6098SOL    HW119193   0.016   0.591   4.982
 6098SOL    HW219194   6.946   0.516   4.875
 6099SOL     OW19195   3.257   0.755   5.947
 6099SOL    HW119196   3.267   0.699   6.029
 6099SOL    HW219197   3.290   0.705   5.867
 6100SOL     OW19198   0.328   5.869   4.886
 6100SOL    HW119199   0.355   5.885   4.981
 6100SOL    HW219200   0.386   5.923   4.826
 6101SOL     OW19201   6.948   3.531   1.831
 6101SOL    HW119202   7.012   3.464   1.794
 6101SOL    HW219203   6.994   3.587   1.899
 6102SOL     OW19204   3.666   0.357   2.731
 6102SOL    HW119205   3.572   0.327   2.714
 6102SOL    HW219206   3.727   0.278   2.729
 6103SOL     OW19207   6.425   1.638   1.939
 6103SOL    HW119208   6.437   1.542   1.917
 6103SOL    HW219209   6.483   1.662   2.017
 6104SOL     OW19210   0.157   0.599   4.694
 6104SOL    HW119211   0.121   0.595   4.601
 6104SOL    HW219212   0.084   0.627   4.757
 6105SOL     OW19213   2.959   4.713   5.654
 6105SOL    HW119214   3.013   4.769   5.717
 6105SOL    HW219215   2.990   4.730   5.560
 6106SOL     OW19216   5.983   5.021   5.191
 6106SOL    HW119217   5.955   5.101   5.137
 6106SOL    HW219218   5.942   5.026   5.282
 6107SOL     OW19219   5.501   5.675   5.225
 6107SOL    HW119220   5.571   5.658   5.294
 6107SOL    HW219221   5.438   5.598   5.221
 6108SOL     OW19222   2.250   1.477   6.973
 6108SOL    HW119223   2.224   1.421   0.025
 6108SOL    HW219224   2.279   1.568   7.004
 6109SOL     OW19225   6.809   0.092   3.641
 6109SOL    HW119226   6.739   0.085   3.712
 6109SOL    HW219227   6.852   0.003   3.628
 6110SOL     OW19228   1.863   1.584   4.327
 6110SOL    HW119229   1.950   1.538   4.308
 6110SOL    HW219230   1.817   1.538   4.403
 6111SOL     OW19231   1.896   3.928   1.053
 6111SOL    HW119232   1.875   3.835   1.085
 6111SOL    HW219233   1.968   3.924   0.983
 6112SOL     OW19234   4.702   6.260   3.355
 6112SOL    HW119235   4.751   6.340   3.388
 6112SOL    HW219236   4.604   6.271   3.372
 6113SOL     OW19237   2.623   5.164   1.075
 6113SOL    HW119238   2.712   5.126   1.050
 6113SOL    HW219239   2.562   5.158   0.996
 6114SOL     OW19240   5.764   2.418   0.363
 6114SOL    HW119241   5.768   2.414   0.463
 6114SOL    HW219242   5.719   2.503   0.335
 6115SOL     OW19243   0.987   0.453   6.118
 6115SOL    HW119244   0.988   0.361   6.079
 6115SOL    HW219245   0.948   0.450   6.210
 6116SOL     OW19246   5.539   2.789   6.537
 6116SOL    HW119247   5.492   2.779   6.625
 6116SOL    HW219248   5.543   2.701   6.491
 6117SOL     OW19249   2.099   1.895   1.121
 6117SOL    HW119250   2.190   1.891   1.079
 6117SOL    HW219251   2.072   1.803   1.149
 6118SOL     OW19252   6.027   0.837   1.313
 6118SOL    HW119253   6.036   0.749   1.266
 6118SOL    HW219254   5.930   0.859   1.323
 6119SOL     OW19255   6.984   1.543   7.010
 6119SOL    HW119256   0.039   1.486   6.994
 6119SOL    HW219257   6.995   1.629   6.960
 6120SOL     OW19258   2.638   0.945   4.548
 6120SOL    HW119259   2.652   1.018   4.615
 6120SOL    HW219260   2.708   0.875   4.561
 6121SOL     OW19261   0.962   2.480   5.454
 6121SOL    HW119262   1.048   2.462   5.406
 6121SOL    HW219263   0.982   2.521   5.543
 6122SOL     OW19264   4.822   4.698   5.416
 6122SOL    HW119265   4.914   4.670   5.442
 6122SOL    HW219266   4.765   4.706   5.499
 6123SOL     OW19267   5.676   1.419   5.502
 6123SOL    HW119268   5.667   1.420   5.403
 6123SOL    HW219269   5.772   1.428   5.528
 6124SOL     OW19270   2.596   6.020   3.901
 6124SOL    HW119271   2.496   6.025   3.897
 6124SOL    HW219272   2.633   6.112   3.913
 6125SOL     OW19273   2.928   2.349   6.284
 6125SOL    HW119274   2.893   2.267   6.329
 6125SOL    HW219275   2.993   2.323   6.212
 6126SOL     OW19276   5.955   2.950   5.362
 6126SOL    HW119277   5.960   2.905   5.451
 6126SOL    HW219278   5.877   3.013   5.361
 6127SOL     OW19279   4.567   2.178   2.109
 6127SOL    HW119280   4.512   2.122   2.047
 6127SOL    HW219281   4.539   2.161   2.203
 6128SOL     OW19282   5.614   5.486   0.052
 6128SOL    HW119283   5.616   5.541   0.136
 6128SOL    HW219284   5.550   5.528   7.014
 6129SOL     OW19285   1.674   5.583   2.257
 6129SOL    HW119286   1.647   5.674   2.228
 6129SOL    HW219287   1.649   5.516   2.187
 6130SOL     OW19288   6.117   2.506   7.026
 6130SOL    HW119289   6.033   2.458   7.001
 6130SOL    HW219290   6.116   2.598   6.989
 6131SOL     OW19291   6.719   1.795   2.530
 6131SOL    HW119292   6.624   1.771   2.548
 6131SOL    HW219293   6.766   1.810   2.617
 6132SOL     OW19294   3.742   1.227   5.812
 6132SOL    HW119295   3.726   1.325   5.822
 6132SOL    HW219296   3.838   1.210   5.794
 6133SOL     OW19297   1.240   2.096   3.067
 6133SOL    HW119298   1.292   2.181   3.079
 6133SOL    HW219299   1.164   2.094   3.133
 6134SOL     OW19300   6.990   6.948   5.974
 6134SOL    HW119301   6.956   6.937   6.067
 6134SOL    HW219302   0.019   6.868   5.950
 6135SOL     OW19303   6.860   6.805   6.851
 6135SOL    HW119304   6.881   6.834   6.757
 6135SOL    HW219305   6.831   6.885   6.904
 6136SOL     OW19306   0.802   2.535   2.228
 6136SOL    HW119307   0.804   2.565   2.323
 6136SOL    HW219308   0.747   2.599   2.174
 6137SOL     OW19309   6.696   4.204   2.259
 6137SOL    HW119310   6.672   4.168   2.169
 6137SOL    HW219311   6.789   4.176   2.282
 6138SOL     OW19312   4.346   0.334   2.026
 6138SOL    HW119313   4.287   0.289   1.959
 6138SOL    HW219314   4.421   0.272   2.051
 6139SOL     OW19315   1.286   0.539   5.167
 6139SOL    HW119316   1.372   0.489   5.157
 6139SOL    HW219317   1.274   0.599   5.088
 6140SOL     OW19318   2.133   0.159   2.960
 6140SOL    HW119319   2.201   0.163   3.034
 6140SOL    HW219320   2.056   0.102   2.989
 6141SOL     OW19321   0.588   0.728   6.209
 6141SOL    HW119322   0.550   0.820   6.208
 6141SOL    HW219323   0.541   0.673   6.279
 6142SOL     OW19324   6.988   0.359   1.456
 6142SOL    HW119325   6.955   0.397   1.542
 6142SOL    HW219326   0.033   0.418   1.418
 6143SOL     OW19327   6.775   3.873   5.425
 6143SOL    HW119328   6.846   3.930   5.465
 6143SOL    HW219329   6.796   3.855   5.329
 6144SOL     OW19330   4.527   5.091   2.657
 6144SOL    HW119331   4.554   5.017   2.594
 6144SOL    HW219332   4.549   5.063   2.751
 6145SOL     OW19333   4.977   3.497   3.893
 6145SOL    HW119334   5.004   3.450   3.976
 6145SOL    HW219335   5.055   3.550   3.858
 6146SOL     OW19336   5.452   0.052   5.062
 6146SOL    HW119337   5.465   7.007   5.130
 6146SOL    HW219338   5.541   0.083   5.029
 6147SOL     OW19339   1.603   2.389   4.637
 6147SOL    HW119340   1.659   2.319   4.682
 6147SOL    HW219341   1.598   2.370   4.539
 6148SOL     OW19342   3.106   5.841   0.030
 6148SOL    HW119343   3.185   5.884   0.073
 6148SOL    HW219344   3.134   5.755   7.014
 6149SOL     OW19345   2.732   1.128   1.242
 6149SOL    HW119346   2.755   1.178   1.158
 6149SOL    HW219347   2.671   1.185   1.298
 6150SOL     OW19348   0.731   4.357   5.365
 6150SOL    HW119349   0.659   4.330   5.301
 6150SOL    HW219350   0.772   4.444   5.336
 6151SOL     OW19351   4.424   5.323   3.941
 6151SOL    HW119352   4.447   5.261   3.866
 6151SOL    HW219353   4.458   5.414   3.921
 6152SOL     OW19354   1.377   3.905   4.142
 6152SOL    HW119355   1.443   3.901   4.067
 6152SOL    HW219356   1.421   3.946   4.223
 6153SOL     OW19357   5.309   5.385   1.341
 6153SOL    HW119358   5.266   5.335   1.265
 6153SOL    HW219359   5.311   5.482   1.320
 6154SOL     OW19360   4.895   3.431   2.151
 6154SOL    HW119361   4.826   3.398   2.214
 6154SOL    HW219362   4.952   3.500   2.197
 6155SOL     OW19363   1.812   1.415   2.933
 6155SOL    HW119364   1.901   1.396   2.891
 6155SOL    HW219365   1.743   1.352   2.896
 6156SOL     OW19366   5.123   4.802   1.654
 6156SOL    HW119367   5.050   4.843   1.599
 6156SOL    HW219368   5.173   4.874   1.702
 6157SOL     OW19369   1.151   2.648   2.022
 6157SOL    HW119370   1.120   2.615   2.111
 6157SOL    HW219371   1.100   2.601   1.950
 6158SOL     OW19372   3.011   2.220   4.753
 6158SOL    HW119373   3.046   2.257   4.839
 6158SOL    HW219374   3.087   2.180   4.701
 6159SOL     OW19375   6.630   2.899   1.222
 6159SOL    HW119376   6.537   2.894   1.258
 6159SOL    HW219377   6.635   2.971   1.152
 6160SOL     OW19378   1.595   0.786   1.057
 6160SOL    HW119379   1.532   0.725   1.009
 6160SOL    HW219380   1.653   0.833   0.991
 6161SOL     OW19381   4.143   2.902   6.426
 6161SOL    HW119382   4.046   2.912   6.444
 6161SOL    HW219383   4.175   2.979   6.371
 6162SOL     OW19384   6.502   5.267   2.870
 6162SOL    HW119385   6.497   5.214   2.954
 6162SOL    HW219386   6.579   5.331   2.875
 6163SOL     OW19387   5.704   6.299   3.686
 6163SOL    HW119388   5.663   6.285   3.776
 6163SOL    HW219389   5.698   6.396   3.662
 6164SOL     OW19390   2.922   3.502   4.725
 6164SOL    HW119391   2.843   3.442   4.733
 6164SOL    HW219392   2.940   3.522   4.629
 6165SOL     OW19393   3.738   1.361   0.059
 6165SOL    HW119394   3.756   1.318   6.997
 6165SOL    HW219395   3.816   1.419   0.084
 6166SOL     OW19396   1.882   3.099   6.641
 6166SOL    HW119397   1.892   3.029   6.712
 6166SOL    HW219398   1.800   3.081   6.587
 6167SOL     OW19399   1.817   3.623   3.101
 6167SOL    HW119400   1.794   3.560   3.176
 6167SOL    HW219401   1.863   3.704   3.139
 6168SOL     OW19402   0.823   3.976   3.367
 6168SOL    HW119403   0.828   4.063   3.417
 6168SOL    HW219404   0.774   3.991   3.281
 6169SOL     OW19405   2.271   0.520   0.048
 6169SOL    HW119406   2.297   0.517   6.978
 6169SOL    HW219407   2.295   0.609   0.086
 6170SOL     OW19408   2.984   3.907   0.075
 6170SOL    HW119409   2.931   3.866   0.002
 6170SOL    HW219410   3.081   3.907   0.051
 6171SOL     OW19411   2.002   3.836   2.162
 6171SOL    HW119412   1.938   3.907   2.191
 6171SOL    HW219413   1.982   3.809   2.068
 6172SOL     OW19414   2.044   5.739   2.683
 6172SOL    HW119415   2.050   5.745   2.783
 6172SOL    HW219416   1.954   5.705   2.657
 6173SOL     OW19417   1.034   5.861   2.100
 6173SOL    HW119418   1.070   5.902   2.184
 6173SOL    HW219419   0.943   5.896   2.082
 6174SOL     OW19420   5.620   5.165   2.833
 6174SOL    HW119421   5.570   5.121   2.759
 6174SOL    HW219422   5.718   5.152   2.819
 6175SOL     OW19423   5.124   0.320   3.344
 6175SOL    HW119424   5.221   0.322   3.321
 6175SOL    HW219425   5.070   0.325   3.260
 6176SOL     OW19426   6.338   3.133   5.620
 6176SOL    HW119427   6.291   3.202   5.565
 6176SOL    HW219428   6.433   3.125   5.589
 6177SOL     OW19429   6.699   2.829   0.847
 6177SOL    HW119430   6.625   2.768   0.876
 6177SOL    HW219431   6.698   2.911   0.904
 6178SOL     OW19432   5.858   3.247   1.153
 6178SOL    HW119433   5.836   3.152   1.176
 6178SOL    HW219434   5.901   3.291   1.232
 6179SOL     OW19435   0.598   1.974   5.866
 6179SOL    HW119436   0.658   1.996   5.943
 6179SOL    HW219437   0.503   1.991   5.892
 6180SOL     OW19438   3.359   6.966   0.039
 6180SOL    HW119439   3.418   7.024   7.008
 6180SOL    HW219440   3.371   6.870   0.013
 6181SOL     OW19441   5.071   6.266   0.131
 6181SOL    HW119442   5.062   6.337   0.201
 6181SOL    HW219443   5.163   6.268   0.093
 6182SOL     OW19444   4.312   6.260   6.708
 6182SOL    HW119445   4.344   6.202   6.783
 6182SOL    HW219446   4.229   6.308   6.735
 6183SOL     OW19447   3.404   0.306   3.330
 6183SOL    HW119448   3.388   0.207   3.333
 6183SOL    HW219449   3.321   0.354   3.360
 6184SOL     OW19450   0.601   0.375   6.909
 6184SOL    HW119451   0.628   0.323   6.990
 6184SOL    HW219452   0.501   0.377   6.902
 6185SOL     OW19453   0.988   3.629   5.589
 6185SOL    HW119454   1.060   3.662   5.528
 6185SOL    HW219455   1.023   3.555   5.647
 6186SOL     OW19456   6.095   0.202   4.846
 6186SOL    HW119457   6.039   0.285   4.846
 6186SOL    HW219458   6.118   0.177   4.752
 6187SOL     OW19459   3.836   5.068   4.306
 6187SOL    HW119460   3.869   5.057   4.400
 6187SOL    HW219461   3.876   4.996   4.248
 6188SOL     OW19462   2.629   6.428   1.377
 6188SOL    HW119463   2.670   6.358   1.435
 6188SOL    HW219464   2.655   6.519   1.410
 6189SOL     OW19465   6.269   4.802   3.381
 6189SOL    HW119466   6.183   4.850   3.401
 6189SOL    HW219467   6.291   4.813   3.284
 6190SOL     OW19468   5.364   2.657   0.155
 6190SOL    HW119469   5.387   2.584   0.219
 6190SOL    HW219470   5.435   2.665   0.086
 6191SOL     OW19471   6.474   2.635   6.795
 6191SOL    HW119472   6.468   2.577   6.877
 6191SOL    HW219473   6.386   2.679   6.779
 6192SOL     OW19474   3.104   3.025   0.145
 6192SOL    HW119475   3.147   2.946   0.103
 6192SOL    HW219476   3.154   3.108   0.119
 6193SOL     OW19477   6.250   0.083   1.177
 6193SOL    HW119478   6.191   0.076   1.258
 6193SOL    HW219479   6.259   0.179   1.150
 6194SOL     OW19480   2.295   0.605   0.428
 6194SOL    HW119481   2.266   0.568   0.340
 6194SOL    HW219482   2.331   0.531   0.485
 6195SOL     OW19483   3.320   0.037   6.144
 6195SOL    HW119484   3.318   0.136   6.133
 6195SOL    HW219485   3.316   0.014   6.241
 6196SOL     OW19486   0.300   1.454   6.397
 6196SOL    HW119487   0.381   1.397   6.410
 6196SOL    HW219488   0.293   1.482   6.301
 6197SOL     OW19489   2.389   3.474   0.404
 6197SOL    HW119490   2.390   3.531   0.485
 6197SOL    HW219491   2.453   3.398   0.415
 6198SOL     OW19492   4.091   4.789   2.811
 6198SOL    HW119493   4.107   4.761   2.716
 6198SOL    HW219494   3.992   4.792   2.829
 6199SOL     OW19495   1.672   6.852   6.122
 6199SOL    HW119496   1.614   6.812   6.194
 6199SOL    HW219497   1.709   6.779   6.065
 6200SOL     OW19498   4.114   0.127   6.107
 6200SOL    HW119499   4.142   0.223   6.101
 6200SOL    HW219500   4.014   0.122   6.114
 6201SOL     OW19501   1.855   4.528   4.902
 6201SOL    HW119502   1.772   4.515   4.848
 6201SOL    HW219503   1.837   4.593   4.975
 6202SOL     OW19504   3.152   2.262   1.334
 6202SOL    HW119505   3.185   2.320   1.409
 6202SOL    HW219506   3.144   2.168   1.366
 6203SOL     OW19507   4.444   1.611   5.475
 6203SOL    HW119508   4.390   1.564   5.406
 6203SOL    HW219509   4.533   1.637   5.435
 6204SOL     OW19510   1.683   6.504   5.715
 6204SOL    HW119511   1.634   6.479   5.799
 6204SOL    HW219512   1.734   6.588   5.730
 6205SOL     OW19513   5.431   5.988   0.048
 6205SOL    HW119514   5.403   5.902   0.006
 6205SOL    HW219515   5.524   5.980   0.083
 6206SOL     OW19516   5.377   0.320   3.247
 6206SOL    HW119517   5.413   0.232   3.216
 6206SOL    HW219518   5.368   0.381   3.168
 6207SOL     OW19519   1.682   3.784   4.628
 6207SOL    HW119520   1.689   3.743   4.719
 6207SOL    HW219521   1.763   3.840   4.610
 6208SOL     OW19522   5.780   6.647   5.739
 6208SOL    HW119523   5.682   6.665   5.748
 6208SOL    HW219524   5.793   6.552   5.709
 6209SOL     OW19525   3.481   5.285   0.972
 6209SOL    HW119526   3.439   5.325   1.054
 6209SOL    HW219527   3.447   5.333   0.891
 6210SOL     OW19528   5.917   4.473   3.702
 6210SOL    HW119529   5.911   4.435   3.609
 6210SOL    HW219530   5.904   4.572   3.699
 6211SOL     OW19531   2.805   0.315   4.840
 6211SOL    HW119532   2.713   0.353   4.834
 6211SOL    HW219533   2.824   0.258   4.760
 6212SOL     OW19534   6.847   6.597   3.396
 6212SOL    HW119535   6.863   6.685   3.351
 6212SOL    HW219536   6.753   6.568   3.378
 6213SOL     OW19537   0.191   6.249   6.393
 6213SOL    HW119538   0.201   6.337   6.440
 6213SOL    HW219539   0.269   6.234   6.333
 6214SOL     OW19540   6.448   4.758   2.995
 6214SOL    HW119541   6.447   4.818   3.075
 6214SOL    HW219542   6.512   4.683   3.010
 6215SOL     OW19543   3.058   3.761   0.815
 6215SOL    HW119544   3.086   3.737   0.722
 6215SOL    HW219545   2.976   3.817   0.811
 6216SOL     OW19546   5.912   1.353   2.928
 6216SOL    HW119547   5.998   1.304   2.935
 6216SOL    HW219548   5.852   1.306   2.863
 6217SOL     OW19549   5.492   3.330   1.901
 6217SOL    HW119550   5.397   3.319   1.871
 6217SOL    HW219551   5.536   3.241   1.905
 6218SOL     OW19552   3.625   5.347   5.540
 6218SOL    HW119553   3.553   5.311   5.599
 6218SOL    HW219554   3.646   5.281   5.468
 6219SOL     OW19555   0.682   1.685   4.718
 6219SOL    HW119556   0.766   1.659   4.766
 6219SOL    HW219557   0.663   1.617   4.647
 6220SOL     OW19558   1.839   4.154   5.155
 6220SOL    HW119559   1.890   4.238   5.134
 6220SOL    HW219560   1.903   4.084   5.186
 6221SOL     OW19561   3.544   5.087   4.894
 6221SOL    HW119562   3.496   5.142   4.826
 6221SOL    HW219563   3.479   5.057   4.964
 6222SOL     OW19564   6.909   1.129   0.823
 6222SOL    HW119565   6.912   1.210   0.881
 6222SOL    HW219566   6.884   1.050   0.877
 6223SOL     OW19567   5.002   3.171   4.863
 6223SOL    HW119568   5.100   3.172   4.845
 6223SOL    HW219569   4.970   3.264   4.881
 6224SOL     OW19570   2.630   1.107   5.278
 6224SOL    HW119571   2.623   1.008   5.270
 6224SOL    HW219572   2.649   1.132   5.373
 6225SOL     OW19573   3.869   2.682   0.464
 6225SOL    HW119574   3.860   2.699   0.366
 6225SOL    HW219575   3.841   2.763   0.515
 6226SOL     OW19576   5.515   0.347   4.891
 6226SOL    HW119577   5.487   0.432   4.935
 6226SOL    HW219578   5.475   0.342   4.800
 6227SOL     OW19579   3.359   4.855   6.299
 6227SOL    HW119580   3.400   4.784   6.242
 6227SOL    HW219581   3.426   4.887   6.366
 6228SOL     OW19582   6.714   0.661   3.670
 6228SOL    HW119583   6.796   0.713   3.649
 6228SOL    HW219584   6.657   0.654   3.588
 6229SOL     OW19585   2.377   2.680   2.106
 6229SOL    HW119586   2.312   2.604   2.116
 6229SOL    HW219587   2.470   2.644   2.105
 6230SOL     OW19588   2.543   2.073   3.534
 6230SOL    HW119589   2.449   2.069   3.567
 6230SOL    HW219590   2.604   2.030   3.601
 6231SOL     OW19591   0.049   4.999   1.625
 6231SOL    HW119592   7.008   4.965   1.690
 6231SOL    HW219593   0.141   4.976   1.657
 6232SOL     OW19594   0.997   1.244   6.716
 6232SOL    HW119595   1.057   1.168   6.743
 6232SOL    HW219596   1.049   1.311   6.664
 6233SOL     OW19597   4.662   2.246   0.088
 6233SOL    HW119598   4.678   2.228   0.185
 6233SOL    HW219599   4.675   2.161   0.035
 6234SOL     OW19600   2.572   2.204   3.924
 6234SOL    HW119601   2.516   2.226   4.004
 6234SOL    HW219602   2.526   2.133   3.870
 6235SOL     OW19603   2.632   6.552   3.199
 6235SOL    HW119604   2.569   6.476   3.215
 6235SOL    HW219605   2.606   6.630   3.255
 6236SOL     OW19606   6.741   4.307   0.464
 6236SOL    HW119607   6.697   4.225   0.500
 6236SOL    HW219608   6.722   4.384   0.524
 6237SOL     OW19609   4.491   0.013   0.799
 6237SOL    HW119610   4.453   6.953   0.766
 6237SOL    HW219611   4.589   0.002   0.816
 6238SOL     OW19612   4.695   4.716   1.510
 6238SOL    HW119613   4.700   4.693   1.413
 6238SOL    HW219614   4.778   4.685   1.556
 6239SOL     OW19615   2.792   0.255   3.653
 6239SOL    HW119616   2.756   0.338   3.611
 6239SOL    HW219617   2.742   0.176   3.620
 6240SOL     OW19618   2.056   3.999   0.792
 6240SOL    HW119619   2.039   3.930   0.722
 6240SOL    HW219620   2.005   4.082   0.769
 6241SOL     OW19621   4.815   0.436   1.476
 6241SOL    HW119622   4.828   0.469   1.570
 6241SOL    HW219623   4.775   0.344   1.479
 6242SOL     OW19624   4.490   1.892   3.471
 6242SOL    HW119625   4.525   1.952   3.398
 6242SOL    HW219626   4.518   1.797   3.452
 6243SOL     OW19627   6.494   5.664   3.790
 6243SOL    HW119628   6.529   5.741   3.737
 6243SOL    HW219629   6.433   5.609   3.732
 6244SOL     OW19630   2.378   1.540   2.170
 6244SOL    HW119631   2.347   1.466   2.230
 6244SOL    HW219632   2.460   1.581   2.209
 6245SOL     OW19633   3.002   4.426   0.576
 6245SOL    HW119634   2.934   4.353   0.562
 6245SOL    HW219635   3.067   4.426   0.500
 6246SOL     OW19636   2.601   0.906   6.099
 6246SOL    HW119637   2.695   0.937   6.109
 6246SOL    HW219638   2.592   0.813   6.133
 6247SOL     OW19639   0.197   6.018   2.555
 6247SOL    HW119640   0.261   5.948   2.523
 6247SOL    HW219641   0.197   6.095   2.491
 6248SOL     OW19642   0.298   4.677   1.588
 6248SOL    HW119643   0.376   4.617   1.604
 6248SOL    HW219644   0.322   4.746   1.520
 6249SOL     OW19645   5.215   3.976   6.362
 6249SOL    HW119646   5.253   3.917   6.291
 6249SOL    HW219647   5.278   3.979   6.440
 6250SOL     OW19648   5.346   5.863   6.547
 6250SOL    HW119649   5.261   5.811   6.537
 6250SOL    HW219650   5.409   5.838   6.473
 6251SOL     OW19651   4.340   1.677   0.867
 6251SOL    HW119652   4.321   1.628   0.952
 6251SOL    HW219653   4.254   1.709   0.827
 6252SOL     OW19654   2.280   6.183   5.260
 6252SOL    HW119655   2.266   6.244   5.339
 6252SOL    HW219656   2.226   6.217   5.183
 6253SOL     OW19657   1.635   3.790   1.271
 6253SOL    HW119658   1.726   3.751   1.261
 6253SOL    HW219659   1.571   3.743   1.210
 6254SOL     OW19660   5.333   0.684   0.261
 6254SOL    HW119661   5.433   0.687   0.262
 6254SOL    HW219662   5.302   0.661   0.169
 6255SOL     OW19663   0.627   1.357   2.330
 6255SOL    HW119664   0.532   1.381   2.315
 6255SOL    HW219665   0.673   1.344   2.242
 6256SOL     OW19666   3.178   4.967   2.856
 6256SOL    HW119667   3.190   4.896   2.786
 6256SOL    HW219668   3.080   4.980   2.873
 6257SOL     OW19669   5.282   2.637   6.695
 6257SOL    HW119670   5.206   2.576   6.672
 6257SOL    HW219671   5.274   2.665   6.791
 6258SOL     OW19672   5.237   1.344   2.605
 6258SOL    HW119673   5.173   1.363   2.531
 6258SOL    HW219674   5.189   1.299   2.681
 6259SOL     OW19675   2.855   2.600   1.661
 6259SOL    HW119676   2.897   2.557   1.740
 6259SOL    HW219677   2.807   2.531   1.607
 6260SOL     OW19678   3.732   3.349   6.774
 6260SOL    HW119679   3.800   3.419   6.797
 6260SOL    HW219680   3.703   3.302   6.858
 6261SOL     OW19681   4.001   1.014   0.405
 6261SOL    HW119682   3.953   1.102   0.398
 6261SOL    HW219683   4.097   1.027   0.379
 6262SOL     OW19684   0.117   5.320   6.094
 6262SOL    HW119685   0.125   5.226   6.062
 6262SOL    HW219686   0.148   5.383   6.022
 6263SOL     OW19687   6.335   0.515   0.653
 6263SOL    HW119688   6.244   0.516   0.610
 6263SOL    HW219689   6.347   0.597   0.708
 6264SOL     OW19690   2.391   1.812   0.470
 6264SOL    HW119691   2.398   1.877   0.546
 6264SOL    HW219692   2.324   1.741   0.494
 6265SOL     OW19693   3.687   2.947   1.188
 6265SOL    HW119694   3.655   2.898   1.269
 6265SOL    HW219695   3.617   2.943   1.117
 6266SOL     OW19696   2.502   0.027   2.771
 6266SOL    HW119697   2.442   0.062   2.699
 6266SOL    HW219698   2.554   0.103   2.811
 6267SOL     OW19699   3.125   7.026   6.640
 6267SOL    HW119700   3.132   0.004   6.740
 6267SOL    HW219701   3.110   0.091   6.604
 6268SOL     OW19702   3.357   5.150   2.704
 6268SOL    HW119703   3.300   5.093   2.762
 6268SOL    HW219704   3.365   5.241   2.744
 6269SOL     OW19705   6.337   4.586   0.653
 6269SOL    HW119706   6.342   4.644   0.735
 6269SOL    HW219707   6.399   4.621   0.583
 6270SOL     OW19708   0.485   0.931   4.668
 6270SOL    HW119709   0.406   0.951   4.610
 6270SOL    HW219710   0.459   0.935   4.764
 6271SOL     OW19711   5.689   1.647   0.820
 6271SOL    HW119712   5.671   1.742   0.793
 6271SOL    HW219713   5.698   1.590   0.738
 6272SOL     OW19714   1.459   2.037   3.390
 6272SOL    HW119715   1.421   2.098   3.322
 6272SOL    HW219716   1.410   2.048   3.477
 6273SOL     OW19717   3.688   1.041   1.458
 6273SOL    HW119718   3.707   0.974   1.529
 6273SOL    HW219719   3.591   1.039   1.435
 6274SOL     OW19720   3.647   6.982   6.710
 6274SOL    HW119721   3.721   6.943   6.765
 6274SOL    HW219722   3.686   0.007   6.634
 6275SOL     OW19723   2.677   1.148   4.725
 6275SOL    HW119724   2.659   1.245   4.705
 6275SOL    HW219725   2.742   1.142   4.801
 6276SOL     OW19726   1.334   5.615   3.889
 6276SOL    HW119727   1.354   5.539   3.828
 6276SOL    HW219728   1.284   5.582   3.969
 6277SOL     OW19729   5.491   3.319   2.935
 6277SOL    HW119730   5.555   3.244   2.952
 6277SOL    HW219731   5.514   3.364   2.848
 6278SOL     OW19732   5.405   0.421   4.341
 6278SOL    HW119733   5.316   0.466   4.348
 6278SOL    HW219734   5.465   0.475   4.282
 6279SOL     OW19735   5.320   1.654   0.361
 6279SOL    HW119736   5.234   1.673   0.314
 6279SOL    HW219737   5.301   1.604   0.446
 6280SOL     OW19738   0.430   4.602   5.860
 6280SOL    HW119739   0.382   4.546   5.927
 6280SOL    HW219740   0.463   4.543   5.786
 6281SOL     OW19741   2.885   6.754   5.460
 6281SOL    HW119742   2.958   6.701   5.417
 6281SOL    HW219743   2.892   6.850   5.432
 6282SOL     OW19744   1.700   6.764   3.791
 6282SOL    HW119745   1.666   6.765   3.696
 6282SOL    HW219746   1.643   6.824   3.847
 6283SOL     OW19747   0.046   2.261   5.219
 6283SOL    HW119748   0.018   2.166   5.207
 6283SOL    HW219749   0.139   2.273   5.185
 6284SOL     OW19750   2.155   4.196   6.052
 6284SOL    HW119751   2.069   4.169   6.097
 6284SOL    HW219752   2.196   4.271   6.104
 6285SOL     OW19753   1.840   4.453   2.117
 6285SOL    HW119754   1.877   4.403   2.038
 6285SOL    HW219755   1.914   4.474   2.180
 6286SOL     OW19756   5.803   1.218   4.465
 6286SOL    HW119757   5.890   1.261   4.439
 6286SOL    HW219758   5.733   1.240   4.397
 6287SOL     OW19759   4.803   4.430   2.023
 6287SOL    HW119760   4.725   4.372   1.998
 6287SOL    HW219761   4.855   4.384   2.095
 6288SOL     OW19762   5.113   3.302   0.942
 6288SOL    HW119763   5.148   3.391   0.970
 6288SOL    HW219764   5.022   3.287   0.981
 6289SOL     OW19765   1.441   0.970   3.360
 6289SOL    HW119766   1.524   0.955   3.306
 6289SOL    HW219767   1.392   1.049   3.323
 6290SOL     OW19768   5.808   3.496   3.533
 6290SOL    HW119769   5.893   3.516   3.486
 6290SOL    HW219770   5.731   3.534   3.481
 6291SOL     OW19771   3.452   4.110   2.947
 6291SOL    HW119772   3.362   4.098   2.905
 6291SOL    HW219773   3.460   4.049   3.026
 6292SOL     OW19774   1.199   2.019   1.950
 6292SOL    HW119775   1.128   2.015   2.021
 6292SOL    HW219776   1.166   2.071   1.872
 6293SOL     OW19777   4.807   6.816   0.309
 6293SOL    HW119778   4.862   6.801   0.226
 6293SOL    HW219779   4.868   6.824   0.388
 6294SOL     OW19780   4.567   5.294   2.378
 6294SOL    HW119781   4.490   5.237   2.351
 6294SOL    HW219782   4.535   5.368   2.437
 6295SOL     OW19783   5.882   6.776   6.265
 6295SOL    HW119784   5.976   6.796   6.291
 6295SOL    HW219785   5.881   6.705   6.195
 6296SOL     OW19786   6.471   0.958   3.209
 6296SOL    HW119787   6.390   1.005   3.173
 6296SOL    HW219788   6.464   0.952   3.309
 6297SOL     OW19789   5.397   0.063   5.738
 6297SOL    HW119790   5.328   7.025   5.772
 6297SOL    HW219791   5.370   0.156   5.761
 6298SOL     OW19792   1.286   1.997   4.697
 6298SOL    HW119793   1.242   2.067   4.754
 6298SOL    HW219794   1.318   2.038   4.612
 6299SOL     OW19795   6.371   3.107   0.093
 6299SOL    HW119796   6.445   3.055   0.136
 6299SOL    HW219797   6.372   3.201   0.129
 6300SOL     OW19798   5.545   0.667   3.976
 6300SOL    HW119799   5.616   0.728   3.940
 6300SOL    HW219800   5.581   0.618   4.056
 6301SOL     OW19801   2.836   6.793   0.633
 6301SOL    HW119802   2.810   6.863   0.699
 6301SOL    HW219803   2.796   6.705   0.660
 6302SOL     OW19804   1.039   0.678   3.724
 6302SOL    HW119805   1.115   0.620   3.697
 6302SOL    HW219806   1.011   0.655   3.817
 6303SOL     OW19807   2.191   5.946   5.399
 6303SOL    HW119808   2.135   5.979   5.475
 6303SOL    HW219809   2.209   6.021   5.335
 6304SOL     OW19810   3.332   1.313   6.524
 6304SOL    HW119811   3.257   1.247   6.515
 6304SOL    HW219812   3.383   1.316   6.438
 6305SOL     OW19813   6.072   1.071   1.496
 6305SOL    HW119814   6.042   1.160   1.464
 6305SOL    HW219815   6.052   1.002   1.427
 6306SOL     OW19816   6.012   2.585   4.133
 6306SOL    HW119817   5.988   2.535   4.216
 6306SOL    HW219818   5.991   2.529   4.053
 6307SOL     OW19819   2.680   4.793   0.811
 6307SOL    HW119820   2.622   4.855   0.863
 6307SOL    HW219821   2.776   4.818   0.822
 6308SOL     OW19822   2.957   2.368   5.322
 6308SOL    HW119823   2.905   2.331   5.245
 6308SOL    HW219824   3.033   2.307   5.343
 6309SOL     OW19825   5.785   1.958   4.293
 6309SOL    HW119826   5.802   1.898   4.214
 6309SOL    HW219827   5.780   2.053   4.262
 6310SOL     OW19828   1.421   4.860   4.700
 6310SOL    HW119829   1.432   4.874   4.798
 6310SOL    HW219830   1.380   4.770   4.683
 6311SOL     OW19831   6.306   0.292   4.987
 6311SOL    HW119832   6.393   0.246   4.971
 6311SOL    HW219833   6.232   0.238   4.947
 6312SOL     OW19834   4.345   4.989   5.816
 6312SOL    HW119835   4.415   5.015   5.882
 6312SOL    HW219836   4.383   4.922   5.753
 6313SOL     OW19837   2.705   4.965   3.206
 6313SOL    HW119838   2.697   5.002   3.299
 6313SOL    HW219839   2.725   5.039   3.142
 6314SOL     OW19840   3.361   6.260   3.705
 6314SOL    HW119841   3.400   6.295   3.620
 6314SOL    HW219842   3.389   6.165   3.718
 6315SOL     OW19843   3.219   3.230   0.789
 6315SOL    HW119844   3.180   3.138   0.781
 6315SOL    HW219845   3.198   3.283   0.707
 6316SOL     OW19846   5.266   1.660   6.085
 6316SOL    HW119847   5.167   1.671   6.077
 6316SOL    HW219848   5.291   1.655   6.182
 6317SOL     OW19849   6.182   5.961   4.227
 6317SOL    HW119850   6.257   5.959   4.161
 6317SOL    HW219851   6.218   5.946   4.319
 6318SOL     OW19852   2.553   1.723   4.860
 6318SOL    HW119853   2.635   1.672   4.833
 6318SOL    HW219854   2.472   1.667   4.844
 6319SOL     OW19855   0.708   1.838   2.712
 6319SOL    HW119856   0.630   1.865   2.656
 6319SOL    HW219857   0.792   1.845   2.659
 6320SOL     OW19858   6.820   2.864   3.551
 6320SOL    HW119859   6.910   2.905   3.567
 6320SOL    HW219860   6.802   2.795   3.621
 6321SOL     OW19861   2.191   3.769   0.520
 6321SOL    HW119862   2.108   3.724   0.553
 6321SOL    HW219863   2.271   3.725   0.561
 6322SOL     OW19864   1.171   1.104   0.037
 6322SOL    HW119865   1.248   1.047   0.008
 6322SOL    HW219866   1.205   1.194   0.063
 6323SOL     OW19867   3.887   1.921   0.813
 6323SOL    HW119868   3.929   2.006   0.780
 6323SOL    HW219869   3.793   1.915   0.780
 6324SOL     OW19870   4.446   1.112   6.455
 6324SOL    HW119871   4.484   1.203   6.468
 6324SOL    HW219872   4.419   1.100   6.360
 6325SOL     OW19873   1.426   2.135   2.264
 6325SOL    HW119874   1.337   2.181   2.267
 6325SOL    HW219875   1.441   2.085   2.349
 6326SOL     OW19876   5.093   5.801   1.194
 6326SOL    HW119877   5.090   5.738   1.117
 6326SOL    HW219878   5.028   5.773   1.264
 6327SOL     OW19879   5.010   5.509   5.805
 6327SOL    HW119880   5.059   5.447   5.745
 6327SOL    HW219881   4.935   5.552   5.755
 6328SOL     OW19882   2.768   4.060   6.217
 6328SOL    HW119883   2.764   3.994   6.142
 6328SOL    HW219884   2.833   4.028   6.285
 6329SOL     OW19885   0.963   1.665   3.307
 6329SOL    HW119886   1.058   1.692   3.294
 6329SOL    HW219887   0.937   1.677   3.403
 6330SOL     OW19888   3.218   1.825   0.376
 6330SOL    HW119889   3.263   1.908   0.407
 6330SOL    HW219890   3.259   1.746   0.422
 6331SOL     OW19891   5.920   3.443   1.817
 6331SOL    HW119892   6.017   3.431   1.838
 6331SOL    HW219893   5.881   3.355   1.789
 6332SOL     OW19894   5.541   6.446   1.568
 6332SOL    HW119895   5.483   6.487   1.639
 6332SOL    HW219896   5.608   6.513   1.537
 6333SOL     OW19897   2.611   4.840   2.864
 6333SOL    HW119898   2.575   4.925   2.902
 6333SOL    HW219899   2.654   4.786   2.936
 6334SOL     OW19900   2.493   1.654   2.742
 6334SOL    HW119901   2.459   1.739   2.783
 6334SOL    HW219902   2.548   1.676   2.661
 6335SOL     OW19903   6.539   1.375   0.161
 6335SOL    HW119904   6.492   1.437   0.225
 6335SOL    HW219905   6.616   1.422   0.119
 6336SOL     OW19906   0.513   2.669   5.179
 6336SOL    HW119907   0.580   2.728   5.224
 6336SOL    HW219908   0.428   2.719   5.166
 6337SOL     OW19909   6.543   4.768   5.310
 6337SOL    HW119910   6.527   4.674   5.339
 6337SOL    HW219911   6.641   4.785   5.305
 6338SOL     OW19912   3.948   1.088   3.645
 6338SOL    HW119913   4.014   1.074   3.571
 6338SOL    HW219914   3.968   1.025   3.720
 6339SOL     OW19915   6.957   1.998   4.562
 6339SOL    HW119916   6.949   2.095   4.538
 6339SOL    HW219917   6.936   1.986   4.659
 6340SOL     OW19918   2.112   5.440   4.088
 6340SOL    HW119919   2.062   5.438   4.174
 6340SOL    HW219920   2.139   5.347   4.063
 6341SOL     OW19921   6.799   4.006   2.976
 6341SOL    HW119922   6.874   3.996   3.041
 6341SOL    HW219923   6.823   3.964   2.889
 6342SOL     OW19924   1.473   2.856   0.813
 6342SOL    HW119925   1.451   2.907   0.897
 6342SOL    HW219926   1.410   2.883   0.740
 6343SOL     OW19927   3.865   1.190   6.884
 6343SOL    HW119928   3.909   1.250   6.817
 6343SOL    HW219929   3.911   1.101   6.885
 6344SOL     OW19930   0.708   4.109   4.293
 6344SOL    HW119931   0.716   4.175   4.368
 6344SOL    HW219932   0.781   4.042   4.300
 6345SOL     OW19933   3.332   2.040   2.496
 6345SOL    HW119934   3.426   2.039   2.462
 6345SOL    HW219935   3.269   2.037   2.418
 6346SOL     OW19936   0.666   5.009   3.926
 6346SOL    HW119937   0.716   5.019   3.840
 6346SOL    HW219938   0.618   5.095   3.947
 6347SOL     OW19939   3.702   0.551   1.667
 6347SOL    HW119940   3.771   0.493   1.623
 6347SOL    HW219941   3.736   0.583   1.755
 6348SOL     OW19942   1.616   2.719   4.349
 6348SOL    HW119943   1.631   2.708   4.250
 6348SOL    HW219944   1.568   2.805   4.366
 6349SOL     OW19945   2.393   0.206   0.380
 6349SOL    HW119946   2.436   0.148   0.449
 6349SOL    HW219947   2.448   0.205   0.296
 6350SOL     OW19948   1.481   6.078   2.143
 6350SOL    HW119949   1.385   6.093   2.165
 6350SOL    HW219950   1.489   6.039   2.052
 6351SOL     OW19951   0.354   1.312   2.871
 6351SOL    HW119952   0.375   1.219   2.900
 6351SOL    HW219953   0.334   1.312   2.773
 6352SOL     OW19954   6.983   5.941   1.857
 6352SOL    HW119955   0.017   5.996   1.799
 6352SOL    HW219956   6.944   5.999   1.928
 6353SOL     OW19957   0.222   6.705   2.312
 6353SOL    HW119958   0.298   6.692   2.249
 6353SOL    HW219959   0.163   6.779   2.279
 6354SOL     OW19960   0.588   6.844   3.736
 6354SOL    HW119961   0.490   6.842   3.720
 6354SOL    HW219962   0.622   6.750   3.746
 6355SOL     OW19963   2.162   2.340   2.823
 6355SOL    HW119964   2.173   2.273   2.749
 6355SOL    HW219965   2.198   2.301   2.908
 6356SOL     OW19966   3.398   3.622   1.219
 6356SOL    HW119967   3.299   3.610   1.207
 6356SOL    HW219968   3.425   3.587   1.309
 6357SOL     OW19969   4.365   2.154   0.177
 6357SOL    HW119970   4.449   2.138   0.229
 6357SOL    HW219971   4.304   2.214   0.229
 6358SOL     OW19972   0.410   2.317   3.836
 6358SOL    HW119973   0.337   2.341   3.772
 6358SOL    HW219974   0.430   2.396   3.894
 6359SOL     OW19975   0.122   1.124   6.960
 6359SOL    HW119976   0.078   1.040   6.992
 6359SOL    HW219977   0.217   1.104   6.936
 6360SOL     OW19978   2.959   5.812   4.197
 6360SOL    HW119979   2.961   5.769   4.288
 6360SOL    HW219980   2.906   5.897   4.202
 6361SOL     OW19981   3.997   6.373   6.133
 6361SOL    HW119982   4.016   6.292   6.189
 6361SOL    HW219983   3.904   6.406   6.152
 6362SOL     OW19984   6.188   5.071   6.372
 6362SOL    HW119985   6.181   5.118   6.460
 6362SOL    HW219986   6.258   5.115   6.316
 6363SOL     OW19987   0.924   5.993   3.863
 6363SOL    HW119988   0.901   5.923   3.930
 6363SOL    HW219989   0.967   5.950   3.784
 6364SOL     OW19990   2.511   2.603   5.976
 6364SOL    HW119991   2.525   2.528   5.911
 6364SOL    HW219992   2.597   2.623   6.023
 6365SOL     OW19993   5.177   5.989   2.551
 6365SOL    HW119994   5.077   5.988   2.552
 6365SOL    HW219995   5.212   5.940   2.631
 6366SOL     OW19996   6.999   4.846   6.234
 6366SOL    HW119997   6.912   4.813   6.270
 6366SOL    HW219998   0.011   4.777   6.172
 6367SOL     OW19999   6.044   6.343   3.211
 6367SOL    HW120000   6.096   6.427   3.196
 6367SOL    HW220001   6.076   6.273   3.148
 6368SOL     OW20002   2.611   0.363   3.848
 6368SOL    HW120003   2.698   0.315   3.846
 6368SOL    HW220004   2.590   0.389   3.942
 6369SOL     OW20005   2.381   5.258   4.667
 6369SOL    HW120006   2.296   5.311   4.674
 6369SOL    HW220007   2.407   5.226   4.758
 6370SOL     OW20008   6.219   2.702   1.703
 6370SOL    HW120009   6.169   2.788   1.692
 6370SOL    HW220010   6.154   2.626   1.714
 6371SOL     OW20011   4.964   2.232   2.834
 6371SOL    HW120012   4.912   2.256   2.752
 6371SOL    HW220013   4.970   2.311   2.894
 6372SOL     OW20014   2.969   6.367   2.665
 6372SOL    HW120015   2.907   6.305   2.617
 6372SOL    HW220016   2.918   6.419   2.733
 6373SOL     OW20017   3.592   4.571   0.219
 6373SOL    HW120018   3.580   4.476   0.192
 6373SOL    HW220019   3.687   4.586   0.248
 6374SOL     OW20020   3.294   2.939   2.475
 6374SOL    HW120021   3.201   2.925   2.508
 6374SOL    HW220022   3.293   2.942   2.375
 6375SOL     OW20023   2.083   6.408   2.534
 6375SOL    HW120024   1.992   6.377   2.564
 6375SOL    HW220025   2.120   6.344   2.467
 6376SOL     OW20026   0.709   2.792   5.606
 6376SOL    HW120027   0.782   2.768   5.542
 6376SOL    HW220028   0.736   2.765   5.699
 6377SOL     OW20029   0.806   0.659   4.524
 6377SOL    HW120030   0.711   0.646   4.494
 6377SOL    HW220031   0.865   0.600   4.469
 6378SOL     OW20032   4.814   4.437   3.584
 6378SOL    HW120033   4.730   4.448   3.636
 6378SOL    HW220034   4.802   4.365   3.515
 6379SOL     OW20035   2.378   4.345   3.046
 6379SOL    HW120036   2.369   4.322   3.143
 6379SOL    HW220037   2.444   4.419   3.036
 6380SOL     OW20038   0.998   0.191   6.003
 6380SOL    HW120039   0.904   0.185   5.971
 6380SOL    HW220040   1.041   0.101   5.998
 6381SOL     OW20041   3.089   3.776   2.570
 6381SOL    HW120042   3.168   3.837   2.563
 6381SOL    HW220043   3.013   3.814   2.518
 6382SOL     OW20044   1.429   4.131   5.370
 6382SOL    HW120045   1.400   4.215   5.324
 6382SOL    HW220046   1.403   4.135   5.467
 6383SOL     OW20047   3.895   1.498   4.148
 6383SOL    HW120048   3.989   1.506   4.117
 6383SOL    HW220049   3.870   1.401   4.156
 6384SOL     OW20050   6.436   4.448   3.359
 6384SOL    HW120051   6.375   4.426   3.284
 6384SOL    HW220052   6.435   4.373   3.426
 6385SOL     OW20053   0.647   5.976   4.855
 6385SOL    HW120054   0.674   5.936   4.768
 6385SOL    HW220055   0.686   5.922   4.930
 6386SOL     OW20056   3.005   5.466   1.597
 6386SOL    HW120057   2.987   5.418   1.511
 6386SOL    HW220058   3.084   5.425   1.642
 6387SOL     OW20059   6.459   1.159   5.150
 6387SOL    HW120060   6.381   1.200   5.197
 6387SOL    HW220061   6.436   1.065   5.124
 6388SOL     OW20062   2.475   4.810   2.625
 6388SOL    HW120063   2.481   4.900   2.580
 6388SOL    HW220064   2.558   4.794   2.679
 6389SOL     OW20065   0.848   4.817   2.485
 6389SOL    HW120066   0.820   4.721   2.476
 6389SOL    HW220067   0.861   4.839   2.582
 6390SOL     OW20068   0.427   3.530   4.081
 6390SOL    HW120069   0.466   3.620   4.062
 6390SOL    HW220070   0.444   3.506   4.177
 6391SOL     OW20071   3.288   1.268   0.082
 6391SOL    HW120072   3.349   1.193   0.108
 6391SOL    HW220073   3.322   1.311   7.024
 6392SOL     OW20074   1.714   6.432   3.679
 6392SOL    HW120075   1.619   6.460   3.669
 6392SOL    HW220076   1.763   6.498   3.735
 6393SOL     OW20077   5.530   0.684   0.647
 6393SOL    HW120078   5.490   0.596   0.621
 6393SOL    HW220079   5.528   0.746   0.568
 6394SOL     OW20080   3.226   4.761   1.483
 6394SOL    HW120081   3.271   4.699   1.547
 6394SOL    HW220082   3.141   4.795   1.522
 6395SOL     OW20083   5.699   1.525   1.104
 6395SOL    HW120084   5.687   1.426   1.092
 6395SOL    HW220085   5.709   1.568   1.014
 6396SOL     OW20086   5.448   4.049   5.418
 6396SOL    HW120087   5.438   4.071   5.320
 6396SOL    HW220088   5.370   4.085   5.468
 6397SOL     OW20089   7.021   0.624   0.764
 6397SOL    HW120090   0.046   0.593   0.684
 6397SOL    HW220091   0.045   0.603   0.847
 6398SOL     OW20092   3.926   1.687   1.492
 6398SOL    HW120093   3.855   1.651   1.553
 6398SOL    HW220094   4.005   1.627   1.494
 6399SOL     OW20095   2.474   5.451   0.124
 6399SOL    HW120096   2.402   5.520   0.113
 6399SOL    HW220097   2.554   5.478   0.071
 6400SOL     OW20098   2.636   5.667   4.243
 6400SOL    HW120099   2.703   5.647   4.315
 6400SOL    HW220100   2.651   5.759   4.208
 6401SOL     OW20101   0.735   5.023   3.649
 6401SOL    HW120102   0.827   5.005   3.614
 6401SOL    HW220103   0.685   4.937   3.656
 6402SOL     OW20104   1.875   1.881   3.406
 6402SOL    HW120105   1.794   1.882   3.347
 6402SOL    HW220106   1.929   1.799   3.388
 6403SOL     OW20107   0.361   5.747   1.011
 6403SOL    HW120108   0.388   5.685   1.085
 6403SOL    HW220109   0.268   5.727   0.983
 6404SOL     OW20110   4.957   0.389   3.140
 6404SOL    HW120111   4.983   0.484   3.158
 6404SOL    HW220112   4.865   0.371   3.176
 6405SOL     OW20113   3.017   1.065   2.062
 6405SOL    HW120114   2.941   1.012   2.023
 6405SOL    HW220115   2.981   1.147   2.105
 6406SOL     OW20116   2.485   1.941   3.857
 6406SOL    HW120117   2.418   1.951   3.783
 6406SOL    HW220118   2.505   1.843   3.869
 6407SOL     OW20119   4.023   5.143   6.262
 6407SOL    HW120120   4.061   5.092   6.185
 6407SOL    HW220121   3.948   5.201   6.230
 6408SOL     OW20122   6.343   1.952   0.089
 6408SOL    HW120123   6.262   1.983   0.139
 6408SOL    HW220124   6.327   1.958   7.017
 6409SOL     OW20125   0.979   4.801   2.232
 6409SOL    HW120126   1.020   4.710   2.235
 6409SOL    HW220127   0.957   4.830   2.326
 6410SOL     OW20128   0.908   1.614   1.542
 6410SOL    HW120129   0.922   1.573   1.632
 6410SOL    HW220130   0.854   1.698   1.552
 6411SOL     OW20131   1.672   0.456   3.648
 6411SOL    HW120132   1.741   0.467   3.576
 6411SOL    HW220133   1.706   0.497   3.733
 6412SOL     OW20134   0.299   1.683   4.572
 6412SOL    HW120135   0.248   1.744   4.512
 6412SOL    HW220136   0.343   1.736   4.645
 6413SOL     OW20137   6.974   4.533   0.807
 6413SOL    HW120138   6.962   4.466   0.880
 6413SOL    HW220139   0.006   4.495   0.736
 6414SOL     OW20140   6.163   6.841   2.332
 6414SOL    HW120141   6.137   6.790   2.250
 6414SOL    HW220142   6.164   6.780   2.411
 6415SOL     OW20143   1.557   1.715   2.075
 6415SOL    HW120144   1.505   1.637   2.038
 6415SOL    HW220145   1.504   1.758   2.148
 6416SOL     OW20146   1.994   6.829   6.752
 6416SOL    HW120147   1.954   6.920   6.759
 6416SOL    HW220148   2.013   6.808   6.655
 6417SOL     OW20149   0.941   0.043   3.187
 6417SOL    HW120150   0.926   0.007   3.095
 6417SOL    HW220151   1.011   0.114   3.185
 6418SOL     OW20152   6.697   5.931   2.579
 6418SOL    HW120153   6.679   6.008   2.519
 6418SOL    HW220154   6.621   5.919   2.643
 6419SOL     OW20155   2.996   4.869   1.566
 6419SOL    HW120156   2.922   4.837   1.625
 6419SOL    HW220157   3.009   4.967   1.577
 6420SOL     OW20158   0.769   3.568   6.447
 6420SOL    HW120159   0.768   3.660   6.485
 6420SOL    HW220160   0.863   3.534   6.443
 6421SOL     OW20161   5.453   1.705   1.021
 6421SOL    HW120162   5.457   1.802   1.045
 6421SOL    HW220163   5.545   1.673   0.998
 6422SOL     OW20164   6.276   1.646   3.243
 6422SOL    HW120165   6.266   1.608   3.335
 6422SOL    HW220166   6.279   1.746   3.248
 6423SOL     OW20167   4.982   4.228   0.561
 6423SOL    HW120168   4.969   4.327   0.557
 6423SOL    HW220169   4.962   4.188   0.471
 6424SOL     OW20170   6.472   5.542   5.125
 6424SOL    HW120171   6.555   5.592   5.100
 6424SOL    HW220172   6.439   5.490   5.046
 6425SOL     OW20173   0.303   5.027   1.729
 6425SOL    HW120174   0.313   5.126   1.740
 6425SOL    HW220175   0.394   4.985   1.727
 6426SOL     OW20176   6.594   2.965   3.393
 6426SOL    HW120177   6.593   2.940   3.297
 6426SOL    HW220178   6.682   2.939   3.434
 6427SOL     OW20179   1.715   3.485   5.377
 6427SOL    HW120180   1.728   3.559   5.443
 6427SOL    HW220181   1.785   3.491   5.306
 6428SOL     OW20182   6.344   2.801   2.775
 6428SOL    HW120183   6.419   2.779   2.713
 6428SOL    HW220184   6.257   2.779   2.732
 6429SOL     OW20185   0.991   0.451   4.390
 6429SOL    HW120186   0.934   0.486   4.316
 6429SOL    HW220187   0.942   0.377   4.437
 6430SOL     OW20188   5.903   3.579   0.590
 6430SOL    HW120189   5.889   3.667   0.636
 6430SOL    HW220190   5.998   3.551   0.601
 6431SOL     OW20191   5.406   0.453   3.011
 6431SOL    HW120192   5.465   0.446   2.931
 6431SOL    HW220193   5.368   0.545   3.016
 6432SOL     OW20194   5.810   3.248   0.139
 6432SOL    HW120195   5.786   3.239   0.042
 6432SOL    HW220196   5.773   3.334   0.174
 6433SOL     OW20197   2.525   3.806   1.646
 6433SOL    HW120198   2.521   3.903   1.621
 6433SOL    HW220199   2.435   3.765   1.634
 6434SOL     OW20200   1.553   5.317   0.605
 6434SOL    HW120201   1.481   5.383   0.585
 6434SOL    HW220202   1.541   5.236   0.547
 6435SOL     OW20203   4.686   4.043   0.537
 6435SOL    HW120204   4.695   4.014   0.633
 6435SOL    HW220205   4.688   3.962   0.478
 6436SOL     OW20206   1.434   2.939   2.480
 6436SOL    HW120207   1.479   2.902   2.561
 6436SOL    HW220208   1.386   3.023   2.504
 6437SOL     OW20209   1.023   0.813   7.020
 6437SOL    HW120210   0.987   0.759   0.070
 6437SOL    HW220211   0.952   0.876   6.988
 6438SOL     OW20212   1.263   3.217   3.207
 6438SOL    HW120213   1.248   3.309   3.171
 6438SOL    HW220214   1.281   3.222   3.305
 6439SOL     OW20215   0.223   0.348   2.288
 6439SOL    HW120216   0.311   0.360   2.240
 6439SOL    HW220217   0.230   0.271   2.352
 6440SOL     OW20218   0.795   1.201   2.617
 6440SOL    HW120219   0.778   1.299   2.605
 6440SOL    HW220220   0.778   1.153   2.531
 6441SOL     OW20221   3.349   1.330   3.797
 6441SOL    HW120222   3.426   1.270   3.819
 6441SOL    HW220223   3.382   1.407   3.742
 6442SOL     OW20224   3.414   0.770   3.452
 6442SOL    HW120225   3.424   0.674   3.477
 6442SOL    HW220226   3.368   0.776   3.363
 6443SOL     OW20227   2.612   1.366   0.417
 6443SOL    HW120228   2.683   1.434   0.399
 6443SOL    HW220229   2.629   1.284   0.361
 6444SOL     OW20230   0.628   0.868   3.528
 6444SOL    HW120231   0.647   0.957   3.571
 6444SOL    HW220232   0.635   0.796   3.596
 6445SOL     OW20233   3.954   3.158   5.153
 6445SOL    HW120234   4.045   3.175   5.190
 6445SOL    HW220235   3.908   3.087   5.207
 6446SOL     OW20236   6.232   1.841   0.456
 6446SOL    HW120237   6.295   1.891   0.516
 6446SOL    HW220238   6.284   1.800   0.381
 6447SOL     OW20239   1.559   0.812   2.942
 6447SOL    HW120240   1.628   0.775   2.881
 6447SOL    HW220241   1.484   0.747   2.951
 6448SOL     OW20242   6.120   2.186   2.756
 6448SOL    HW120243   6.219   2.176   2.743
 6448SOL    HW220244   6.072   2.108   2.715
 6449SOL     OW20245   3.439   3.273   1.174
 6449SOL    HW120246   3.534   3.246   1.158
 6449SOL    HW220247   3.436   3.371   1.196
 6450SOL     OW20248   6.894   3.713   0.362
 6450SOL    HW120249   6.829   3.638   0.357
 6450SOL    HW220250   6.956   3.709   0.284
 6451SOL     OW20251   2.169   6.936   4.372
 6451SOL    HW120252   2.191   6.859   4.312
 6451SOL    HW220253   2.127   6.901   4.456
 6452SOL     OW20254   4.579   6.725   3.183
 6452SOL    HW120255   4.527   6.802   3.145
 6452SOL    HW220256   4.603   6.662   3.109
 6453SOL     OW20257   1.763   5.075   6.420
 6453SOL    HW120258   1.848   5.031   6.451
 6453SOL    HW220259   1.722   5.125   6.496
 6454SOL     OW20260   3.375   1.472   4.632
 6454SOL    HW120261   3.307   1.539   4.663
 6454SOL    HW220262   3.466   1.510   4.643
 6455SOL     OW20263   6.213   3.191   5.147
 6455SOL    HW120264   6.249   3.174   5.239
 6455SOL    HW220265   6.172   3.107   5.111
 6456SOL     OW20266   6.776   0.965   4.293
 6456SOL    HW120267   6.805   0.908   4.216
 6456SOL    HW220268   6.814   0.928   4.378
 6457SOL     OW20269   6.728   3.141   1.942
 6457SOL    HW120270   6.797   3.069   1.954
 6457SOL    HW220271   6.772   3.231   1.953
 6458SOL     OW20272   1.263   5.659   2.346
 6458SOL    HW120273   1.259   5.610   2.259
 6458SOL    HW220274   1.356   5.692   2.362
 6459SOL     OW20275   4.884   4.862   0.623
 6459SOL    HW120276   4.813   4.813   0.674
 6459SOL    HW220277   4.935   4.922   0.684
 6460SOL     OW20278   3.388   5.024   6.761
 6460SOL    HW120279   3.380   4.924   6.769
 6460SOL    HW220280   3.437   5.060   6.841
 6461SOL     OW20281   3.382   5.554   4.963
 6461SOL    HW120282   3.370   5.455   4.971
 6461SOL    HW220283   3.430   5.575   4.877
 6462SOL     OW20284   1.924   3.265   3.832
 6462SOL    HW120285   1.941   3.168   3.848
 6462SOL    HW220286   1.988   3.299   3.763
 6463SOL     OW20287   1.491   4.410   5.023
 6463SOL    HW120288   1.422   4.408   4.951
 6463SOL    HW220289   1.518   4.316   5.047
 6464SOL     OW20290   0.791   5.478   2.708
 6464SOL    HW120291   0.862   5.548   2.702
 6464SOL    HW220292   0.781   5.448   2.803
 6465SOL     OW20293   6.205   0.769   2.899
 6465SOL    HW120294   6.255   0.747   2.815
 6465SOL    HW220295   6.116   0.725   2.897
 6466SOL     OW20296   0.704   2.506   5.476
 6466SOL    HW120297   0.677   2.576   5.410
 6466SOL    HW220298   0.798   2.476   5.456
 6467SOL     OW20299   2.515   0.976   6.529
 6467SOL    HW120300   2.574   1.023   6.463
 6467SOL    HW220301   2.426   0.957   6.487
 6468SOL     OW20302   4.879   4.774   1.055
 6468SOL    HW120303   4.938   4.855   1.060
 6468SOL    HW220304   4.926   4.702   1.003
 6469SOL     OW20305   0.199   1.305   5.411
 6469SOL    HW120306   0.105   1.314   5.377
 6469SOL    HW220307   0.197   1.288   5.510
 6470SOL     OW20308   6.727   6.233   5.616
 6470SOL    HW120309   6.679   6.212   5.531
 6470SOL    HW220310   6.667   6.287   5.675
 6471SOL     OW20311   5.718   5.179   5.902
 6471SOL    HW120312   5.700   5.228   5.988
 6471SOL    HW220313   5.796   5.221   5.856
 6472SOL     OW20314   1.306   5.854   0.851
 6472SOL    HW120315   1.243   5.862   0.773
 6472SOL    HW220316   1.336   5.759   0.859
 6473SOL     OW20317   2.547   1.427   5.660
 6473SOL    HW120318   2.456   1.424   5.700
 6473SOL    HW220319   2.561   1.515   5.615
 6474SOL     OW20320   2.037   3.414   5.598
 6474SOL    HW120321   1.971   3.405   5.673
 6474SOL    HW220322   2.074   3.507   5.597
 6475SOL     OW20323   4.408   6.264   4.072
 6475SOL    HW120324   4.420   6.192   4.003
 6475SOL    HW220325   4.380   6.349   4.027
 6476SOL     OW20326   4.678   5.280   3.055
 6476SOL    HW120327   4.586   5.253   3.084
 6476SOL    HW220328   4.686   5.270   2.956
 6477SOL     OW20329   0.144   5.954   6.910
 6477SOL    HW120330   0.176   5.925   6.820
 6477SOL    HW220331   0.222   5.972   6.970
 6478SOL     OW20332   5.120   6.688   0.735
 6478SOL    HW120333   5.205   6.712   0.687
 6478SOL    HW220334   5.137   6.687   0.834
 6479SOL     OW20335   4.129   5.689   2.585
 6479SOL    HW120336   4.125   5.645   2.495
 6479SOL    HW220337   4.124   5.619   2.657
 6480SOL     OW20338   3.136   2.280   6.895
 6480SOL    HW120339   3.040   2.303   6.906
 6480SOL    HW220340   3.187   2.310   6.976
 6481SOL     OW20341   4.803   0.782   1.161
 6481SOL    HW120342   4.806   0.789   1.061
 6481SOL    HW220343   4.831   0.869   1.202
 6482SOL     OW20344   0.508   0.786   6.833
 6482SOL    HW120345   0.494   0.838   6.748
 6482SOL    HW220346   0.545   0.696   6.811
 6483SOL     OW20347   2.196   6.212   2.407
 6483SOL    HW120348   2.167   6.210   2.311
 6483SOL    HW220349   2.176   6.124   2.449
 6484SOL     OW20350   5.446   6.473   3.485
 6484SOL    HW120351   5.513   6.491   3.557
 6484SOL    HW220352   5.464   6.532   3.407
 6485SOL     OW20353   1.333   2.375   3.004
 6485SOL    HW120354   1.390   2.406   3.081
 6485SOL    HW220355   1.349   2.434   2.925
 6486SOL     OW20356   1.665   2.835   3.108
 6486SOL    HW120357   1.750   2.859   3.060
 6486SOL    HW220358   1.652   2.898   3.185
 6487SOL     OW20359   5.814   6.089   3.574
 6487SOL    HW120360   5.770   6.172   3.608
 6487SOL    HW220361   5.791   6.012   3.634
 6488SOL     OW20362   3.540   5.710   6.124
 6488SOL    HW120363   3.491   5.772   6.185
 6488SOL    HW220364   3.561   5.756   6.038
 6489SOL     OW20365   1.937   2.032   5.548
 6489SOL    HW120366   1.876   2.023   5.470
 6489SOL    HW220367   1.888   2.077   5.623
 6490SOL     OW20368   3.368   1.367   0.352
 6490SOL    HW120369   3.320   1.339   0.269
 6490SOL    HW220370   3.344   1.305   0.427
 6491SOL     OW20371   3.471   1.664   6.224
 6491SOL    HW120372   3.560   1.620   6.216
 6491SOL    HW220373   3.406   1.601   6.266
 6492SOL     OW20374   6.210   5.479   0.169
 6492SOL    HW120375   6.304   5.509   0.182
 6492SOL    HW220376   6.147   5.550   0.201
 6493SOL     OW20377   0.990   6.340   5.976
 6493SOL    HW120378   0.915   6.343   6.042
 6493SOL    HW220379   0.966   6.280   5.900
 6494SOL     OW20380   1.572   6.952   3.603
 6494SOL    HW120381   1.613   0.013   3.628
 6494SOL    HW220382   1.484   6.968   3.557
 6495SOL     OW20383   5.451   5.041   2.670
 6495SOL    HW120384   5.400   5.101   2.609
 6495SOL    HW220385   5.401   4.955   2.681
 6496SOL     OW20386   2.379   6.614   2.606
 6496SOL    HW120387   2.359   6.603   2.703
 6496SOL    HW220388   2.328   6.692   2.569
 6497SOL     OW20389   0.707   4.669   6.980
 6497SOL    HW120390   0.649   4.735   6.932
 6497SOL    HW220391   0.656   4.585   6.997
 6498SOL     OW20392   1.575   4.559   4.005
 6498SOL    HW120393   1.629   4.544   4.088
 6498SOL    HW220394   1.599   4.490   3.937
 6499SOL     OW20395   6.010   1.426   4.006
 6499SOL    HW120396   5.942   1.362   4.043
 6499SOL    HW220397   5.980   1.458   3.916
 6500SOL     OW20398   5.219   4.669   3.534
 6500SOL    HW120399   5.241   4.657   3.631
 6500SOL    HW220400   5.121   4.652   3.520
 6501SOL     OW20401   6.924   3.970   1.109
 6501SOL    HW120402   6.888   3.897   1.168
 6501SOL    HW220403   6.848   4.019   1.067
 6502SOL     OW20404   1.486   5.306   2.412
 6502SOL    HW120405   1.571   5.273   2.370
 6502SOL    HW220406   1.416   5.234   2.406
 6503SOL     OW20407   4.279   0.157   4.763
 6503SOL    HW120408   4.250   0.218   4.689
 6503SOL    HW220409   4.234   0.068   4.753
 6504SOL     OW20410   2.672   1.259   0.987
 6504SOL    HW120411   2.738   1.332   1.001
 6504SOL    HW220412   2.593   1.294   0.937
 6505SOL     OW20413   5.456   5.063   0.810
 6505SOL    HW120414   5.532   5.004   0.836
 6505SOL    HW220415   5.392   5.012   0.753
 6506SOL     OW20416   2.118   2.549   0.633
 6506SOL    HW120417   2.054   2.584   0.701
 6506SOL    HW220418   2.203   2.601   0.637
 6507SOL     OW20419   2.764   0.927   1.971
 6507SOL    HW120420   2.732   1.020   1.955
 6507SOL    HW220421   2.718   0.865   1.907
 6508SOL     OW20422   1.925   1.754   2.545
 6508SOL    HW120423   2.022   1.730   2.553
 6508SOL    HW220424   1.899   1.815   2.620
 6509SOL     OW20425   0.631   2.271   4.633
 6509SOL    HW120426   0.593   2.360   4.608
 6509SOL    HW220427   0.730   2.278   4.644
 6510SOL     OW20428   5.506   4.423   6.101
 6510SOL    HW120429   5.412   4.449   6.076
 6510SOL    HW220430   5.561   4.505   6.112
 6511SOL     OW20431   6.249   6.296   5.826
 6511SOL    HW120432   6.323   6.247   5.779
 6511SOL    HW220433   6.200   6.232   5.885
 6512SOL     OW20434   4.940   6.455   3.482
 6512SOL    HW120435   4.916   6.549   3.507
 6512SOL    HW220436   4.941   6.399   3.565
 6513SOL     OW20437   3.187   0.046   2.487
 6513SOL    HW120438   3.098   0.014   2.453
 6513SOL    HW220439   3.179   0.141   2.518
 6514SOL     OW20440   3.597   0.004   3.267
 6514SOL    HW120441   3.569   7.007   3.174
 6514SOL    HW220442   3.516   0.031   3.320
 6515SOL     OW20443   1.365   0.691   4.964
 6515SOL    HW120444   1.351   0.788   4.985
 6515SOL    HW220445   1.460   0.676   4.937
 6516SOL     OW20446   1.146   1.162   5.988
 6516SOL    HW120447   1.184   1.230   5.926
 6516SOL    HW220448   1.214   1.141   6.059
 6517SOL     OW20449   1.337   2.279   6.720
 6517SOL    HW120450   1.396   2.206   6.685
 6517SOL    HW220451   1.263   2.295   6.654
 6518SOL     OW20452   6.218   6.236   0.986
 6518SOL    HW120453   6.265   6.174   0.923
 6518SOL    HW220454   6.275   6.252   1.066
 6519SOL     OW20455   2.302   2.052   3.667
 6519SOL    HW120456   2.244   2.085   3.741
 6519SOL    HW220457   2.248   2.043   3.584
 6520SOL     OW20458   5.358   5.274   1.876
 6520SOL    HW120459   5.300   5.345   1.916
 6520SOL    HW220460   5.444   5.269   1.927
 6521SOL     OW20461   0.997   1.961   5.655
 6521SOL    HW120462   1.022   1.869   5.684
 6521SOL    HW220463   1.053   2.028   5.704
 6522SOL     OW20464   2.235   5.321   5.428
 6522SOL    HW120465   2.170   5.251   5.457
 6522SOL    HW220466   2.261   5.377   5.508
 6523SOL     OW20467   1.553   1.931   6.345
 6523SOL    HW120468   1.525   2.015   6.392
 6523SOL    HW220469   1.530   1.939   6.247
 6524SOL     OW20470   3.563   3.887   3.961
 6524SOL    HW120471   3.522   3.975   3.938
 6524SOL    HW220472   3.507   3.840   4.029
 6525SOL     OW20473   0.290   2.657   4.527
 6525SOL    HW120474   0.231   2.738   4.521
 6525SOL    HW220475   0.240   2.583   4.572
 6526SOL     OW20476   1.902   6.143   4.720
 6526SOL    HW120477   1.841   6.173   4.647
 6526SOL    HW220478   1.997   6.153   4.690
 6527SOL     OW20479   2.134   1.535   4.286
 6527SOL    HW120480   2.173   1.452   4.326
 6527SOL    HW220481   2.205   1.585   4.237
 6528SOL     OW20482   6.445   0.392   3.712
 6528SOL    HW120483   6.430   0.468   3.776
 6528SOL    HW220484   6.538   0.397   3.675
 6529SOL     OW20485   6.649   2.411   1.589
 6529SOL    HW120486   6.674   2.332   1.645
 6529SOL    HW220487   6.710   2.487   1.608
 6530SOL     OW20488   0.182   1.944   0.621
 6530SOL    HW120489   0.209   1.987   0.535
 6530SOL    HW220490   0.103   1.885   0.606
 6531SOL     OW20491   4.781   3.015   4.378
 6531SOL    HW120492   4.694   3.026   4.330
 6531SOL    HW220493   4.775   3.057   4.468
 6532SOL     OW20494   0.473   1.987   6.449
 6532SOL    HW120495   0.482   2.047   6.370
 6532SOL    HW220496   0.518   1.899   6.429
 6533SOL     OW20497   4.895   0.961   0.784
 6533SOL    HW120498   4.902   0.914   0.696
 6533SOL    HW220499   4.833   0.911   0.844
 6534SOL     OW20500   1.821   3.523   0.950
 6534SOL    HW120501   1.873   3.442   0.978
 6534SOL    HW220502   1.858   3.558   0.864
 6535SOL     OW20503   1.766   3.696   5.504
 6535SOL    HW120504   1.731   3.783   5.539
 6535SOL    HW220505   1.838   3.714   5.437
 6536SOL     OW20506   6.889   2.439   7.024
 6536SOL    HW120507   6.811   2.443   0.058
 6536SOL    HW220508   6.951   2.367   0.027
 6537SOL     OW20509   0.436   6.961   0.080
 6537SOL    HW120510   0.521   6.917   0.050
 6537SOL    HW220511   0.382   6.896   0.135
 6538SOL     OW20512   2.113   3.436   5.999
 6538SOL    HW120513   2.030   3.490   5.981
 6538SOL    HW220514   2.169   3.482   6.067
 6539SOL     OW20515   2.452   1.450   6.753
 6539SOL    HW120516   2.522   1.485   6.816
 6539SOL    HW220517   2.362   1.481   6.783
 6540SOL     OW20518   3.645   1.045   4.035
 6540SOL    HW120519   3.584   1.096   3.974
 6540SOL    HW220520   3.737   1.085   4.031
 6541SOL     OW20521   2.311   2.577   5.607
 6541SOL    HW120522   2.379   2.633   5.655
 6541SOL    HW220523   2.251   2.532   5.673
 6542SOL     OW20524   5.823   4.339   3.425
 6542SOL    HW120525   5.815   4.242   3.404
 6542SOL    HW220526   5.919   4.367   3.417
 6543SOL     OW20527   6.999   5.941   0.106
 6543SOL    HW120528   7.026   5.858   0.155
 6543SOL    HW220529   0.015   5.942   0.016
 6544SOL     OW20530   6.127   6.221   4.221
 6544SOL    HW120531   6.211   6.275   4.227
 6544SOL    HW220532   6.150   6.124   4.224
 6545SOL     OW20533   5.568   2.421   5.559
 6545SOL    HW120534   5.505   2.486   5.516
 6545SOL    HW220535   5.653   2.467   5.583
 6546SOL     OW20536   3.058   4.395   6.193
 6546SOL    HW120537   2.979   4.348   6.154
 6546SOL    HW220538   3.027   4.465   6.256
 6547SOL     OW20539   4.702   2.037   6.726
 6547SOL    HW120540   4.648   2.113   6.689
 6547SOL    HW220541   4.674   1.952   6.682
 6548SOL     OW20542   6.246   5.041   5.129
 6548SOL    HW120543   6.146   5.046   5.135
 6548SOL    HW220544   6.283   5.025   5.220
 6549SOL     OW20545   3.669   1.577   1.168
 6549SOL    HW120546   3.614   1.592   1.086
 6549SOL    HW220547   3.611   1.581   1.249
 6550SOL     OW20548   0.431   5.366   3.400
 6550SOL    HW120549   0.507   5.313   3.437
 6550SOL    HW220550   0.425   5.353   3.301
 6551SOL     OW20551   2.315   5.354   2.348
 6551SOL    HW120552   2.297   5.335   2.251
 6551SOL    HW220553   2.374   5.435   2.355
 6552SOL     OW20554   4.192   4.730   6.386
 6552SOL    HW120555   4.155   4.779   6.465
 6552SOL    HW220556   4.116   4.692   6.332
 6553SOL     OW20557   0.260   2.582   2.609
 6553SOL    HW120558   0.294   2.674   2.589
 6553SOL    HW220559   0.251   2.570   2.708
 6554SOL     OW20560   0.315   3.133   5.055
 6554SOL    HW120561   0.381   3.137   5.129
 6554SOL    HW220562   0.359   3.094   4.974
 6555SOL     OW20563   0.384   1.504   2.082
 6555SOL    HW120564   0.368   1.451   1.998
 6555SOL    HW220565   0.424   1.592   2.058
 6556SOL     OW20566   3.690   7.011   4.460
 6556SOL    HW120567   3.693   6.936   4.525
 6556SOL    HW220568   3.735   6.984   4.375
 6557SOL     OW20569   6.625   5.972   0.899
 6557SOL    HW120570   6.629   6.056   0.844
 6557SOL    HW220571   6.714   5.927   0.897
 6558SOL     OW20572   6.535   5.405   6.463
 6558SOL    HW120573   6.441   5.437   6.472
 6558SOL    HW220574   6.557   5.392   6.366
 6559SOL     OW20575   3.496   3.213   0.826
 6559SOL    HW120576   3.397   3.219   0.837
 6559SOL    HW220577   3.520   3.219   0.729
 6560SOL     OW20578   3.896   2.161   0.376
 6560SOL    HW120579   3.914   2.229   0.447
 6560SOL    HW220580   3.894   2.070   0.417
 6561SOL     OW20581   3.671   4.142   4.634
 6561SOL    HW120582   3.744   4.119   4.569
 6561SOL    HW220583   3.582   4.120   4.593
 6562SOL     OW20584   5.759   3.663   5.634
 6562SOL    HW120585   5.711   3.742   5.595
 6562SOL    HW220586   5.812   3.618   5.562
 6563SOL     OW20587   1.879   5.048   2.428
 6563SOL    HW120588   1.835   4.964   2.459
 6563SOL    HW220589   1.972   5.028   2.396
 6564SOL     OW20590   1.367   5.692   2.671
 6564SOL    HW120591   1.420   5.771   2.642
 6564SOL    HW220592   1.424   5.610   2.669
 6565SOL     OW20593   5.974   3.356   5.041
 6565SOL    HW120594   5.935   3.291   4.975
 6565SOL    HW220595   6.065   3.324   5.069
 6566SOL     OW20596   3.851   6.834   0.601
 6566SOL    HW120597   3.835   6.758   0.538
 6566SOL    HW220598   3.768   6.888   0.610
 6567SOL     OW20599   5.789   3.108   1.414
 6567SOL    HW120600   5.876   3.156   1.405
 6567SOL    HW220601   5.775   3.050   1.333
 6568SOL     OW20602   3.989   4.416   1.659
 6568SOL    HW120603   3.929   4.390   1.583
 6568SOL    HW220604   4.084   4.395   1.635
 6569SOL     OW20605   0.726   4.332   6.368
 6569SOL    HW120606   0.794   4.260   6.363
 6569SOL    HW220607   0.728   4.374   6.459
 6570SOL     OW20608   6.262   2.819   0.899
 6570SOL    HW120609   6.325   2.745   0.923
 6570SOL    HW220610   6.230   2.865   0.982
 6571SOL     OW20611   2.905   5.986   3.580
 6571SOL    HW120612   2.846   6.026   3.511
 6571SOL    HW220613   2.997   5.972   3.542
 6572SOL     OW20614   1.064   3.597   6.443
 6572SOL    HW120615   1.143   3.563   6.494
 6572SOL    HW220616   1.064   3.697   6.444
 6573SOL     OW20617   2.161   2.081   2.472
 6573SOL    HW120618   2.107   2.109   2.551
 6573SOL    HW220619   2.120   1.999   2.431
 6574SOL     OW20620   2.470   4.597   3.196
 6574SOL    HW120621   2.426   4.669   3.249
 6574SOL    HW220622   2.562   4.626   3.171
 6575SOL     OW20623   0.871   1.118   2.865
 6575SOL    HW120624   0.966   1.145   2.881
 6575SOL    HW220625   0.829   1.179   2.798
 6576SOL     OW20626   1.018   6.069   5.354
 6576SOL    HW120627   1.092   6.054   5.419
 6576SOL    HW220628   0.999   6.167   5.348
 6577SOL     OW20629   6.266   2.126   4.444
 6577SOL    HW120630   6.333   2.130   4.518
 6577SOL    HW220631   6.300   2.069   4.370
 6578SOL     OW20632   6.409   5.310   3.181
 6578SOL    HW120633   6.469   5.262   3.245
 6578SOL    HW220634   6.343   5.364   3.233
 6579SOL     OW20635   0.637   3.181   2.565
 6579SOL    HW120636   0.542   3.212   2.572
 6579SOL    HW220637   0.671   3.200   2.473
 6580SOL     OW20638   6.399   2.449   1.277
 6580SOL    HW120639   6.387   2.486   1.369
 6580SOL    HW220640   6.495   2.426   1.263
 6581SOL     OW20641   2.736   1.986   5.572
 6581SOL    HW120642   2.739   1.963   5.475
 6581SOL    HW220643   2.713   1.904   5.625
 6582SOL     OW20644   0.069   6.894   3.131
 6582SOL    HW120645   0.054   6.985   3.093
 6582SOL    HW220646   0.155   6.856   3.095
 6583SOL     OW20647   5.849   1.677   5.293
 6583SOL    HW120648   5.904   1.602   5.331
 6583SOL    HW220649   5.875   1.693   5.198
 6584SOL     OW20650   5.886   1.581   6.459
 6584SOL    HW120651   5.859   1.674   6.486
 6584SOL    HW220652   5.832   1.553   6.379
 6585SOL     OW20653   2.072   1.270   0.449
 6585SOL    HW120654   2.082   1.174   0.472
 6585SOL    HW220655   2.029   1.318   0.526
 6586SOL     OW20656   6.845   2.236   6.815
 6586SOL    HW120657   6.825   2.319   6.764
 6586SOL    HW220658   6.871   2.260   6.909
 6587SOL     OW20659   2.019   6.968   2.426
 6587SOL    HW120660   2.057   7.020   2.349
 6587SOL    HW220661   2.016   6.871   2.402
 6588SOL     OW20662   2.435   2.754   6.707
 6588SOL    HW120663   2.385   2.678   6.748
 6588SOL    HW220664   2.526   2.761   6.749
 6589SOL     OW20665   4.809   1.517   5.731
 6589SOL    HW120666   4.742   1.570   5.679
 6589SOL    HW220667   4.779   1.509   5.826
 6590SOL     OW20668   6.708   1.081   5.168
 6590SOL    HW120669   6.772   1.123   5.104
 6590SOL    HW220670   6.619   1.126   5.160
 6591SOL     OW20671   5.811   0.967   2.259
 6591SOL    HW120672   5.772   0.878   2.282
 6591SOL    HW220673   5.806   1.028   2.338
 6592SOL     OW20674   4.883   5.681   4.857
 6592SOL    HW120675   4.854   5.636   4.772
 6592SOL    HW220676   4.915   5.774   4.836
 6593SOL     OW20677   4.267   0.961   2.454
 6593SOL    HW120678   4.334   1.031   2.481
 6593SOL    HW220679   4.219   0.991   2.372
 6594SOL     OW20680   5.706   0.828   6.338
 6594SOL    HW120681   5.703   0.867   6.246
 6594SOL    HW220682   5.620   0.781   6.358
 6595SOL     OW20683   1.150   3.673   1.164
 6595SOL    HW120684   1.064   3.708   1.129
 6595SOL    HW220685   1.157   3.692   1.262
 6596SOL     OW20686   3.717   6.850   5.035
 6596SOL    HW120687   3.781   6.851   4.959
 6596SOL    HW220688   3.667   6.764   5.036
 6597SOL     OW20689   6.952   4.709   5.534
 6597SOL    HW120690   6.902   4.696   5.448
 6597SOL    HW220691   6.990   4.622   5.564
 6598SOL     OW20692   2.061   5.759   5.262
 6598SOL    HW120693   2.132   5.804   5.315
 6598SOL    HW220694   2.098   5.675   5.221
 6599SOL     OW20695   4.604   4.135   5.932
 6599SOL    HW120696   4.542   4.073   5.883
 6599SOL    HW220697   4.697   4.097   5.930
 6600SOL     OW20698   4.668   5.810   4.541
 6600SOL    HW120699   4.629   5.871   4.472
 6600SOL    HW220700   4.626   5.720   4.534
 6601SOL     OW20701   1.079   6.989   1.295
 6601SOL    HW120702   1.054   0.057   1.313
 6601SOL    HW220703   1.037   6.959   1.209
 6602SOL     OW20704   6.382   1.937   1.441
 6602SOL    HW120705   6.431   1.850   1.445
 6602SOL    HW220706   6.440   2.006   1.397
 6603SOL     OW20707   2.274   2.845   3.025
 6603SOL    HW120708   2.194   2.895   3.061
 6603SOL    HW220709   2.318   2.795   3.099
 6604SOL     OW20710   3.867   6.029   3.432
 6604SOL    HW120711   3.886   5.933   3.452
 6604SOL    HW220712   3.769   6.045   3.434
 6605SOL     OW20713   5.938   6.283   0.138
 6605SOL    HW120714   5.898   6.367   0.101
 6605SOL    HW220715   5.968   6.300   0.232
 6606SOL     OW20716   5.588   1.491   2.814
 6606SOL    HW120717   5.677   1.516   2.851
 6606SOL    HW220718   5.516   1.518   2.879
 6607SOL     OW20719   1.098   2.428   3.857
 6607SOL    HW120720   1.116   2.330   3.867
 6607SOL    HW220721   1.032   2.457   3.925
 6608SOL     OW20722   5.605   3.394   4.356
 6608SOL    HW120723   5.668   3.328   4.315
 6608SOL    HW220724   5.623   3.485   4.319
 6609SOL     OW20725   5.880   2.179   6.644
 6609SOL    HW120726   5.810   2.149   6.579
 6609SOL    HW220727   5.841   2.179   6.736
 6610SOL     OW20728   3.025   1.197   0.088
 6610SOL    HW120729   3.110   1.247   0.078
 6610SOL    HW220730   2.963   1.221   0.013
 6611SOL     OW20731   5.690   3.117   2.989
 6611SOL    HW120732   5.684   3.034   3.045
 6611SOL    HW220733   5.783   3.151   2.990
 6612SOL     OW20734   1.298   6.092   6.769
 6612SOL    HW120735   1.270   6.079   6.674
 6612SOL    HW220736   1.388   6.051   6.784
 6613SOL     OW20737   4.982   5.428   1.705
 6613SOL    HW120738   5.079   5.426   1.681
 6613SOL    HW220739   4.962   5.352   1.768
 6614SOL     OW20740   5.467   5.992   6.055
 6614SOL    HW120741   5.487   6.088   6.034
 6614SOL    HW220742   5.454   5.982   6.154
 6615SOL     OW20743   1.192   4.311   5.068
 6615SOL    HW120744   1.211   4.294   4.972
 6615SOL    HW220745   1.192   4.225   5.119
 6616SOL     OW20746   4.344   0.542   4.681
 6616SOL    HW120747   4.347   0.476   4.606
 6616SOL    HW220748   4.354   0.635   4.644
 6617SOL     OW20749   4.604   0.233   4.729
 6617SOL    HW120750   4.655   0.301   4.781
 6617SOL    HW220751   4.522   0.207   4.779
 6618SOL     OW20752   0.921   4.567   1.596
 6618SOL    HW120753   0.983   4.529   1.527
 6618SOL    HW220754   0.867   4.494   1.637
 6619SOL     OW20755   5.564   5.843   2.487
 6619SOL    HW120756   5.641   5.779   2.495
 6619SOL    HW220757   5.507   5.837   2.569
 6620SOL     OW20758   3.156   2.830   5.710
 6620SOL    HW120759   3.064   2.844   5.747
 6620SOL    HW220760   3.154   2.838   5.611
 6621SOL     OW20761   2.626   4.162   6.793
 6621SOL    HW120762   2.721   4.178   6.818
 6621SOL    HW220763   2.573   4.140   6.875
 6622SOL     OW20764   6.165   6.769   0.187
 6622SOL    HW120765   6.237   6.838   0.184
 6622SOL    HW220766   6.199   6.686   0.230
 6623SOL     OW20767   3.444   3.667   2.264
 6623SOL    HW120768   3.396   3.589   2.306
 6623SOL    HW220769   3.382   3.713   2.201
 6624SOL     OW20770   4.186   4.759   4.314
 6624SOL    HW120771   4.131   4.783   4.234
 6624SOL    HW220772   4.131   4.770   4.397
 6625SOL     OW20773   6.218   0.417   0.325
 6625SOL    HW120774   6.172   0.417   0.414
 6625SOL    HW220775   6.273   0.501   0.316
 6626SOL     OW20776   3.417   4.923   3.492
 6626SOL    HW120777   3.500   4.902   3.440
 6626SOL    HW220778   3.366   4.996   3.447
 6627SOL     OW20779   1.881   6.296   1.581
 6627SOL    HW120780   1.838   6.309   1.671
 6627SOL    HW220781   1.920   6.204   1.576
 6628SOL     OW20782   4.192   6.074   3.035
 6628SOL    HW120783   4.210   6.088   2.938
 6628SOL    HW220784   4.177   5.977   3.053
 6629SOL     OW20785   3.278   4.183   0.167
 6629SOL    HW120786   3.276   4.127   0.084
 6629SOL    HW220787   3.267   4.124   0.247
 6630SOL     OW20788   2.917   2.340   5.687
 6630SOL    HW120789   2.880   2.381   5.770
 6630SOL    HW220790   2.851   2.349   5.613
 6631SOL     OW20791   4.001   0.705   2.154
 6631SOL    HW120792   3.916   0.689   2.204
 6631SOL    HW220793   4.060   0.624   2.162
 6632SOL     OW20794   0.077   2.358   2.151
 6632SOL    HW120795   0.077   2.267   2.191
 6632SOL    HW220796   0.049   2.426   2.220
 6633SOL     OW20797   0.409   6.835   1.369
 6633SOL    HW120798   0.341   6.847   1.442
 6633SOL    HW220799   0.457   6.922   1.355
 6634SOL     OW20800   6.862   3.021   5.805
 6634SOL    HW120801   6.874   3.048   5.901
 6634SOL    HW220802   6.951   3.019   5.760
 6635SOL     OW20803   4.491   4.543   3.604
 6635SOL    HW120804   4.511   4.602   3.525
 6635SOL    HW220805   4.398   4.562   3.637
 6636SOL     OW20806   1.261   2.635   4.101
 6636SOL    HW120807   1.316   2.552   4.103
 6636SOL    HW220808   1.264   2.675   4.009
 6637SOL     OW20809   6.937   1.312   1.325
 6637SOL    HW120810   6.918   1.216   1.346
 6637SOL    HW220811   6.875   1.343   1.253
 6638SOL     OW20812   2.307   5.751   5.863
 6638SOL    HW120813   2.305   5.807   5.946
 6638SOL    HW220814   2.355   5.800   5.790
 6639SOL     OW20815   5.371   5.567   6.945
 6639SOL    HW120816   5.298   5.631   6.923
 6639SOL    HW220817   5.396   5.515   6.863
 6640SOL     OW20818   5.934   3.023   3.541
 6640SOL    HW120819   6.019   3.060   3.580
 6640SOL    HW220820   5.857   3.080   3.570
 6641SOL     OW20821   2.012   4.155   6.854
 6641SOL    HW120822   2.010   4.195   6.763
 6641SOL    HW220823   2.046   4.223   6.920
 6642SOL     OW20824   0.188   6.424   0.366
 6642SOL    HW120825   0.162   6.462   0.277
 6642SOL    HW220826   0.210   6.327   0.356
 6643SOL     OW20827   4.325   5.324   6.830
 6643SOL    HW120828   4.385   5.391   6.785
 6643SOL    HW220829   4.232   5.334   6.797
 6644SOL     OW20830   2.939   4.766   2.232
 6644SOL    HW120831   2.880   4.847   2.232
 6644SOL    HW220832   2.912   4.705   2.157
 6645SOL     OW20833   6.540   5.100   5.159
 6645SOL    HW120834   6.458   5.090   5.215
 6645SOL    HW220835   6.618   5.062   5.207
 6646SOL     OW20836   2.118   5.850   3.628
 6646SOL    HW120837   2.095   5.803   3.714
 6646SOL    HW220838   2.141   5.783   3.558
 6647SOL     OW20839   3.529   2.045   2.229
 6647SOL    HW120840   3.505   1.983   2.155
 6647SOL    HW220841   3.572   2.127   2.192
 6648SOL     OW20842   4.899   5.996   2.547
 6648SOL    HW120843   4.891   5.950   2.459
 6648SOL    HW220844   4.855   6.086   2.542
 6649SOL     OW20845   3.751   2.375   6.210
 6649SOL    HW120846   3.694   2.434   6.267
 6649SOL    HW220847   3.716   2.281   6.212
 6650SOL     OW20848   3.106   2.223   3.332
 6650SOL    HW120849   3.044   2.265   3.266
 6650SOL    HW220850   3.175   2.169   3.284
 6651SOL     OW20851   1.278   2.601   6.392
 6651SOL    HW120852   1.269   2.694   6.356
 6651SOL    HW220853   1.347   2.600   6.465
 6652SOL     OW20854   0.007   5.327   3.102
 6652SOL    HW120855   0.067   5.353   3.027
 6652SOL    HW220856   6.946   5.374   3.093
 6653SOL     OW20857   2.992   3.690   3.609
 6653SOL    HW120858   2.971   3.605   3.657
 6653SOL    HW220859   3.007   3.763   3.676
 6654SOL     OW20860   2.114   3.387   1.705
 6654SOL    HW120861   2.022   3.398   1.745
 6654SOL    HW220862   2.183   3.410   1.774
 6655SOL     OW20863   2.013   0.409   0.927
 6655SOL    HW120864   1.936   0.390   0.988
 6655SOL    HW220865   2.002   0.500   0.887
 6656SOL     OW20866   5.990   2.158   1.406
 6656SOL    HW120867   6.020   2.102   1.483
 6656SOL    HW220868   6.060   2.226   1.385
 6657SOL     OW20869   2.632   5.873   6.012
 6657SOL    HW120870   2.548   5.830   6.044
 6657SOL    HW220871   2.631   5.881   5.912
 6658SOL     OW20872   5.003   1.012   5.906
 6658SOL    HW120873   4.954   1.071   5.970
 6658SOL    HW220874   5.052   0.941   5.956
 6659SOL     OW20875   1.248   3.480   6.603
 6659SOL    HW120876   1.317   3.449   6.537
 6659SOL    HW220877   1.240   3.413   6.676
 6660SOL     OW20878   6.948   6.834   3.335
 6660SOL    HW120879   6.979   6.870   3.247
 6660SOL    HW220880   7.000   6.877   3.408
 6661SOL     OW20881   0.028   6.144   3.846
 6661SOL    HW120882   6.971   6.094   3.821
 6661SOL    HW220883   0.106   6.082   3.844
 6662SOL     OW20884   1.097   3.601   5.898
 6662SOL    HW120885   1.105   3.563   5.805
 6662SOL    HW220886   1.042   3.684   5.896
 6663SOL     OW20887   0.277   5.869   2.032
 6663SOL    HW120888   0.361   5.815   2.043
 6663SOL    HW220889   0.200   5.818   2.072
 6664SOL     OW20890   0.758   1.721   2.982
 6664SOL    HW120891   0.707   1.728   2.896
 6664SOL    HW220892   0.855   1.708   2.961
 6665SOL     OW20893   2.757   6.653   2.428
 6665SOL    HW120894   2.746   6.736   2.482
 6665SOL    HW220895   2.815   6.672   2.349
 6666SOL     OW20896   6.593   0.321   0.301
 6666SOL    HW120897   6.524   0.260   0.339
 6666SOL    HW220898   6.596   0.311   0.202
 6667SOL     OW20899   6.821   5.404   4.583
 6667SOL    HW120900   6.842   5.501   4.596
 6667SOL    HW220901   6.898   5.359   4.536
 6668SOL     OW20902   0.624   5.424   1.763
 6668SOL    HW120903   0.699   5.458   1.819
 6668SOL    HW220904   0.548   5.397   1.822
 6669SOL     OW20905   1.507   5.414   2.675
 6669SOL    HW120906   1.506   5.366   2.588
 6669SOL    HW220907   1.601   5.443   2.696
 6670SOL     OW20908   3.490   4.798   0.380
 6670SOL    HW120909   3.462   4.860   0.307
 6670SOL    HW220910   3.539   4.720   0.341
 6671SOL     OW20911   0.278   2.321   5.087
 6671SOL    HW120912   0.278   2.421   5.088
 6671SOL    HW220913   0.298   2.289   4.994
 6672SOL     OW20914   1.523   0.941   5.413
 6672SOL    HW120915   1.429   0.910   5.425
 6672SOL    HW220916   1.586   0.873   5.453
 6673SOL     OW20917   4.744   5.070   1.723
 6673SOL    HW120918   4.817   5.009   1.752
 6673SOL    HW220919   4.672   5.018   1.679
 6674SOL     OW20920   1.071   0.100   4.440
 6674SOL    HW120921   1.069   0.045   4.357
 6674SOL    HW220922   1.148   0.072   4.497
 6675SOL     OW20923   6.208   5.764   0.441
 6675SOL    HW120924   6.174   5.745   0.349
 6675SOL    HW220925   6.130   5.782   0.501
 6676SOL     OW20926   1.278   2.425   6.203
 6676SOL    HW120927   1.267   2.468   6.293
 6676SOL    HW220928   1.312   2.331   6.214
 6677SOL     OW20929   6.834   4.053   0.146
 6677SOL    HW120930   6.830   3.999   0.230
 6677SOL    HW220931   6.768   4.128   0.152
 6678SOL     OW20932   1.196   3.153   4.999
 6678SOL    HW120933   1.229   3.076   4.945
 6678SOL    HW220934   1.270   3.186   5.058
 6679SOL     OW20935   1.538   2.121   4.474
 6679SOL    HW120936   1.574   2.148   4.563
 6679SOL    HW220937   1.610   2.075   4.422
 6680SOL     OW20938   2.799   6.541   6.526
 6680SOL    HW120939   2.771   6.448   6.549
 6680SOL    HW220940   2.899   6.548   6.528
 6681SOL     OW20941   5.805   5.190   0.164
 6681SOL    HW120942   5.852   5.161   0.248
 6681SOL    HW220943   5.872   5.226   0.099
 6682SOL     OW20944   6.883   5.825   2.386
 6682SOL    HW120945   6.933   5.752   2.432
 6682SOL    HW220946   6.804   5.852   2.440
 6683SOL     OW20947   5.230   2.205   4.038
 6683SOL    HW120948   5.194   2.134   3.978
 6683SOL    HW220949   5.249   2.166   4.128
 6684SOL     OW20950   1.536   6.921   2.217
 6684SOL    HW120951   1.554   7.002   2.163
 6684SOL    HW220952   1.620   6.866   2.225
 6685SOL     OW20953   4.800   3.583   6.205
 6685SOL    HW120954   4.898   3.589   6.186
 6685SOL    HW220955   4.784   3.511   6.272
 6686SOL     OW20956   5.733   3.988   3.882
 6686SOL    HW120957   5.634   4.001   3.873
 6686SOL    HW220958   5.775   3.988   3.792
 6687SOL     OW20959   1.623   1.652   0.215
 6687SOL    HW120960   1.630   1.737   0.163
 6687SOL    HW220961   1.689   1.585   0.180
 6688SOL     OW20962   0.723   4.741   3.181
 6688SOL    HW120963   0.787   4.748   3.258
 6688SOL    HW220964   0.652   4.675   3.202
 6689SOL     OW20965   4.339   5.062   6.844
 6689SOL    HW120966   4.256   5.031   6.891
 6689SOL    HW220967   4.332   5.160   6.825
 6690SOL     OW20968   1.670   2.660   0.797
 6690SOL    HW120969   1.581   2.706   0.791
 6690SOL    HW220970   1.702   2.661   0.891
 6691SOL     OW20971   2.125   5.155   1.504
 6691SOL    HW120972   2.066   5.180   1.427
 6691SOL    HW220973   2.120   5.057   1.519
 6692SOL     OW20974   3.318   4.027   5.865
 6692SOL    HW120975   3.293   4.123   5.873
 6692SOL    HW220976   3.389   4.017   5.795
 6693SOL     OW20977   3.764   3.896   4.775
 6693SOL    HW120978   3.747   3.993   4.759
 6693SOL    HW220979   3.724   3.842   4.700
 6694SOL     OW20980   2.597   6.599   0.719
 6694SOL    HW120981   2.588   6.588   0.818
 6694SOL    HW220982   2.630   6.513   0.679
 6695SOL     OW20983   1.596   1.567   6.879
 6695SOL    HW120984   1.695   1.554   6.882
 6695SOL    HW220985   1.550   1.480   6.897
 6696SOL     OW20986   2.103   3.234   2.010
 6696SOL    HW120987   2.131   3.330   2.017
 6696SOL    HW220988   2.150   3.191   1.933
 6697SOL     OW20989   5.107   1.456   3.144
 6697SOL    HW120990   5.027   1.447   3.203
 6697SOL    HW220991   5.149   1.546   3.157
 6698SOL     OW20992   3.799   3.591   0.223
 6698SOL    HW120993   3.860   3.653   0.173
 6698SOL    HW220994   3.828   3.587   0.319
 6699SOL     OW20995   1.138   3.705   6.828
 6699SOL    HW120996   1.041   3.681   6.833
 6699SOL    HW220997   1.193   3.629   6.862
 6700SOL     OW20998   6.590   6.393   6.680
 6700SOL    HW120999   6.648   6.469   6.707
 6700SOL    HW221000   6.497   6.408   6.715
 6701SOL     OW21001   0.885   2.078   0.595
 6701SOL    HW121002   0.885   2.178   0.589
 6701SOL    HW221003   0.967   2.048   0.642
 6702SOL     OW21004   2.157   2.272   1.268
 6702SOL    HW121005   2.142   2.317   1.180
 6702SOL    HW221006   2.194   2.180   1.253
 6703SOL     OW21007   0.437   2.266   6.480
 6703SOL    HW121008   0.491   2.304   6.555
 6703SOL    HW221009   0.405   2.174   6.505
 6704SOL     OW21010   5.229   1.938   3.017
 6704SOL    HW121011   5.256   2.021   3.066
 6704SOL    HW221012   5.281   1.931   2.932
 6705SOL     OW21013   5.984   1.515   0.336
 6705SOL    HW121014   5.885   1.528   0.325
 6705SOL    HW221015   6.023   1.597   0.378
 6706SOL     OW21016   0.433   4.860   6.318
 6706SOL    HW121017   0.488   4.937   6.351
 6706SOL    HW221018   0.336   4.879   6.333
 6707SOL     OW21019   1.494   5.815   2.216
 6707SOL    HW121020   1.488   5.915   2.215
 6707SOL    HW221021   1.432   5.777   2.147
 6708SOL     OW21022   2.222   5.885   1.091
 6708SOL    HW121023   2.226   5.826   1.171
 6708SOL    HW221024   2.278   5.966   1.106
 6709SOL     OW21025   5.420   1.142   2.869
 6709SOL    HW121026   5.490   1.160   2.800
 6709SOL    HW221027   5.395   1.228   2.914
 6710SOL     OW21028   2.282   2.806   1.270
 6710SOL    HW121029   2.204   2.763   1.315
 6710SOL    HW221030   2.355   2.821   1.337
 6711SOL     OW21031   3.705   3.804   0.584
 6711SOL    HW121032   3.740   3.791   0.677
 6711SOL    HW221033   3.651   3.724   0.558
 6712SOL     OW21034   3.496   5.824   0.698
 6712SOL    HW121035   3.537   5.744   0.743
 6712SOL    HW221036   3.410   5.847   0.743
 6713SOL     OW21037   2.103   1.511   2.165
 6713SOL    HW121038   2.107   1.411   2.166
 6713SOL    HW221039   2.189   1.548   2.131
 6714SOL     OW21040   6.551   0.373   4.104
 6714SOL    HW121041   6.598   0.427   4.035
 6714SOL    HW221042   6.603   0.289   4.122
 6715SOL     OW21043   0.795   1.890   0.839
 6715SOL    HW121044   0.792   1.985   0.870
 6715SOL    HW221045   0.865   1.880   0.769
 6716SOL     OW21046   2.394   5.583   0.494
 6716SOL    HW121047   2.409   5.487   0.470
 6716SOL    HW221048   2.395   5.639   0.411
 6717SOL     OW21049   3.834   1.664   6.447
 6717SOL    HW121050   3.927   1.630   6.433
 6717SOL    HW221051   3.790   1.612   6.520
 6718SOL     OW21052   3.539   7.021   0.266
 6718SOL    HW121053   3.518   0.089   0.289
 6718SOL    HW221054   3.533   7.008   0.167
 6719SOL     OW21055   0.829   0.676   5.324
 6719SOL    HW121056   0.791   0.654   5.414
 6719SOL    HW221057   0.782   0.622   5.254
 6720SOL     OW21058   2.013   4.737   1.711
 6720SOL    HW121059   2.037   4.786   1.626
 6720SOL    HW221060   1.922   4.766   1.741
 6721SOL     OW21061   6.513   6.833   3.951
 6721SOL    HW121062   6.608   6.825   3.921
 6721SOL    HW221063   6.494   6.764   4.020
 6722SOL     OW21064   4.691   3.683   0.086
 6722SOL    HW121065   4.770   3.734   0.052
 6722SOL    HW221066   4.622   3.748   0.120
 6723SOL     OW21067   3.794   6.583   1.512
 6723SOL    HW121068   3.763   6.669   1.471
 6723SOL    HW221069   3.886   6.596   1.550
 6724SOL     OW21070   3.522   4.855   5.573
 6724SOL    HW121071   3.466   4.772   5.567
 6724SOL    HW221072   3.532   4.882   5.669
 6725SOL     OW21073   0.556   4.806   2.339
 6725SOL    HW121074   0.500   4.749   2.399
 6725SOL    HW221075   0.652   4.803   2.369
 6726SOL     OW21076   2.468   2.463   2.374
 6726SOL    HW121077   2.497   2.428   2.285
 6726SOL    HW221078   2.535   2.438   2.444
 6727SOL     OW21079   3.653   4.099   0.004
 6727SOL    HW121080   3.708   4.097   0.087
 6727SOL    HW221081   3.710   4.078   6.951
 6728SOL     OW21082   5.038   1.079   4.010
 6728SOL    HW121083   5.102   1.036   4.073
 6728SOL    HW221084   5.071   1.170   3.984
 6729SOL     OW21085   6.139   6.674   2.738
 6729SOL    HW121086   6.196   6.618   2.797
 6729SOL    HW221087   6.140   6.637   2.645
 6730SOL     OW21088   1.476   7.005   1.133
 6730SOL    HW121089   1.487   6.921   1.080
 6730SOL    HW221090   1.436   6.983   1.222
 6731SOL     OW21091   2.405   4.638   2.170
 6731SOL    HW121092   2.386   4.734   2.187
 6731SOL    HW221093   2.355   4.581   2.236
 6732SOL     OW21094   1.696   4.434   0.890
 6732SOL    HW121095   1.646   4.484   0.960
 6732SOL    HW221096   1.700   4.488   0.806
 6733SOL     OW21097   5.683   5.750   5.534
 6733SOL    HW121098   5.697   5.842   5.496
 6733SOL    HW221099   5.751   5.688   5.495
 6734SOL     OW21100   2.528   3.655   5.542
 6734SOL    HW121101   2.476   3.591   5.598
 6734SOL    HW221102   2.464   3.713   5.491
 6735SOL     OW21103   6.943   5.087   6.542
 6735SOL    HW121104   6.942   5.186   6.526
 6735SOL    HW221105   6.880   5.042   6.478
 6736SOL     OW21106   2.155   3.617   2.527
 6736SOL    HW121107   2.151   3.578   2.435
 6736SOL    HW221108   2.161   3.542   2.594
 6737SOL     OW21109   2.221   1.076   1.416
 6737SOL    HW121110   2.208   1.155   1.476
 6737SOL    HW221111   2.288   1.098   1.346
 6738SOL     OW21112   3.919   1.670   2.349
 6738SOL    HW121113   3.854   1.642   2.419
 6738SOL    HW221114   3.996   1.717   2.392
 6739SOL     OW21115   4.259   6.601   4.883
 6739SOL    HW121116   4.323   6.657   4.830
 6739SOL    HW221117   4.293   6.590   4.976
 6740SOL     OW21118   6.104   2.815   4.521
 6740SOL    HW121119   6.169   2.741   4.506
 6740SOL    HW221120   6.074   2.851   4.432
 6741SOL     OW21121   0.061   0.173   6.012
 6741SOL    HW121122   0.090   0.127   6.097
 6741SOL    HW221123   0.047   0.106   5.941
 6742SOL     OW21124   6.386   6.019   5.776
 6742SOL    HW121125   6.481   6.021   5.805
 6742SOL    HW221126   6.365   5.929   5.737
 6743SOL     OW21127   4.813   3.098   0.739
 6743SOL    HW121128   4.767   3.173   0.693
 6743SOL    HW221129   4.890   3.066   0.684
 6744SOL     OW21130   5.547   5.179   5.554
 6744SOL    HW121131   5.519   5.091   5.515
 6744SOL    HW221132   5.547   5.171   5.654
 6745SOL     OW21133   0.273   3.556   3.845
 6745SOL    HW121134   0.328   3.532   3.925
 6745SOL    HW221135   0.219   3.476   3.817
 6746SOL     OW21136   6.724   1.380   1.156
 6746SOL    HW121137   6.687   1.467   1.123
 6746SOL    HW221138   6.791   1.346   1.090
 6747SOL     OW21139   5.320   6.279   6.160
 6747SOL    HW121140   5.381   6.301   6.236
 6747SOL    HW221141   5.361   6.310   6.074
 6748SOL     OW21142   6.573   6.518   1.994
 6748SOL    HW121143   6.628   6.556   1.920
 6748SOL    HW221144   6.582   6.418   1.994
 6749SOL     OW21145   3.410   5.844   1.014
 6749SOL    HW121146   3.466   5.925   1.033
 6749SOL    HW221147   3.313   5.869   1.017
 6750SOL     OW21148   2.664   3.306   5.353
 6750SOL    HW121149   2.608   3.339   5.429
 6750SOL    HW221150   2.615   3.234   5.303
 6751SOL     OW21151   3.447   2.174   5.496
 6751SOL    HW121152   3.440   2.268   5.526
 6751SOL    HW221153   3.468   2.172   5.398
 6752SOL     OW21154   6.204   2.207   0.489
 6752SOL    HW121155   6.272   2.133   0.494
 6752SOL    HW221156   6.177   2.221   0.394
 6753SOL     OW21157   4.947   1.722   6.029
 6753SOL    HW121158   4.924   1.635   5.985
 6753SOL    HW221159   4.864   1.778   6.038
 6754SOL     OW21160   5.046   1.002   0.382
 6754SOL    HW121161   5.105   0.940   0.432
 6754SOL    HW221162   5.019   0.960   0.295
 6755SOL     OW21163   5.244   1.682   3.176
 6755SOL    HW121164   5.233   1.779   3.154
 6755SOL    HW221165   5.334   1.668   3.217
 6756SOL     OW21166   5.040   4.412   3.721
 6756SOL    HW121167   5.103   4.354   3.669
 6756SOL    HW221168   4.947   4.402   3.685
 6757SOL     OW21169   5.158   4.905   2.505
 6757SOL    HW121170   5.252   4.879   2.527
 6757SOL    HW221171   5.118   4.955   2.582
 6758SOL     OW21172   6.172   1.850   2.912
 6758SOL    HW121173   6.242   1.779   2.908
 6758SOL    HW221174   6.217   1.940   2.913
 6759SOL     OW21175   0.883   4.425   3.209
 6759SOL    HW121176   0.836   4.363   3.147
 6759SOL    HW221177   0.924   4.500   3.156
 6760SOL     OW21178   0.077   4.331   5.038
 6760SOL    HW121179   0.115   4.273   4.966
 6760SOL    HW221180   0.019   4.276   5.098
 6761SOL     OW21181   6.019   3.549   6.301
 6761SOL    HW121182   6.069   3.618   6.249
 6761SOL    HW221183   5.939   3.520   6.249
 6762SOL     OW21184   5.735   4.720   3.481
 6762SOL    HW121185   5.661   4.786   3.477
 6762SOL    HW221186   5.700   4.630   3.507
 6763SOL     OW21187   5.832   6.368   5.652
 6763SOL    HW121188   5.798   6.283   5.694
 6763SOL    HW221189   5.792   6.377   5.560
 6764SOL     OW21190   2.183   3.523   0.221
 6764SOL    HW121191   2.089   3.522   0.255
 6764SOL    HW221192   2.246   3.518   0.298
 6765SOL     OW21193   5.138   5.392   2.708
 6765SOL    HW121194   5.072   5.413   2.781
 6765SOL    HW221195   5.103   5.425   2.621
 6766SOL     OW21196   1.619   1.656   5.563
 6766SOL    HW121197   1.677   1.581   5.591
 6766SOL    HW221198   1.628   1.672   5.465
 6767SOL     OW21199   1.181   2.704   5.381
 6767SOL    HW121200   1.212   2.770   5.313
 6767SOL    HW221201   1.183   2.612   5.340
 6768SOL     OW21202   0.303   0.364   5.641
 6768SOL    HW121203   0.280   0.270   5.617
 6768SOL    HW221204   0.401   0.372   5.656
 6769SOL     OW21205   1.038   2.906   6.552
 6769SOL    HW121206   1.121   2.948   6.587
 6769SOL    HW221207   0.960   2.968   6.566
 6770SOL     OW21208   6.797   1.237   4.214
 6770SOL    HW121209   6.764   1.301   4.283
 6770SOL    HW221210   6.786   1.144   4.247
 6771SOL     OW21211   4.274   1.922   2.319
 6771SOL    HW121212   4.246   1.942   2.225
 6771SOL    HW221213   4.352   1.980   2.344
 6772SOL     OW21214   1.004   0.981   1.658
 6772SOL    HW121215   1.086   0.966   1.713
 6772SOL    HW221216   1.030   1.013   1.567
 6773SOL     OW21217   0.716   0.532   1.853
 6773SOL    HW121218   0.749   0.522   1.947
 6773SOL    HW221219   0.691   0.628   1.837
 6774SOL     OW21220   2.959   1.119   5.787
 6774SOL    HW121221   2.983   1.216   5.791
 6774SOL    HW221222   3.042   1.064   5.783
 6775SOL     OW21223   0.922   3.188   5.143
 6775SOL    HW121224   1.008   3.184   5.094
 6775SOL    HW221225   0.929   3.136   5.228
 6776SOL     OW21226   3.263   3.928   3.122
 6776SOL    HW121227   3.174   3.889   3.100
 6776SOL    HW221228   3.252   4.005   3.185
 6777SOL     OW21229   0.597   7.016   6.476
 6777SOL    HW121230   0.510   0.037   6.462
 6777SOL    HW221231   0.623   7.022   6.572
 6778SOL     OW21232   6.256   6.187   2.517
 6778SOL    HW121233   6.285   6.094   2.496
 6778SOL    HW221234   6.157   6.193   2.511
 6779SOL     OW21235   4.779   4.368   6.718
 6779SOL    HW121236   4.763   4.336   6.811
 6779SOL    HW221237   4.710   4.437   6.694
 6780SOL     OW21238   4.046   1.179   2.629
 6780SOL    HW121239   4.141   1.155   2.651
 6780SOL    HW221240   4.036   1.279   2.629
 6781SOL     OW21241   6.108   2.693   3.102
 6781SOL    HW121242   6.056   2.607   3.098
 6781SOL    HW221243   6.076   2.754   3.030
 6782SOL     OW21244   0.221   1.478   3.156
 6782SOL    HW121245   0.240   1.571   3.188
 6782SOL    HW221246   0.288   1.452   3.087
 6783SOL     OW21247   0.539   6.073   6.024
 6783SOL    HW121248   0.580   6.006   6.087
 6783SOL    HW221249   0.563   6.049   5.930
 6784SOL     OW21250   1.582   4.671   1.019
 6784SOL    HW121251   1.625   4.755   0.987
 6784SOL    HW221252   1.496   4.656   0.969
 6785SOL     OW21253   5.703   4.740   3.193
 6785SOL    HW121254   5.697   4.747   3.292
 6785SOL    HW221255   5.614   4.712   3.156
 6786SOL     OW21256   6.491   2.154   5.903
 6786SOL    HW121257   6.559   2.096   5.857
 6786SOL    HW221258   6.461   2.109   5.987
 6787SOL     OW21259   3.121   1.332   0.725
 6787SOL    HW121260   3.194   1.331   0.657
 6787SOL    HW221261   3.047   1.271   0.696
 6788SOL     OW21262   0.644   4.436   1.242
 6788SOL    HW121263   0.589   4.392   1.171
 6788SOL    HW221264   0.724   4.380   1.262
 6789SOL     OW21265   5.991   4.603   2.822
 6789SOL    HW121266   5.922   4.572   2.887
 6789SOL    HW221267   6.079   4.562   2.846
 6790SOL     OW21268   0.574   5.987   1.193
 6790SOL    HW121269   0.531   5.919   1.252
 6790SOL    HW221270   0.563   5.961   1.097
 6791SOL     OW21271   2.528   5.962   3.567
 6791SOL    HW121272   2.509   5.912   3.651
 6791SOL    HW221273   2.553   6.056   3.589
 6792SOL     OW21274   3.482   6.698   6.055
 6792SOL    HW121275   3.460   6.624   6.119
 6792SOL    HW221276   3.477   6.786   6.103
 6793SOL     OW21277   2.463   3.683   5.934
 6793SOL    HW121278   2.462   3.592   5.976
 6793SOL    HW221279   2.549   3.729   5.956
 6794SOL     OW21280   4.976   2.768   4.786
 6794SOL    HW121281   5.031   2.815   4.855
 6794SOL    HW221282   5.036   2.713   4.727
 6795SOL     OW21283   0.622   0.674   1.544
 6795SOL    HW121284   0.601   0.656   1.640
 6795SOL    HW221285   0.698   0.739   1.538
 6796SOL     OW21286   7.002   2.118   2.286
 6796SOL    HW121287   6.996   2.045   2.218
 6796SOL    HW221288   6.965   2.085   2.373
 6797SOL     OW21289   1.617   3.051   1.032
 6797SOL    HW121290   1.611   3.140   0.988
 6797SOL    HW221291   1.561   3.050   1.115
 6798SOL     OW21292   4.865   1.446   2.063
 6798SOL    HW121293   4.951   1.434   2.113
 6798SOL    HW221294   4.885   1.469   1.968
 6799SOL     OW21295   6.666   0.121   2.658
 6799SOL    HW121296   6.635   0.188   2.591
 6799SOL    HW221297   6.607   0.126   2.739
 6800SOL     OW21298   6.523   3.013   2.085
 6800SOL    HW121299   6.538   2.914   2.094
 6800SOL    HW221300   6.606   3.056   2.050
 6801SOL     OW21301   1.474   5.683   6.216
 6801SOL    HW121302   1.561   5.717   6.252
 6801SOL    HW221303   1.420   5.759   6.181
 6802SOL     OW21304   3.109   4.822   1.980
 6802SOL    HW121305   3.076   4.729   1.969
 6802SOL    HW221306   3.162   4.829   2.065
 6803SOL     OW21307   5.262   4.980   6.315
 6803SOL    HW121308   5.288   4.884   6.300
 6803SOL    HW221309   5.344   5.033   6.337
 6804SOL     OW21310   3.521   5.405   2.324
 6804SOL    HW121311   3.483   5.498   2.328
 6804SOL    HW221312   3.586   5.399   2.248
 6805SOL     OW21313   0.797   3.801   3.929
 6805SOL    HW121314   0.790   3.763   3.836
 6805SOL    HW221315   0.829   3.895   3.924
 6806SOL     OW21316   6.020   3.487   2.474
 6806SOL    HW121317   5.996   3.453   2.383
 6806SOL    HW221318   6.078   3.419   2.520
 6807SOL     OW21319   3.020   3.940   2.348
 6807SOL    HW121320   2.980   4.028   2.371
 6807SOL    HW221321   3.079   3.950   2.268
 6808SOL     OW21322   3.916   0.335   3.619
 6808SOL    HW121323   3.991   0.369   3.675
 6808SOL    HW221324   3.950   0.268   3.554
 6809SOL     OW21325   5.871   2.783   0.599
 6809SOL    HW121326   5.785   2.748   0.636
 6809SOL    HW221327   5.940   2.711   0.601
 6810SOL     OW21328   2.857   0.785   4.969
 6810SOL    HW121329   2.868   0.884   4.959
 6810SOL    HW221330   2.880   0.740   4.883
 6811SOL     OW21331   6.792   1.767   1.385
 6811SOL    HW121332   6.844   1.682   1.397
 6811SOL    HW221333   6.830   1.838   1.445
 6812SOL     OW21334   3.273   4.362   5.548
 6812SOL    HW121335   3.350   4.319   5.501
 6812SOL    HW221336   3.201   4.384   5.482
 6813SOL     OW21337   6.913   3.992   2.266
 6813SOL    HW121338   6.875   3.987   2.173
 6813SOL    HW221339   7.006   4.028   2.262
 6814SOL     OW21340   5.695   1.265   1.007
 6814SOL    HW121341   5.689   1.204   1.086
 6814SOL    HW221342   5.627   1.239   0.939
 6815SOL     OW21343   0.675   5.983   6.819
 6815SOL    HW121344   0.703   6.045   6.746
 6815SOL    HW221345   0.622   5.908   6.780
 6816SOL     OW21346   6.568   6.838   4.323
 6816SOL    HW121347   6.609   6.805   4.408
 6816SOL    HW221348   6.469   6.846   4.335
 6817SOL     OW21349   4.997   2.028   1.729
 6817SOL    HW121350   4.976   2.039   1.826
 6817SOL    HW221351   5.047   1.942   1.716
 6818SOL     OW21352   1.026   6.954   5.195
 6818SOL    HW121353   0.946   7.009   5.175
 6818SOL    HW221354   1.105   7.014   5.210
 6819SOL     OW21355   4.950   4.143   1.532
 6819SOL    HW121356   5.049   4.146   1.543
 6819SOL    HW221357   4.913   4.236   1.538
 6820SOL     OW21358   2.718   5.244   1.513
 6820SOL    HW121359   2.643   5.216   1.453
 6820SOL    HW221360   2.800   5.259   1.459
 6821SOL     OW21361   2.898   2.737   6.406
 6821SOL    HW121362   2.947   2.825   6.405
 6821SOL    HW221363   2.964   2.662   6.411
 6822SOL     OW21364   5.928   3.583   5.430
 6822SOL    HW121365   5.941   3.489   5.400
 6822SOL    HW221366   5.852   3.624   5.378
 6823SOL     OW21367   0.372   3.071   6.053
 6823SOL    HW121368   0.305   3.060   6.126
 6823SOL    HW221369   0.424   2.985   6.041
 6824SOL     OW21370   1.543   0.419   5.092
 6824SOL    HW121371   1.606   0.468   5.152
 6824SOL    HW221372   1.549   0.458   5.000
 6825SOL     OW21373   4.463   4.549   1.539
 6825SOL    HW121374   4.548   4.586   1.576
 6825SOL    HW221375   4.449   4.584   1.446
 6826SOL     OW21376   5.656   0.366   3.310
 6826SOL    HW121377   5.668   0.290   3.374
 6826SOL    HW221378   5.583   0.343   3.245
 6827SOL     OW21379   4.499   5.702   5.507
 6827SOL    HW121380   4.545   5.742   5.428
 6827SOL    HW221381   4.470   5.775   5.569
 6828SOL     OW21382   3.315   1.954   2.032
 6828SOL    HW121383   3.246   2.015   1.993
 6828SOL    HW221384   3.403   1.969   1.986
 6829SOL     OW21385   4.714   6.367   4.013
 6829SOL    HW121386   4.664   6.284   4.038
 6829SOL    HW221387   4.663   6.447   4.045
 6830SOL     OW21388   4.224   5.476   2.363
 6830SOL    HW121389   4.300   5.512   2.309
 6830SOL    HW221390   4.193   5.390   2.323
 6831SOL     OW21391   1.450   1.402   6.631
 6831SOL    HW121392   1.504   1.328   6.670
 6831SOL    HW221393   1.500   1.443   6.554
 6832SOL     OW21394   3.129   2.914   6.862
 6832SOL    HW121395   3.040   2.958   6.870
 6832SOL    HW221396   3.193   2.975   6.815
 6833SOL     OW21397   4.356   4.950   6.292
 6833SOL    HW121398   4.306   4.911   6.369
 6833SOL    HW221399   4.355   5.050   6.299
 6834SOL     OW21400   6.100   6.253   6.277
 6834SOL    HW121401   6.093   6.165   6.230
 6834SOL    HW221402   6.191   6.292   6.262
 6835SOL     OW21403   3.664   0.760   3.783
 6835SOL    HW121404   3.572   0.729   3.809
 6835SOL    HW221405   3.711   0.687   3.733
 6836SOL     OW21406   0.308   4.138   6.190
 6836SOL    HW121407   0.353   4.175   6.272
 6836SOL    HW221408   0.339   4.044   6.176
 6837SOL     OW21409   6.442   0.619   2.018
 6837SOL    HW121410   6.503   0.698   2.013
 6837SOL    HW221411   6.357   0.644   2.065
 6838SOL     OW21412   3.136   4.019   6.076
 6838SOL    HW121413   3.052   4.068   6.052
 6838SOL    HW221414   3.186   3.995   5.993
 6839SOL     OW21415   5.699   3.052   4.769
 6839SOL    HW121416   5.752   3.104   4.702
 6839SOL    HW221417   5.651   2.978   4.722
 6840SOL     OW21418   2.360   5.896   5.000
 6840SOL    HW121419   2.420   5.975   5.009
 6840SOL    HW221420   2.403   5.817   5.044
 6841SOL     OW21421   4.690   6.885   1.136
 6841SOL    HW121422   4.601   6.840   1.136
 6841SOL    HW221423   4.761   6.819   1.115
 6842SOL     OW21424   0.514   3.914   4.288
 6842SOL    HW121425   0.578   3.989   4.301
 6842SOL    HW221426   0.440   3.942   4.228
 6843SOL     OW21427   4.657   2.806   1.787
 6843SOL    HW121428   4.647   2.899   1.821
 6843SOL    HW221429   4.585   2.787   1.720
 6844SOL     OW21430   3.314   5.967   4.486
 6844SOL    HW121431   3.285   5.874   4.510
 6844SOL    HW221432   3.405   5.964   4.445
 6845SOL     OW21433   4.134   4.326   0.398
 6845SOL    HW121434   4.187   4.245   0.373
 6845SOL    HW221435   4.140   4.394   0.325
 6846SOL     OW21436   4.081   3.342   2.676
 6846SOL    HW121437   4.056   3.246   2.690
 6846SOL    HW221438   4.154   3.367   2.739
 6847SOL     OW21439   6.584   3.447   1.438
 6847SOL    HW121440   6.674   3.481   1.467
 6847SOL    HW221441   6.527   3.431   1.518
 6848SOL     OW21442   0.194   6.130   4.235
 6848SOL    HW121443   0.226   6.209   4.184
 6848SOL    HW221444   0.097   6.141   4.257
 6849SOL     OW21445   3.270   6.711   4.526
 6849SOL    HW121446   3.190   6.768   4.547
 6849SOL    HW221447   3.254   6.618   4.559
 6850SOL     OW21448   5.670   3.708   1.576
 6850SOL    HW121449   5.646   3.677   1.668
 6850SOL    HW221450   5.614   3.660   1.509
 6851SOL     OW21451   1.072   5.216   5.464
 6851SOL    HW121452   1.025   5.131   5.484
 6851SOL    HW221453   1.080   5.228   5.365
 6852SOL     OW21454   6.669   5.141   2.399
 6852SOL    HW121455   6.637   5.227   2.440
 6852SOL    HW221456   6.670   5.069   2.469
 6853SOL     OW21457   6.167   4.308   5.003
 6853SOL    HW121458   6.266   4.299   4.994
 6853SOL    HW221459   6.134   4.247   5.075
 6854SOL     OW21460   6.843   2.032   6.258
 6854SOL    HW121461   6.899   1.971   6.314
 6854SOL    HW221462   6.746   2.020   6.282
 6855SOL     OW21463   2.999   6.750   1.852
 6855SOL    HW121464   2.908   6.715   1.875
 6855SOL    HW221465   3.059   6.739   1.931
 6856SOL     OW21466   6.953   4.976   5.461
 6856SOL    HW121467   6.999   5.048   5.514
 6856SOL    HW221468   6.957   4.890   5.511
 6857SOL     OW21469   3.480   1.032   6.370
 6857SOL    HW121470   3.426   1.116   6.370
 6857SOL    HW221471   3.576   1.054   6.387
 6858SOL     OW21472   3.688   3.123   5.726
 6858SOL    HW121473   3.772   3.073   5.751
 6858SOL    HW221474   3.703   3.174   5.642
 6859SOL     OW21475   3.248   0.992   0.394
 6859SOL    HW121476   3.234   0.910   0.449
 6859SOL    HW221477   3.208   0.979   0.303
 6860SOL     OW21478   4.704   3.984   6.784
 6860SOL    HW121479   4.676   4.070   6.828
 6860SOL    HW221480   4.690   3.991   6.685
 6861SOL     OW21481   5.594   3.918   0.729
 6861SOL    HW121482   5.533   3.948   0.803
 6861SOL    HW221483   5.568   3.963   0.644
 6862SOL     OW21484   2.645   5.077   4.114
 6862SOL    HW121485   2.684   4.987   4.135
 6862SOL    HW221486   2.599   5.112   4.196
 6863SOL     OW21487   0.482   2.910   3.898
 6863SOL    HW121488   0.476   2.828   3.842
 6863SOL    HW221489   0.537   2.892   3.980
 6864SOL     OW21490   4.828   5.711   6.151
 6864SOL    HW121491   4.926   5.715   6.132
 6864SOL    HW221492   4.779   5.679   6.070
 6865SOL     OW21493   6.999   3.181   4.551
 6865SOL    HW121494   6.929   3.134   4.604
 6865SOL    HW221495   7.015   3.131   4.465
 6866SOL     OW21496   0.343   3.093   2.094
 6866SOL    HW121497   0.287   3.092   2.011
 6866SOL    HW221498   0.367   3.000   2.120
 6867SOL     OW21499   2.815   5.551   3.155
 6867SOL    HW121500   2.722   5.561   3.118
 6867SOL    HW221501   2.875   5.618   3.111
 6868SOL     OW21502   1.362   5.672   4.775
 6868SOL    HW121503   1.431   5.605   4.751
 6868SOL    HW221504   1.311   5.699   4.693
 6869SOL     OW21505   6.485   3.319   4.626
 6869SOL    HW121506   6.436   3.369   4.697
 6869SOL    HW221507   6.514   3.230   4.663
 6870SOL     OW21508   5.559   3.803   2.341
 6870SOL    HW121509   5.587   3.896   2.315
 6870SOL    HW221510   5.638   3.742   2.334
 6871SOL     OW21511   5.188   0.020   1.697
 6871SOL    HW121512   5.223   6.960   1.661
 6871SOL    HW221513   5.198   0.092   1.629
 6872SOL     OW21514   2.886   3.575   6.874
 6872SOL    HW121515   2.852   3.666   6.850
 6872SOL    HW221516   2.813   3.508   6.860
 6873SOL     OW21517   5.656   3.897   5.527
 6873SOL    HW121518   5.588   3.963   5.496
 6873SOL    HW221519   5.746   3.942   5.532
 6874SOL     OW21520   1.283   2.259   5.477
 6874SOL    HW121521   1.241   2.318   5.408
 6874SOL    HW221522   1.322   2.315   5.550
 6875SOL     OW21523   3.179   1.913   4.021
 6875SOL    HW121524   3.132   1.991   4.062
 6875SOL    HW221525   3.278   1.923   4.036
 6876SOL     OW21526   3.291   6.277   4.531
 6876SOL    HW121527   3.385   6.245   4.522
 6876SOL    HW221528   3.229   6.204   4.504
 6877SOL     OW21529   2.206   3.793   6.804
 6877SOL    HW121530   2.233   3.697   6.810
 6877SOL    HW221531   2.191   3.817   6.708
 6878SOL     OW21532   1.753   2.234   4.786
 6878SOL    HW121533   1.766   2.221   4.884
 6878SOL    HW221534   1.825   2.293   4.749
 6879SOL     OW21535   1.055   0.719   6.000
 6879SOL    HW121536   1.025   0.801   5.951
 6879SOL    HW221537   0.997   0.642   5.974
 6880SOL     OW21538   1.868   3.931   4.494
 6880SOL    HW121539   1.890   4.022   4.529
 6880SOL    HW221540   1.938   3.866   4.523
 6881SOL     OW21541   6.116   5.537   2.125
 6881SOL    HW121542   6.049   5.514   2.195
 6881SOL    HW221543   6.080   5.510   2.035
 6882SOL     OW21544   2.673   6.211   5.165
 6882SOL    HW121545   2.716   6.252   5.245
 6882SOL    HW221546   2.737   6.213   5.088
 6883SOL     OW21547   3.153   6.427   1.396
 6883SOL    HW121548   3.058   6.460   1.392
 6883SOL    HW221549   3.155   6.329   1.381
 6884SOL     OW21550   2.452   5.050   2.971
 6884SOL    HW121551   2.427   5.146   2.955
 6884SOL    HW221552   2.457   5.033   3.070
 6885SOL     OW21553   3.831   5.522   5.465
 6885SOL    HW121554   3.808   5.608   5.419
 6885SOL    HW221555   3.748   5.468   5.478
 6886SOL     OW21556   5.375   1.877   2.117
 6886SOL    HW121557   5.363   1.914   2.025
 6886SOL    HW221558   5.472   1.865   2.137
 6887SOL     OW21559   4.367   0.941   5.217
 6887SOL    HW121560   4.378   0.842   5.206
 6887SOL    HW221561   4.415   0.989   5.144
 6888SOL     OW21562   5.835   6.764   5.024
 6888SOL    HW121563   5.876   6.773   5.115
 6888SOL    HW221564   5.878   6.828   4.961
 6889SOL     OW21565   1.432   4.199   6.123
 6889SOL    HW121566   1.429   4.156   6.033
 6889SOL    HW221567   1.344   4.242   6.143
 6890SOL     OW21568   1.888   0.669   0.655
 6890SOL    HW121569   1.827   0.738   0.617
 6890SOL    HW221570   1.918   0.696   0.746
 6891SOL     OW21571   3.860   5.028   4.912
 6891SOL    HW121572   3.802   4.964   4.963
 6891SOL    HW221573   3.805   5.108   4.886
 6892SOL     OW21574   3.647   1.354   4.771
 6892SOL    HW121575   3.652   1.291   4.694
 6892SOL    HW221576   3.577   1.323   4.836
 6893SOL     OW21577   5.873   6.992   1.669
 6893SOL    HW121578   5.969   6.989   1.641
 6893SOL    HW221579   5.836   6.899   1.673
 6894SOL     OW21580   6.180   4.858   5.569
 6894SOL    HW121581   6.156   4.767   5.532
 6894SOL    HW221582   6.176   4.855   5.669
 6895SOL     OW21583   3.904   4.904   6.383
 6895SOL    HW121584   3.893   4.843   6.461
 6895SOL    HW221585   3.967   4.979   6.407
 6896SOL     OW21586   4.782   0.500   2.913
 6896SOL    HW121587   4.866   0.553   2.925
 6896SOL    HW221588   4.731   0.499   2.999
 6897SOL     OW21589   3.417   1.833   0.659
 6897SOL    HW121590   3.399   1.883   0.574
 6897SOL    HW221591   3.498   1.776   0.647
 6898SOL     OW21592   3.687   1.592   3.288
 6898SOL    HW121593   3.703   1.679   3.241
 6898SOL    HW221594   3.610   1.602   3.351
 6899SOL     OW21595   5.569   6.149   6.714
 6899SOL    HW121596   5.511   6.179   6.639
 6899SOL    HW221597   5.598   6.228   6.768
 6900SOL     OW21598   4.026   1.193   5.781
 6900SOL    HW121599   4.081   1.277   5.788
 6900SOL    HW221600   4.087   1.114   5.788
 6901SOL     OW21601   1.215   0.538   0.645
 6901SOL    HW121602   1.314   0.548   0.639
 6901SOL    HW221603   1.174   0.561   0.556
 6902SOL     OW21604   6.230   5.369   1.804
 6902SOL    HW121605   6.194   5.355   1.712
 6902SOL    HW221606   6.301   5.439   1.802
 6903SOL     OW21607   4.371   4.739   0.542
 6903SOL    HW121608   4.344   4.818   0.597
 6903SOL    HW221609   4.375   4.658   0.599
 6904SOL     OW21610   0.787   1.869   3.239
 6904SOL    HW121611   0.849   1.802   3.278
 6904SOL    HW221612   0.750   1.834   3.153
 6905SOL     OW21613   4.149   4.888   1.003
 6905SOL    HW121614   4.144   4.958   0.932
 6905SOL    HW221615   4.101   4.806   0.972
 6906SOL     OW21616   5.115   5.876   3.356
 6906SOL    HW121617   5.084   5.947   3.293
 6906SOL    HW221618   5.036   5.835   3.401
 6907SOL     OW21619   3.468   1.013   1.148
 6907SOL    HW121620   3.525   1.075   1.093
 6907SOL    HW221621   3.484   0.919   1.118
 6908SOL     OW21622   0.150   0.146   6.488
 6908SOL    HW121623   0.228   0.168   6.429
 6908SOL    HW221624   0.066   0.183   6.448
 6909SOL     OW21625   3.821   3.090   6.705
 6909SOL    HW121626   3.841   3.174   6.756
 6909SOL    HW221627   3.756   3.034   6.757
 6910SOL     OW21628   6.202   1.335   1.604
 6910SOL    HW121629   6.263   1.283   1.545
 6910SOL    HW221630   6.209   1.433   1.581
 6911SOL     OW21631   4.359   0.822   4.893
 6911SOL    HW121632   4.317   0.733   4.914
 6911SOL    HW221633   4.368   0.832   4.794
 6912SOL     OW21634   4.462   4.984   1.914
 6912SOL    HW121635   4.485   4.925   1.991
 6912SOL    HW221636   4.497   4.945   1.830
 6913SOL     OW21637   4.163   6.053   5.845
 6913SOL    HW121638   4.240   6.008   5.800
 6913SOL    HW221639   4.184   6.067   5.942
 6914SOL     OW21640   6.390   4.951   6.874
 6914SOL    HW121641   6.392   5.039   6.826
 6914SOL    HW221642   6.416   4.964   6.969
 6915SOL     OW21643   1.395   5.585   0.913
 6915SOL    HW121644   1.403   5.488   0.892
 6915SOL    HW221645   1.406   5.598   1.012
 6916SOL     OW21646   6.523   0.706   5.932
 6916SOL    HW121647   6.438   0.679   5.977
 6916SOL    HW221648   6.587   0.630   5.932
 6917SOL     OW21649   4.705   0.258   6.724
 6917SOL    HW121650   4.749   0.173   6.755
 6917SOL    HW221651   4.650   0.296   6.799
 6918SOL     OW21652   2.010   3.000   3.842
 6918SOL    HW121653   2.032   2.952   3.927
 6918SOL    HW221654   2.020   2.938   3.765
 6919SOL     OW21655   1.315   6.263   3.070
 6919SOL    HW121656   1.312   6.327   3.147
 6919SOL    HW221657   1.361   6.179   3.100
 6920SOL     OW21658   5.114   6.705   4.526
 6920SOL    HW121659   5.144   6.796   4.556
 6920SOL    HW221660   5.189   6.661   4.476
 6921SOL     OW21661   0.635   6.210   2.985
 6921SOL    HW121662   0.674   6.283   2.929
 6921SOL    HW221663   0.542   6.233   3.011
 6922SOL     OW21664   1.605   5.619   6.926
 6922SOL    HW121665   1.703   5.606   6.912
 6922SOL    HW221666   1.554   5.573   6.853
 6923SOL     OW21667   4.244   6.790   3.960
 6923SOL    HW121668   4.309   6.717   3.943
 6923SOL    HW221669   4.200   6.817   3.874
 6924SOL     OW21670   6.667   5.943   1.678
 6924SOL    HW121671   6.754   5.931   1.631
 6924SOL    HW221672   6.660   6.037   1.711
 6925SOL     OW21673   6.194   5.703   3.116
 6925SOL    HW121674   6.291   5.679   3.109
 6925SOL    HW221675   6.170   5.719   3.212
 6926SOL     OW21676   3.067   4.178   5.297
 6926SOL    HW121677   2.983   4.214   5.257
 6926SOL    HW221678   3.045   4.111   5.369
 6927SOL     OW21679   4.004   3.054   0.339
 6927SOL    HW121680   3.979   2.988   0.269
 6927SOL    HW221681   4.072   3.117   0.302
 6928SOL     OW21682   6.980   6.878   6.600
 6928SOL    HW121683   7.008   6.782   6.593
 6928SOL    HW221684   0.030   6.937   6.575
 6929SOL     OW21685   3.552   5.179   0.669
 6929SOL    HW121686   3.622   5.222   0.726
 6929SOL    HW221687   3.493   5.249   0.630
 6930SOL     OW21688   1.221   0.309   3.359
 6930SOL    HW121689   1.145   0.271   3.412
 6930SOL    HW221690   1.300   0.323   3.418
 6931SOL     OW21691   1.911   0.827   1.451
 6931SOL    HW121692   1.963   0.745   1.474
 6931SOL    HW221693   1.935   0.901   1.515
 6932SOL     OW21694   2.395   2.124   0.205
 6932SOL    HW121695   2.473   2.151   0.149
 6932SOL    HW221696   2.423   2.119   0.301
 6933SOL     OW21697   3.012   6.251   6.969
 6933SOL    HW121698   2.937   6.202   7.014
 6933SOL    HW221699   3.098   6.204   6.987
 6934SOL     OW21700   5.418   4.237   6.304
 6934SOL    HW121701   5.328   4.211   6.269
 6934SOL    HW221702   5.450   4.318   6.255
 6935SOL     OW21703   4.322   5.810   3.145
 6935SOL    HW121704   4.402   5.870   3.138
 6935SOL    HW221705   4.349   5.723   3.185
 6936SOL     OW21706   0.638   5.210   1.020
 6936SOL    HW121707   0.623   5.130   1.078
 6936SOL    HW221708   0.662   5.180   0.928
 6937SOL     OW21709   4.230   6.265   6.048
 6937SOL    HW121710   4.153   6.328   6.045
 6937SOL    HW221711   4.296   6.296   6.117
 6938SOL     OW21712   5.969   1.786   4.980
 6938SOL    HW121713   5.912   1.848   5.034
 6938SOL    HW221714   6.065   1.799   5.005
 6939SOL     OW21715   6.676   4.580   1.947
 6939SOL    HW121716   6.637   4.505   1.894
 6939SOL    HW221717   6.680   4.555   2.044
 6940SOL     OW21718   3.940   0.757   5.135
 6940SOL    HW121719   3.983   0.732   5.222
 6940SOL    HW221720   4.001   0.817   5.084
 6941SOL     OW21721   3.924   3.052   3.881
 6941SOL    HW121722   3.874   3.138   3.885
 6941SOL    HW221723   3.889   2.996   3.806
 6942SOL     OW21724   6.623   1.959   0.292
 6942SOL    HW121725   6.568   2.032   0.332
 6942SOL    HW221726   6.675   1.913   0.363
 6943SOL     OW21727   5.909   6.127   6.873
 6943SOL    HW121728   5.986   6.071   6.841
 6943SOL    HW221729   5.909   6.130   6.973
 6944SOL     OW21730   1.139   6.207   6.296
 6944SOL    HW121731   1.216   6.239   6.240
 6944SOL    HW221732   1.174   6.171   6.383
 6945SOL     OW21733   4.512   1.931   5.290
 6945SOL    HW121734   4.432   1.881   5.258
 6945SOL    HW221735   4.584   1.867   5.315
 6946SOL     OW21736   5.940   3.926   3.653
 6946SOL    HW121737   5.981   3.997   3.711
 6946SOL    HW221738   6.009   3.856   3.633
 6947SOL     OW21739   3.674   0.077   2.546
 6947SOL    HW121740   3.608   0.076   2.621
 6947SOL    HW221741   3.767   0.084   2.584
 6948SOL     OW21742   3.736   2.090   4.709
 6948SOL    HW121743   3.830   2.094   4.673
 6948SOL    HW221744   3.671   2.098   4.633
 6949SOL     OW21745   5.031   0.912   2.384
 6949SOL    HW121746   5.120   0.882   2.419
 6949SOL    HW221747   4.961   0.846   2.411
 6950SOL     OW21748   2.517   1.092   3.558
 6950SOL    HW121749   2.445   1.161   3.564
 6950SOL    HW221750   2.579   1.101   3.637
 6951SOL     OW21751   5.443   5.549   5.534
 6951SOL    HW121752   5.466   5.469   5.589
 6951SOL    HW221753   5.497   5.627   5.565
 6952SOL     OW21754   0.180   4.996   4.873
 6952SOL    HW121755   0.226   4.914   4.839
 6952SOL    HW221756   0.143   5.048   4.796
 6953SOL     OW21757   5.523   2.393   5.144
 6953SOL    HW121758   5.527   2.458   5.220
 6953SOL    HW221759   5.437   2.405   5.095
 6954SOL     OW21760   0.513   5.150   2.797
 6954SOL    HW121761   0.518   5.051   2.784
 6954SOL    HW221762   0.533   5.196   2.710
 6955SOL     OW21763   6.595   6.148   3.332
 6955SOL    HW121764   6.665   6.169   3.401
 6955SOL    HW221765   6.630   6.173   3.242
 6956SOL     OW21766   3.189   5.120   0.971
 6956SOL    HW121767   3.092   5.099   0.958
 6956SOL    HW221768   3.222   5.075   1.053
 6957SOL     OW21769   0.523   3.917   0.295
 6957SOL    HW121770   0.603   3.876   0.339
 6957SOL    HW221771   0.440   3.877   0.333
 6958SOL     OW21772   2.308   3.801   6.163
 6958SOL    HW121773   2.349   3.735   6.100
 6958SOL    HW221774   2.222   3.764   6.198
 6959SOL     OW21775   3.747   1.449   3.853
 6959SOL    HW121776   3.832   1.398   3.854
 6959SOL    HW221777   3.743   1.506   3.771
 6960SOL     OW21778   6.851   4.919   0.100
 6960SOL    HW121779   6.932   4.860   0.101
 6960SOL    HW221780   6.854   4.981   0.178
 6961SOL     OW21781   7.022   1.127   2.962
 6961SOL    HW121782   6.985   1.196   3.024
 6961SOL    HW221783   6.988   1.142   2.870
 6962SOL     OW21784   3.586   3.555   0.579
 6962SOL    HW121785   3.492   3.533   0.555
 6962SOL    HW221786   3.596   3.554   0.678
 6963SOL     OW21787   6.292   5.883   2.344
 6963SOL    HW121788   6.377   5.831   2.353
 6963SOL    HW221789   6.254   5.868   2.253
 6964SOL     OW21790   3.397   5.999   4.844
 6964SOL    HW121791   3.324   6.041   4.790
 6964SOL    HW221792   3.461   5.953   4.782
 6965SOL     OW21793   6.525   3.041   5.361
 6965SOL    HW121794   6.563   2.987   5.436
 6965SOL    HW221795   6.425   3.035   5.363
 6966SOL     OW21796   4.983   2.618   3.713
 6966SOL    HW121797   4.910   2.685   3.706
 6966SOL    HW221798   4.948   2.535   3.757
 6967SOL     OW21799   1.969   2.233   6.377
 6967SOL    HW121800   2.068   2.243   6.367
 6967SOL    HW221801   1.940   2.145   6.338
 6968SOL     OW21802   4.229   6.899   2.453
 6968SOL    HW121803   4.272   6.813   2.482
 6968SOL    HW221804   4.290   6.975   2.473
 6969SOL     OW21805   2.944   2.376   1.195
 6969SOL    HW121806   2.958   2.421   1.107
 6969SOL    HW221807   3.032   2.363   1.240
 6970SOL     OW21808   4.390   3.923   0.492
 6970SOL    HW121809   4.396   3.997   0.560
 6970SOL    HW221810   4.471   3.865   0.498
 6971SOL     OW21811   5.765   0.546   2.331
 6971SOL    HW121812   5.712   0.630   2.318
 6971SOL    HW221813   5.847   0.567   2.386
 6972SOL     OW21814   5.548   5.144   4.766
 6972SOL    HW121815   5.482   5.144   4.841
 6972SOL    HW221816   5.639   5.125   4.802
 6973SOL     OW21817   1.963   4.360   3.469
 6973SOL    HW121818   2.018   4.285   3.432
 6973SOL    HW221819   1.868   4.349   3.442
 6974SOL     OW21820   3.375   4.117   4.823
 6974SOL    HW121821   3.337   4.164   4.903
 6974SOL    HW221822   3.423   4.034   4.853
 6975SOL     OW21823   3.099   1.032   6.070
 6975SOL    HW121824   3.001   1.014   6.079
 6975SOL    HW221825   3.130   1.002   5.979
 6976SOL     OW21826   2.013   5.604   0.037
 6976SOL    HW121827   2.108   5.612   0.009
 6976SOL    HW221828   1.973   5.696   0.048
 6977SOL     OW21829   4.107   2.056   2.825
 6977SOL    HW121830   4.124   2.128   2.757
 6977SOL    HW221831   4.012   2.026   2.819
 6978SOL     OW21832   6.350   1.122   2.706
 6978SOL    HW121833   6.412   1.047   2.682
 6978SOL    HW221834   6.261   1.084   2.730
 6979SOL     OW21835   0.643   4.489   3.341
 6979SOL    HW121836   0.605   4.408   3.387
 6979SOL    HW221837   0.725   4.462   3.290
 6980SOL     OW21838   3.762   1.579   4.377
 6980SOL    HW121839   3.688   1.631   4.334
 6980SOL    HW221840   3.823   1.543   4.306
 6981SOL     OW21841   2.949   4.946   6.471
 6981SOL    HW121842   2.857   4.963   6.437
 6981SOL    HW221843   2.944   4.902   6.561
 6982SOL     OW21844   0.418   6.981   4.736
 6982SOL    HW121845   0.458   6.890   4.739
 6982SOL    HW221846   0.442   0.004   4.819
 6983SOL     OW21847   5.817   0.738   4.486
 6983SOL    HW121848   5.791   0.783   4.400
 6983SOL    HW221849   5.829   0.807   4.557
 6984SOL     OW21850   2.427   1.110   6.018
 6984SOL    HW121851   2.438   1.166   6.100
 6984SOL    HW221852   2.497   1.039   6.016
 6985SOL     OW21853   4.710   6.547   2.283
 6985SOL    HW121854   4.786   6.541   2.218
 6985SOL    HW221855   4.637   6.486   2.254
 6986SOL     OW21856   2.460   6.879   4.768
 6986SOL    HW121857   2.507   6.817   4.831
 6986SOL    HW221858   2.362   6.860   4.771
 6987SOL     OW21859   6.667   3.678   6.613
 6987SOL    HW121860   6.573   3.680   6.646
 6987SOL    HW221861   6.724   3.738   6.670
 6988SOL     OW21862   5.127   1.116   5.505
 6988SOL    HW121863   5.119   1.016   5.503
 6988SOL    HW221864   5.047   1.155   5.550
 6989SOL     OW21865   1.311   2.800   3.864
 6989SOL    HW121866   1.387   2.773   3.806
 6989SOL    HW221867   1.227   2.804   3.809
 6990SOL     OW21868   3.896   3.235   0.569
 6990SOL    HW121869   3.980   3.185   0.547
 6990SOL    HW221870   3.869   3.215   0.663
 6991SOL     OW21871   4.504   4.545   5.392
 6991SOL    HW121872   4.450   4.461   5.400
 6991SOL    HW221873   4.567   4.551   5.469
 6992SOL     OW21874   5.835   6.150   5.349
 6992SOL    HW121875   5.891   6.074   5.317
 6992SOL    HW221876   5.747   6.115   5.382
 6993SOL     OW21877   0.788   6.626   3.281
 6993SOL    HW121878   0.767   6.538   3.325
 6993SOL    HW221879   0.751   6.700   3.337
 6994SOL     OW21880   1.393   3.184   0.088
 6994SOL    HW121881   1.467   3.118   0.101
 6994SOL    HW221882   1.358   3.212   0.178
 6995SOL     OW21883   0.538   4.818   3.612
 6995SOL    HW121884   0.510   4.726   3.641
 6995SOL    HW221885   0.585   4.812   3.524
 6996SOL     OW21886   2.434   6.937   5.820
 6996SOL    HW121887   2.380   6.983   5.750
 6996SOL    HW221888   2.525   6.978   5.825
 6997SOL     OW21889   5.383   6.970   4.418
 6997SOL    HW121890   5.346   0.033   4.441
 6997SOL    HW221891   5.314   6.916   4.369
 6998SOL     OW21892   1.530   2.612   3.337
 6998SOL    HW121893   1.531   2.671   3.256
 6998SOL    HW221894   1.486   2.660   3.413
 6999SOL     OW21895   4.199   1.859   6.618
 6999SOL    HW121896   4.195   1.893   6.524
 6999SOL    HW221897   4.117   1.887   6.668
 7000SOL     OW21898   6.834   6.595   0.838
 7000SOL    HW121899   6.768   6.520   0.838
 7000SOL    HW221900   6.812   6.659   0.764
 7001SOL     OW21901   2.951   2.075   5.709
 7001SOL    HW121902   2.882   2.047   5.643
 7001SOL    HW221903   2.965   2.174   5.703
 7002SOL     OW21904   2.124   4.457   2.832
 7002SOL    HW121905   2.140   4.552   2.861
 7002SOL    HW221906   2.210   4.406   2.839
 7003SOL     OW21907   1.770   6.381   6.924
 7003SOL    HW121908   1.807   6.469   6.894
 7003SOL    HW221909   1.787   6.313   6.853
 7004SOL     OW21910   1.361   4.606   0.865
 7004SOL    HW121911   1.366   4.595   0.765
 7004SOL    HW221912   1.325   4.522   0.905
 7005SOL     OW21913   5.656   6.783   5.387
 7005SOL    HW121914   5.659   6.846   5.466
 7005SOL    HW221915   5.737   6.797   5.331
 7006SOL     OW21916   4.460   4.899   4.712
 7006SOL    HW121917   4.531   4.957   4.752
 7006SOL    HW221918   4.467   4.902   4.613
 7007SOL     OW21919   5.273   5.216   2.529
 7007SOL    HW121920   5.223   5.275   2.593
 7007SOL    HW221921   5.227   5.217   2.440
 7008SOL     OW21922   1.333   4.535   4.139
 7008SOL    HW121923   1.420   4.550   4.092
 7008SOL    HW221924   1.300   4.622   4.177
 7009SOL     OW21925   0.180   4.330   2.310
 7009SOL    HW121926   0.085   4.345   2.336
 7009SOL    HW221927   0.186   4.249   2.251
 7010SOL     OW21928   4.189   4.427   6.387
 7010SOL    HW121929   4.219   4.521   6.402
 7010SOL    HW221930   4.111   4.407   6.446
 7011SOL     OW21931   2.007   1.421   4.709
 7011SOL    HW121932   1.922   1.448   4.664
 7011SOL    HW221933   2.027   1.325   4.687
 7012SOL     OW21934   1.282   1.109   1.571
 7012SOL    HW121935   1.270   1.056   1.655
 7012SOL    HW221936   1.193   1.128   1.531
 7013SOL     OW21937   0.500   1.060   2.407
 7013SOL    HW121938   0.500   0.960   2.407
 7013SOL    HW221939   0.591   1.093   2.381
 7014SOL     OW21940   1.919   5.004   1.125
 7014SOL    HW121941   1.874   5.012   1.035
 7014SOL    HW221942   1.975   4.921   1.126
 7015SOL     OW21943   5.399   2.475   2.260
 7015SOL    HW121944   5.370   2.462   2.355
 7015SOL    HW221945   5.348   2.411   2.201
 7016SOL     OW21946   3.344   4.730   1.252
 7016SOL    HW121947   3.397   4.648   1.230
 7016SOL    HW221948   3.308   4.723   1.345
 7017SOL     OW21949   4.291   1.453   4.414
 7017SOL    HW121950   4.384   1.469   4.378
 7017SOL    HW221951   4.270   1.356   4.408
 7018SOL     OW21952   0.338   4.513   3.333
 7018SOL    HW121953   0.433   4.527   3.362
 7018SOL    HW221954   0.294   4.445   3.392
 7019SOL     OW21955   1.823   6.150   1.149
 7019SOL    HW121956   1.857   6.148   1.055
 7019SOL    HW221957   1.755   6.078   1.161
 7020SOL     OW21958   7.026   6.535   6.075
 7020SOL    HW121959   0.000   6.531   6.175
 7020SOL    HW221960   0.017   6.443   6.038
 7021SOL     OW21961   3.727   0.049   5.568
 7021SOL    HW121962   3.665   0.020   5.641
 7021SOL    HW221963   3.714   7.016   5.488
 7022SOL     OW21964   4.858   5.430   6.040
 7022SOL    HW121965   4.808   5.344   6.045
 7022SOL    HW221966   4.916   5.430   5.958
 7023SOL     OW21967   6.136   4.188   3.018
 7023SOL    HW121968   6.080   4.146   3.089
 7023SOL    HW221969   6.111   4.285   3.010
 7024SOL     OW21970   0.196   5.925   1.328
 7024SOL    HW121971   0.131   5.873   1.384
 7024SOL    HW221972   0.157   5.941   1.238
 7025SOL     OW21973   2.768   0.287   6.384
 7025SOL    HW121974   2.730   0.379   6.377
 7025SOL    HW221975   2.867   0.290   6.370
 7026SOL     OW21976   3.568   1.766   1.002
 7026SOL    HW121977   3.659   1.801   1.024
 7026SOL    HW221978   3.498   1.830   1.033
 7027SOL     OW21979   4.500   7.000   4.247
 7027SOL    HW121980   4.497   0.033   4.327
 7027SOL    HW221981   4.471   6.908   4.272
 7028SOL     OW21982   3.387   6.923   4.416
 7028SOL    HW121983   3.484   6.905   4.396
 7028SOL    HW221984   3.346   6.840   4.454
 7029SOL     OW21985   3.701   0.789   4.848
 7029SOL    HW121986   3.623   0.816   4.904
 7029SOL    HW221987   3.688   0.694   4.818
 7030SOL     OW21988   2.068   3.367   3.243
 7030SOL    HW121989   1.983   3.408   3.275
 7030SOL    HW221990   2.112   3.430   3.178
 7031SOL     OW21991   1.581   0.135   5.194
 7031SOL    HW121992   1.579   0.060   5.128
 7031SOL    HW221993   1.668   0.185   5.185
 7032SOL     OW21994   6.848   2.052   3.000
 7032SOL    HW121995   6.920   2.084   3.062
 7032SOL    HW221996   6.797   2.130   2.965
 7033SOL     OW21997   6.984   0.192   4.723
 7033SOL    HW121998   6.911   0.239   4.673
 7033SOL    HW221999   0.046   0.212   4.680
 7034SOL     OW22000   6.860   5.758   3.088
 7034SOL    HW122001   6.907   5.823   3.029
 7034SOL    HW222002   6.870   5.786   3.183
 7035SOL     OW22003   6.588   5.058   2.162
 7035SOL    HW122004   6.601   5.105   2.249
 7035SOL    HW222005   6.563   4.963   2.179
 7036SOL     OW22006   6.349   4.404   0.920
 7036SOL    HW122007   6.398   4.332   0.870
 7036SOL    HW222008   6.381   4.406   1.014
 7037SOL     OW22009   0.658   0.189   0.088
 7037SOL    HW122010   0.725   0.212   0.158
 7037SOL    HW222011   0.645   0.090   0.086
 7038SOL     OW22012   1.567   3.459   4.334
 7038SOL    HW122013   1.546   3.363   4.319
 7038SOL    HW222014   1.563   3.508   4.247
 7039SOL     OW22015   4.099   2.161   6.109
 7039SOL    HW122016   4.101   2.250   6.064
 7039SOL    HW222017   4.183   2.110   6.087
 7040SOL     OW22018   5.085   2.528   6.416
 7040SOL    HW122019   5.180   2.548   6.392
 7040SOL    HW222020   5.028   2.605   6.389
 7041SOL     OW22021   2.838   1.269   2.687
 7041SOL    HW122022   2.786   1.224   2.614
 7041SOL    HW222023   2.803   1.239   2.776
 7042SOL     OW22024   1.722   0.338   6.788
 7042SOL    HW122025   1.739   0.354   6.885
 7042SOL    HW222026   1.645   0.395   6.758
 7043SOL     OW22027   1.445   2.572   2.795
 7043SOL    HW122028   1.537   2.547   2.765
 7043SOL    HW222029   1.448   2.663   2.838
 7044SOL     OW22030   4.990   6.214   2.192
 7044SOL    HW122031   4.956   6.120   2.202
 7044SOL    HW222032   5.086   6.212   2.163
 7045SOL     OW22033   6.200   5.018   1.441
 7045SOL    HW122034   6.123   4.982   1.387
 7045SOL    HW222035   6.280   5.027   1.383
 7046SOL     OW22036   2.650   0.707   4.033
 7046SOL    HW122037   2.606   0.618   4.042
 7046SOL    HW222038   2.607   0.772   4.097
 7047SOL     OW22039   1.984   1.429   3.559
 7047SOL    HW122040   2.054   1.397   3.623
 7047SOL    HW222041   1.904   1.461   3.610
 7048SOL     OW22042   6.877   6.285   0.285
 7048SOL    HW122043   6.931   6.234   0.352
 7048SOL    HW222044   6.872   6.381   0.312
 7049SOL     OW22045   1.638   0.807   0.575
 7049SOL    HW122046   1.705   0.877   0.597
 7049SOL    HW222047   1.547   0.848   0.570
 7050SOL     OW22048   4.079   3.793   4.787
 7050SOL    HW122049   4.132   3.869   4.748
 7050SOL    HW222050   4.093   3.711   4.731
 7051SOL     OW22051   6.890   6.509   2.326
 7051SOL    HW122052   6.921   6.587   2.271
 7051SOL    HW222053   6.968   6.468   2.373
 7052SOL     OW22054   6.897   1.640   3.865
 7052SOL    HW122055   6.826   1.578   3.831
 7052SOL    HW222056   6.900   1.722   3.808
 7053SOL     OW22057   6.438   4.366   5.909
 7053SOL    HW122058   6.527   4.365   5.955
 7053SOL    HW222059   6.377   4.302   5.956
 7054SOL     OW22060   6.791   0.080   1.885
 7054SOL    HW122061   6.710   0.133   1.911
 7054SOL    HW222062   6.762   7.016   1.853
 7055SOL     OW22063   3.744   6.861   5.342
 7055SOL    HW122064   3.764   6.919   5.263
 7055SOL    HW222065   3.681   6.788   5.315
 7056SOL     OW22066   4.896   5.062   4.353
 7056SOL    HW122067   4.826   5.001   4.391
 7056SOL    HW222068   4.892   5.060   4.253
 7057SOL     OW22069   0.842   6.044   3.069
 7057SOL    HW122070   0.813   5.992   3.150
 7057SOL    HW222071   0.761   6.075   3.019
 7058SOL     OW22072   6.880   5.303   5.308
 7058SOL    HW122073   6.866   5.277   5.213
 7058SOL    HW222074   6.832   5.239   5.368
 7059SOL     OW22075   2.101   0.992   2.446
 7059SOL    HW122076   2.145   0.904   2.432
 7059SOL    HW222077   2.081   1.005   2.543
 7060SOL     OW22078   3.244   7.019   1.231
 7060SOL    HW122079   3.255   6.922   1.250
 7060SOL    HW222080   3.159   0.026   1.272
 7061SOL     OW22081   0.386   0.915   3.215
 7061SOL    HW122082   0.372   0.955   3.124
 7061SOL    HW222083   0.302   0.921   3.267
 7062SOL     OW22084   6.553   1.505   5.421
 7062SOL    HW122085   6.582   1.431   5.361
 7062SOL    HW222086   6.510   1.466   5.503
 7063SOL     OW22087   2.388   0.142   1.595
 7063SOL    HW122088   2.327   0.080   1.645
 7063SOL    HW222089   2.455   0.181   1.658
 7064SOL     OW22090   4.316   2.207   0.547
 7064SOL    HW122091   4.255   2.140   0.588
 7064SOL    HW222092   4.406   2.201   0.590
 7065SOL     OW22093   4.365   3.902   1.574
 7065SOL    HW122094   4.358   3.805   1.600
 7065SOL    HW222095   4.432   3.947   1.631
 7066SOL     OW22096   3.034   6.357   1.049
 7066SOL    HW122097   3.127   6.334   1.077
 7066SOL    HW222098   2.987   6.403   1.124
 7067SOL     OW22099   0.333   3.982   4.618
 7067SOL    HW122100   0.350   3.889   4.586
 7067SOL    HW222101   0.391   4.001   4.697
 7068SOL     OW22102   0.912   0.553   2.523
 7068SOL    HW122103   0.878   0.609   2.598
 7068SOL    HW222104   0.843   0.486   2.497
 7069SOL     OW22105   1.418   4.152   4.544
 7069SOL    HW122106   1.321   4.132   4.556
 7069SOL    HW222107   1.450   4.113   4.458
 7070SOL     OW22108   4.917   5.906   4.597
 7070SOL    HW122109   4.964   5.919   4.510
 7070SOL    HW222110   4.828   5.863   4.581
 7071SOL     OW22111   1.665   6.730   5.219
 7071SOL    HW122112   1.647   6.750   5.122
 7071SOL    HW222113   1.634   6.637   5.239
 7072SOL     OW22114   6.918   6.158   6.479
 7072SOL    HW122115   7.013   6.162   6.449
 7072SOL    HW222116   6.912   6.101   6.562
 7073SOL     OW22117   1.255   1.916   6.702
 7073SOL    HW122118   1.298   1.891   6.789
 7073SOL    HW222119   1.156   1.916   6.713
 7074SOL     OW22120   2.977   1.867   0.813
 7074SOL    HW122121   2.980   1.790   0.749
 7074SOL    HW222122   2.998   1.834   0.906
 7075SOL     OW22123   1.032   5.423   2.852
 7075SOL    HW122124   1.032   5.517   2.817
 7075SOL    HW222125   1.110   5.373   2.814
 7076SOL     OW22126   3.456   2.453   6.697
 7076SOL    HW122127   3.436   2.390   6.772
 7076SOL    HW222128   3.539   2.422   6.650
 7077SOL     OW22129   1.777   4.848   5.542
 7077SOL    HW122130   1.876   4.840   5.535
 7077SOL    HW222131   1.734   4.800   5.465
 7078SOL     OW22132   6.697   0.523   2.762
 7078SOL    HW122133   6.618   0.489   2.712
 7078SOL    HW222134   6.682   0.513   2.860
 7079SOL     OW22135   5.109   5.221   5.687
 7079SOL    HW122136   5.037   5.183   5.629
 7079SOL    HW222137   5.177   5.267   5.630
 7080SOL     OW22138   5.646   0.259   4.123
 7080SOL    HW122139   5.566   0.318   4.125
 7080SOL    HW222140   5.617   0.164   4.112
 7081SOL     OW22141   3.529   0.896   5.407
 7081SOL    HW122142   3.592   0.836   5.358
 7081SOL    HW222143   3.577   0.977   5.440
 7082SOL     OW22144   5.408   1.019   6.686
 7082SOL    HW122145   5.322   1.039   6.732
 7082SOL    HW222146   5.436   0.925   6.706
 7083SOL     OW22147   3.567   6.703   5.794
 7083SOL    HW122148   3.484   6.686   5.742
 7083SOL    HW222149   3.550   6.683   5.891
 7084SOL     OW22150   6.356   6.196   0.568
 7084SOL    HW122151   6.290   6.271   0.566
 7084SOL    HW222152   6.367   6.163   0.661
 7085SOL     OW22153   2.738   2.585   0.823
 7085SOL    HW122154   2.825   2.560   0.866
 7085SOL    HW222155   2.672   2.610   0.894
 7086SOL     OW22156   6.540   1.013   6.738
 7086SOL    HW122157   6.567   1.056   6.824
 7086SOL    HW222158   6.516   0.918   6.754
 7087SOL     OW22159   1.771   2.614   4.762
 7087SOL    HW122160   1.808   2.670   4.689
 7087SOL    HW222161   1.751   2.522   4.727
 7088SOL     OW22162   0.231   2.193   5.499
 7088SOL    HW122163   0.179   2.276   5.476
 7088SOL    HW222164   0.305   2.181   5.433
 7089SOL     OW22165   2.788   2.204   0.409
 7089SOL    HW122166   2.775   2.296   0.446
 7089SOL    HW222167   2.819   2.143   0.482
 7090SOL     OW22168   2.235   3.091   4.777
 7090SOL    HW122169   2.303   3.117   4.845
 7090SOL    HW222170   2.173   3.168   4.761
 7091SOL     OW22171   0.345   6.482   0.574
 7091SOL    HW122172   0.301   6.460   0.487
 7091SOL    HW222173   0.286   6.451   0.649
 7092SOL     OW22174   3.098   3.234   6.729
 7092SOL    HW122175   3.026   3.226   6.660
 7092SOL    HW222176   3.187   3.221   6.685
 7093SOL     OW22177   3.835   2.970   5.315
 7093SOL    HW122178   3.901   2.897   5.295
 7093SOL    HW222179   3.756   2.931   5.362
 7094SOL     OW22180   0.622   0.300   6.158
 7094SOL    HW122181   0.579   0.225   6.108
 7094SOL    HW222182   0.692   0.264   6.219
 7095SOL     OW22183   0.278   3.570   6.778
 7095SOL    HW122184   0.274   3.481   6.734
 7095SOL    HW222185   0.372   3.591   6.803
 7096SOL     OW22186   5.603   0.804   2.304
 7096SOL    HW122187   5.525   0.803   2.242
 7096SOL    HW222188   5.585   0.867   2.379
 7097SOL     OW22189   0.950   0.546   1.579
 7097SOL    HW122190   0.960   0.566   1.482
 7097SOL    HW222191   0.938   0.447   1.592
 7098SOL     OW22192   1.617   6.843   5.663
 7098SOL    HW122193   1.695   6.781   5.671
 7098SOL    HW222194   1.646   6.936   5.684
 7099SOL     OW22195   0.261   0.940   6.325
 7099SOL    HW122196   0.354   0.955   6.293
 7099SOL    HW222197   0.262   0.875   6.400
 7100SOL     OW22198   5.450   2.874   0.825
 7100SOL    HW122199   5.523   2.826   0.776
 7100SOL    HW222200   5.472   2.971   0.830
 7101SOL     OW22201   1.945   0.270   4.361
 7101SOL    HW122202   1.913   0.357   4.399
 7101SOL    HW222203   1.888   0.196   4.397
 7102SOL     OW22204   4.609   2.536   0.687
 7102SOL    HW122205   4.654   2.564   0.772
 7102SOL    HW222206   4.521   2.493   0.708
 7103SOL     OW22207   3.084   6.541   6.563
 7103SOL    HW122208   3.066   6.468   6.628
 7103SOL    HW222209   3.113   6.501   6.476
 7104SOL     OW22210   1.013   2.000   2.199
 7104SOL    HW122211   0.977   2.092   2.216
 7104SOL    HW222212   1.040   1.958   2.285
 7105SOL     OW22213   2.474   4.096   5.457
 7105SOL    HW122214   2.459   4.188   5.422
 7105SOL    HW222215   2.470   4.030   5.382
 7106SOL     OW22216   3.218   2.554   5.369
 7106SOL    HW122217   3.120   2.549   5.389
 7106SOL    HW222218   3.240   2.492   5.294
 7107SOL     OW22219   2.709   0.910   0.216
 7107SOL    HW122220   2.757   0.824   0.230
 7107SOL    HW222221   2.618   0.905   0.256
 7108SOL     OW22222   4.584   6.791   1.740
 7108SOL    HW122223   4.617   6.874   1.785
 7108SOL    HW222224   4.517   6.817   1.670
 7109SOL     OW22225   3.576   6.167   6.415
 7109SOL    HW122226   3.662   6.117   6.404
 7109SOL    HW222227   3.564   6.229   6.337
 7110SOL     OW22228   3.881   4.897   3.488
 7110SOL    HW122229   3.975   4.862   3.491
 7110SOL    HW222230   3.880   4.988   3.446
 7111SOL     OW22231   1.228   2.744   3.499
 7111SOL    HW122232   1.183   2.812   3.557
 7111SOL    HW222233   1.162   2.711   3.431
 7112SOL     OW22234   1.571   6.843   2.576
 7112SOL    HW122235   1.632   6.911   2.618
 7112SOL    HW222236   1.626   6.772   2.533
 7113SOL     OW22237   3.424   4.086   4.553
 7113SOL    HW122238   3.406   4.110   4.648
 7113SOL    HW222239   3.372   4.146   4.493
 7114SOL     OW22240   4.102   0.602   0.994
 7114SOL    HW122241   4.041   0.558   0.929
 7114SOL    HW222242   4.152   0.676   0.949
 7115SOL     OW22243   4.141   1.995   1.605
 7115SOL    HW122244   4.207   2.069   1.609
 7115SOL    HW222245   4.187   1.908   1.625
 7116SOL     OW22246   5.747   3.623   2.827
 7116SOL    HW122247   5.843   3.604   2.846
 7116SOL    HW222248   5.723   3.587   2.737
 7117SOL     OW22249   6.061   6.502   1.505
 7117SOL    HW122250   6.055   6.524   1.602
 7117SOL    HW222251   6.030   6.580   1.451
 7118SOL     OW22252   6.907   2.918   1.984
 7118SOL    HW122253   6.835   2.851   2.001
 7118SOL    HW222254   6.954   2.940   2.070
 7119SOL     OW22255   6.670   1.406   2.742
 7119SOL    HW122256   6.691   1.315   2.779
 7119SOL    HW222257   6.711   1.476   2.801
 7120SOL     OW22258   5.289   0.115   3.663
 7120SOL    HW122259   5.241   0.182   3.721
 7120SOL    HW222260   5.343   0.054   3.721
 7121SOL     OW22261   3.765   6.406   1.878
 7121SOL    HW122262   3.844   6.456   1.843
 7121SOL    HW222263   3.698   6.471   1.914
 7122SOL     OW22264   6.570   0.282   6.797
 7122SOL    HW122265   6.473   0.269   6.820
 7122SOL    HW222266   6.584   0.377   6.770
 7123SOL     OW22267   2.483   4.911   0.974
 7123SOL    HW122268   2.433   4.827   0.996
 7123SOL    HW222269   2.465   4.980   1.044
 7124SOL     OW22270   0.527   5.328   1.524
 7124SOL    HW122271   0.593   5.276   1.470
 7124SOL    HW222272   0.567   5.348   1.614
 7125SOL     OW22273   6.715   6.662   2.462
 7125SOL    HW122274   6.666   6.615   2.535
 7125SOL    HW222275   6.783   6.601   2.423
 7126SOL     OW22276   0.640   4.672   0.668
 7126SOL    HW122277   0.723   4.681   0.723
 7126SOL    HW222278   0.648   4.593   0.608
 7127SOL     OW22279   3.448   6.965   4.700
 7127SOL    HW122280   3.393   6.927   4.625
 7127SOL    HW222281   3.534   6.914   4.707
 7128SOL     OW22282   2.822   4.763   1.771
 7128SOL    HW122283   2.852   4.690   1.832
 7128SOL    HW222284   2.823   4.850   1.819
 7129SOL     OW22285   2.703   1.545   1.655
 7129SOL    HW122286   2.640   1.619   1.633
 7129SOL    HW222287   2.744   1.561   1.745
 7130SOL     OW22288   2.268   5.832   2.005
 7130SOL    HW122289   2.306   5.851   1.914
 7130SOL    HW222290   2.173   5.863   2.009
 7131SOL     OW22291   2.933   1.050   3.266
 7131SOL    HW122292   2.960   1.101   3.348
 7131SOL    HW222293   2.833   1.050   3.258
 7132SOL     OW22294   3.020   3.855   3.031
 7132SOL    HW122295   2.997   3.949   3.005
 7132SOL    HW222296   3.002   3.794   2.953
 7133SOL     OW22297   5.067   5.080   2.723
 7133SOL    HW122298   5.097   5.028   2.802
 7133SOL    HW222299   5.137   5.148   2.699
 7134SOL     OW22300   5.149   4.153   3.866
 7134SOL    HW122301   5.118   4.087   3.798
 7134SOL    HW222302   5.139   4.113   3.957
 7135SOL     OW22303   0.657   1.747   5.336
 7135SOL    HW122304   0.701   1.785   5.254
 7135SOL    HW222305   0.599   1.817   5.377
 7136SOL     OW22306   2.379   1.773   7.023
 7136SOL    HW122307   2.453   1.721   0.040
 7136SOL    HW222308   2.317   1.808   0.066
 7137SOL     OW22309   4.018   1.129   4.865
 7137SOL    HW122310   3.938   1.183   4.891
 7137SOL    HW222311   4.052   1.080   4.945
 7138SOL     OW22312   2.165   4.022   0.174
 7138SOL    HW122313   2.150   4.059   0.266
 7138SOL    HW222314   2.127   3.929   0.169
 7139SOL     OW22315   3.459   2.312   0.718
 7139SOL    HW122316   3.430   2.276   0.630
 7139SOL    HW222317   3.445   2.243   0.789
 7140SOL     OW22318   5.984   3.639   5.034
 7140SOL    HW122319   6.010   3.633   4.938
 7140SOL    HW222320   5.953   3.549   5.066
 7141SOL     OW22321   2.443   6.774   0.548
 7141SOL    HW122322   2.510   6.722   0.600
 7141SOL    HW222323   2.351   6.739   0.566
 7142SOL     OW22324   3.878   6.443   4.557
 7142SOL    HW122325   3.783   6.465   4.580
 7142SOL    HW222326   3.880   6.372   4.487
 7143SOL     OW22327   1.758   3.432   4.530
 7143SOL    HW122328   1.679   3.443   4.469
 7143SOL    HW222329   1.841   3.420   4.476
 7144SOL     OW22330   0.737   2.430   4.127
 7144SOL    HW122331   0.803   2.504   4.121
 7144SOL    HW222332   0.719   2.393   4.036
 7145SOL     OW22333   3.873   6.770   6.359
 7145SOL    HW122334   3.971   6.776   6.343
 7145SOL    HW222335   3.824   6.790   6.273
 7146SOL     OW22336   3.111   4.800   0.598
 7146SOL    HW122337   3.103   4.750   0.512
 7146SOL    HW222338   3.177   4.754   0.657
 7147SOL     OW22339   0.173   0.534   4.149
 7147SOL    HW122340   0.122   0.561   4.067
 7147SOL    HW222341   0.191   0.436   4.147
 7148SOL     OW22342   0.922   1.332   0.363
 7148SOL    HW122343   0.831   1.372   0.368
 7148SOL    HW222344   0.921   1.252   0.303
 7149SOL     OW22345   6.426   0.942   3.479
 7149SOL    HW122346   6.334   0.948   3.517
 7149SOL    HW222347   6.459   0.848   3.486
 7150SOL     OW22348   5.646   3.602   6.845
 7150SOL    HW122349   5.550   3.578   6.834
 7150SOL    HW222350   5.699   3.566   6.767
 7151SOL     OW22351   2.317   6.130   0.995
 7151SOL    HW122352   2.323   6.168   1.087
 7151SOL    HW222353   2.399   6.156   0.943
 7152SOL     OW22354   1.190   2.430   3.539
 7152SOL    HW122355   1.174   2.464   3.632
 7152SOL    HW222356   1.287   2.434   3.518
 7153SOL     OW22357   3.275   1.725   3.774
 7153SOL    HW122358   3.290   1.733   3.872
 7153SOL    HW222359   3.314   1.639   3.741
 7154SOL     OW22360   4.675   6.233   4.649
 7154SOL    HW122361   4.657   6.151   4.703
 7154SOL    HW222362   4.735   6.210   4.572
 7155SOL     OW22363   2.829   0.281   1.871
 7155SOL    HW122364   2.839   0.373   1.909
 7155SOL    HW222365   2.894   0.219   1.915
 7156SOL     OW22366   0.602   5.941   4.320
 7156SOL    HW122367   0.608   5.959   4.418
 7156SOL    HW222368   0.557   6.019   4.276
 7157SOL     OW22369   4.829   4.397   1.578
 7157SOL    HW122370   4.817   4.448   1.664
 7157SOL    HW222371   4.864   4.459   1.508
 7158SOL     OW22372   5.650   6.521   4.596
 7158SOL    HW122373   5.631   6.607   4.548
 7158SOL    HW222374   5.742   6.489   4.572
 7159SOL     OW22375   0.514   5.699   0.250
 7159SOL    HW122376   0.602   5.690   0.203
 7159SOL    HW222377   0.529   5.724   0.346
 7160SOL     OW22378   6.232   0.651   2.177
 7160SOL    HW122379   6.182   0.564   2.182
 7160SOL    HW222380   6.167   0.727   2.179
 7161SOL     OW22381   3.812   4.067   3.461
 7161SOL    HW122382   3.847   4.094   3.372
 7161SOL    HW222383   3.737   4.127   3.487
 7162SOL     OW22384   2.667   4.738   3.464
 7162SOL    HW122385   2.671   4.683   3.380
 7162SOL    HW222386   2.665   4.835   3.440
 7163SOL     OW22387   2.675   6.928   3.101
 7163SOL    HW122388   2.676   6.914   3.002
 7163SOL    HW222389   2.741   6.866   3.144
 7164SOL     OW22390   2.450   1.717   3.397
 7164SOL    HW122391   2.413   1.642   3.343
 7164SOL    HW222392   2.464   1.797   3.337
 7165SOL     OW22393   5.280   0.623   1.554
 7165SOL    HW122394   5.264   0.722   1.550
 7165SOL    HW222395   5.309   0.591   1.463
 7166SOL     OW22396   5.316   5.373   2.205
 7166SOL    HW122397   5.289   5.423   2.123
 7166SOL    HW222398   5.357   5.285   2.179
 7167SOL     OW22399   4.828   2.989   5.299
 7167SOL    HW122400   4.822   2.985   5.199
 7167SOL    HW222401   4.920   3.016   5.326
 7168SOL     OW22402   1.122   1.301   4.805
 7168SOL    HW122403   1.159   1.273   4.894
 7168SOL    HW222404   1.022   1.299   4.809
 7169SOL     OW22405   1.498   2.849   6.434
 7169SOL    HW122406   1.524   2.777   6.498
 7169SOL    HW222407   1.474   2.809   6.346
 7170SOL     OW22408   6.504   5.335   4.561
 7170SOL    HW122409   6.550   5.247   4.545
 7170SOL    HW222410   6.554   5.408   4.514
 7171SOL     OW22411   3.956   2.526   5.571
 7171SOL    HW122412   3.898   2.458   5.616
 7171SOL    HW222413   4.040   2.539   5.624
 7172SOL     OW22414   1.357   6.568   0.844
 7172SOL    HW122415   1.281   6.539   0.786
 7172SOL    HW222416   1.370   6.667   0.833
 7173SOL     OW22417   5.919   5.928   5.604
 7173SOL    HW122418   5.922   5.902   5.507
 7173SOL    HW222419   5.969   5.861   5.658
 7174SOL     OW22420   0.727   5.602   0.100
 7174SOL    HW122421   0.667   5.533   0.058
 7174SOL    HW222422   0.822   5.573   0.090
 7175SOL     OW22423   6.515   3.064   4.758
 7175SOL    HW122424   6.434   3.007   4.741
 7175SOL    HW222425   6.512   3.096   4.852
 7176SOL     OW22426   6.084   3.930   1.324
 7176SOL    HW122427   6.072   3.971   1.234
 7176SOL    HW222428   6.107   4.001   1.391
 7177SOL     OW22429   1.141   5.880   1.758
 7177SOL    HW122430   1.073   5.919   1.696
 7177SOL    HW222431   1.138   5.929   1.846
 7178SOL     OW22432   0.190   2.734   6.303
 7178SOL    HW122433   0.159   2.679   6.225
 7178SOL    HW222434   0.117   2.796   6.330
 7179SOL     OW22435   2.551   4.724   6.159
 7179SOL    HW122436   2.604   4.694   6.238
 7179SOL    HW222437   2.574   4.668   6.080
 7180SOL     OW22438   1.131   6.509   2.858
 7180SOL    HW122439   1.098   6.561   2.937
 7180SOL    HW222440   1.068   6.522   2.781
 7181SOL     OW22441   5.177   0.275   2.297
 7181SOL    HW122442   5.137   0.262   2.387
 7181SOL    HW222443   5.111   0.250   2.227
 7182SOL     OW22444   2.922   3.675   5.195
 7182SOL    HW122445   2.891   3.582   5.178
 7182SOL    HW222446   2.845   3.731   5.225
 7183SOL     OW22447   1.321   5.173   2.940
 7183SOL    HW122448   1.294   5.210   2.852
 7183SOL    HW222449   1.412   5.207   2.964
 7184SOL     OW22450   1.971   6.355   3.251
 7184SOL    HW122451   1.925   6.419   3.190
 7184SOL    HW222452   2.053   6.320   3.208
 7185SOL     OW22453   4.015   2.421   6.884
 7185SOL    HW122454   4.058   2.484   6.820
 7185SOL    HW222455   3.939   2.374   6.840
 7186SOL     OW22456   0.745   6.694   4.218
 7186SOL    HW122457   0.766   6.604   4.254
 7186SOL    HW222458   0.795   6.763   4.271
 7187SOL     OW22459   2.175   5.533   1.244
 7187SOL    HW122460   2.225   5.457   1.202
 7187SOL    HW222461   2.082   5.536   1.208
 7188SOL     OW22462   5.501   1.032   1.900
 7188SOL    HW122463   5.443   1.100   1.946
 7188SOL    HW222464   5.597   1.058   1.909
 7189SOL     OW22465   6.770   0.482   4.791
 7189SOL    HW122466   6.802   0.389   4.772
 7189SOL    HW222467   6.696   0.479   4.858
 7190SOL     OW22468   4.896   5.052   3.626
 7190SOL    HW122469   4.832   5.118   3.585
 7190SOL    HW222470   4.935   4.994   3.554
 7191SOL     OW22471   1.313   2.898   2.009
 7191SOL    HW122472   1.358   2.926   2.094
 7191SOL    HW222473   1.245   2.828   2.030
 7192SOL     OW22474   4.040   5.493   5.749
 7192SOL    HW122475   3.999   5.412   5.791
 7192SOL    HW222476   4.055   5.476   5.652
 7193SOL     OW22477   5.148   1.203   3.199
 7193SOL    HW122478   5.242   1.170   3.191
 7193SOL    HW222479   5.146   1.302   3.181
 7194SOL     OW22480   3.108   1.800   1.553
 7194SOL    HW122481   3.034   1.733   1.550
 7194SOL    HW222482   3.091   1.863   1.629
 7195SOL     OW22483   0.513   5.176   2.124
 7195SOL    HW122484   0.460   5.211   2.047
 7195SOL    HW222485   0.537   5.252   2.185
 7196SOL     OW22486   3.909   3.233   1.556
 7196SOL    HW122487   3.913   3.186   1.468
 7196SOL    HW222488   3.938   3.171   1.629
 7197SOL     OW22489   1.408   1.769   5.023
 7197SOL    HW122490   1.396   1.795   5.118
 7197SOL    HW222491   1.470   1.690   5.017
 7198SOL     OW22492   0.933   5.888   6.848
 7198SOL    HW122493   0.851   5.946   6.846
 7198SOL    HW222494   0.906   5.793   6.831
 7199SOL     OW22495   6.382   6.564   2.844
 7199SOL    HW122496   6.329   6.479   2.838
 7199SOL    HW222497   6.422   6.585   2.754
 7200SOL     OW22498   2.291   1.740   1.428
 7200SOL    HW122499   2.212   1.713   1.372
 7200SOL    HW222500   2.301   1.840   1.426
 7201SOL     OW22501   2.415   4.343   3.325
 7201SOL    HW122502   2.459   4.333   3.415
 7201SOL    HW222503   2.424   4.437   3.294
 7202SOL     OW22504   3.827   0.178   6.026
 7202SOL    HW122505   3.734   0.140   6.035
 7202SOL    HW222506   3.841   0.209   5.932
 7203SOL     OW22507   6.299   0.472   6.703
 7203SOL    HW122508   6.297   0.456   6.605
 7203SOL    HW222509   6.290   0.385   6.751
 7204SOL     OW22510   5.776   1.508   2.080
 7204SOL    HW122511   5.755   1.568   2.003
 7204SOL    HW222512   5.825   1.560   2.151
 7205SOL     OW22513   2.384   5.106   1.864
 7205SOL    HW122514   2.440   5.055   1.799
 7205SOL    HW222515   2.377   5.202   1.834
 7206SOL     OW22516   5.520   1.485   1.542
 7206SOL    HW122517   5.447   1.437   1.493
 7206SOL    HW222518   5.553   1.561   1.486
 7207SOL     OW22519   4.502   0.060   1.664
 7207SOL    HW122520   4.511   0.153   1.700
 7207SOL    HW222521   4.470   0.063   1.569
 7208SOL     OW22522   3.044   6.976   5.132
 7208SOL    HW122523   3.130   7.013   5.166
 7208SOL    HW222524   3.034   6.881   5.162
 7209SOL     OW22525   3.829   3.637   4.635
 7209SOL    HW122526   3.867   3.699   4.567
 7209SOL    HW222527   3.811   3.548   4.593
 7210SOL     OW22528   4.487   0.392   4.091
 7210SOL    HW122529   4.397   0.351   4.073
 7210SOL    HW222530   4.557   0.343   4.038
 7211SOL     OW22531   1.689   5.164   2.277
 7211SOL    HW122532   1.748   5.127   2.350
 7211SOL    HW222533   1.743   5.226   2.219
 7212SOL     OW22534   5.113   0.180   4.131
 7212SOL    HW122535   5.088   0.108   4.195
 7212SOL    HW222536   5.092   0.152   4.038
 7213SOL     OW22537   5.311   0.359   5.493
 7213SOL    HW122538   5.360   0.446   5.500
 7213SOL    HW222539   5.305   0.332   5.397
 7214SOL     OW22540   0.636   5.019   4.951
 7214SOL    HW122541   0.547   5.046   4.913
 7214SOL    HW222542   0.671   4.940   4.902
 7215SOL     OW22543   0.832   3.342   2.647
 7215SOL    HW122544   0.868   3.375   2.559
 7215SOL    HW222545   0.756   3.279   2.630
 7216SOL     OW22546   2.403   1.440   1.478
 7216SOL    HW122547   2.312   1.425   1.440
 7216SOL    HW222548   2.412   1.535   1.508
 7217SOL     OW22549   0.959   3.172   2.059
 7217SOL    HW122550   0.906   3.087   2.068
 7217SOL    HW222551   1.052   3.157   2.091
 7218SOL     OW22552   6.250   2.407   6.067
 7218SOL    HW122553   6.322   2.349   6.107
 7218SOL    HW222554   6.181   2.349   6.024
 7219SOL     OW22555   3.911   1.123   1.223
 7219SOL    HW122556   3.814   1.127   1.199
 7219SOL    HW222557   3.928   1.044   1.282
 7220SOL     OW22558   6.963   0.850   2.797
 7220SOL    HW122559   6.968   0.853   2.697
 7220SOL    HW222560   6.895   0.916   2.828
 7221SOL     OW22561   5.780   5.078   4.889
 7221SOL    HW122562   5.816   5.006   4.830
 7221SOL    HW222563   5.856   5.137   4.919
 7222SOL     OW22564   5.873   6.684   3.032
 7222SOL    HW122565   5.831   6.593   3.034
 7222SOL    HW222566   5.820   6.746   3.090
 7223SOL     OW22567   3.672   0.763   5.171
 7223SOL    HW122568   3.770   0.776   5.153
 7223SOL    HW222569   3.648   0.668   5.156
 7224SOL     OW22570   4.776   7.022   4.504
 7224SOL    HW122571   4.807   0.083   4.542
 7224SOL    HW222572   4.832   7.000   4.424
 7225SOL     OW22573   2.179   0.011   0.396
 7225SOL    HW122574   2.137   0.031   0.307
 7225SOL    HW222575   2.224   0.093   0.431
 7226SOL     OW22576   5.627   6.908   6.824
 7226SOL    HW122577   5.560   6.969   6.782
 7226SOL    HW222578   5.593   6.814   6.821
 7227SOL     OW22579   6.580   2.721   6.353
 7227SOL    HW122580   6.496   2.722   6.406
 7227SOL    HW222581   6.655   2.759   6.409
 7228SOL     OW22582   1.741   0.739   2.739
 7228SOL    HW122583   1.805   0.717   2.813
 7228SOL    HW222584   1.717   0.655   2.690
 7229SOL     OW22585   0.821   0.361   3.929
 7229SOL    HW122586   0.742   0.349   3.989
 7229SOL    HW222587   0.798   0.328   3.837
 7230SOL     OW22588   5.737   4.909   2.645
 7230SOL    HW122589   5.776   4.817   2.641
 7230SOL    HW222590   5.810   4.975   2.666
 7231SOL     OW22591   5.539   1.199   6.507
 7231SOL    HW122592   5.474   1.264   6.467
 7231SOL    HW222593   5.489   1.131   6.561
 7232SOL     OW22594   3.637   4.318   0.844
 7232SOL    HW122595   3.648   4.233   0.792
 7232SOL    HW222596   3.680   4.393   0.793
 7233SOL     OW22597   0.163   2.431   5.842
 7233SOL    HW122598   0.240   2.368   5.845
 7233SOL    HW222599   0.083   2.390   5.886
 7234SOL     OW22600   5.768   1.901   2.596
 7234SOL    HW122601   5.785   1.804   2.612
 7234SOL    HW222602   5.704   1.911   2.519
 7235SOL     OW22603   6.306   2.887   4.724
 7235SOL    HW122604   6.354   2.812   4.770
 7235SOL    HW222605   6.249   2.849   4.651
 7236SOL     OW22606   3.405   1.226   3.296
 7236SOL    HW122607   3.492   1.213   3.248
 7236SOL    HW222608   3.385   1.144   3.350
 7237SOL     OW22609   6.208   5.768   6.094
 7237SOL    HW122610   6.276   5.741   6.026
 7237SOL    HW222611   6.218   5.711   6.175
 7238SOL     OW22612   0.682   1.247   1.498
 7238SOL    HW122613   0.605   1.289   1.546
 7238SOL    HW222614   0.718   1.311   1.430
 7239SOL     OW22615   4.472   0.856   2.175
 7239SOL    HW122616   4.537   0.783   2.152
 7239SOL    HW222617   4.381   0.818   2.186
 7240SOL     OW22618   2.729   3.636   0.990
 7240SOL    HW122619   2.787   3.713   1.017
 7240SOL    HW222620   2.715   3.576   1.069
 7241SOL     OW22621   4.122   6.850   4.975
 7241SOL    HW122622   4.136   6.897   4.888
 7241SOL    HW222623   4.157   6.757   4.969
 7242SOL     OW22624   4.921   4.943   0.362
 7242SOL    HW122625   4.918   4.921   0.459
 7242SOL    HW222626   4.836   4.988   0.335
 7243SOL     OW22627   0.388   6.094   0.665
 7243SOL    HW122628   0.458   6.152   0.705
 7243SOL    HW222629   0.410   6.078   0.569
 7244SOL     OW22630   5.340   1.863   0.717
 7244SOL    HW122631   5.428   1.909   0.707
 7244SOL    HW222632   5.324   1.843   0.814
 7245SOL     OW22633   6.671   1.978   4.504
 7245SOL    HW122634   6.637   1.884   4.497
 7245SOL    HW222635   6.771   1.977   4.506
 7246SOL     OW22636   1.299   5.658   5.297
 7246SOL    HW122637   1.302   5.662   5.197
 7246SOL    HW222638   1.213   5.694   5.330
 7247SOL     OW22639   3.198   5.757   2.856
 7247SOL    HW122640   3.257   5.820   2.807
 7247SOL    HW222641   3.185   5.790   2.950
 7248SOL     OW22642   3.269   0.699   5.058
 7248SOL    HW122643   3.229   0.656   5.139
 7248SOL    HW222644   3.232   0.657   4.976
 7249SOL     OW22645   5.960   4.650   6.355
 7249SOL    HW122646   5.895   4.720   6.386
 7249SOL    HW222647   5.999   4.676   6.267
 7250SOL     OW22648   3.274   4.234   6.557
 7250SOL    HW122649   3.352   4.173   6.567
 7250SOL    HW222650   3.226   4.213   6.472
 7251SOL     OW22651   5.355   0.564   5.002
 7251SOL    HW122652   5.394   0.637   5.057
 7251SOL    HW222653   5.317   0.493   5.061
 7252SOL     OW22654   4.476   3.562   5.274
 7252SOL    HW122655   4.383   3.526   5.262
 7252SOL    HW222656   4.523   3.562   5.185
 7253SOL     OW22657   5.073   4.959   1.028
 7253SOL    HW122658   5.021   4.999   0.952
 7253SOL    HW222659   5.160   4.923   0.993
 7254SOL     OW22660   5.429   6.887   5.268
 7254SOL    HW122661   5.378   6.927   5.345
 7254SOL    HW222662   5.509   6.838   5.303
 7255SOL     OW22663   3.899   3.644   1.542
 7255SOL    HW122664   3.966   3.716   1.560
 7255SOL    HW222665   3.906   3.573   1.612
 7256SOL     OW22666   3.943   5.125   3.941
 7256SOL    HW122667   3.977   5.099   3.851
 7256SOL    HW222668   4.019   5.134   4.004
 7257SOL     OW22669   6.390   3.737   3.375
 7257SOL    HW122670   6.414   3.648   3.336
 7257SOL    HW222671   6.366   3.726   3.472
 7258SOL     OW22672   2.321   6.694   5.709
 7258SOL    HW122673   2.376   6.766   5.750
 7258SOL    HW222674   2.256   6.734   5.644
 7259SOL     OW22675   2.040   5.147   6.144
 7259SOL    HW122676   2.001   5.187   6.227
 7259SOL    HW222677   1.986   5.067   6.117
 7260SOL     OW22678   4.515   1.761   2.394
 7260SOL    HW122679   4.426   1.801   2.370
 7260SOL    HW222680   4.517   1.741   2.492
 7261SOL     OW22681   1.925   4.487   1.452
 7261SOL    HW122682   1.936   4.471   1.550
 7261SOL    HW222683   1.891   4.580   1.438
 7262SOL     OW22684   6.455   1.654   5.912
 7262SOL    HW122685   6.520   1.722   5.946
 7262SOL    HW222686   6.504   1.582   5.862
 7263SOL     OW22687   5.201   6.016   1.880
 7263SOL    HW122688   5.205   6.071   1.963
 7263SOL    HW222689   5.290   6.018   1.834
 7264SOL     OW22690   1.759   6.832   4.388
 7264SOL    HW122691   1.797   6.758   4.445
 7264SOL    HW222692   1.730   6.794   4.300
 7265SOL     OW22693   4.361   3.412   6.213
 7265SOL    HW122694   4.455   3.444   6.204
 7265SOL    HW222695   4.307   3.446   6.136
 7266SOL     OW22696   4.686   1.357   0.949
 7266SOL    HW122697   4.681   1.290   1.023
 7266SOL    HW222698   4.663   1.448   0.985
 7267SOL     OW22699   0.324   2.967   4.316
 7267SOL    HW122700   0.267   2.922   4.247
 7267SOL    HW222701   0.403   2.909   4.337
 7268SOL     OW22702   3.432   0.184   0.618
 7268SOL    HW122703   3.346   0.143   0.589
 7268SOL    HW222704   3.418   0.281   0.637
 7269SOL     OW22705   1.209   6.633   2.478
 7269SOL    HW122706   1.246   6.548   2.440
 7269SOL    HW222707   1.267   6.709   2.452
 7270SOL     OW22708   3.364   1.607   2.349
 7270SOL    HW122709   3.291   1.640   2.290
 7270SOL    HW222710   3.417   1.537   2.301
 7271SOL     OW22711   6.199   4.694   4.228
 7271SOL    HW122712   6.263   4.680   4.153
 7271SOL    HW222713   6.109   4.661   4.201
 7272SOL     OW22714   6.240   1.742   1.306
 7272SOL    HW122715   6.178   1.716   1.232
 7272SOL    HW222716   6.222   1.837   1.333
 7273SOL     OW22717   5.654   6.201   5.979
 7273SOL    HW122718   5.725   6.163   5.920
 7273SOL    HW222719   5.692   6.219   6.070
 7274SOL     OW22720   6.774   4.721   4.517
 7274SOL    HW122721   6.817   4.731   4.606
 7274SOL    HW222722   6.742   4.627   4.505
 7275SOL     OW22723   5.425   6.113   1.146
 7275SOL    HW122724   5.332   6.094   1.179
 7275SOL    HW222725   5.465   6.186   1.201
 7276SOL     OW22726   2.719   1.603   3.784
 7276SOL    HW122727   2.704   1.507   3.805
 7276SOL    HW222728   2.817   1.621   3.778
 7277SOL     OW22729   5.328   1.620   4.013
 7277SOL    HW122730   5.243   1.660   3.977
 7277SOL    HW222731   5.374   1.688   4.071
 7278SOL     OW22732   2.428   1.537   3.678
 7278SOL    HW122733   2.500   1.495   3.732
 7278SOL    HW222734   2.465   1.615   3.627
 7279SOL     OW22735   4.163   4.527   1.027
 7279SOL    HW122736   4.249   4.542   1.075
 7279SOL    HW222737   4.088   4.522   1.094
 7280SOL     OW22738   6.698   2.395   5.719
 7280SOL    HW122739   6.760   2.321   5.695
 7280SOL    HW222740   6.734   2.481   5.683
 7281SOL     OW22741   4.275   5.869   2.286
 7281SOL    HW122742   4.322   5.787   2.318
 7281SOL    HW222743   4.179   5.847   2.265
 7282SOL     OW22744   6.690   3.788   2.294
 7282SOL    HW122745   6.756   3.859   2.266
 7282SOL    HW222746   6.628   3.826   2.362
 7283SOL     OW22747   3.831   5.719   3.477
 7283SOL    HW122748   3.909   5.660   3.499
 7283SOL    HW222749   3.749   5.663   3.467
 7284SOL     OW22750   0.751   1.457   2.542
 7284SOL    HW122751   0.706   1.424   2.459
 7284SOL    HW222752   0.692   1.523   2.588
 7285SOL     OW22753   4.899   2.967   1.779
 7285SOL    HW122754   4.830   3.008   1.838
 7285SOL    HW222755   4.863   2.960   1.686
 7286SOL     OW22756   6.375   1.327   3.625
 7286SOL    HW122757   6.442   1.375   3.568
 7286SOL    HW222758   6.411   1.319   3.718
 7287SOL     OW22759   3.149   0.964   3.634
 7287SOL    HW122760   3.244   0.993   3.625
 7287SOL    HW222761   3.127   0.898   3.562
 7288SOL     OW22762   2.787   1.467   1.905
 7288SOL    HW122763   2.707   1.519   1.936
 7288SOL    HW222764   2.865   1.488   1.964
 7289SOL     OW22765   6.321   3.165   1.930
 7289SOL    HW122766   6.392   3.118   1.983
 7289SOL    HW222767   6.243   3.186   1.990
 7290SOL     OW22768   4.285   1.469   5.301
 7290SOL    HW122769   4.279   1.535   5.226
 7290SOL    HW222770   4.361   1.406   5.284
 7291SOL     OW22771   1.726   1.270   0.517
 7291SOL    HW122772   1.642   1.222   0.491
 7291SOL    HW222773   1.799   1.204   0.535
 7292SOL     OW22774   2.539   1.011   2.703
 7292SOL    HW122775   2.594   1.036   2.783
 7292SOL    HW222776   2.526   1.092   2.645
 7293SOL     OW22777   6.449   1.490   4.016
 7293SOL    HW122778   6.460   1.473   4.114
 7293SOL    HW222779   6.395   1.417   3.975
 7294SOL     OW22780   3.968   6.528   2.266
 7294SOL    HW122781   3.921   6.605   2.310
 7294SOL    HW222782   3.906   6.450   2.260
 7295SOL     OW22783   5.230   4.084   1.530
 7295SOL    HW122784   5.286   4.084   1.613
 7295SOL    HW222785   5.289   4.068   1.450
 7296SOL     OW22786   3.684   5.895   1.941
 7296SOL    HW122787   3.633   5.882   1.856
 7296SOL    HW222788   3.724   5.807   1.969
 7297SOL     OW22789   4.287   6.570   0.790
 7297SOL    HW122790   4.342   6.502   0.838
 7297SOL    HW222791   4.197   6.532   0.768
 7298SOL     OW22792   4.116   5.417   1.034
 7298SOL    HW122793   4.078   5.509   1.044
 7298SOL    HW222794   4.165   5.392   1.118
 7299SOL     OW22795   0.798   3.172   5.669
 7299SOL    HW122796   0.754   3.098   5.617
 7299SOL    HW222797   0.743   3.255   5.660
 7300SOL     OW22798   0.377   5.028   2.331
 7300SOL    HW122799   0.422   4.946   2.367
 7300SOL    HW222800   0.429   5.062   2.253
 7301SOL     OW22801   3.979   2.195   6.330
 7301SOL    HW122802   3.884   2.214   6.305
 7301SOL    HW222803   4.035   2.196   6.247
 7302SOL     OW22804   5.472   2.494   6.517
 7302SOL    HW122805   5.401   2.533   6.576
 7302SOL    HW222806   5.496   2.403   6.549
 7303SOL     OW22807   3.254   1.969   1.400
 7303SOL    HW122808   3.193   1.900   1.439
 7303SOL    HW222809   3.332   1.984   1.461
 7304SOL     OW22810   2.313   5.016   0.677
 7304SOL    HW122811   2.315   4.930   0.728
 7304SOL    HW222812   2.222   5.027   0.636
 7305SOL     OW22813   5.938   0.801   6.796
 7305SOL    HW122814   5.878   0.800   6.876
 7305SOL    HW222815   6.003   0.876   6.803
 7306SOL     OW22816   1.387   2.776   1.369
 7306SOL    HW122817   1.404   2.868   1.336
 7306SOL    HW222818   1.382   2.713   1.292
 7307SOL     OW22819   2.076   0.501   2.117
 7307SOL    HW122820   2.042   0.532   2.028
 7307SOL    HW222821   2.175   0.512   2.121
 7308SOL     OW22822   3.454   1.484   2.977
 7308SOL    HW122823   3.363   1.508   2.944
 7308SOL    HW222824   3.483   1.549   3.048
 7309SOL     OW22825   1.909   5.311   3.754
 7309SOL    HW122826   1.813   5.294   3.775
 7309SOL    HW222827   1.920   5.406   3.725
 7310SOL     OW22828   2.889   2.626   6.735
 7310SOL    HW122829   2.943   2.566   6.676
 7310SOL    HW222830   2.854   2.703   6.682
 7311SOL     OW22831   0.229   6.131   5.962
 7311SOL    HW122832   0.316   6.090   5.988
 7311SOL    HW222833   0.195   6.189   6.036
 7312SOL     OW22834   5.958   2.056   3.813
 7312SOL    HW122835   6.024   2.082   3.884
 7312SOL    HW222836   5.907   1.976   3.843
 7313SOL     OW22837   2.983   0.728   2.706
 7313SOL    HW122838   3.079   0.708   2.727
 7313SOL    HW222839   2.956   0.813   2.752
 7314SOL     OW22840   1.617   4.598   5.959
 7314SOL    HW122841   1.666   4.667   5.906
 7314SOL    HW222842   1.535   4.639   5.998
 7315SOL     OW22843   2.724   5.331   2.535
 7315SOL    HW122844   2.673   5.283   2.463
 7315SOL    HW222845   2.821   5.333   2.511
 7316SOL     OW22846   4.085   1.301   1.323
 7316SOL    HW122847   4.169   1.252   1.297
 7316SOL    HW222848   4.006   1.246   1.297
 7317SOL     OW22849   4.200   1.852   0.465
 7317SOL    HW122850   4.248   1.862   0.377
 7317SOL    HW222851   4.231   1.768   0.510
 7318SOL     OW22852   4.946   7.016   0.472
 7318SOL    HW122853   5.033   6.968   0.467
 7318SOL    HW222854   4.915   7.019   0.568
 7319SOL     OW22855   5.321   6.231   0.012
 7319SOL    HW122856   5.359   6.146   0.048
 7319SOL    HW222857   5.394   6.287   7.000
 7320SOL     OW22858   0.752   2.896   0.398
 7320SOL    HW122859   0.673   2.902   0.338
 7320SOL    HW222860   0.807   2.816   0.373
 7321SOL     OW22861   2.227   2.301   6.316
 7321SOL    HW122862   2.275   2.322   6.401
 7321SOL    HW222863   2.247   2.371   6.248
 7322SOL     OW22864   1.103   3.158   3.508
 7322SOL    HW122865   1.090   3.241   3.454
 7322SOL    HW222866   1.066   3.080   3.458
 7323SOL     OW22867   1.639   2.498   0.545
 7323SOL    HW122868   1.648   2.570   0.614
 7323SOL    HW222869   1.718   2.437   0.549
 7324SOL     OW22870   4.908   3.918   3.869
 7324SOL    HW122871   4.847   3.994   3.887
 7324SOL    HW222872   4.905   3.853   3.945
 7325SOL     OW22873   3.701   1.506   6.234
 7325SOL    HW122874   3.765   1.447   6.186
 7325SOL    HW222875   3.747   1.550   6.311
 7326SOL     OW22876   3.906   0.124   0.636
 7326SOL    HW122877   3.842   0.194   0.606
 7326SOL    HW222878   3.871   0.080   0.718
 7327SOL     OW22879   1.691   4.241   3.477
 7327SOL    HW122880   1.660   4.154   3.439
 7327SOL    HW222881   1.717   4.228   3.573
 7328SOL     OW22882   4.551   5.178   5.880
 7328SOL    HW122883   4.613   5.223   5.944
 7328SOL    HW222884   4.478   5.242   5.854
 7329SOL     OW22885   2.762   3.704   0.521
 7329SOL    HW122886   2.798   3.770   0.587
 7329SOL    HW222887   2.729   3.623   0.569
 7330SOL     OW22888   2.212   2.874   1.014
 7330SOL    HW122889   2.253   2.872   1.106
 7330SOL    HW222890   2.167   2.786   0.996
 7331SOL     OW22891   5.583   1.970   2.399
 7331SOL    HW122892   5.517   1.927   2.459
 7331SOL    HW222893   5.543   2.053   2.359
 7332SOL     OW22894   2.907   6.153   6.274
 7332SOL    HW122895   3.006   6.160   6.288
 7332SOL    HW222896   2.863   6.237   6.304
 7333SOL     OW22897   0.351   0.782   1.330
 7333SOL    HW122898   0.271   0.822   1.376
 7333SOL    HW222899   0.369   0.691   1.368
 7334SOL     OW22900   1.268   4.806   4.189
 7334SOL    HW122901   1.263   4.892   4.138
 7334SOL    HW222902   1.362   4.792   4.222
 7335SOL     OW22903   0.443   3.707   2.028
 7335SOL    HW122904   0.353   3.719   1.986
 7335SOL    HW222905   0.432   3.688   2.125
 7336SOL     OW22906   2.279   0.105   1.136
 7336SOL    HW122907   2.268   0.025   1.077
 7336SOL    HW222908   2.354   0.088   1.201
 7337SOL     OW22909   3.392   1.019   3.492
 7337SOL    HW122910   3.382   0.919   3.500
 7337SOL    HW222911   3.461   1.051   3.556
 7338SOL     OW22912   5.026   4.105   1.237
 7338SOL    HW122913   4.944   4.128   1.289
 7338SOL    HW222914   5.080   4.038   1.289
 7339SOL     OW22915   0.136   6.219   4.868
 7339SOL    HW122916   0.159   6.312   4.841
 7339SOL    HW222917   0.164   6.156   4.796
 7340SOL     OW22918   2.661   6.021   0.432
 7340SOL    HW122919   2.730   5.952   0.410
 7340SOL    HW222920   2.619   6.000   0.520
 7341SOL     OW22921   6.373   5.987   4.967
 7341SOL    HW122922   6.329   6.077   4.963
 7341SOL    HW222923   6.343   5.931   4.890
 7342SOL     OW22924   0.906   5.268   1.113
 7342SOL    HW122925   0.819   5.243   1.070
 7342SOL    HW222926   0.940   5.353   1.072
 7343SOL     OW22927   5.704   2.342   2.967
 7343SOL    HW122928   5.789   2.292   2.983
 7343SOL    HW222929   5.683   2.342   2.869
 7344SOL     OW22930   2.169   1.357   0.193
 7344SOL    HW122931   2.120   1.293   0.253
 7344SOL    HW222932   2.228   1.416   0.248
 7345SOL     OW22933   2.722   6.237   0.051
 7345SOL    HW122934   2.673   6.297   7.015
 7345SOL    HW222935   2.756   6.290   0.129
 7346SOL     OW22936   4.100   5.256   2.223
 7346SOL    HW122937   4.170   5.208   2.170
 7346SOL    HW222938   4.018   5.198   2.230
 7347SOL     OW22939   6.276   2.862   2.133
 7347SOL    HW122940   6.328   2.899   2.056
 7347SOL    HW222941   6.339   2.834   2.205
 7348SOL     OW22942   6.997   1.242   5.030
 7348SOL    HW122943   0.001   1.216   4.938
 7348SOL    HW222944   0.028   1.198   5.098
 7349SOL     OW22945   3.487   1.388   0.720
 7349SOL    HW122946   3.466   1.328   0.643
 7349SOL    HW222947   3.430   1.362   0.799
 7350SOL     OW22948   2.069   1.332   2.840
 7350SOL    HW122949   2.067   1.267   2.916
 7350SOL    HW222950   2.161   1.371   2.831
 7351SOL     OW22951   4.082   5.095   0.064
 7351SOL    HW122952   4.118   5.009   0.029
 7351SOL    HW222953   4.057   5.084   0.160
 7352SOL     OW22954   6.674   0.755   3.334
 7352SOL    HW122955   6.764   0.744   3.290
 7352SOL    HW222956   6.613   0.804   3.272
 7353SOL     OW22957   5.119   2.397   4.637
 7353SOL    HW122958   5.076   2.414   4.549
 7353SOL    HW222959   5.151   2.484   4.675
 7354SOL     OW22960   6.531   4.102   4.707
 7354SOL    HW122961   6.524   4.011   4.667
 7354SOL    HW222962   6.481   4.167   4.649
 7355SOL     OW22963   0.714   5.203   1.360
 7355SOL    HW122964   0.775   5.239   1.431
 7355SOL    HW222965   0.767   5.150   1.294
 7356SOL     OW22966   0.112   2.382   6.240
 7356SOL    HW122967   0.209   2.384   6.213
 7356SOL    HW222968   0.105   2.352   6.335
 7357SOL     OW22969   0.584   1.494   0.120
 7357SOL    HW122970   0.605   1.429   0.193
 7357SOL    HW222971   0.662   1.555   0.106
 7358SOL     OW22972   3.284   0.783   3.821
 7358SOL    HW122973   3.217   0.835   3.874
 7358SOL    HW222974   3.236   0.719   3.760
 7359SOL     OW22975   3.750   2.875   3.369
 7359SOL    HW122976   3.829   2.925   3.333
 7359SOL    HW222977   3.695   2.840   3.294
 7360SOL     OW22978   0.298   3.926   5.903
 7360SOL    HW122979   0.381   3.902   5.853
 7360SOL    HW222980   0.283   4.025   5.897
 7361SOL     OW22981   5.086   6.361   1.396
 7361SOL    HW122982   5.008   6.303   1.373
 7361SOL    HW222983   5.066   6.411   1.480
 7362SOL     OW22984   1.723   6.609   6.444
 7362SOL    HW122985   1.721   6.685   6.509
 7362SOL    HW222986   1.693   6.525   6.488
 7363SOL     OW22987   5.077   2.928   6.613
 7363SOL    HW122988   5.018   2.884   6.545
 7363SOL    HW222989   5.029   3.005   6.654
 7364SOL     OW22990   5.398   0.995   1.103
 7364SOL    HW122991   5.461   0.966   1.032
 7364SOL    HW222992   5.332   0.922   1.121
 7365SOL     OW22993   3.668   0.894   1.683
 7365SOL    HW122994   3.764   0.865   1.676
 7365SOL    HW222995   3.615   0.824   1.731
 7366SOL     OW22996   0.754   5.869   0.051
 7366SOL    HW122997   0.735   5.771   0.053
 7366SOL    HW222998   0.716   5.908   6.994
 7367SOL     OW22999   4.346   3.361   6.583
 7367SOL    HW123000   4.436   3.373   6.541
 7367SOL    HW223001   4.284   3.433   6.550
 7368SOL     OW23002   2.973   3.237   3.476
 7368SOL    HW123003   2.910   3.174   3.431
 7368SOL    HW223004   2.986   3.318   3.419
 7369SOL     OW23005   4.712   1.848   6.108
 7369SOL    HW123006   4.690   1.932   6.058
 7369SOL    HW223007   4.756   1.872   6.194
 7370SOL     OW23008   1.695   5.496   1.278
 7370SOL    HW123009   1.758   5.419   1.274
 7370SOL    HW223010   1.747   5.582   1.284
 7371SOL     OW23011   2.310   4.977   4.240
 7371SOL    HW123012   2.399   4.954   4.280
 7371SOL    HW223013   2.237   4.954   4.305
 7372SOL     OW23014   3.274   6.237   5.659
 7372SOL    HW123015   3.321   6.313   5.704
 7372SOL    HW223016   3.192   6.213   5.712
 7373SOL     OW23017   3.753   0.598   1.263
 7373SOL    HW123018   3.710   0.508   1.266
 7373SOL    HW223019   3.826   0.603   1.331
 7374SOL     OW23020   2.172   3.414   6.606
 7374SOL    HW123021   2.092   3.371   6.648
 7374SOL    HW223022   2.215   3.351   6.541
 7375SOL     OW23023   2.162   6.266   2.817
 7375SOL    HW123024   2.228   6.197   2.786
 7375SOL    HW223025   2.169   6.347   2.759
 7376SOL     OW23026   3.452   4.637   6.136
 7376SOL    HW123027   3.488   4.676   6.051
 7376SOL    HW223028   3.388   4.563   6.113
 7377SOL     OW23029   5.605   4.876   2.177
 7377SOL    HW123030   5.629   4.779   2.180
 7377SOL    HW223031   5.563   4.898   2.089
 7378SOL     OW23032   6.929   2.906   6.110
 7378SOL    HW123033   6.857   2.972   6.088
 7378SOL    HW223034   6.943   2.903   6.209
 7379SOL     OW23035   4.158   1.064   0.795
 7379SOL    HW123036   4.073   1.055   0.743
 7379SOL    HW223037   4.136   1.079   0.891
 7380SOL     OW23038   6.302   2.507   5.417
 7380SOL    HW123039   6.314   2.604   5.393
 7380SOL    HW223040   6.333   2.450   5.341
 7381SOL     OW23041   4.523   2.444   7.008
 7381SOL    HW123042   4.442   2.402   6.966
 7381SOL    HW223043   4.574   2.376   0.033
 7382SOL     OW23044   0.589   6.009   3.699
 7382SOL    HW123045   0.493   5.990   3.677
 7382SOL    HW223046   0.648   5.946   3.649
 7383SOL     OW23047   0.141   5.247   3.304
 7383SOL    HW123048   0.232   5.282   3.284
 7383SOL    HW223049   0.080   5.264   3.226
 7384SOL     OW23050   6.221   2.112   1.586
 7384SOL    HW123051   6.265   2.053   1.518
 7384SOL    HW223052   6.278   2.194   1.599
 7385SOL     OW23053   5.224   0.923   1.526
 7385SOL    HW123054   5.310   0.887   1.562
 7385SOL    HW223055   5.207   1.013   1.564
 7386SOL     OW23056   0.125   3.022   5.745
 7386SOL    HW123057   0.158   2.959   5.815
 7386SOL    HW223058   0.142   3.116   5.774
 7387SOL     OW23059   5.150   6.160   3.780
 7387SOL    HW123060   5.143   6.088   3.711
 7387SOL    HW223061   5.185   6.244   3.738
 7388SOL     OW23062   5.417   4.420   4.824
 7388SOL    HW123063   5.472   4.470   4.757
 7388SOL    HW223064   5.320   4.435   4.806
 7389SOL     OW23065   0.782   4.337   4.505
 7389SOL    HW123066   0.830   4.415   4.465
 7389SOL    HW223067   0.723   4.368   4.579
 7390SOL     OW23068   2.937   0.314   6.130
 7390SOL    HW123069   2.974   0.389   6.185
 7390SOL    HW223070   2.856   0.346   6.080
 7391SOL     OW23071   6.899   4.506   0.285
 7391SOL    HW123072   6.870   4.432   0.344
 7391SOL    HW223073   6.997   4.497   0.265
 7392SOL     OW23074   2.302   4.228   2.797
 7392SOL    HW123075   2.329   4.272   2.883
 7392SOL    HW223076   2.258   4.141   2.817
 7393SOL     OW23077   0.282   3.660   0.172
 7393SOL    HW123078   0.285   3.565   0.205
 7393SOL    HW223079   0.370   3.683   0.130
 7394SOL     OW23080   2.909   3.251   6.503
 7394SOL    HW123081   2.942   3.239   6.410
 7394SOL    HW223082   2.922   3.346   6.531
 7395SOL     OW23083   1.995   6.551   0.289
 7395SOL    HW123084   2.001   6.478   0.222
 7395SOL    HW223085   2.086   6.590   0.305
 7396SOL     OW23086   0.091   6.859   1.754
 7396SOL    HW123087   0.027   6.782   1.756
 7396SOL    HW223088   0.121   6.874   1.660
 7397SOL     OW23089   5.741   4.207   4.657
 7397SOL    HW123090   5.743   4.207   4.757
 7397SOL    HW223091   5.834   4.208   4.622
 7398SOL     OW23092   4.665   6.292   3.017
 7398SOL    HW123093   4.704   6.209   3.056
 7398SOL    HW223094   4.603   6.268   2.941
 7399SOL     OW23095   5.293   4.836   4.983
 7399SOL    HW123096   5.213   4.849   5.043
 7399SOL    HW223097   5.269   4.772   4.910
 7400SOL     OW23098   2.308   4.727   6.879
 7400SOL    HW123099   2.262   4.773   6.803
 7400SOL    HW223100   2.379   4.666   6.842
 7401SOL     OW23101   5.846   1.572   4.902
 7401SOL    HW123102   5.893   1.660   4.908
 7401SOL    HW223103   5.748   1.586   4.919
 7402SOL     OW23104   2.252   6.418   4.175
 7402SOL    HW123105   2.349   6.400   4.165
 7402SOL    HW223106   2.202   6.375   4.101
 7403SOL     OW23107   2.104   3.114   1.234
 7403SOL    HW123108   2.009   3.136   1.215
 7403SOL    HW223109   2.160   3.136   1.154
 7404SOL     OW23110   1.339   1.610   2.324
 7404SOL    HW123111   1.337   1.707   2.299
 7404SOL    HW223112   1.381   1.600   2.414
 7405SOL     OW23113   3.507   5.139   6.537
 7405SOL    HW123114   3.468   5.102   6.622
 7405SOL    HW223115   3.553   5.065   6.487
 7406SOL     OW23116   0.643   6.173   1.743
 7406SOL    HW123117   0.563   6.121   1.775
 7406SOL    HW223118   0.721   6.111   1.737
 7407SOL     OW23119   2.236   0.821   5.771
 7407SOL    HW123120   2.305   0.761   5.811
 7407SOL    HW223121   2.280   0.881   5.703
 7408SOL     OW23122   0.469   3.852   5.184
 7408SOL    HW123123   0.504   3.831   5.276
 7408SOL    HW223124   0.390   3.793   5.164
 7409SOL     OW23125   2.740   6.573   5.621
 7409SOL    HW123126   2.810   6.560   5.692
 7409SOL    HW223127   2.768   6.646   5.560
 7410SOL     OW23128   4.977   4.798   6.716
 7410SOL    HW123129   5.012   4.855   6.642
 7410SOL    HW223130   4.987   4.847   6.803
 7411SOL     OW23131   5.241   4.673   5.716
 7411SOL    HW123132   5.341   4.671   5.714
 7411SOL    HW223133   5.210   4.741   5.782
 7412SOL     OW23134   1.824   1.436   6.831
 7412SOL    HW123135   1.880   1.514   6.802
 7412SOL    HW223136   1.809   1.375   6.753
 7413SOL     OW23137   0.225   3.259   4.293
 7413SOL    HW123138   0.259   3.310   4.372
 7413SOL    HW223139   0.130   3.285   4.275
 7414SOL     OW23140   6.944   5.293   2.695
 7414SOL    HW123141   0.008   5.305   2.736
 7414SOL    HW223142   6.952   5.286   2.596
 7415SOL     OW23143   2.719   1.665   3.219
 7415SOL    HW123144   2.625   1.664   3.253
 7415SOL    HW223145   2.752   1.571   3.210
 7416SOL     OW23146   5.708   0.182   3.514
 7416SOL    HW123147   5.742   0.270   3.549
 7416SOL    HW223148   5.681   0.124   3.591
 7417SOL     OW23149   0.829   5.925   1.115
 7417SOL    HW123150   0.808   5.881   1.028
 7417SOL    HW223151   0.744   5.941   1.166
 7418SOL     OW23152   0.741   3.775   0.423
 7418SOL    HW123153   0.746   3.678   0.448
 7418SOL    HW223154   0.804   3.793   0.347
 7419SOL     OW23155   5.860   1.218   5.723
 7419SOL    HW123156   5.949   1.229   5.678
 7419SOL    HW223157   5.825   1.308   5.749
 7420SOL     OW23158   6.776   5.739   2.123
 7420SOL    HW123159   6.729   5.813   2.073
 7420SOL    HW223160   6.834   5.779   2.194
 7421SOL     OW23161   3.787   2.626   1.568
 7421SOL    HW123162   3.737   2.624   1.481
 7421SOL    HW223163   3.836   2.713   1.576
 7422SOL     OW23164   0.971   1.868   1.080
 7422SOL    HW123165   0.965   1.951   1.135
 7422SOL    HW223166   0.921   1.881   0.995
 7423SOL     OW23167   2.140   5.260   0.063
 7423SOL    HW123168   2.074   5.204   0.013
 7423SOL    HW223169   2.137   5.354   0.027
 7424SOL     OW23170   5.590   0.859   4.826
 7424SOL    HW123171   5.492   0.870   4.839
 7424SOL    HW223172   5.638   0.889   4.908
 7425SOL     OW23173   4.154   0.328   5.248
 7425SOL    HW123174   4.061   0.358   5.267
 7425SOL    HW223175   4.195   0.290   5.331
 7426SOL     OW23176   1.100   1.403   0.114
 7426SOL    HW123177   1.065   1.363   0.199
 7426SOL    HW223178   1.190   1.445   0.132
 7427SOL     OW23179   4.490   5.590   5.201
 7427SOL    HW123180   4.532   5.580   5.111
 7427SOL    HW223181   4.471   5.500   5.240
 7428SOL     OW23182   3.009   1.394   5.814
 7428SOL    HW123183   3.090   1.426   5.764
 7428SOL    HW223184   3.004   1.441   5.902
 7429SOL     OW23185   6.633   0.112   4.132
 7429SOL    HW123186   6.628   0.081   4.037
 7429SOL    HW223187   6.629   0.033   4.193
 7430SOL     OW23188   0.411   4.769   4.274
 7430SOL    HW123189   0.493   4.721   4.242
 7430SOL    HW223190   0.338   4.702   4.290
 7431SOL     OW23191   0.907   4.420   1.963
 7431SOL    HW123192   0.992   4.389   2.004
 7431SOL    HW223193   0.836   4.427   2.033
 7432SOL     OW23194   1.536   6.389   4.884
 7432SOL    HW123195   1.628   6.379   4.922
 7432SOL    HW223196   1.493   6.470   4.922
 7433SOL     OW23197   6.941   6.222   1.249
 7433SOL    HW123198   6.921   6.296   1.313
 7433SOL    HW223199   6.889   6.140   1.274
 7434SOL     OW23200   4.272   0.031   6.901
 7434SOL    HW123201   4.219   7.023   6.823
 7434SOL    HW223202   4.234   0.118   6.932
 7435SOL     OW23203   1.124   5.517   6.809
 7435SOL    HW123204   1.172   5.431   6.827
 7435SOL    HW223205   1.049   5.500   6.744
 7436SOL     OW23206   4.952   3.159   0.008
 7436SOL    HW123207   4.992   3.223   6.968
 7436SOL    HW223208   4.942   3.069   6.992
 7437SOL     OW23209   7.014   5.516   5.735
 7437SOL    HW123210   0.028   5.593   5.686
 7437SOL    HW223211   6.994   5.442   5.670
 7438SOL     OW23212   6.081   4.349   1.974
 7438SOL    HW123213   6.108   4.265   1.927
 7438SOL    HW223214   5.999   4.332   2.028
 7439SOL     OW23215   1.258   6.023   3.455
 7439SOL    HW123216   1.194   6.034   3.379
 7439SOL    HW223217   1.284   5.927   3.464
 7440SOL     OW23218   0.604   1.683   3.428
 7440SOL    HW123219   0.647   1.638   3.507
 7440SOL    HW223220   0.667   1.749   3.389
 7441SOL     OW23221   5.958   6.847   4.117
 7441SOL    HW123222   5.921   6.911   4.050
 7441SOL    HW223223   6.032   6.891   4.168
 7442SOL     OW23224   2.024   0.998   6.494
 7442SOL    HW123225   1.950   0.988   6.427
 7442SOL    HW223226   2.010   0.932   6.568
 7443SOL     OW23227   6.833   1.514   0.560
 7443SOL    HW123228   6.775   1.533   0.640
 7443SOL    HW223229   6.919   1.472   0.590
 7444SOL     OW23230   0.634   2.414   5.899
 7444SOL    HW123231   0.731   2.425   5.920
 7444SOL    HW223232   0.624   2.378   5.806
 7445SOL     OW23233   5.920   2.325   1.715
 7445SOL    HW123234   5.888   2.234   1.740
 7445SOL    HW223235   5.865   2.361   1.640
 7446SOL     OW23236   6.511   3.157   1.747
 7446SOL    HW123237   6.434   3.207   1.789
 7446SOL    HW223238   6.579   3.136   1.817
 7447SOL     OW23239   6.942   3.762   6.111
 7447SOL    HW123240   6.934   3.743   6.013
 7447SOL    HW223241   6.890   3.693   6.162
 7448SOL     OW23242   6.544   6.484   6.052
 7448SOL    HW123243   6.613   6.474   6.124
 7448SOL    HW223244   6.511   6.578   6.050
 7449SOL     OW23245   4.302   0.847   1.532
 7449SOL    HW123246   4.377   0.872   1.470
 7449SOL    HW223247   4.311   0.899   1.617
 7450SOL     OW23248   3.545   0.276   1.898
 7450SOL    HW123249   3.643   0.259   1.911
 7450SOL    HW223250   3.529   0.310   1.806
 7451SOL     OW23251   1.440   1.030   2.762
 7451SOL    HW123252   1.430   0.933   2.737
 7451SOL    HW223253   1.402   1.087   2.690
 7452SOL     OW23254   1.661   6.717   4.145
 7452SOL    HW123255   1.633   6.758   4.058
 7452SOL    HW223256   1.593   6.650   4.174
 7453SOL     OW23257   5.903   5.835   5.352
 7453SOL    HW123258   5.839   5.768   5.315
 7453SOL    HW223259   5.977   5.850   5.287
 7454SOL     OW23260   0.854   3.180   6.904
 7454SOL    HW123261   0.943   3.225   6.900
 7454SOL    HW223262   0.849   3.124   6.987
 7455SOL     OW23263   5.351   1.256   0.420
 7455SOL    HW123264   5.384   1.286   0.509
 7455SOL    HW223265   5.417   1.283   0.349
 7456SOL     OW23266   1.481   3.110   5.647
 7456SOL    HW123267   1.425   3.149   5.574
 7456SOL    HW223268   1.428   3.042   5.696
 7457SOL     OW23269   6.323   6.753   6.266
 7457SOL    HW123270   6.247   6.796   6.315
 7457SOL    HW223271   6.407   6.804   6.284
 7458SOL     OW23272   2.348   0.540   0.936
 7458SOL    HW123273   2.275   0.595   0.897
 7458SOL    HW223274   2.310   0.477   1.004
 7459SOL     OW23275   4.472   0.136   4.461
 7459SOL    HW123276   4.539   0.138   4.536
 7459SOL    HW223277   4.462   0.227   4.423
 7460SOL     OW23278   0.681   5.309   6.612
 7460SOL    HW123279   0.730   5.222   6.615
 7460SOL    HW223280   0.656   5.330   6.517
 7461SOL     OW23281   4.905   0.908   4.217
 7461SOL    HW123282   4.856   0.981   4.170
 7461SOL    HW223283   4.846   0.827   4.224
 7462SOL     OW23284   1.991   0.995   2.210
 7462SOL    HW123285   2.024   1.026   2.300
 7462SOL    HW223286   2.057   0.931   2.171
 7463SOL     OW23287   3.550   4.119   2.129
 7463SOL    HW123288   3.640   4.106   2.171
 7463SOL    HW223289   3.561   4.165   2.041
 7464SOL     OW23290   4.814   6.983   6.766
 7464SOL    HW123291   4.913   6.980   6.782
 7464SOL    HW223292   4.795   6.956   6.672
 7465SOL     OW23293   3.461   1.174   2.103
 7465SOL    HW123294   3.365   1.144   2.100
 7465SOL    HW223295   3.520   1.102   2.068
 7466SOL     OW23296   0.381   0.515   6.617
 7466SOL    HW123297   0.445   0.467   6.557
 7466SOL    HW223298   0.378   0.469   6.706
 7467SOL     OW23299   5.304   1.303   1.457
 7467SOL    HW123300   5.205   1.297   1.444
 7467SOL    HW223301   5.350   1.284   1.370
 7468SOL     OW23302   6.071   3.227   4.184
 7468SOL    HW123303   6.144   3.236   4.117
 7468SOL    HW223304   6.084   3.295   4.257
 7469SOL     OW23305   6.073   1.177   1.811
 7469SOL    HW123306   6.103   1.230   1.732
 7469SOL    HW223307   5.985   1.212   1.843
 7470SOL     OW23308   0.199   2.667   2.266
 7470SOL    HW123309   0.162   2.650   2.357
 7470SOL    HW223310   0.146   2.738   2.221
 7471SOL     OW23311   5.955   4.646   5.723
 7471SOL    HW123312   5.916   4.605   5.805
 7471SOL    HW223313   6.050   4.615   5.712
 7472SOL     OW23314   3.745   5.227   3.124
 7472SOL    HW123315   3.737   5.323   3.153
 7472SOL    HW223316   3.838   5.195   3.142
 7473SOL     OW23317   0.764   3.327   4.989
 7473SOL    HW123318   0.829   3.268   5.037
 7473SOL    HW223319   0.794   3.422   4.995
 7474SOL     OW23320   4.000   1.571   3.089
 7474SOL    HW123321   3.934   1.546   3.160
 7474SOL    HW223322   4.090   1.535   3.114
 7475SOL     OW23323   4.022   1.058   0.115
 7475SOL    HW123324   4.101   1.064   0.175
 7475SOL    HW223325   3.939   1.080   0.167
 7476SOL     OW23326   3.341   6.971   5.209
 7476SOL    HW123327   3.430   7.013   5.196
 7476SOL    HW223328   3.308   6.936   5.121
 7477SOL     OW23329   5.133   3.364   3.602
 7477SOL    HW123330   5.136   3.300   3.679
 7477SOL    HW223331   5.059   3.339   3.541
 7478SOL     OW23332   1.689   4.580   1.254
 7478SOL    HW123333   1.629   4.590   1.333
 7478SOL    HW223334   1.636   4.590   1.170
 7479SOL     OW23335   4.771   0.819   6.154
 7479SOL    HW123336   4.781   0.744   6.089
 7479SOL    HW223337   4.676   0.850   6.156
 7480SOL     OW23338   6.828   5.017   0.927
 7480SOL    HW123339   6.852   4.931   0.881
 7480SOL    HW223340   6.739   5.049   0.893
 7481SOL     OW23341   6.230   5.873   0.705
 7481SOL    HW123342   6.178   5.814   0.767
 7481SOL    HW223343   6.320   5.834   0.688
 7482SOL     OW23344   5.149   0.636   3.800
 7482SOL    HW123345   5.206   0.557   3.778
 7482SOL    HW223346   5.073   0.607   3.858
 7483SOL     OW23347   3.230   6.973   5.890
 7483SOL    HW123348   3.252   6.962   5.987
 7483SOL    HW223349   3.134   6.951   5.875
 7484SOL     OW23350   3.116   0.240   2.178
 7484SOL    HW123351   3.073   0.324   2.213
 7484SOL    HW223352   3.199   0.221   2.229
 7485SOL     OW23353   1.042   6.597   6.032
 7485SOL    HW123354   1.142   6.601   6.033
 7485SOL    HW223355   1.012   6.503   6.010
 7486SOL     OW23356   1.835   0.288   5.158
 7486SOL    HW123357   1.820   0.362   5.093
 7486SOL    HW223358   1.932   0.285   5.183
 7487SOL     OW23359   3.997   5.504   3.347
 7487SOL    HW123360   3.958   5.561   3.274
 7487SOL    HW223361   4.066   5.555   3.397
 7488SOL     OW23362   3.278   0.914   5.541
 7488SOL    HW123363   3.207   0.845   5.529
 7488SOL    HW223364   3.344   0.906   5.467
 7489SOL     OW23365   6.460   3.467   3.366
 7489SOL    HW123366   6.443   3.421   3.453
 7489SOL    HW223367   6.490   3.400   3.298
 7490SOL     OW23368   5.833   1.251   2.467
 7490SOL    HW123369   5.761   1.266   2.399
 7490SOL    HW223370   5.922   1.252   2.421
 7491SOL     OW23371   0.074   6.632   6.660
 7491SOL    HW123372   0.012   6.554   6.654
 7491SOL    HW223373   0.131   6.623   6.742
 7492SOL     OW23374   1.924   2.700   4.005
 7492SOL    HW123375   2.005   2.727   4.057
 7492SOL    HW223376   1.944   2.704   3.907
 7493SOL     OW23377   5.627   4.483   0.419
 7493SOL    HW123378   5.591   4.415   0.355
 7493SOL    HW223379   5.646   4.568   0.371
 7494SOL     OW23380   4.688   1.853   1.223
 7494SOL    HW123381   4.700   1.904   1.137
 7494SOL    HW223382   4.662   1.917   1.296
 7495SOL     OW23383   0.477   1.649   2.365
 7495SOL    HW123384   0.569   1.654   2.326
 7495SOL    HW223385   0.412   1.629   2.292
 7496SOL     OW23386   1.135   4.558   5.153
 7496SOL    HW123387   1.139   4.563   5.253
 7496SOL    HW223388   1.151   4.464   5.124
 7497SOL     OW23389   2.384   5.098   2.458
 7497SOL    HW123390   2.357   5.188   2.422
 7497SOL    HW223391   2.479   5.101   2.488
 7498SOL     OW23392   5.169   0.842   4.483
 7498SOL    HW123393   5.178   0.758   4.429
 7498SOL    HW223394   5.156   0.920   4.422
 7499SOL     OW23395   4.397   5.813   3.897
 7499SOL    HW123396   4.326   5.786   3.832
 7499SOL    HW223397   4.355   5.848   3.980
 7500SOL     OW23398   5.006   4.345   1.821
 7500SOL    HW123399   5.029   4.249   1.832
 7500SOL    HW223400   4.936   4.371   1.888
 7501SOL     OW23401   0.624   4.202   3.740
 7501SOL    HW123402   0.669   4.289   3.760
 7501SOL    HW223403   0.541   4.194   3.796
 7502SOL     OW23404   2.234   1.862   4.505
 7502SOL    HW123405   2.301   1.927   4.470
 7502SOL    HW223406   2.276   1.771   4.512
 7503SOL     OW23407   1.987   2.575   6.725
 7503SOL    HW123408   1.970   2.501   6.660
 7503SOL    HW223409   1.912   2.642   6.720
 7504SOL     OW23410   4.138   5.776   3.762
 7504SOL    HW123411   4.178   5.862   3.728
 7504SOL    HW223412   4.046   5.793   3.797
 7505SOL     OW23413   1.969   2.092   4.352
 7505SOL    HW123414   2.037   2.164   4.338
 7505SOL    HW223415   2.012   2.003   4.346
 7506SOL     OW23416   3.986   1.783   3.520
 7506SOL    HW123417   4.037   1.777   3.606
 7506SOL    HW223418   3.941   1.873   3.515
 7507SOL     OW23419   1.710   6.427   6.018
 7507SOL    HW123420   1.736   6.469   6.105
 7507SOL    HW223421   1.788   6.429   5.955
 7508SOL     OW23422   4.799   6.140   4.402
 7508SOL    HW123423   4.757   6.109   4.316
 7508SOL    HW223424   4.893   6.104   4.407
 7509SOL     OW23425   4.214   3.503   5.979
 7509SOL    HW123426   4.200   3.568   5.904
 7509SOL    HW223427   4.172   3.416   5.956
 7510SOL     OW23428   3.131   4.081   4.546
 7510SOL    HW123429   3.067   4.076   4.623
 7510SOL    HW223430   3.223   4.060   4.578
 7511SOL     OW23431   1.327   0.909   2.414
 7511SOL    HW123432   1.373   0.869   2.493
 7511SOL    HW223433   1.228   0.909   2.430
 7512SOL     OW23434   2.189   3.111   1.792
 7512SOL    HW123435   2.207   3.017   1.821
 7512SOL    HW223436   2.273   3.150   1.753
 7513SOL     OW23437   0.621   3.689   6.209
 7513SOL    HW123438   0.615   3.597   6.170
 7513SOL    HW223439   0.679   3.688   6.290
 7514SOL     OW23440   2.774   5.721   2.872
 7514SOL    HW123441   2.689   5.721   2.923
 7514SOL    HW223442   2.764   5.665   2.790
 7515SOL     OW23443   6.999   5.026   3.117
 7515SOL    HW123444   6.965   4.952   3.059
 7515SOL    HW223445   6.989   5.114   3.070
 7516SOL     OW23446   1.136   1.178   2.899
 7516SOL    HW123447   1.194   1.115   2.951
 7516SOL    HW223448   1.183   1.265   2.887
 7517SOL     OW23449   0.564   4.993   1.428
 7517SOL    HW123450   0.628   5.066   1.406
 7517SOL    HW223451   0.564   4.977   1.527
 7518SOL     OW23452   5.344   5.509   2.866
 7518SOL    HW123453   5.281   5.552   2.931
 7518SOL    HW223454   5.292   5.459   2.796
 7519SOL     OW23455   2.055   6.090   3.570
 7519SOL    HW123456   2.058   5.992   3.588
 7519SOL    HW223457   1.966   6.126   3.599
 7520SOL     OW23458   2.422   6.981   4.100
 7520SOL    HW123459   2.501   6.978   4.162
 7520SOL    HW223460   2.396   0.049   4.084
 7521SOL     OW23461   5.144   3.842   5.982
 7521SOL    HW123462   5.209   3.917   5.995
 7521SOL    HW223463   5.187   3.770   5.927
 7522SOL     OW23464   1.657   0.335   2.240
 7522SOL    HW123465   1.622   0.428   2.246
 7522SOL    HW223466   1.670   0.298   2.332
 7523SOL     OW23467   5.755   0.101   6.988
 7523SOL    HW123468   5.741   0.005   6.963
 7523SOL    HW223469   5.733   0.159   6.910
 7524SOL     OW23470   6.118   1.370   4.314
 7524SOL    HW123471   6.139   1.339   4.221
 7524SOL    HW223472   6.059   1.451   4.310
 7525SOL     OW23473   1.079   6.020   1.040
 7525SOL    HW123474   1.008   5.970   1.089
 7525SOL    HW223475   1.138   5.956   0.991
 7526SOL     OW23476   3.421   2.769   5.297
 7526SOL    HW123477   3.510   2.725   5.284
 7526SOL    HW223478   3.352   2.700   5.319
 7527SOL     OW23479   5.520   5.256   2.395
 7527SOL    HW123480   5.504   5.191   2.321
 7527SOL    HW223481   5.433   5.274   2.442
 7528SOL     OW23482   5.896   3.081   5.881
 7528SOL    HW123483   5.904   3.033   5.968
 7528SOL    HW223484   5.983   3.077   5.832
 7529SOL     OW23485   3.099   0.229   5.208
 7529SOL    HW123486   3.114   0.173   5.289
 7529SOL    HW223487   3.012   0.202   5.165
 7530SOL     OW23488   6.629   3.130   2.940
 7530SOL    HW123489   6.535   3.142   2.909
 7530SOL    HW223490   6.671   3.220   2.953
 7531SOL     OW23491   3.207   1.787   4.267
 7531SOL    HW123492   3.204   1.844   4.184
 7531SOL    HW223493   3.214   1.846   4.347
 7532SOL     OW23494   4.845   4.743   2.166
 7532SOL    HW123495   4.925   4.686   2.152
 7532SOL    HW223496   4.792   4.707   2.243
 7533SOL     OW23497   3.425   0.206   4.689
 7533SOL    HW123498   3.446   0.109   4.679
 7533SOL    HW223499   3.342   0.218   4.743
 7534SOL     OW23500   5.553   6.746   4.481
 7534SOL    HW123501   5.522   6.834   4.446
 7534SOL    HW223502   5.481   6.678   4.469
 7535SOL     OW23503   3.524   4.772   0.019
 7535SOL    HW123504   3.540   4.686   0.069
 7535SOL    HW223505   3.493   4.751   6.953
 7536SOL     OW23506   3.888   5.757   4.381
 7536SOL    HW123507   3.845   5.800   4.461
 7536SOL    HW223508   3.832   5.679   4.351
 7537SOL     OW23509   1.885   4.508   5.476
 7537SOL    HW123510   1.941   4.471   5.551
 7537SOL    HW223511   1.941   4.570   5.421
 7538SOL     OW23512   3.373   2.889   3.169
 7538SOL    HW123513   3.381   2.862   3.265
 7538SOL    HW223514   3.289   2.942   3.157
 7539SOL     OW23515   1.976   2.296   4.045
 7539SOL    HW123516   1.913   2.353   4.099
 7539SOL    HW223517   2.050   2.353   4.009
 7540SOL     OW23518   1.784   1.456   0.143
 7540SOL    HW123519   1.825   1.496   0.061
 7540SOL    HW223520   1.794   1.357   0.140
 7541SOL     OW23521   0.043   2.949   5.243
 7541SOL    HW123522   0.038   2.857   5.204
 7541SOL    HW223523   0.024   2.945   5.341
 7542SOL     OW23524   2.115   0.220   6.804
 7542SOL    HW123525   2.191   0.192   6.745
 7542SOL    HW223526   2.145   0.218   6.900
 7543SOL     OW23527   4.044   2.946   6.838
 7543SOL    HW123528   3.954   2.918   6.805
 7543SOL    HW223529   4.097   2.866   6.864
 7544SOL     OW23530   1.596   2.110   2.849
 7544SOL    HW123531   1.652   2.136   2.770
 7544SOL    HW223532   1.503   2.142   2.836
 7545SOL     OW23533   5.203   6.700   3.785
 7545SOL    HW123534   5.200   6.786   3.835
 7545SOL    HW223535   5.109   6.667   3.771
 7546SOL     OW23536   5.193   0.044   6.537
 7546SOL    HW123537   5.170   7.017   6.619
 7546SOL    HW223538   5.288   0.026   6.512
 7547SOL     OW23539   3.202   0.110   0.499
 7547SOL    HW123540   3.158   0.021   0.511
 7547SOL    HW223541   3.220   0.125   0.402
 7548SOL     OW23542   1.164   2.905   1.023
 7548SOL    HW123543   1.070   2.880   1.048
 7548SOL    HW223544   1.184   2.997   1.058
 7549SOL     OW23545   5.998   1.959   2.030
 7549SOL    HW123546   5.983   2.057   2.039
 7549SOL    HW223547   6.039   1.940   1.941
 7550SOL     OW23548   1.120   5.106   1.204
 7550SOL    HW123549   1.060   5.172   1.159
 7550SOL    HW223550   1.182   5.154   1.267
 7551SOL     OW23551   4.393   3.785   6.058
 7551SOL    HW123552   4.417   3.871   6.105
 7551SOL    HW223553   4.308   3.749   6.097
 7552SOL     OW23554   3.043   5.301   3.810
 7552SOL    HW123555   3.055   5.303   3.910
 7552SOL    HW223556   2.975   5.231   3.787
 7553SOL     OW23557   4.771   4.410   6.279
 7553SOL    HW123558   4.831   4.331   6.286
 7553SOL    HW223559   4.682   4.389   6.321
 7554SOL     OW23560   6.635   1.239   0.663
 7554SOL    HW123561   6.660   1.335   0.649
 7554SOL    HW223562   6.707   1.180   0.626
 7555SOL     OW23563   1.435   5.499   6.029
 7555SOL    HW123564   1.460   5.565   6.100
 7555SOL    HW223565   1.350   5.453   6.055
 7556SOL     OW23566   0.114   3.302   3.870
 7556SOL    HW123567   0.084   3.360   3.946
 7556SOL    HW223568   0.142   3.212   3.905
 7557SOL     OW23569   4.440   3.471   6.857
 7557SOL    HW123570   4.539   3.483   6.860
 7557SOL    HW223571   4.416   3.414   6.778
 7558SOL     OW23572   1.574   3.472   3.492
 7558SOL    HW123573   1.480   3.491   3.464
 7558SOL    HW223574   1.574   3.428   3.582
 7559SOL     OW23575   0.912   4.920   0.651
 7559SOL    HW123576   0.947   4.905   0.743
 7559SOL    HW223577   0.964   4.864   0.586
 7560SOL     OW23578   4.824   6.729   5.876
 7560SOL    HW123579   4.728   6.714   5.900
 7560SOL    HW223580   4.834   6.727   5.777
 7561SOL     OW23581   0.464   3.594   0.776
 7561SOL    HW123582   0.471   3.685   0.735
 7561SOL    HW223583   0.504   3.527   0.714
 7562SOL     OW23584   5.108   6.114   5.686
 7562SOL    HW123585   5.185   6.069   5.731
 7562SOL    HW223586   5.044   6.044   5.654
 7563SOL     OW23587   2.518   1.050   2.363
 7563SOL    HW123588   2.526   0.951   2.348
 7563SOL    HW223589   2.432   1.083   2.324
 7564SOL     OW23590   5.308   6.790   4.213
 7564SOL    HW123591   5.299   6.693   4.190
 7564SOL    HW223592   5.405   6.815   4.213
 7565SOL     OW23593   4.864   4.537   0.487
 7565SOL    HW123594   4.789   4.471   0.480
 7565SOL    HW223595   4.860   4.582   0.576
 7566SOL     OW23596   1.868   5.549   5.105
 7566SOL    HW123597   1.903   5.514   5.191
 7566SOL    HW223598   1.768   5.556   5.110
 7567SOL     OW23599   2.653   2.856   6.873
 7567SOL    HW123600   2.741   2.877   6.830
 7567SOL    HW223601   2.621   2.936   6.924
 7568SOL     OW23602   4.604   4.353   3.352
 7568SOL    HW123603   4.549   4.387   3.428
 7568SOL    HW223604   4.645   4.265   3.377
 7569SOL     OW23605   3.831   0.741   1.009
 7569SOL    HW123606   3.851   0.661   1.065
 7569SOL    HW223607   3.792   0.813   1.067
 7570SOL     OW23608   5.916   4.685   4.650
 7570SOL    HW123609   5.910   4.609   4.715
 7570SOL    HW223610   5.883   4.655   4.561
 7571SOL     OW23611   5.131   4.093   1.897
 7571SOL    HW123612   5.112   4.106   1.994
 7571SOL    HW223613   5.117   3.997   1.872
 7572SOL     OW23614   1.453   1.651   4.057
 7572SOL    HW123615   1.413   1.604   4.135
 7572SOL    HW223616   1.386   1.657   3.983
 7573SOL     OW23617   3.181   5.384   5.638
 7573SOL    HW123618   3.108   5.385   5.570
 7573SOL    HW223619   3.254   5.447   5.610
 7574SOL     OW23620   5.295   5.873   2.318
 7574SOL    HW123621   5.246   5.893   2.403
 7574SOL    HW223622   5.370   5.810   2.337
 7575SOL     OW23623   4.708   2.443   4.898
 7575SOL    HW123624   4.687   2.515   4.964
 7575SOL    HW223625   4.806   2.422   4.902
 7576SOL     OW23626   6.422   3.602   1.252
 7576SOL    HW123627   6.469   3.529   1.302
 7576SOL    HW223628   6.381   3.666   1.317
 7577SOL     OW23629   4.170   0.578   4.935
 7577SOL    HW123630   4.150   0.593   4.838
 7577SOL    HW223631   4.087   0.588   4.989
 7578SOL     OW23632   2.554   5.187   4.356
 7578SOL    HW123633   2.618   5.223   4.424
 7578SOL    HW223634   2.482   5.254   4.339
 7579SOL     OW23635   4.408   1.978   3.709
 7579SOL    HW123636   4.353   2.059   3.688
 7579SOL    HW223637   4.456   1.949   3.626
 7580SOL     OW23638   2.124   3.410   2.679
 7580SOL    HW123639   2.098   3.418   2.775
 7580SOL    HW223640   2.115   3.315   2.650
 7581SOL     OW23641   6.146   0.975   1.038
 7581SOL    HW123642   6.203   0.929   1.105
 7581SOL    HW223643   6.094   1.048   1.083
 7582SOL     OW23644   3.028   1.830   1.077
 7582SOL    HW123645   2.987   1.813   1.166
 7582SOL    HW223646   3.066   1.922   1.075
 7583SOL     OW23647   6.910   3.374   2.737
 7583SOL    HW123648   6.933   3.358   2.642
 7583SOL    HW223649   6.811   3.372   2.749
 7584SOL     OW23650   2.185   1.305   1.006
 7584SOL    HW123651   2.121   1.381   1.005
 7584SOL    HW223652   2.135   1.219   1.018
 7585SOL     OW23653   1.607   5.194   6.171
 7585SOL    HW123654   1.686   5.245   6.204
 7585SOL    HW223655   1.531   5.205   6.235
 7586SOL     OW23656   2.215   1.210   1.679
 7586SOL    HW123657   2.118   1.227   1.695
 7586SOL    HW223658   2.257   1.290   1.638
 7587SOL     OW23659   2.042   1.004   5.828
 7587SOL    HW123660   2.057   1.032   5.923
 7587SOL    HW223661   2.120   0.950   5.796
 7588SOL     OW23662   0.458   4.127   1.459
 7588SOL    HW123663   0.554   4.153   1.471
 7588SOL    HW223664   0.414   4.189   1.394
 7589SOL     OW23665   5.624   6.506   0.344
 7589SOL    HW123666   5.706   6.455   0.370
 7589SOL    HW223667   5.544   6.467   0.390
 7590SOL     OW23668   1.989   0.520   6.977
 7590SOL    HW123669   2.009   0.473   6.891
 7590SOL    HW223670   2.070   0.570   7.008
 7591SOL     OW23671   6.997   5.313   0.171
 7591SOL    HW123672   0.050   5.348   0.219
 7591SOL    HW223673   6.960   5.234   0.221
 7592SOL     OW23674   5.537   5.866   6.747
 7592SOL    HW123675   5.558   5.964   6.750
 7592SOL    HW223676   5.458   5.851   6.688
 7593SOL     OW23677   6.198   3.511   0.003
 7593SOL    HW123678   6.135   3.569   6.979
 7593SOL    HW223679   6.170   3.507   0.099
 7594SOL     OW23680   1.113   6.031   3.212
 7594SOL    HW123681   1.160   6.048   3.126
 7594SOL    HW223682   1.017   6.053   3.203
 7595SOL     OW23683   6.460   2.203   0.212
 7595SOL    HW123684   6.418   2.121   0.173
 7595SOL    HW223685   6.390   2.271   0.230
 7596SOL     OW23686   4.762   4.616   1.795
 7596SOL    HW123687   4.790   4.709   1.818
 7596SOL    HW223688   4.770   4.558   1.876
 7597SOL     OW23689   2.932   5.890   2.058
 7597SOL    HW123690   2.842   5.870   2.099
 7597SOL    HW223691   2.921   5.908   1.961
 7598SOL     OW23692   6.894   0.486   3.517
 7598SOL    HW123693   6.911   0.580   3.487
 7598SOL    HW223694   6.892   0.426   3.437
 7599SOL     OW23695   6.606   2.392   2.201
 7599SOL    HW123696   6.518   2.425   2.235
 7599SOL    HW223697   6.621   2.299   2.233
 7600SOL     OW23698   2.408   1.865   1.880
 7600SOL    HW123699   2.345   1.788   1.875
 7600SOL    HW223700   2.356   1.951   1.881
 7601SOL     OW23701   1.730   0.093   4.391
 7601SOL    HW123702   1.634   0.107   4.368
 7601SOL    HW223703   1.758   0.001   4.365
 7602SOL     OW23704   2.161   3.172   5.158
 7602SOL    HW123705   2.249   3.130   5.180
 7602SOL    HW223706   2.146   3.250   5.218
 7603SOL     OW23707   0.844   0.740   2.309
 7603SOL    HW123708   0.745   0.742   2.322
 7603SOL    HW223709   0.886   0.685   2.380
 7604SOL     OW23710   4.742   6.704   6.829
 7604SOL    HW123711   4.667   6.770   6.824
 7604SOL    HW223712   4.750   6.656   6.742
 7605SOL     OW23713   6.003   4.328   5.475
 7605SOL    HW123714   6.055   4.349   5.558
 7605SOL    HW223715   6.000   4.409   5.416
 7606SOL     OW23716   6.413   2.008   2.935
 7606SOL    HW123717   6.476   1.933   2.913
 7606SOL    HW223718   6.415   2.075   2.862
 7607SOL     OW23719   5.151   6.935   6.794
 7607SOL    HW123720   5.164   6.879   6.875
 7607SOL    HW223721   5.183   0.001   6.811
 7608SOL     OW23722   3.649   3.302   3.296
 7608SOL    HW123723   3.728   3.249   3.264
 7608SOL    HW223724   3.574   3.241   3.318
 7609SOL     OW23725   1.534   2.772   4.680
 7609SOL    HW123726   1.628   2.744   4.699
 7609SOL    HW223727   1.474   2.691   4.679
 7610SOL     OW23728   5.458   0.680   1.313
 7610SOL    HW123729   5.481   0.669   1.216
 7610SOL    HW223730   5.452   0.777   1.335
 7611SOL     OW23731   1.792   1.701   1.262
 7611SOL    HW123732   1.740   1.779   1.228
 7611SOL    HW223733   1.729   1.628   1.289
 7612SOL     OW23734   4.386   1.508   2.801
 7612SOL    HW123735   4.315   1.491   2.733
 7612SOL    HW223736   4.348   1.562   2.877
 7613SOL     OW23737   5.453   1.200   2.340
 7613SOL    HW123738   5.509   1.236   2.265
 7613SOL    HW223739   5.439   1.272   2.408
 7614SOL     OW23740   3.936   1.552   0.140
 7614SOL    HW123741   3.927   1.552   0.240
 7614SOL    HW223742   3.960   1.644   0.109
 7615SOL     OW23743   4.088   4.835   5.969
 7615SOL    HW123744   4.171   4.891   5.972
 7615SOL    HW223745   4.053   4.822   6.062
 7616SOL     OW23746   6.750   5.164   3.741
 7616SOL    HW123747   6.841   5.184   3.775
 7616SOL    HW223748   6.682   5.194   3.807
 7617SOL     OW23749   3.515   6.131   2.164
 7617SOL    HW123750   3.472   6.048   2.198
 7617SOL    HW223751   3.583   6.108   2.095
 7618SOL     OW23752   1.947   2.809   0.513
 7618SOL    HW123753   1.942   2.774   0.606
 7618SOL    HW223754   1.906   2.743   0.450
 7619SOL     OW23755   5.634   3.097   5.930
 7619SOL    HW123756   5.733   3.100   5.918
 7619SOL    HW223757   5.604   3.002   5.932
 7620SOL     OW23758   3.398   6.144   1.622
 7620SOL    HW123759   3.403   6.232   1.670
 7620SOL    HW223760   3.407   6.159   1.524
 7621SOL     OW23761   2.870   1.768   1.320
 7621SOL    HW123762   2.852   1.843   1.384
 7621SOL    HW223763   2.912   1.692   1.369
 7622SOL     OW23764   4.592   1.895   0.543
 7622SOL    HW123765   4.640   1.865   0.626
 7622SOL    HW223766   4.560   1.815   0.492
 7623SOL     OW23767   5.257   0.309   5.735
 7623SOL    HW123768   5.232   0.396   5.777
 7623SOL    HW223769   5.278   0.324   5.638
 7624SOL     OW23770   6.798   0.782   4.094
 7624SOL    HW123771   6.801   0.689   4.130
 7624SOL    HW223772   6.869   0.794   4.025
 7625SOL     OW23773   4.220   6.679   1.264
 7625SOL    HW123774   4.216   6.580   1.265
 7625SOL    HW223775   4.180   6.714   1.179
 7626SOL     OW23776   2.062   4.870   5.031
 7626SOL    HW123777   1.991   4.879   4.961
 7626SOL    HW223778   2.143   4.828   4.989
 7627SOL     OW23779   0.242   1.939   0.083
 7627SOL    HW123780   0.282   1.872   0.020
 7627SOL    HW223781   0.313   1.975   0.143
 7628SOL     OW23782   3.972   2.184   0.753
 7628SOL    HW123783   4.038   2.138   0.695
 7628SOL    HW223784   3.890   2.206   0.700
 7629SOL     OW23785   6.465   5.079   3.601
 7629SOL    HW123786   6.368   5.087   3.624
 7629SOL    HW223787   6.520   5.112   3.678
 7630SOL     OW23788   6.725   0.973   2.256
 7630SOL    HW123789   6.748   1.012   2.167
 7630SOL    HW223790   6.626   0.970   2.266
 7631SOL     OW23791   0.963   2.295   3.522
 7631SOL    HW123792   1.047   2.347   3.511
 7631SOL    HW223793   0.891   2.355   3.556
 7632SOL     OW23794   4.165   1.961   6.374
 7632SOL    HW123795   4.157   1.867   6.339
 7632SOL    HW223796   4.094   2.018   6.334
 7633SOL     OW23797   5.776   4.443   6.737
 7633SOL    HW123798   5.845   4.501   6.780
 7633SOL    HW223799   5.689   4.454   6.785
 7634SOL     OW23800   0.977   1.838   1.845
 7634SOL    HW123801   0.907   1.822   1.915
 7634SOL    HW223802   1.063   1.863   1.890
 7635SOL     OW23803   3.028   5.118   6.202
 7635SOL    HW123804   3.039   5.202   6.255
 7635SOL    HW223805   2.931   5.092   6.201
 7636SOL     OW23806   1.653   0.188   3.709
 7636SOL    HW123807   1.672   0.281   3.677
 7636SOL    HW223808   1.658   0.186   3.809
 7637SOL     OW23809   2.256   5.681   4.247
 7637SOL    HW123810   2.257   5.737   4.164
 7637SOL    HW223811   2.303   5.595   4.228
 7638SOL     OW23812   4.374   4.618   2.114
 7638SOL    HW123813   4.408   4.589   2.024
 7638SOL    HW223814   4.354   4.538   2.169
 7639SOL     OW23815   0.660   2.093   4.387
 7639SOL    HW123816   0.623   2.065   4.298
 7639SOL    HW223817   0.617   2.179   4.415
 7640SOL     OW23818   2.270   3.269   6.382
 7640SOL    HW123819   2.333   3.218   6.323
 7640SOL    HW223820   2.179   3.229   6.375
 7641SOL     OW23821   6.361   2.690   3.513
 7641SOL    HW123822   6.372   2.780   3.556
 7641SOL    HW223823   6.317   2.701   3.424
 7642SOL     OW23824   2.669   1.766   2.980
 7642SOL    HW123825   2.701   1.727   3.067
 7642SOL    HW223826   2.614   1.847   2.998
 7643SOL     OW23827   4.898   3.266   3.431
 7643SOL    HW123828   4.940   3.298   3.346
 7643SOL    HW223829   4.884   3.167   3.426
 7644SOL     OW23830   6.690   3.735   3.219
 7644SOL    HW123831   6.737   3.653   3.251
 7644SOL    HW223832   6.659   3.721   3.124
 7645SOL     OW23833   4.706   3.521   6.874
 7645SOL    HW123834   4.784   3.550   6.818
 7645SOL    HW223835   4.678   3.597   6.933
 7646SOL     OW23836   1.047   2.009   1.506
 7646SOL    HW123837   0.989   1.939   1.547
 7646SOL    HW223838   1.143   1.987   1.523
 7647SOL     OW23839   2.093   4.838   1.452
 7647SOL    HW123840   2.144   4.760   1.416
 7647SOL    HW223841   1.995   4.823   1.441
 7648SOL     OW23842   4.279   0.678   3.199
 7648SOL    HW123843   4.214   0.753   3.185
 7648SOL    HW223844   4.235   0.604   3.248
 7649SOL     OW23845   2.645   1.262   1.672
 7649SOL    HW123846   2.636   1.277   1.770
 7649SOL    HW223847   2.663   1.349   1.626
 7650SOL     OW23848   5.354   4.746   2.646
 7650SOL    HW123849   5.436   4.761   2.591
 7650SOL    HW223850   5.350   4.651   2.676
 7651SOL     OW23851   3.893   1.325   6.125
 7651SOL    HW123852   3.970   1.345   6.065
 7651SOL    HW223853   3.829   1.263   6.079
 7652SOL     OW23854   0.782   3.013   2.735
 7652SOL    HW123855   0.747   3.049   2.648
 7652SOL    HW223856   0.713   3.027   2.807
 7653SOL     OW23857   3.454   2.230   1.353
 7653SOL    HW123858   3.489   2.255   1.443
 7653SOL    HW223859   3.371   2.175   1.364
 7654SOL     OW23860   4.895   3.725   4.038
 7654SOL    HW123861   4.835   3.670   4.096
 7654SOL    HW223862   4.957   3.665   3.988
 7655SOL     OW23863   4.720   6.300   5.536
 7655SOL    HW123864   4.628   6.315   5.501
 7655SOL    HW223865   4.723   6.213   5.586
 7656SOL     OW23866   1.005   6.110   4.825
 7656SOL    HW123867   1.059   6.193   4.838
 7656SOL    HW223868   0.995   6.062   4.913
 7657SOL     OW23869   4.695   1.390   4.543
 7657SOL    HW123870   4.693   1.347   4.634
 7657SOL    HW223871   4.760   1.341   4.485
 7658SOL     OW23872   3.761   0.531   6.305
 7658SOL    HW123873   3.841   0.572   6.348
 7658SOL    HW223874   3.765   0.545   6.206
 7659SOL     OW23875   5.328   0.017   0.275
 7659SOL    HW123876   5.424   0.044   0.261
 7659SOL    HW223877   5.277   0.031   0.190
 7660SOL     OW23878   6.402   4.495   4.311
 7660SOL    HW123879   6.333   4.559   4.276
 7660SOL    HW223880   6.491   4.539   4.313
 7661SOL     OW23881   5.542   3.463   3.427
 7661SOL    HW123882   5.574   3.371   3.406
 7661SOL    HW223883   5.457   3.458   3.479
 7662SOL     OW23884   6.937   5.716   1.681
 7662SOL    HW123885   6.921   5.801   1.730
 7662SOL    HW223886   6.863   5.651   1.703
 7663SOL     OW23887   6.897   5.434   6.766
 7663SOL    HW123888   6.908   5.456   6.863
 7663SOL    HW223889   6.986   5.406   6.729
 7664SOL     OW23890   2.681   5.184   4.837
 7664SOL    HW123891   2.642   5.276   4.845
 7664SOL    HW223892   2.777   5.187   4.865
 7665SOL     OW23893   2.158   6.250   4.571
 7665SOL    HW123894   2.247   6.224   4.533
 7665SOL    HW223895   2.108   6.303   4.503
 7666SOL     OW23896   1.471   1.622   1.166
 7666SOL    HW123897   1.453   1.555   1.239
 7666SOL    HW223898   1.389   1.677   1.149
 7667SOL     OW23899   4.913   5.450   6.312
 7667SOL    HW123900   4.895   5.417   6.219
 7667SOL    HW223901   4.886   5.546   6.319
 7668SOL     OW23902   2.731   3.993   1.477
 7668SOL    HW123903   2.648   3.980   1.422
 7668SOL    HW223904   2.730   4.085   1.518
 7669SOL     OW23905   4.583   6.327   4.941
 7669SOL    HW123906   4.654   6.304   4.875
 7669SOL    HW223907   4.498   6.347   4.892
 7670SOL     OW23908   1.802   5.072   0.856
 7670SOL    HW123909   1.800   5.169   0.883
 7670SOL    HW223910   1.801   5.065   0.756
 7671SOL     OW23911   5.368   2.744   4.784
 7671SOL    HW123912   5.302   2.786   4.846
 7671SOL    HW223913   5.320   2.692   4.713
 7672SOL     OW23914   5.474   0.187   2.273
 7672SOL    HW123915   5.380   0.220   2.268
 7672SOL    HW223916   5.517   0.194   2.183
 7673SOL     OW23917   0.228   4.433   0.564
 7673SOL    HW123918   0.220   4.531   0.550
 7673SOL    HW223919   0.158   4.385   0.511
 7674SOL     OW23920   6.894   1.128   4.614
 7674SOL    HW123921   6.902   1.040   4.567
 7674SOL    HW223922   6.840   1.191   4.557
 7675SOL     OW23923   4.751   0.200   3.276
 7675SOL    HW123924   4.780   0.105   3.265
 7675SOL    HW223925   4.731   0.217   3.373
 7676SOL     OW23926   1.634   6.781   1.012
 7676SOL    HW123927   1.701   6.822   0.950
 7676SOL    HW223928   1.667   6.789   1.106
 7677SOL     OW23929   2.069   2.752   2.600
 7677SOL    HW123930   2.043   2.770   2.505
 7677SOL    HW223931   2.119   2.831   2.636
 7678SOL     OW23932   5.880   7.005   6.717
 7678SOL    HW123933   5.798   7.000   6.774
 7678SOL    HW223934   5.859   0.027   6.632
 7679SOL     OW23935   0.413   5.251   5.426
 7679SOL    HW123936   0.393   5.332   5.372
 7679SOL    HW223937   0.485   5.197   5.381
 7680SOL     OW23938   3.997   2.215   6.597
 7680SOL    HW123939   4.013   2.225   6.498
 7680SOL    HW223940   4.073   2.258   6.647
 7681SOL     OW23941   2.168   1.827   6.338
 7681SOL    HW123942   2.124   1.903   6.387
 7681SOL    HW223943   2.231   1.780   6.400
 7682SOL     OW23944   3.422   6.908   0.790
 7682SOL    HW123945   3.468   6.955   0.865
 7682SOL    HW223946   3.480   6.912   0.708
 7683SOL     OW23947   6.064   1.445   3.221
 7683SOL    HW123948   6.131   1.493   3.165
 7683SOL    HW223949   6.111   1.384   3.285
 7684SOL     OW23950   4.162   1.423   5.733
 7684SOL    HW123951   4.118   1.461   5.652
 7684SOL    HW223952   4.258   1.403   5.712
 7685SOL     OW23953   3.854   3.812   1.095
 7685SOL    HW123954   3.820   3.803   1.188
 7685SOL    HW223955   3.830   3.731   1.042
 7686SOL     OW23956   3.066   0.445   3.851
 7686SOL    HW123957   3.128   0.480   3.781
 7686SOL    HW223958   3.015   0.521   3.891
 7687SOL     OW23959   4.698   5.298   5.498
 7687SOL    HW123960   4.642   5.353   5.559
 7687SOL    HW223961   4.757   5.238   5.552
 7688SOL     OW23962   6.832   0.266   4.277
 7688SOL    HW123963   6.771   0.197   4.238
 7688SOL    HW223964   6.911   0.280   4.217
 7689SOL     OW23965   4.041   6.844   4.481
 7689SOL    HW123966   4.059   6.757   4.526
 7689SOL    HW223967   3.945   6.869   4.494
 7690SOL     OW23968   0.203   6.006   3.625
 7690SOL    HW123969   0.250   5.996   3.537
 7690SOL    HW223970   0.122   5.948   3.627
 7691SOL     OW23971   5.501   4.365   5.075
 7691SOL    HW123972   5.510   4.265   5.071
 7691SOL    HW223973   5.476   4.399   4.984
 7692SOL     OW23974   1.742   6.436   1.202
 7692SOL    HW123975   1.665   6.483   1.158
 7692SOL    HW223976   1.756   6.347   1.159
 7693SOL     OW23977   5.731   0.644   6.952
 7693SOL    HW123978   5.824   0.615   6.975
 7693SOL    HW223979   5.666   0.573   6.979
 7694SOL     OW23980   6.213   4.866   4.439
 7694SOL    HW123981   6.174   4.953   4.409
 7694SOL    HW223982   6.213   4.801   4.362
 7695SOL     OW23983   3.717   0.325   6.696
 7695SOL    HW123984   3.799   0.341   6.642
 7695SOL    HW223985   3.720   0.382   6.779
 7696SOL     OW23986   0.462   3.533   5.806
 7696SOL    HW123987   0.374   3.533   5.757
 7696SOL    HW223988   0.460   3.460   5.875
 7697SOL     OW23989   4.229   1.750   1.668
 7697SOL    HW123990   4.195   1.660   1.640
 7697SOL    HW223991   4.282   1.742   1.752
 7698SOL     OW23992   0.187   3.511   5.708
 7698SOL    HW123993   0.163   3.548   5.618
 7698SOL    HW223994   0.194   3.587   5.774
 7699SOL     OW23995   2.246   4.474   6.920
 7699SOL    HW123996   2.249   4.572   6.942
 7699SOL    HW223997   2.165   4.434   6.961
 7700SOL     OW23998   5.287   0.012   5.484
 7700SOL    HW123999   5.190   7.024   5.505
 7700SOL    HW224000   5.336   0.037   5.567
 7701SOL     OW24001   6.370   2.324   5.228
 7701SOL    HW124002   6.452   2.352   5.178
 7701SOL    HW224003   6.396   2.263   5.303
 7702SOL     OW24004   2.176   6.157   5.840
 7702SOL    HW124005   2.119   6.225   5.887
 7702SOL    HW224006   2.221   6.098   5.907
 7703SOL     OW24007   0.134   2.263   6.490
 7703SOL    HW124008   0.115   2.196   6.562
 7703SOL    HW224009   0.231   2.288   6.492
 7704SOL     OW24010   4.453   5.072   0.448
 7704SOL    HW124011   4.383   5.142   0.463
 7704SOL    HW224012   4.477   5.030   0.535
 7705SOL     OW24013   3.652   5.201   5.275
 7705SOL    HW124014   3.718   5.147   5.224
 7705SOL    HW224015   3.575   5.143   5.303
 7706SOL     OW24016   6.767   0.678   5.266
 7706SOL    HW124017   6.793   0.623   5.187
 7706SOL    HW224018   6.764   0.620   5.348
 7707SOL     OW24019   0.197   4.957   6.379
 7707SOL    HW124020   0.116   4.938   6.322
 7707SOL    HW224021   0.169   5.013   6.457
 7708SOL     OW24022   4.730   0.048   4.866
 7708SOL    HW124023   4.677   0.087   4.791
 7708SOL    HW224024   4.671   7.016   4.922
 7709SOL     OW24025   3.554   2.017   1.922
 7709SOL    HW124026   3.585   1.967   1.841
 7709SOL    HW224027   3.612   2.098   1.935
 7710SOL     OW24028   2.842   2.281   6.680
 7710SOL    HW124029   2.865   2.202   6.738
 7710SOL    HW224030   2.853   2.365   6.732
 7711SOL     OW24031   5.128   6.438   6.265
 7711SOL    HW124032   5.181   6.355   6.248
 7711SOL    HW224033   5.132   6.497   6.184
 7712SOL     OW24034   5.018   5.430   1.126
 7712SOL    HW124035   4.924   5.443   1.093
 7712SOL    HW224036   5.016   5.413   1.225
 7713SOL     OW24037   1.139   4.559   0.012
 7713SOL    HW124038   1.134   4.468   0.054
 7713SOL    HW224039   1.184   4.622   0.075
 7714SOL     OW24040   5.450   4.394   3.837
 7714SOL    HW124041   5.405   4.316   3.881
 7714SOL    HW224042   5.487   4.455   3.907
 7715SOL     OW24043   4.482   1.699   1.297
 7715SOL    HW124044   4.556   1.760   1.270
 7715SOL    HW224045   4.397   1.752   1.305
 7716SOL     OW24046   4.825   2.600   3.209
 7716SOL    HW124047   4.876   2.585   3.294
 7716SOL    HW224048   4.843   2.692   3.174
 7717SOL     OW24049   3.534   0.626   6.408
 7717SOL    HW124050   3.602   0.581   6.349
 7717SOL    HW224051   3.443   0.616   6.368
 7718SOL     OW24052   3.215   5.890   3.545
 7718SOL    HW124053   3.188   5.833   3.467
 7718SOL    HW224054   3.167   5.859   3.627
 7719SOL     OW24055   6.483   2.144   5.413
 7719SOL    HW124056   6.450   2.053   5.390
 7719SOL    HW224057   6.582   2.148   5.399
 7720SOL     OW24058   5.798   5.527   1.688
 7720SOL    HW124059   5.726   5.586   1.727
 7720SOL    HW224060   5.788   5.434   1.725
 7721SOL     OW24061   1.727   4.861   2.542
 7721SOL    HW124062   1.812   4.813   2.564
 7721SOL    HW224063   1.667   4.861   2.622
 7722SOL     OW24064   0.796   5.715   4.284
 7722SOL    HW124065   0.736   5.651   4.333
 7722SOL    HW224066   0.745   5.799   4.263
 7723SOL     OW24067   6.550   3.308   0.533
 7723SOL    HW124068   6.509   3.217   0.538
 7723SOL    HW224069   6.542   3.353   0.621
 7724SOL     OW24070   1.542   5.256   0.902
 7724SOL    HW124071   1.535   5.266   0.802
 7724SOL    HW224072   1.459   5.212   0.936
 7725SOL     OW24073   5.083   3.441   4.407
 7725SOL    HW124074   5.110   3.536   4.421
 7725SOL    HW224075   5.161   3.389   4.373
 7726SOL     OW24076   5.901   4.067   3.404
 7726SOL    HW124077   5.908   4.038   3.500
 7726SOL    HW224078   5.992   4.082   3.367
 7727SOL     OW24079   6.700   2.745   2.007
 7727SOL    HW124080   6.727   2.665   2.060
 7727SOL    HW224081   6.611   2.729   1.964
 7728SOL     OW24082   2.377   2.177   2.922
 7728SOL    HW124083   2.463   2.216   2.892
 7728SOL    HW224084   2.377   2.167   3.021
 7729SOL     OW24085   5.760   2.442   0.877
 7729SOL    HW124086   5.813   2.494   0.944
 7729SOL    HW224087   5.736   2.353   0.915
 7730SOL     OW24088   4.849   0.317   1.889
 7730SOL    HW124089   4.875   0.222   1.872
 7730SOL    HW224090   4.886   0.346   1.977
 7731SOL     OW24091   6.400   0.892   5.776
 7731SOL    HW124092   6.435   0.801   5.800
 7731SOL    HW224093   6.476   0.950   5.748
 7732SOL     OW24094   4.398   4.814   0.258
 7732SOL    HW124095   4.444   4.900   0.238
 7732SOL    HW224096   4.420   4.784   0.350
 7733SOL     OW24097   3.252   6.734   1.254
 7733SOL    HW124098   3.269   6.666   1.326
 7733SOL    HW224099   3.166   6.712   1.208
 7734SOL     OW24100   1.462   1.660   3.114
 7734SOL    HW124101   1.429   1.751   3.088
 7734SOL    HW224102   1.547   1.641   3.064
 7735SOL     OW24103   4.948   4.053   0.771
 7735SOL    HW124104   4.996   4.089   0.851
 7735SOL    HW224105   4.928   4.127   0.707
 7736SOL     OW24106   5.790   4.516   5.938
 7736SOL    HW124107   5.693   4.532   5.919
 7736SOL    HW224108   5.806   4.418   5.952
 7737SOL     OW24109   5.522   1.830   0.394
 7737SOL    HW124110   5.594   1.803   0.331
 7737SOL    HW224111   5.441   1.772   0.379
 7738SOL     OW24112   2.673   4.742   6.622
 7738SOL    HW124113   2.594   4.776   6.572
 7738SOL    HW224114   2.648   4.660   6.673
 7739SOL     OW24115   6.182   3.597   1.566
 7739SOL    HW124116   6.085   3.584   1.546
 7739SOL    HW224117   6.220   3.513   1.604
 7740SOL     OW24118   0.637   6.803   3.452
 7740SOL    HW124119   0.626   6.808   3.551
 7740SOL    HW224120   0.716   6.857   3.424
 7741SOL     OW24121   2.970   5.352   4.698
 7741SOL    HW124122   2.950   5.441   4.739
 7741SOL    HW224123   2.898   5.329   4.632
 7742SOL     OW24124   6.303   1.009   4.246
 7742SOL    HW124125   6.378   1.040   4.305
 7742SOL    HW224126   6.285   1.079   4.177
 7743SOL     OW24127   4.972   2.712   2.827
 7743SOL    HW124128   5.002   2.770   2.752
 7743SOL    HW224129   4.937   2.769   2.901
 7744SOL     OW24130   0.042   6.911   4.981
 7744SOL    HW124131   0.050   6.981   5.052
 7744SOL    HW224132   0.112   6.926   4.912
 7745SOL     OW24133   5.181   3.313   5.364
 7745SOL    HW124134   5.110   3.276   5.424
 7745SOL    HW224135   5.184   3.413   5.374
 7746SOL     OW24136   1.520   0.544   0.617
 7746SOL    HW124137   1.559   0.635   0.607
 7746SOL    HW224138   1.592   0.480   0.646
 7747SOL     OW24139   5.207   5.228   1.137
 7747SOL    HW124140   5.135   5.295   1.117
 7747SOL    HW224141   5.173   5.136   1.120
 7748SOL     OW24142   3.199   3.493   6.437
 7748SOL    HW124143   3.259   3.570   6.459
 7748SOL    HW224144   3.108   3.511   6.475
 7749SOL     OW24145   5.313   3.398   6.449
 7749SOL    HW124146   5.224   3.433   6.480
 7749SOL    HW224147   5.335   3.439   6.360
 7750SOL     OW24148   6.078   5.137   2.996
 7750SOL    HW124149   6.018   5.058   3.011
 7750SOL    HW224150   6.145   5.141   3.069
 7751SOL     OW24151   0.127   2.530   1.713
 7751SOL    HW124152   0.104   2.544   1.617
 7751SOL    HW224153   0.165   2.438   1.725
 7752SOL     OW24154   4.573   2.000   2.967
 7752SOL    HW124155   4.618   1.911   2.976
 7752SOL    HW224156   4.636   2.072   2.994
 7753SOL     OW24157   3.392   1.937   4.805
 7753SOL    HW124158   3.491   1.926   4.797
 7753SOL    HW224159   3.356   1.867   4.867
 7754SOL     OW24160   5.340   6.211   2.467
 7754SOL    HW124161   5.423   6.156   2.466
 7754SOL    HW224162   5.268   6.164   2.518
 7755SOL     OW24163   0.782   5.013   4.469
 7755SOL    HW124164   0.715   4.994   4.397
 7755SOL    HW224165   0.802   5.111   4.471
 7756SOL     OW24166   2.975   5.140   2.610
 7756SOL    HW124167   3.017   5.051   2.592
 7756SOL    HW224168   3.011   5.208   2.547
 7757SOL     OW24169   6.966   4.806   2.079
 7757SOL    HW124170   6.924   4.897   2.087
 7757SOL    HW224171   0.038   4.816   2.072
 7758SOL     OW24172   1.528   1.931   4.857
 7758SOL    HW124173   1.444   1.956   4.808
 7758SOL    HW224174   1.507   1.859   4.923
 7759SOL     OW24175   3.650   1.990   1.333
 7759SOL    HW124176   3.741   1.949   1.328
 7759SOL    HW224177   3.636   2.032   1.422
 7760SOL     OW24178   4.744   3.135   0.206
 7760SOL    HW124179   4.816   3.169   0.147
 7760SOL    HW224180   4.781   3.066   0.269
 7761SOL     OW24181   4.485   5.076   3.671
 7761SOL    HW124182   4.526   5.010   3.608
 7761SOL    HW224183   4.442   5.150   3.619
 7762SOL     OW24184   5.577   1.453   1.809
 7762SOL    HW124185   5.572   1.454   1.709
 7762SOL    HW224186   5.639   1.380   1.838
 7763SOL     OW24187   2.303   0.381   4.432
 7763SOL    HW124188   2.220   0.431   4.456
 7763SOL    HW224189   2.278   0.297   4.383
 7764SOL     OW24190   2.755   4.511   5.566
 7764SOL    HW124191   2.840   4.541   5.608
 7764SOL    HW224192   2.723   4.428   5.613
 7765SOL     OW24193   5.042   3.334   4.102
 7765SOL    HW124194   5.135   3.320   4.135
 7765SOL    HW224195   4.981   3.269   4.147
 7766SOL     OW24196   6.696   3.426   6.474
 7766SOL    HW124197   6.714   3.492   6.547
 7766SOL    HW224198   6.782   3.384   6.444
 7767SOL     OW24199   3.879   0.567   3.957
 7767SOL    HW124200   3.819   0.645   3.974
 7767SOL    HW224201   3.974   0.597   3.958
 7768SOL     OW24202   3.469   5.616   3.666
 7768SOL    HW124203   3.505   5.690   3.721
 7768SOL    HW224204   3.369   5.615   3.672
 7769SOL     OW24205   3.485   3.020   5.888
 7769SOL    HW124206   3.397   3.065   5.874
 7769SOL    HW224207   3.554   3.060   5.828
 7770SOL     OW24208   1.275   3.173   3.948
 7770SOL    HW124209   1.333   3.098   3.982
 7770SOL    HW224210   1.329   3.257   3.945
 7771SOL     OW24211   2.066   3.751   6.306
 7771SOL    HW124212   1.978   3.724   6.267
 7771SOL    HW224213   2.070   3.721   6.402
 7772SOL     OW24214   5.141   6.568   2.180
 7772SOL    HW124215   5.148   6.657   2.135
 7772SOL    HW224216   5.050   6.529   2.163
 7773SOL     OW24217   2.432   6.470   6.983
 7773SOL    HW124218   2.511   6.476   6.921
 7773SOL    HW224219   2.426   6.554   0.010
 7774SOL     OW24220   5.524   1.259   2.641
 7774SOL    HW124221   5.426   1.270   2.624
 7774SOL    HW224222   5.554   1.329   2.706
 7775SOL     OW24223   2.780   2.158   1.194
 7775SOL    HW124224   2.840   2.234   1.219
 7775SOL    HW224225   2.772   2.152   1.095
 7776SOL     OW24226   2.702   1.401   4.647
 7776SOL    HW124227   2.717   1.493   4.684
 7776SOL    HW224228   2.748   1.393   4.558
 7777SOL     OW24229   6.326   6.274   3.290
 7777SOL    HW124230   6.297   6.240   3.200
 7777SOL    HW224231   6.415   6.234   3.313
 7778SOL     OW24232   0.054   4.764   2.634
 7778SOL    HW124233   0.088   4.835   2.573
 7778SOL    HW224234   0.113   4.683   2.627
 7779SOL     OW24235   4.247   6.111   1.861
 7779SOL    HW124236   4.279   6.041   1.797
 7779SOL    HW224237   4.225   6.195   1.811
 7780SOL     OW24238   6.135   6.592   5.193
 7780SOL    HW124239   6.174   6.512   5.240
 7780SOL    HW224240   6.091   6.651   5.261
 7781SOL     OW24241   1.622   3.300   0.900
 7781SOL    HW124242   1.708   3.278   0.855
 7781SOL    HW224243   1.584   3.384   0.860
 7782SOL     OW24244   5.092   2.951   4.540
 7782SOL    HW124245   5.179   2.994   4.563
 7782SOL    HW224246   5.039   3.013   4.483
 7783SOL     OW24247   1.860   6.605   4.513
 7783SOL    HW124248   1.785   6.542   4.533
 7783SOL    HW224249   1.936   6.554   4.473
 7784SOL     OW24250   1.716   1.792   1.688
 7784SOL    HW124251   1.800   1.742   1.667
 7784SOL    HW224252   1.685   1.839   1.605
 7785SOL     OW24253   6.997   6.667   2.985
 7785SOL    HW124254   0.047   6.643   2.925
 7785SOL    HW224255   0.001   6.734   3.053
 7786SOL     OW24256   4.300   1.087   6.184
 7786SOL    HW124257   4.388   1.075   6.139
 7786SOL    HW224258   4.238   1.012   6.159
 7787SOL     OW24259   2.540   2.341   2.110
 7787SOL    HW124260   2.588   2.282   2.175
 7787SOL    HW224261   2.604   2.371   2.039
 7788SOL     OW24262   0.652   4.110   1.859
 7788SOL    HW124263   0.574   4.172   1.865
 7788SOL    HW224264   0.634   4.039   1.792
 7789SOL     OW24265   3.492   1.337   6.284
 7789SOL    HW124266   3.572   1.395   6.273
 7789SOL    HW224267   3.447   1.324   6.196
 7790SOL     OW24268   4.259   4.986   2.506
 7790SOL    HW124269   4.173   5.021   2.470
 7790SOL    HW224270   4.303   5.057   2.562
 7791SOL     OW24271   3.193   6.033   2.675
 7791SOL    HW124272   3.133   5.978   2.616
 7791SOL    HW224273   3.141   6.110   2.711
 7792SOL     OW24274   1.237   1.486   3.082
 7792SOL    HW124275   1.220   1.479   2.984
 7792SOL    HW224276   1.321   1.537   3.098
 7793SOL     OW24277   5.268   1.050   0.607
 7793SOL    HW124278   5.253   0.958   0.572
 7793SOL    HW224279   5.239   1.118   0.539
 7794SOL     OW24280   1.040   6.671   3.040
 7794SOL    HW124281   0.976   6.743   3.012
 7794SOL    HW224282   1.042   6.666   3.140
 7795SOL     OW24283   3.580   4.583   0.916
 7795SOL    HW124284   3.526   4.662   0.945
 7795SOL    HW224285   3.615   4.599   0.823
 7796SOL     OW24286   3.422   2.327   0.435
 7796SOL    HW124287   3.486   2.400   0.460
 7796SOL    HW224288   3.354   2.363   0.371
 7797SOL     OW24289   0.929   5.510   3.160
 7797SOL    HW124290   0.915   5.462   3.247
 7797SOL    HW224291   0.947   5.443   3.088
 7798SOL     OW24292   1.749   3.111   0.562
 7798SOL    HW124293   1.722   3.016   0.547
 7798SOL    HW224294   1.819   3.137   0.495
 7799SOL     OW24295   3.124   5.812   3.780
 7799SOL    HW124296   3.204   5.755   3.798
 7799SOL    HW224297   3.041   5.755   3.785
 7800SOL     OW24298   1.077   0.351   2.190
 7800SOL    HW124299   0.992   0.365   2.139
 7800SOL    HW224300   1.136   0.287   2.140
 7801SOL     OW24301   0.880   2.083   1.264
 7801SOL    HW124302   0.942   2.049   1.335
 7801SOL    HW224303   0.878   2.183   1.268
 7802SOL     OW24304   0.186   3.815   3.913
 7802SOL    HW124305   0.275   3.861   3.908
 7802SOL    HW224306   0.197   3.718   3.892
 7803SOL     OW24307   2.732   2.616   5.637
 7803SOL    HW124308   2.667   2.558   5.686
 7803SOL    HW224309   2.801   2.650   5.701
 7804SOL     OW24310   3.708   1.718   5.318
 7804SOL    HW124311   3.621   1.764   5.337
 7804SOL    HW224312   3.696   1.655   5.241
 7805SOL     OW24313   5.041   2.871   0.208
 7805SOL    HW124314   5.018   2.786   0.255
 7805SOL    HW224315   5.131   2.903   0.239
 7806SOL     OW24316   6.902   1.452   5.890
 7806SOL    HW124317   6.935   1.361   5.916
 7806SOL    HW224318   6.829   1.479   5.953
 7807SOL     OW24319   1.992   5.608   5.618
 7807SOL    HW124320   1.925   5.538   5.645
 7807SOL    HW224321   2.002   5.675   5.691
 7808SOL     OW24322   6.373   4.020   3.507
 7808SOL    HW124323   6.399   3.933   3.466
 7808SOL    HW224324   6.278   4.040   3.484
 7809SOL     OW24325   4.918   5.920   2.290
 7809SOL    HW124326   4.829   5.948   2.252
 7809SOL    HW224327   4.968   5.869   2.221
 7810SOL     OW24328   2.644   6.759   6.420
 7810SOL    HW124329   2.708   6.686   6.441
 7810SOL    HW224330   2.620   6.756   6.323
 7811SOL     OW24331   1.539   5.822   2.491
 7811SOL    HW124332   1.534   5.818   2.392
 7811SOL    HW224333   1.621   5.774   2.522
 7812SOL     OW24334   2.893   0.591   5.848
 7812SOL    HW124335   2.971   0.617   5.793
 7812SOL    HW224336   2.917   0.597   5.945
 7813SOL     OW24337   5.560   0.670   1.039
 7813SOL    HW124338   5.522   0.589   0.995
 7813SOL    HW224339   5.549   0.749   0.979
 7814SOL     OW24340   5.978   2.630   2.372
 7814SOL    HW124341   5.901   2.597   2.319
 7814SOL    HW224342   5.947   2.656   2.464
 7815SOL     OW24343   5.100   5.742   3.910
 7815SOL    HW124344   5.183   5.690   3.889
 7815SOL    HW224345   5.110   5.785   4.000
 7816SOL     OW24346   1.064   1.123   5.433
 7816SOL    HW124347   1.070   1.066   5.350
 7816SOL    HW224348   0.969   1.127   5.463
 7817SOL     OW24349   3.948   2.851   0.156
 7817SOL    HW124350   3.877   2.893   0.100
 7817SOL    HW224351   3.926   2.755   0.172
 7818SOL     OW24352   5.722   0.986   3.223
 7818SOL    HW124353   5.766   0.933   3.295
 7818SOL    HW224354   5.759   1.079   3.224
 7819SOL     OW24355   1.498   3.394   5.115
 7819SOL    HW124356   1.509   3.494   5.113
 7819SOL    HW224357   1.414   3.371   5.164
 7820SOL     OW24358   1.261   1.035   5.630
 7820SOL    HW124359   1.234   0.943   5.658
 7820SOL    HW224360   1.182   1.084   5.593
 7821SOL     OW24361   3.897   6.555   6.533
 7821SOL    HW124362   3.807   6.516   6.552
 7821SOL    HW224363   3.888   6.653   6.516
 7822SOL     OW24364   0.346   1.513   5.330
 7822SOL    HW124365   0.292   1.430   5.347
 7822SOL    HW224366   0.383   1.509   5.237
 7823SOL     OW24367   2.521   3.242   5.623
 7823SOL    HW124368   2.469   3.320   5.658
 7823SOL    HW224369   2.474   3.204   5.543
 7824SOL     OW24370   5.387   3.757   2.898
 7824SOL    HW124371   5.359   3.851   2.876
 7824SOL    HW224372   5.346   3.694   2.832
 7825SOL     OW24373   3.500   3.436   2.651
 7825SOL    HW124374   3.468   3.417   2.559
 7825SOL    HW224375   3.575   3.375   2.674
 7826SOL     OW24376   6.756   0.320   0.860
 7826SOL    HW124377   6.661   0.339   0.884
 7826SOL    HW224378   6.763   0.303   0.762
 7827SOL     OW24379   4.458   3.286   0.507
 7827SOL    HW124380   4.423   3.193   0.501
 7827SOL    HW224381   4.509   3.308   0.424
 7828SOL     OW24382   0.652   5.634   1.157
 7828SOL    HW124383   0.636   5.720   1.206
 7828SOL    HW224384   0.621   5.558   1.214
 7829SOL     OW24385   3.994   3.925   2.941
 7829SOL    HW124386   3.950   3.909   3.029
 7829SOL    HW224387   4.094   3.929   2.954
 7830SOL     OW24388   5.660   3.814   0.192
 7830SOL    HW124389   5.745   3.860   0.168
 7830SOL    HW224390   5.656   3.725   0.146
 7831SOL     OW24391   1.610   2.794   6.816
 7831SOL    HW124392   1.631   2.697   6.804
 7831SOL    HW224393   1.537   2.804   6.884
 7832SOL     OW24394   2.930   2.599   5.440
 7832SOL    HW124395   2.949   2.510   5.397
 7832SOL    HW224396   2.851   2.590   5.502
 7833SOL     OW24397   0.139   0.277   1.193
 7833SOL    HW124398   0.069   0.222   1.238
 7833SOL    HW224399   0.221   0.222   1.179
 7834SOL     OW24400   6.543   0.429   1.556
 7834SOL    HW124401   6.625   0.445   1.611
 7834SOL    HW224402   6.463   0.466   1.604
 7835SOL     OW24403   2.617   2.481   4.465
 7835SOL    HW124404   2.574   2.515   4.549
 7835SOL    HW224405   2.684   2.411   4.488
 7836SOL     OW24406   2.078   0.966   0.519
 7836SOL    HW124407   2.153   0.923   0.569
 7836SOL    HW224408   2.092   0.953   0.421
 7837SOL     OW24409   5.000   6.759   2.406
 7837SOL    HW124410   5.023   6.811   2.489
 7837SOL    HW224411   4.953   6.675   2.431
 7838SOL     OW24412   3.920   6.453   4.177
 7838SOL    HW124413   3.971   6.531   4.142
 7838SOL    HW224414   3.888   6.397   4.100
 7839SOL     OW24415   6.792   4.464   3.814
 7839SOL    HW124416   6.832   4.501   3.731
 7839SOL    HW224417   6.694   4.484   3.816
 7840SOL     OW24418   5.097   3.234   5.607
 7840SOL    HW124419   5.103   3.293   5.688
 7840SOL    HW224420   5.011   3.251   5.560
 7841SOL     OW24421   1.266   1.703   6.552
 7841SOL    HW124422   1.270   1.760   6.634
 7841SOL    HW224423   1.355   1.706   6.506
 7842SOL     OW24424   3.298   0.704   1.901
 7842SOL    HW124425   3.250   0.792   1.897
 7842SOL    HW224426   3.396   0.720   1.898
 7843SOL     OW24427   6.901   3.168   1.589
 7843SOL    HW124428   6.910   3.194   1.686
 7843SOL    HW224429   6.992   3.150   1.551
 7844SOL     OW24430   3.837   1.308   4.462
 7844SOL    HW124431   3.798   1.395   4.433
 7844SOL    HW224432   3.789   1.274   4.543
 7845SOL     OW24433   1.168   1.042   4.111
 7845SOL    HW124434   1.077   1.084   4.101
 7845SOL    HW224435   1.222   1.061   4.029
 7846SOL     OW24436   4.182   6.349   1.722
 7846SOL    HW124437   4.230   6.412   1.662
 7846SOL    HW224438   4.098   6.392   1.755
 7847SOL     OW24439   0.290   0.347   0.417
 7847SOL    HW124440   0.216   0.291   0.453
 7847SOL    HW224441   0.377   0.301   0.431
 7848SOL     OW24442   4.157   4.674   0.798
 7848SOL    HW124443   4.177   4.613   0.875
 7848SOL    HW224444   4.154   4.621   0.714
 7849SOL     OW24445   5.597   3.799   4.587
 7849SOL    HW124446   5.692   3.777   4.609
 7849SOL    HW224447   5.592   3.891   4.548
 7850SOL     OW24448   1.038   1.897   4.401
 7850SOL    HW124449   1.000   1.814   4.441
 7850SOL    HW224450   1.013   1.976   4.457
 7851SOL     OW24451   4.874   6.729   0.998
 7851SOL    HW124452   4.936   6.683   1.062
 7851SOL    HW224453   4.926   6.795   0.943
 7852SOL     OW24454   2.463   6.652   0.151
 7852SOL    HW124455   2.371   6.674   0.182
 7852SOL    HW224456   2.509   6.595   0.219
 7853SOL     OW24457   1.856   2.877   0.139
 7853SOL    HW124458   1.830   2.807   0.206
 7853SOL    HW224459   1.914   2.835   0.069
 7854SOL     OW24460   3.217   4.105   2.791
 7854SOL    HW124461   3.278   4.073   2.719
 7854SOL    HW224462   3.218   4.205   2.794
 7855SOL     OW24463   3.985   0.014   5.466
 7855SOL    HW124464   3.993   0.070   5.384
 7855SOL    HW224465   3.892   0.022   5.503
 7856SOL     OW24466   3.738   3.636   6.612
 7856SOL    HW124467   3.836   3.647   6.593
 7856SOL    HW224468   3.714   3.688   6.694
 7857SOL     OW24469   0.893   2.432   4.897
 7857SOL    HW124470   0.901   2.530   4.878
 7857SOL    HW224471   0.900   2.380   4.812
 7858SOL     OW24472   5.680   4.329   3.084
 7858SOL    HW124473   5.676   4.282   3.172
 7858SOL    HW224474   5.717   4.267   3.015
 7859SOL     OW24475   0.715   5.335   6.928
 7859SOL    HW124476   0.654   5.258   6.947
 7859SOL    HW224477   0.798   5.301   6.884
 7860SOL     OW24478   4.278   6.993   1.992
 7860SOL    HW124479   4.206   0.032   2.012
 7860SOL    HW224480   4.330   6.974   2.075
 7861SOL     OW24481   5.140   3.891   0.644
 7861SOL    HW124482   5.222   3.949   0.649
 7861SOL    HW224483   5.060   3.946   0.668
 7862SOL     OW24484   2.742   4.253   1.540
 7862SOL    HW124485   2.832   4.273   1.578
 7862SOL    HW224486   2.723   4.315   1.464
 7863SOL     OW24487   5.866   5.720   2.362
 7863SOL    HW124488   5.904   5.628   2.373
 7863SOL    HW224489   5.895   5.757   2.274
 7864SOL     OW24490   0.969   5.756   4.042
 7864SOL    HW124491   0.885   5.719   4.082
 7864SOL    HW224492   0.996   5.699   3.964
 7865SOL     OW24493   3.563   0.965   2.935
 7865SOL    HW124494   3.504   1.043   2.957
 7865SOL    HW224495   3.594   0.973   2.840
 7866SOL     OW24496   2.058   2.610   4.533
 7866SOL    HW124497   2.147   2.649   4.558
 7866SOL    HW224498   1.985   2.670   4.564
 7867SOL     OW24499   5.647   3.974   2.112
 7867SOL    HW124500   5.600   4.050   2.068
 7867SOL    HW224501   5.633   3.891   2.058
 7868SOL     OW24502   5.739   0.412   0.668
 7868SOL    HW124503   5.779   0.418   0.760
 7868SOL    HW224504   5.643   0.388   0.675
 7869SOL     OW24505   6.537   1.989   3.948
 7869SOL    HW124506   6.508   1.896   3.970
 7869SOL    HW224507   6.634   1.988   3.921
 7870SOL     OW24508   6.776   7.007   3.029
 7870SOL    HW124509   6.843   0.046   2.993
 7870SOL    HW224510   6.741   0.014   3.117
 7871SOL     OW24511   5.639   3.151   3.875
 7871SOL    HW124512   5.562   3.092   3.849
 7871SOL    HW224513   5.604   3.235   3.916
 7872SOL     OW24514   6.520   3.554   3.791
 7872SOL    HW124515   6.509   3.496   3.872
 7872SOL    HW224516   6.593   3.621   3.808
 7873SOL     OW24517   6.755   5.877   4.614
 7873SOL    HW124518   6.731   5.900   4.709
 7873SOL    HW224519   6.842   5.829   4.613
 7874SOL     OW24520   6.105   1.732   0.882
 7874SOL    HW124521   6.166   1.685   0.818
 7874SOL    HW224522   6.027   1.770   0.831
 7875SOL     OW24523   4.597   2.596   0.316
 7875SOL    HW124524   4.659   2.527   0.353
 7875SOL    HW224525   4.650   2.670   0.276
 7876SOL     OW24526   0.308   0.614   5.238
 7876SOL    HW124527   0.245   0.549   5.280
 7876SOL    HW224528   0.374   0.644   5.307
 7877SOL     OW24529   5.919   2.738   2.815
 7877SOL    HW124530   5.969   2.651   2.821
 7877SOL    HW224531   5.970   2.802   2.757
 7878SOL     OW24532   4.438   4.122   1.294
 7878SOL    HW124533   4.350   4.159   1.321
 7878SOL    HW224534   4.508   4.152   1.359
 7879SOL     OW24535   5.441   0.731   5.193
 7879SOL    HW124536   5.348   0.760   5.215
 7879SOL    HW224537   5.504   0.761   5.264
 7880SOL     OW24538   1.330   6.419   6.329
 7880SOL    HW124539   1.314   6.398   6.426
 7880SOL    HW224540   1.402   6.359   6.294
 7881SOL     OW24541   0.712   5.137   3.126
 7881SOL    HW124542   0.741   5.193   3.049
 7881SOL    HW224543   0.613   5.127   3.125
 7882SOL     OW24544   1.068   4.243   1.706
 7882SOL    HW124545   1.146   4.292   1.744
 7882SOL    HW224546   1.001   4.225   1.778
 7883SOL     OW24547   3.453   2.118   3.383
 7883SOL    HW124548   3.434   2.062   3.464
 7883SOL    HW224549   3.550   2.110   3.359
 7884SOL     OW24550   0.760   3.501   4.327
 7884SOL    HW124551   0.775   3.413   4.282
 7884SOL    HW224552   0.836   3.562   4.305
 7885SOL     OW24553   5.612   4.884   2.881
 7885SOL    HW124554   5.626   4.974   2.922
 7885SOL    HW224555   5.641   4.886   2.785
 7886SOL     OW24556   5.043   3.463   2.540
 7886SOL    HW124557   5.029   3.539   2.476
 7886SOL    HW224558   5.136   3.428   2.531
 7887SOL     OW24559   1.559   2.638   1.788
 7887SOL    HW124560   1.561   2.728   1.832
 7887SOL    HW224561   1.606   2.643   1.700
 7888SOL     OW24562   6.201   0.827   4.877
 7888SOL    HW124563   6.198   0.737   4.832
 7888SOL    HW224564   6.181   0.898   4.810
 7889SOL     OW24565   5.631   4.957   0.171
 7889SOL    HW124566   5.545   5.008   0.179
 7889SOL    HW224567   5.705   5.022   0.153
 7890SOL     OW24568   2.227   3.034   4.134
 7890SOL    HW124569   2.323   3.051   4.155
 7890SOL    HW224570   2.206   2.938   4.152
 7891SOL     OW24571   6.447   2.123   4.664
 7891SOL    HW124572   6.453   2.223   4.661
 7891SOL    HW224573   6.535   2.084   4.640
 7892SOL     OW24574   0.656   1.485   5.239
 7892SOL    HW124575   0.611   1.492   5.150
 7892SOL    HW224576   0.676   1.577   5.274
 7893SOL     OW24577   5.815   0.439   0.397
 7893SOL    HW124578   5.741   0.387   0.353
 7893SOL    HW224579   5.813   0.423   0.495
 7894SOL     OW24580   3.104   0.941   6.892
 7894SOL    HW124581   3.054   0.988   6.965
 7894SOL    HW224582   3.120   1.005   6.817
 7895SOL     OW24583   6.495   6.630   3.642
 7895SOL    HW124584   6.459   6.587   3.559
 7895SOL    HW224585   6.535   6.719   3.619
 7896SOL     OW24586   2.555   2.205   0.735
 7896SOL    HW124587   2.572   2.117   0.780
 7896SOL    HW224588   2.642   2.249   0.713
 7897SOL     OW24589   2.953   2.744   0.648
 7897SOL    HW124590   2.941   2.839   0.622
 7897SOL    HW224591   2.882   2.718   0.714
 7898SOL     OW24592   5.454   7.000   2.902
 7898SOL    HW124593   5.410   6.969   2.817
 7898SOL    HW224594   5.437   6.933   2.975
 7899SOL     OW24595   6.434   4.342   4.542
 7899SOL    HW124596   6.352   4.338   4.599
 7899SOL    HW224597   6.423   4.412   4.472
 7900SOL     OW24598   0.605   4.017   0.737
 7900SOL    HW124599   0.540   4.046   0.666
 7900SOL    HW224600   0.566   4.035   0.827
 7901SOL     OW24601   0.638   1.937   6.673
 7901SOL    HW124602   0.614   1.965   6.765
 7901SOL    HW224603   0.571   1.972   6.608
 7902SOL     OW24604   1.765   6.708   2.425
 7902SOL    HW124605   1.848   6.746   2.464
 7902SOL    HW224606   1.782   6.614   2.395
 7903SOL     OW24607   2.688   1.999   5.251
 7903SOL    HW124608   2.780   2.035   5.234
 7903SOL    HW224609   2.672   1.919   5.193
 7904SOL     OW24610   4.832   2.052   3.063
 7904SOL    HW124611   4.887   2.127   3.101
 7904SOL    HW224612   4.888   2.001   2.997
 7905SOL     OW24613   5.134   1.855   1.072
 7905SOL    HW124614   5.079   1.939   1.071
 7905SOL    HW224615   5.119   1.807   1.159
 7906SOL     OW24616   1.515   4.814   0.084
 7906SOL    HW124617   1.542   4.897   0.134
 7906SOL    HW224618   1.498   4.837   7.015
 7907SOL     OW24619   5.941   6.476   2.372
 7907SOL    HW124620   5.877   6.503   2.445
 7907SOL    HW224621   5.906   6.506   2.284
 7908SOL     OW24622   1.653   6.843   6.666
 7908SOL    HW124623   1.590   6.920   6.679
 7908SOL    HW224624   1.743   6.878   6.642
 7909SOL     OW24625   6.054   4.278   2.416
 7909SOL    HW124626   6.128   4.256   2.480
 7909SOL    HW224627   6.023   4.372   2.432
 7910SOL     OW24628   0.774   3.917   6.543
 7910SOL    HW124629   0.708   3.863   6.595
 7910SOL    HW224630   0.856   3.932   6.600
 7911SOL     OW24631   7.014   4.570   6.078
 7911SOL    HW124632   6.937   4.520   6.117
 7911SOL    HW224633   7.014   4.560   5.978
 7912SOL     OW24634   6.086   5.119   1.121
 7912SOL    HW124635   6.056   5.023   1.121
 7912SOL    HW224636   6.025   5.173   1.179
 7913SOL     OW24637   1.383   5.085   0.502
 7913SOL    HW124638   1.352   5.000   0.459
 7913SOL    HW224639   1.305   5.133   0.541
 7914SOL     OW24640   0.927   6.700   5.163
 7914SOL    HW124641   0.910   6.634   5.236
 7914SOL    HW224642   0.957   6.787   5.203
 7915SOL     OW24643   3.672   5.219   2.610
 7915SOL    HW124644   3.588   5.219   2.663
 7915SOL    HW224645   3.725   5.302   2.631
 7916SOL     OW24646   1.342   0.116   4.112
 7916SOL    HW124647   1.369   0.099   4.017
 7916SOL    HW224648   1.273   0.189   4.115
 7917SOL     OW24649   4.325   2.228   1.517
 7917SOL    HW124650   4.371   2.307   1.559
 7917SOL    HW224651   4.272   2.259   1.439
 7918SOL     OW24652   1.994   2.343   3.693
 7918SOL    HW124653   1.931   2.298   3.756
 7918SOL    HW224654   1.958   2.433   3.668
 7919SOL     OW24655   1.492   6.060   5.231
 7919SOL    HW124656   1.586   6.091   5.217
 7919SOL    HW224657   1.487   6.005   5.315
 7920SOL     OW24658   4.870   0.314   1.027
 7920SOL    HW124659   4.830   0.388   1.081
 7920SOL    HW224660   4.830   0.227   1.055
 7921SOL     OW24661   5.363   2.629   1.089
 7921SOL    HW124662   5.442   2.659   1.034
 7921SOL    HW224663   5.386   2.543   1.135
 7922SOL     OW24664   2.655   6.980   1.571
 7922SOL    HW124665   2.648   0.051   1.551
 7922SOL    HW224666   2.700   6.967   1.660
 7923SOL     OW24667   4.775   1.557   6.783
 7923SOL    HW124668   4.787   1.583   6.687
 7923SOL    HW224669   4.787   1.637   6.841
 7924SOL     OW24670   5.886   5.993   0.334
 7924SOL    HW124671   5.928   5.969   0.422
 7924SOL    HW224672   5.957   5.998   0.264
 7925SOL     OW24673   1.624   5.194   6.642
 7925SOL    HW124674   1.592   5.281   6.606
 7925SOL    HW224675   1.651   5.205   6.737
 7926SOL     OW24676   4.951   5.979   6.686
 7926SOL    HW124677   4.980   6.066   6.647
 7926SOL    HW224678   5.007   5.957   6.766
 7927SOL     OW24679   3.926   0.455   2.686
 7927SOL    HW124680   3.827   0.443   2.700
 7927SOL    HW224681   3.975   0.426   2.768
 7928SOL     OW24682   5.924   2.185   2.970
 7928SOL    HW124683   5.945   2.112   3.035
 7928SOL    HW224684   5.990   2.183   2.895
 7929SOL     OW24685   4.622   4.449   6.038
 7929SOL    HW124686   4.625   4.358   5.997
 7929SOL    HW224687   4.682   4.451   6.119
 7930SOL     OW24688   4.171   6.720   6.311
 7930SOL    HW124689   4.152   6.631   6.352
 7930SOL    HW224690   4.244   6.710   6.243
 7931SOL     OW24691   3.868   1.985   1.623
 7931SOL    HW124692   3.967   1.968   1.616
 7931SOL    HW224693   3.853   2.072   1.670
 7932SOL     OW24694   1.269   3.500   1.459
 7932SOL    HW124695   1.287   3.479   1.555
 7932SOL    HW224696   1.269   3.599   1.445
 7933SOL     OW24697   0.953   1.944   7.006
 7933SOL    HW124698   1.007   1.867   0.013
 7933SOL    HW224699   1.012   2.023   6.994
 7934SOL     OW24700   0.940   5.555   1.064
 7934SOL    HW124701   0.843   5.553   1.086
 7934SOL    HW224702   0.961   5.638   1.012
 7935SOL     OW24703   5.416   3.005   3.099
 7935SOL    HW124704   5.421   3.011   2.999
 7935SOL    HW224705   5.506   2.979   3.135
 7936SOL     OW24706   2.895   5.630   3.820
 7936SOL    HW124707   2.834   5.706   3.799
 7936SOL    HW224708   2.884   5.558   3.753
 7937SOL     OW24709   3.605   1.254   0.248
 7937SOL    HW124710   3.653   1.289   0.168
 7937SOL    HW224711   3.534   1.319   0.276
 7938SOL     OW24712   3.371   6.769   3.926
 7938SOL    HW124713   3.453   6.724   3.962
 7938SOL    HW224714   3.362   6.859   3.968
 7939SOL     OW24715   0.762   0.920   3.016
 7939SOL    HW124716   0.741   0.933   3.113
 7939SOL    HW224717   0.786   1.008   2.975
 7940SOL     OW24718   5.764   1.731   4.146
 7940SOL    HW124719   5.668   1.760   4.150
 7940SOL    HW224720   5.797   1.736   4.052
 7941SOL     OW24721   3.551   0.490   0.968
 7941SOL    HW124722   3.483   0.547   0.922
 7941SOL    HW224723   3.518   0.396   0.973
 7942SOL     OW24724   1.008   4.915   0.911
 7942SOL    HW124725   0.937   4.845   0.920
 7942SOL    HW224726   1.094   4.881   0.949
 7943SOL     OW24727   1.490   5.980   6.191
 7943SOL    HW124728   1.546   5.973   6.108
 7943SOL    HW224729   1.460   6.075   6.202
 7944SOL     OW24730   1.290   2.387   1.013
 7944SOL    HW124731   1.197   2.357   1.036
 7944SOL    HW224732   1.288   2.441   0.929
 7945SOL     OW24733   6.308   4.404   3.094
 7945SOL    HW124734   6.210   4.422   3.110
 7945SOL    HW224735   6.326   4.306   3.104
 7946SOL     OW24736   4.021   1.021   6.463
 7946SOL    HW124737   3.924   1.024   6.488
 7946SOL    HW224738   4.031   0.977   6.374
 7947SOL     OW24739   0.011   4.182   6.697
 7947SOL    HW124740   0.010   4.121   6.777
 7947SOL    HW224741   6.970   4.255   6.710
 7948SOL     OW24742   2.103   5.136   3.030
 7948SOL    HW124743   2.031   5.077   2.993
 7948SOL    HW224744   2.068   5.229   3.040
 7949SOL     OW24745   2.683   6.013   6.241
 7949SOL    HW124746   2.772   6.058   6.238
 7949SOL    HW224747   2.660   5.979   6.150
 7950SOL     OW24748   5.901   4.749   5.297
 7950SOL    HW124749   5.836   4.746   5.222
 7950SOL    HW224750   5.964   4.826   5.285
 7951SOL     OW24751   4.478   6.444   2.182
 7951SOL    HW124752   4.397   6.436   2.240
 7951SOL    HW224753   4.463   6.514   2.112
 7952SOL     OW24754   6.281   4.187   5.606
 7952SOL    HW124755   6.221   4.141   5.671
 7952SOL    HW224756   6.294   4.130   5.525
 7953SOL     OW24757   1.483   6.374   0.482
 7953SOL    HW124758   1.529   6.397   0.568
 7953SOL    HW224759   1.544   6.394   0.406
 7954SOL     OW24760   3.825   4.028   6.818
 7954SOL    HW124761   3.915   4.021   6.861
 7954SOL    HW224762   3.827   3.979   6.730
 7955SOL     OW24763   1.492   1.473   6.348
 7955SOL    HW124764   1.511   1.569   6.367
 7955SOL    HW224765   1.412   1.466   6.289
 7956SOL     OW24766   6.620   6.258   0.492
 7956SOL    HW124767   6.526   6.226   0.487
 7956SOL    HW224768   6.675   6.210   0.424
 7957SOL     OW24769   5.122   1.324   5.940
 7957SOL    HW124770   5.123   1.407   5.886
 7957SOL    HW224771   5.157   1.248   5.885
 7958SOL     OW24772   5.694   2.954   0.441
 7958SOL    HW124773   5.614   2.903   0.408
 7958SOL    HW224774   5.759   2.890   0.483
 7959SOL     OW24775   5.905   2.329   7.012
 7959SOL    HW124776   5.815   2.371   7.021
 7959SOL    HW224777   5.894   2.232   6.986
 7960SOL     OW24778   1.087   1.427   5.428
 7960SOL    HW124779   1.185   1.447   5.436
 7960SOL    HW224780   1.073   1.329   5.417
 7961SOL     OW24781   6.233   6.538   0.293
 7961SOL    HW124782   6.306   6.485   0.252
 7961SOL    HW224783   6.202   6.493   0.377
 7962SOL     OW24784   6.008   6.941   4.917
 7962SOL    HW124785   5.985   7.009   4.847
 7962SOL    HW224786   6.019   6.986   5.005
 7963SOL     OW24787   6.609   0.061   3.838
 7963SOL    HW124788   6.537   0.130   3.829
 7963SOL    HW224789   6.569   7.002   3.873
 7964SOL     OW24790   6.331   4.061   1.662
 7964SOL    HW124791   6.356   3.969   1.693
 7964SOL    HW224792   6.259   4.097   1.721
 7965SOL     OW24793   4.425   2.527   6.126
 7965SOL    HW124794   4.481   2.475   6.192
 7965SOL    HW224795   4.391   2.610   6.170
 7966SOL     OW24796   4.946   3.825   4.780
 7966SOL    HW124797   4.910   3.822   4.686
 7966SOL    HW224798   4.906   3.751   4.833
 7967SOL     OW24799   1.605   4.974   1.032
 7967SOL    HW124800   1.688   4.995   0.980
 7967SOL    HW224801   1.526   5.016   0.987
 7968SOL     OW24802   0.608   2.909   4.828
 7968SOL    HW124803   0.591   2.901   4.926
 7968SOL    HW224804   0.681   2.976   4.812
 7969SOL     OW24805   3.421   5.542   6.562
 7969SOL    HW124806   3.399   5.464   6.504
 7969SOL    HW224807   3.457   5.510   6.650
 7970SOL     OW24808   6.438   2.650   3.964
 7970SOL    HW124809   6.391   2.715   4.023
 7970SOL    HW224810   6.459   2.567   4.016
 7971SOL     OW24811   2.665   1.442   6.456
 7971SOL    HW124812   2.600   1.369   6.479
 7971SOL    HW224813   2.616   1.517   6.411
 7972SOL     OW24814   3.536   4.094   4.172
 7972SOL    HW124815   3.562   4.171   4.232
 7972SOL    HW224816   3.515   4.014   4.229
 7973SOL     OW24817   5.611   4.437   2.704
 7973SOL    HW124818   5.528   4.417   2.756
 7973SOL    HW224819   5.684   4.374   2.731
 7974SOL     OW24820   0.167   2.697   5.397
 7974SOL    HW124821   0.107   2.687   5.476
 7974SOL    HW224822   0.246   2.753   5.421
 7975SOL     OW24823   5.823   0.579   1.100
 7975SOL    HW124824   5.738   0.630   1.084
 7975SOL    HW224825   5.898   0.624   1.053
 7976SOL     OW24826   0.662   0.458   0.806
 7976SOL    HW124827   0.677   0.551   0.772
 7976SOL    HW224828   0.640   0.398   0.729
 7977SOL     OW24829   5.397   5.852   3.720
 7977SOL    HW124830   5.464   5.892   3.783
 7977SOL    HW224831   5.422   5.876   3.626
 7978SOL     OW24832   0.078   4.502   1.589
 7978SOL    HW124833   0.112   4.592   1.560
 7978SOL    HW224834   7.023   4.514   1.645
 7979SOL     OW24835   1.996   2.370   4.670
 7979SOL    HW124836   2.021   2.453   4.621
 7979SOL    HW224837   2.061   2.356   4.746
 7980SOL     OW24838   3.878   5.749   0.486
 7980SOL    HW124839   3.953   5.717   0.544
 7980SOL    HW224840   3.812   5.676   0.472
 7981SOL     OW24841   1.336   4.084   3.715
 7981SOL    HW124842   1.409   4.027   3.753
 7981SOL    HW224843   1.351   4.179   3.742
 7982SOL     OW24844   7.016   0.789   6.021
 7982SOL    HW124845   6.942   0.752   5.966
 7982SOL    HW224846   6.982   0.814   6.112
 7983SOL     OW24847   4.644   1.217   1.185
 7983SOL    HW124848   4.549   1.185   1.186
 7983SOL    HW224849   4.655   1.291   1.251
 7984SOL     OW24850   0.430   2.380   2.847
 7984SOL    HW124851   0.485   2.453   2.887
 7984SOL    HW224852   0.435   2.386   2.748
 7985SOL     OW24853   3.196   2.938   5.250
 7985SOL    HW124854   3.142   2.901   5.326
 7985SOL    HW224855   3.286   2.895   5.250
 7986SOL     OW24856   3.705   0.661   4.343
 7986SOL    HW124857   3.656   0.622   4.265
 7986SOL    HW224858   3.742   0.751   4.317
 7987SOL     OW24859   0.793   3.598   0.060
 7987SOL    HW124860   0.827   3.582   0.153
 7987SOL    HW224861   0.783   3.511   0.012
 7988SOL     OW24862   6.913   1.135   2.036
 7988SOL    HW124863   6.906   1.204   2.108
 7988SOL    HW224864   7.007   1.131   2.003
 7989SOL     OW24865   7.002   4.225   1.208
 7989SOL    HW124866   6.954   4.151   1.255
 7989SOL    HW224867   0.059   4.189   1.165
 7990SOL     OW24868   4.996   6.002   5.326
 7990SOL    HW124869   5.057   6.073   5.361
 7990SOL    HW224870   4.908   6.043   5.301
 7991SOL     OW24871   5.652   0.909   5.088
 7991SOL    HW124872   5.734   0.911   5.146
 7991SOL    HW224873   5.578   0.862   5.136
 7992SOL     OW24874   2.230   6.823   6.928
 7992SOL    HW124875   2.297   6.773   6.872
 7992SOL    HW224876   2.150   6.844   6.872
 7993SOL     OW24877   6.026   5.552   1.130
 7993SOL    HW124878   5.969   5.631   1.107
 7993SOL    HW224879   6.019   5.483   1.058
 7994SOL     OW24880   6.126   6.981   4.260
 7994SOL    HW124881   6.140   7.009   4.355
 7994SOL    HW224882   6.153   0.029   4.199
 7995SOL     OW24883   0.855   5.286   1.556
 7995SOL    HW124884   0.859   5.295   1.656
 7995SOL    HW224885   0.867   5.376   1.514
 7996SOL     OW24886   3.455   6.912   3.557
 7996SOL    HW124887   3.513   6.871   3.627
 7996SOL    HW224888   3.404   6.840   3.510
 7997SOL     OW24889   1.856   1.585   5.863
 7997SOL    HW124890   1.950   1.619   5.856
 7997SOL    HW224891   1.838   1.518   5.791
 7998SOL     OW24892   2.518   1.005   0.533
 7998SOL    HW124893   2.541   1.101   0.523
 7998SOL    HW224894   2.569   0.966   0.609
 7999SOL     OW24895   1.356   0.320   4.529
 7999SOL    HW124896   1.297   0.341   4.451
 7999SOL    HW224897   1.321   0.367   4.610
 8000SOL     OW24898   3.906   5.410   0.497
 8000SOL    HW124899   3.932   5.420   0.593
 8000SOL    HW224900   3.988   5.402   0.441
 8001SOL     OW24901   4.428   4.879   1.078
 8001SOL    HW124902   4.329   4.893   1.072
 8001SOL    HW224903   4.466   4.943   1.145
 8002SOL     OW24904   1.137   6.830   4.445
 8002SOL    HW124905   1.148   6.845   4.543
 8002SOL    HW224906   1.226   6.814   4.403
 8003SOL     OW24907   2.742   5.894   2.250
 8003SOL    HW124908   2.706   5.856   2.335
 8003SOL    HW224909   2.702   5.984   2.233
 8004SOL     OW24910   1.108   2.899   3.669
 8004SOL    HW124911   1.038   2.900   3.741
 8004SOL    HW224912   1.127   2.993   3.639
 8005SOL     OW24913   2.517   0.820   2.892
 8005SOL    HW124914   2.557   0.851   2.806
 8005SOL    HW224915   2.421   0.848   2.897
 8006SOL     OW24916   4.144   4.383   5.556
 8006SOL    HW124917   4.119   4.315   5.625
 8006SOL    HW224918   4.064   4.406   5.501
 8007SOL     OW24919   0.305   0.271   0.709
 8007SOL    HW124920   0.378   0.226   0.658
 8007SOL    HW224921   0.334   0.363   0.735
 8008SOL     OW24922   5.106   5.630   0.459
 8008SOL    HW124923   5.083   5.614   0.555
 8008SOL    HW224924   5.160   5.714   0.451
 8009SOL     OW24925   5.730   1.093   6.945
 8009SOL    HW124926   5.707   1.163   7.012
 8009SOL    HW224927   5.801   1.127   6.884
 8010SOL     OW24928   2.688   0.313   5.418
 8010SOL    HW124929   2.738   0.398   5.433
 8010SOL    HW224930   2.662   0.273   5.506
 8011SOL     OW24931   3.695   2.081   3.235
 8011SOL    HW124932   3.688   2.128   3.148
 8011SOL    HW224933   3.776   2.112   3.284
 8012SOL     OW24934   6.168   1.535   4.772
 8012SOL    HW124935   6.201   1.462   4.832
 8012SOL    HW224936   6.070   1.548   4.785
 8013SOL     OW24937   3.420   1.168   2.674
 8013SOL    HW124938   3.519   1.163   2.662
 8013SOL    HW224939   3.395   1.255   2.717
 8014SOL     OW24940   2.409   2.655   2.860
 8014SOL    HW124941   2.348   2.712   2.915
 8014SOL    HW224942   2.403   2.683   2.764
 8015SOL     OW24943   3.565   0.061   5.149
 8015SOL    HW124944   3.629   0.110   5.207
 8015SOL    HW224945   3.614   7.020   5.093
 8016SOL     OW24946   3.795   2.155   5.307
 8016SOL    HW124947   3.721   2.214   5.274
 8016SOL    HW224948   3.838   2.109   5.229
 8017SOL     OW24949   6.999   5.744   1.117
 8017SOL    HW124950   6.997   5.684   1.197
 8017SOL    HW224951   0.016   5.697   1.040
 8018SOL     OW24952   4.177   2.605   6.691
 8018SOL    HW124953   4.225   2.567   6.612
 8018SOL    HW224954   4.221   2.690   6.718
 8019SOL     OW24955   2.680   3.540   0.731
 8019SOL    HW124956   2.710   3.584   0.815
 8019SOL    HW224957   2.757   3.491   0.689
 8020SOL     OW24958   0.719   0.690   5.794
 8020SOL    HW124959   0.802   0.633   5.799
 8020SOL    HW224960   0.655   0.662   5.865
 8021SOL     OW24961   1.318   3.056   0.715
 8021SOL    HW124962   1.351   3.103   0.796
 8021SOL    HW224963   1.218   3.056   0.714
 8022SOL     OW24964   4.388   0.925   1.770
 8022SOL    HW124965   4.341   0.856   1.825
 8022SOL    HW224966   4.469   0.957   1.819
 8023SOL     OW24967   4.818   6.328   1.538
 8023SOL    HW124968   4.875   6.247   1.539
 8023SOL    HW224969   4.837   6.383   1.620
 8024SOL     OW24970   2.624   1.048   6.987
 8024SOL    HW124971   2.670   0.962   6.963
 8024SOL    HW224972   2.631   1.062   0.059
 8025SOL     OW24973   1.467   5.578   1.760
 8025SOL    HW124974   1.385   5.601   1.707
 8025SOL    HW224975   1.544   5.633   1.727
 8026SOL     OW24976   0.613   5.942   6.250
 8026SOL    HW124977   0.676   6.019   6.261
 8026SOL    HW224978   0.664   5.856   6.257
 8027SOL     OW24979   3.824   0.203   0.206
 8027SOL    HW124980   3.725   0.203   0.220
 8027SOL    HW224981   3.869   0.169   0.288
 8028SOL     OW24982   3.719   5.733   5.314
 8028SOL    HW124983   3.667   5.758   5.232
 8028SOL    HW224984   3.703   5.800   5.386
 8029SOL     OW24985   1.011   0.267   1.347
 8029SOL    HW124986   0.995   0.363   1.370
 8029SOL    HW224987   0.985   0.250   1.252
 8030SOL     OW24988   0.635   4.663   1.098
 8030SOL    HW124989   0.545   4.650   1.058
 8030SOL    HW224990   0.654   4.589   1.163
 8031SOL     OW24991   0.282   0.346   3.174
 8031SOL    HW124992   0.345   0.353   3.097
 8031SOL    HW224993   0.324   0.294   3.248
 8032SOL     OW24994   0.467   2.949   1.319
 8032SOL    HW124995   0.508   2.931   1.408
 8032SOL    HW224996   0.493   3.039   1.287
 8033SOL     OW24997   4.234   4.259   1.412
 8033SOL    HW124998   4.193   4.176   1.450
 8033SOL    HW224999   4.265   4.317   1.487
 8034SOL     OW25000   0.166   7.001   6.202
 8034SOL    HW125001   0.235   0.034   6.244
 8034SOL    HW225002   0.175   6.909   6.239
 8035SOL     OW25003   6.198   0.608   3.613
 8035SOL    HW125004   6.190   0.568   3.521
 8035SOL    HW225005   6.118   0.664   3.632
 8036SOL     OW25006   4.997   2.781   4.236
 8036SOL    HW125007   5.068   2.846   4.263
 8036SOL    HW225008   4.935   2.765   4.313
 8037SOL     OW25009   1.920   1.340   5.999
 8037SOL    HW125010   1.906   1.439   5.989
 8037SOL    HW225011   1.863   1.291   5.934
 8038SOL     OW25012   6.577   5.464   2.172
 8038SOL    HW125013   6.559   5.492   2.078
 8038SOL    HW225014   6.505   5.403   2.203
 8039SOL     OW25015   1.506   2.395   5.302
 8039SOL    HW125016   1.536   2.348   5.385
 8039SOL    HW225017   1.442   2.336   5.252
 8040SOL     OW25018   1.231   5.559   6.391
 8040SOL    HW125019   1.210   5.528   6.298
 8040SOL    HW225020   1.150   5.600   6.432
 8041SOL     OW25021   3.354   1.180   2.986
 8041SOL    HW125022   3.257   1.163   2.966
 8041SOL    HW225023   3.362   1.261   3.044
 8042SOL     OW25024   4.215   4.201   5.974
 8042SOL    HW125025   4.129   4.199   6.024
 8042SOL    HW225026   4.285   4.246   6.029
 8043SOL     OW25027   5.324   5.514   6.277
 8043SOL    HW125028   5.263   5.457   6.333
 8043SOL    HW225029   5.278   5.601   6.257
 8044SOL     OW25030   2.562   3.121   1.432
 8044SOL    HW125031   2.620   3.103   1.353
 8044SOL    HW225032   2.473   3.077   1.419
 8045SOL     OW25033   6.934   2.872   4.054
 8045SOL    HW125034   0.001   2.867   4.018
 8045SOL    HW225035   6.885   2.947   4.008
 8046SOL     OW25036   6.798   4.206   1.993
 8046SOL    HW125037   6.879   4.263   1.980
 8046SOL    HW225038   6.720   4.248   1.945
 8047SOL     OW25039   3.416   6.402   6.815
 8047SOL    HW125040   3.512   6.378   6.798
 8047SOL    HW225041   3.378   6.340   6.884
 8048SOL     OW25042   3.495   2.210   6.007
 8048SOL    HW125043   3.476   2.304   5.977
 8048SOL    HW225044   3.433   2.185   6.081
 8049SOL     OW25045   1.750   1.587   0.675
 8049SOL    HW125046   1.782   1.553   0.587
 8049SOL    HW225047   1.709   1.512   0.728
 8050SOL     OW25048   0.650   4.675   5.615
 8050SOL    HW125049   0.742   4.663   5.579
 8050SOL    HW225050   0.655   4.707   5.709
 8051SOL     OW25051   4.307   0.228   3.299
 8051SOL    HW125052   4.364   0.147   3.312
 8051SOL    HW225053   4.328   0.270   3.210
 8052SOL     OW25054   3.273   1.808   2.623
 8052SOL    HW125055   3.305   1.737   2.560
 8052SOL    HW225056   3.279   1.897   2.578
 8053SOL     OW25057   1.816   2.785   6.632
 8053SOL    HW125058   1.799   2.855   6.563
 8053SOL    HW225059   1.757   2.801   6.711
 8054SOL     OW25060   4.901   3.301   5.145
 8054SOL    HW125061   4.908   3.280   5.242
 8054SOL    HW225062   4.822   3.362   5.130
 8055SOL     OW25063   5.993   0.606   0.011
 8055SOL    HW125064   6.010   0.704   0.017
 8055SOL    HW225065   6.044   0.558   0.082
 8056SOL     OW25066   2.179   0.749   3.828
 8056SOL    HW125067   2.178   0.654   3.797
 8056SOL    HW225068   2.261   0.795   3.792
 8057SOL     OW25069   3.126   2.111   1.907
 8057SOL    HW125070   3.079   2.192   1.942
 8057SOL    HW225071   3.071   2.069   1.835
 8058SOL     OW25072   3.778   6.198   1.653
 8058SOL    HW125073   3.721   6.128   1.695
 8058SOL    HW225074   3.761   6.286   1.698
 8059SOL     OW25075   2.855   2.395   5.964
 8059SOL    HW125076   2.867   2.490   5.993
 8059SOL    HW225077   2.914   2.336   6.019
 8060SOL     OW25078   6.359   0.843   6.398
 8060SOL    HW125079   6.400   0.930   6.426
 8060SOL    HW225080   6.319   0.798   6.477
 8061SOL     OW25081   6.951   0.577   2.907
 8061SOL    HW125082   6.884   0.518   2.862
 8061SOL    HW225083   6.957   0.664   2.857
 8062SOL     OW25084   4.264   5.607   5.403
 8062SOL    HW125085   4.268   5.588   5.306
 8062SOL    HW225086   4.357   5.608   5.441
 8063SOL     OW25087   2.734   4.688   3.173
 8063SOL    HW125088   2.703   4.783   3.174
 8063SOL    HW225089   2.831   4.685   3.149
 8064SOL     OW25090   6.362   1.996   0.637
 8064SOL    HW125091   6.353   1.955   0.728
 8064SOL    HW225092   6.436   2.063   0.637
 8065SOL     OW25093   4.256   6.172   6.449
 8065SOL    HW125094   4.333   6.114   6.473
 8065SOL    HW225095   4.238   6.237   6.523
 8066SOL     OW25096   0.623   6.772   5.968
 8066SOL    HW125097   0.704   6.777   5.910
 8066SOL    HW225098   0.619   6.682   6.012
 8067SOL     OW25099   5.789   1.629   3.528
 8067SOL    HW125100   5.842   1.642   3.444
 8067SOL    HW225101   5.702   1.676   3.520
 8068SOL     OW25102   5.805   3.947   1.622
 8068SOL    HW125103   5.798   4.003   1.539
 8068SOL    HW225104   5.758   3.860   1.607
 8069SOL     OW25105   1.634   4.083   2.918
 8069SOL    HW125106   1.669   4.067   3.010
 8069SOL    HW225107   1.711   4.091   2.854
 8070SOL     OW25108   4.745   4.635   0.747
 8070SOL    HW125109   4.676   4.687   0.798
 8070SOL    HW225110   4.759   4.546   0.791
 8071SOL     OW25111   2.404   6.904   6.344
 8071SOL    HW125112   2.504   6.901   6.345
 8071SOL    HW225113   2.370   6.871   6.256
 8072SOL     OW25114   2.627   1.768   5.113
 8072SOL    HW125115   2.591   1.744   5.023
 8072SOL    HW225116   2.682   1.692   5.148
 8073SOL     OW25117   5.043   0.295   6.410
 8073SOL    HW125118   5.105   0.226   6.448
 8073SOL    HW225119   5.073   0.319   6.318
 8074SOL     OW25120   1.063   0.631   6.837
 8074SOL    HW125121   1.115   0.669   6.760
 8074SOL    HW225122   1.060   0.698   6.911
 8075SOL     OW25123   6.783   6.965   1.432
 8075SOL    HW125124   6.756   0.006   1.363
 8075SOL    HW225125   6.823   7.013   1.511
 8076SOL     OW25126   6.892   6.541   0.379
 8076SOL    HW125127   6.975   6.540   0.434
 8076SOL    HW225128   6.813   6.555   0.438
 8077SOL     OW25129   5.126   4.711   0.373
 8077SOL    HW125130   5.068   4.781   0.330
 8077SOL    HW225131   5.072   4.628   0.389
 8078SOL     OW25132   0.189   1.284   1.102
 8078SOL    HW125133   0.181   1.186   1.124
 8078SOL    HW225134   0.207   1.335   1.186
 8079SOL     OW25135   1.651   0.793   6.333
 8079SOL    HW125136   1.704   0.878   6.329
 8079SOL    HW225137   1.573   0.798   6.271
 8080SOL     OW25138   0.788   3.020   3.203
 8080SOL    HW125139   0.747   3.107   3.176
 8080SOL    HW225140   0.716   2.955   3.225
 8081SOL     OW25141   6.196   0.198   5.258
 8081SOL    HW125142   6.255   0.182   5.337
 8081SOL    HW225143   6.252   0.218   5.178
 8082SOL     OW25144   3.903   1.773   3.860
 8082SOL    HW125145   4.001   1.794   3.856
 8082SOL    HW225146   3.868   1.794   3.952
 8083SOL     OW25147   6.086   1.874   4.437
 8083SOL    HW125148   6.125   1.818   4.509
 8083SOL    HW225149   5.990   1.850   4.424
 8084SOL     OW25150   4.112   0.905   5.844
 8084SOL    HW125151   4.104   0.901   5.944
 8084SOL    HW225152   4.049   0.840   5.802
 8085SOL     OW25153   1.730   6.181   4.513
 8085SOL    HW125154   1.769   6.216   4.428
 8085SOL    HW225155   1.744   6.082   4.517
 8086SOL     OW25156   6.804   1.071   2.520
 8086SOL    HW125157   6.787   1.035   2.428
 8086SOL    HW225158   6.821   0.996   2.583
 8087SOL     OW25159   0.875   0.425   6.926
 8087SOL    HW125160   0.938   0.501   6.913
 8087SOL    HW225161   0.787   0.447   6.884
 8088SOL     OW25162   6.808   0.442   5.126
 8088SOL    HW125163   6.827   0.388   5.207
 8088SOL    HW225164   6.881   0.427   5.058
 8089SOL     OW25165   6.471   1.702   6.330
 8089SOL    HW125166   6.443   1.752   6.411
 8089SOL    HW225167   6.390   1.677   6.277
 8090SOL     OW25168   4.199   2.160   5.441
 8090SOL    HW125169   4.286   2.123   5.476
 8090SOL    HW225170   4.123   2.112   5.484
 8091SOL     OW25171   1.200   4.785   3.819
 8091SOL    HW125172   1.288   4.829   3.839
 8091SOL    HW225173   1.155   4.761   3.904
 8092SOL     OW25174   4.925   1.248   6.105
 8092SOL    HW125175   4.979   1.182   6.158
 8092SOL    HW225176   4.984   1.298   6.043
 8093SOL     OW25177   3.513   6.120   3.074
 8093SOL    HW125178   3.606   6.138   3.043
 8093SOL    HW225179   3.468   6.206   3.098
 8094SOL     OW25180   2.114   3.889   3.926
 8094SOL    HW125181   2.024   3.866   3.891
 8094SOL    HW225182   2.164   3.806   3.950
 8095SOL     OW25183   1.281   4.839   5.196
 8095SOL    HW125184   1.276   4.888   5.283
 8095SOL    HW225185   1.216   4.763   5.196
 8096SOL     OW25186   0.630   5.612   0.793
 8096SOL    HW125187   0.685   5.695   0.786
 8096SOL    HW225188   0.555   5.626   0.858
 8097SOL     OW25189   4.395   6.276   0.124
 8097SOL    HW125190   4.468   6.334   0.087
 8097SOL    HW225191   4.424   6.238   0.212
 8098SOL     OW25192   1.976   5.621   4.603
 8098SOL    HW125193   1.923   5.555   4.655
 8098SOL    HW225194   1.970   5.711   4.646
 8099SOL     OW25195   1.705   3.935   2.470
 8099SOL    HW125196   1.756   3.874   2.531
 8099SOL    HW225197   1.755   4.021   2.460
 8100SOL     OW25198   6.857   0.963   6.768
 8100SOL    HW125199   6.773   0.961   6.714
 8100SOL    HW225200   6.834   0.976   6.864
 8101SOL     OW25201   3.224   5.599   0.682
 8101SOL    HW125202   3.148   5.546   0.644
 8101SOL    HW225203   3.235   5.684   0.631
 8102SOL     OW25204   1.225   3.906   4.629
 8102SOL    HW125205   1.207   3.957   4.544
 8102SOL    HW225206   1.219   3.808   4.611
 8103SOL     OW25207   3.490   1.107   1.739
 8103SOL    HW125208   3.399   1.105   1.698
 8103SOL    HW225209   3.543   1.029   1.706
 8104SOL     OW25210   1.757   5.399   0.260
 8104SOL    HW125211   1.809   5.468   0.310
 8104SOL    HW225212   1.661   5.401   0.288
 8105SOL     OW25213   0.067   0.147   3.772
 8105SOL    HW125214   0.039   0.056   3.803
 8105SOL    HW225215   0.124   0.138   3.690
 8106SOL     OW25216   2.002   0.034   6.238
 8106SOL    HW125217   1.955   6.986   6.285
 8106SOL    HW225218   1.941   0.074   6.169
 8107SOL     OW25219   1.354   6.354   6.674
 8107SOL    HW125220   1.349   6.260   6.707
 8107SOL    HW225221   1.263   6.397   6.680
 8108SOL     OW25222   1.447   1.342   0.019
 8108SOL    HW125223   1.378   1.388   6.990
 8108SOL    HW225224   1.464   1.394   0.102
 8109SOL     OW25225   6.431   3.275   1.193
 8109SOL    HW125226   6.364   3.280   1.267
 8109SOL    HW225227   6.522   3.257   1.230
 8110SOL     OW25228   3.545   4.938   1.317
 8110SOL    HW125229   3.516   4.851   1.277
 8110SOL    HW225230   3.585   4.996   1.246
 8111SOL     OW25231   6.593   1.324   2.129
 8111SOL    HW125232   6.624   1.316   2.223
 8111SOL    HW225233   6.668   1.358   2.072
 8112SOL     OW25234   1.541   4.535   6.532
 8112SOL    HW125235   1.573   4.523   6.438
 8112SOL    HW225236   1.615   4.574   6.587
 8113SOL     OW25237   5.499   3.737   5.930
 8113SOL    HW125238   5.466   3.792   5.853
 8113SOL    HW225239   5.487   3.788   6.015
 8114SOL     OW25240   1.613   4.349   2.264
 8114SOL    HW125241   1.579   4.260   2.234
 8114SOL    HW225242   1.690   4.377   2.206
 8115SOL     OW25243   2.944   1.815   5.767
 8115SOL    HW125244   2.943   1.914   5.753
 8115SOL    HW225245   3.034   1.787   5.800
 8116SOL     OW25246   3.759   3.267   0.869
 8116SOL    HW125247   3.796   3.358   0.848
 8116SOL    HW225248   3.659   3.273   0.872
 8117SOL     OW25249   2.358   6.952   3.676
 8117SOL    HW125250   2.296   6.928   3.750
 8117SOL    HW225251   2.339   6.895   3.596
 8118SOL     OW25252   6.389   3.070   0.497
 8118SOL    HW125253   6.435   3.008   0.434
 8118SOL    HW225254   6.345   3.017   0.569
 8119SOL     OW25255   5.942   6.422   0.692
 8119SOL    HW125256   5.980   6.388   0.778
 8119SOL    HW225257   5.955   6.521   0.686
 8120SOL     OW25258   2.129   6.830   2.023
 8120SOL    HW125259   2.197   6.832   1.950
 8120SOL    HW225260   2.038   6.847   1.985
 8121SOL     OW25261   0.728   3.220   2.319
 8121SOL    HW125262   0.798   3.275   2.276
 8121SOL    HW225263   0.736   3.125   2.287
 8122SOL     OW25264   0.209   5.055   1.099
 8122SOL    HW125265   0.191   4.971   1.149
 8122SOL    HW225266   0.242   5.125   1.162
 8123SOL     OW25267   6.968   1.504   6.281
 8123SOL    HW125268   6.882   1.539   6.318
 8123SOL    HW225269   6.950   1.428   6.218
 8124SOL     OW25270   5.166   5.289   5.150
 8124SOL    HW125271   5.264   5.303   5.145
 8124SOL    HW225272   5.119   5.367   5.108
 8125SOL     OW25273   1.973   5.392   3.064
 8125SOL    HW125274   1.907   5.349   3.125
 8125SOL    HW225275   1.984   5.488   3.089
 8126SOL     OW25276   3.814   5.033   4.605
 8126SOL    HW125277   3.851   5.012   4.696
 8126SOL    HW225278   3.722   4.994   4.597
 8127SOL     OW25279   3.900   2.588   0.201
 8127SOL    HW125280   3.988   2.540   0.204
 8127SOL    HW225281   3.855   2.568   0.114
 8128SOL     OW25282   3.672   3.316   1.409
 8128SOL    HW125283   3.686   3.375   1.329
 8128SOL    HW225284   3.758   3.307   1.459
 8129SOL     OW25285   1.946   2.241   2.334
 8129SOL    HW125286   1.899   2.165   2.288
 8129SOL    HW225287   2.025   2.206   2.383
 8130SOL     OW25288   0.446   5.466   6.759
 8130SOL    HW125289   0.510   5.406   6.710
 8130SOL    HW225290   0.489   5.555   6.773
 8131SOL     OW25291   1.845   3.749   7.007
 8131SOL    HW125292   1.769   3.789   0.033
 8131SOL    HW225293   1.931   3.766   0.028
 8132SOL     OW25294   0.700   0.437   5.109
 8132SOL    HW125295   0.622   0.374   5.106
 8132SOL    HW225296   0.784   0.387   5.091
 8133SOL     OW25297   3.668   4.967   0.519
 8133SOL    HW125298   3.624   5.020   0.592
 8133SOL    HW225299   3.598   4.919   0.466
 8134SOL     OW25300   5.723   1.486   5.872
 8134SOL    HW125301   5.632   1.455   5.902
 8134SOL    HW225302   5.779   1.504   5.953
 8135SOL     OW25303   2.604   6.818   1.823
 8135SOL    HW125304   2.628   6.722   1.840
 8135SOL    HW225305   2.684   6.876   1.838
 8136SOL     OW25306   5.067   4.527   2.226
 8136SOL    HW125307   5.003   4.450   2.230
 8136SOL    HW225308   5.085   4.550   2.130
 8137SOL     OW25309   4.073   1.481   5.486
 8137SOL    HW125310   4.160   1.464   5.439
 8137SOL    HW225311   3.999   1.438   5.435
 8138SOL     OW25312   5.255   0.732   1.925
 8138SOL    HW125313   5.246   0.767   1.831
 8138SOL    HW225314   5.345   0.754   1.961
 8139SOL     OW25315   0.464   1.963   3.219
 8139SOL    HW125316   0.491   2.038   3.158
 8139SOL    HW225317   0.470   1.995   3.314
 8140SOL     OW25318   4.388   1.090   3.223
 8140SOL    HW125319   4.403   1.011   3.283
 8140SOL    HW225320   4.317   1.069   3.156
 8141SOL     OW25321   5.142   4.927   4.691
 8141SOL    HW125322   5.141   4.998   4.761
 8141SOL    HW225323   5.157   4.838   4.735
 8142SOL     OW25324   0.012   5.721   0.234
 8142SOL    HW125325   0.099   5.688   0.270
 8142SOL    HW225326   6.965   5.697   0.297
 8143SOL     OW25327   6.423   3.506   4.988
 8143SOL    HW125328   6.442   3.466   5.078
 8143SOL    HW225329   6.358   3.447   4.939
 8144SOL     OW25330   5.543   0.157   6.339
 8144SOL    HW125331   5.455   0.127   6.304
 8144SOL    HW225332   5.541   0.256   6.353
 8145SOL     OW25333   5.431   6.373   2.895
 8145SOL    HW125334   5.419   6.356   2.993
 8145SOL    HW225335   5.523   6.344   2.868
 8146SOL     OW25336   3.306   1.129   3.994
 8146SOL    HW125337   3.299   1.119   4.094
 8146SOL    HW225338   3.311   1.226   3.971
 8147SOL     OW25339   4.566   0.568   3.724
 8147SOL    HW125340   4.572   0.652   3.777
 8147SOL    HW225341   4.633   0.502   3.759
 8148SOL     OW25342   5.200   4.295   3.530
 8148SOL    HW125343   5.265   4.371   3.525
 8148SOL    HW225344   5.172   4.269   3.438
 8149SOL     OW25345   4.163   4.815   3.458
 8149SOL    HW125346   4.218   4.733   3.470
 8149SOL    HW225347   4.139   4.826   3.362
 8150SOL     OW25348   0.422   5.533   1.330
 8150SOL    HW125349   0.325   5.523   1.351
 8150SOL    HW225350   0.474   5.463   1.379
 8151SOL     OW25351   1.307   1.472   5.058
 8151SOL    HW125352   1.230   1.531   5.035
 8151SOL    HW225353   1.274   1.389   5.103
 8152SOL     OW25354   1.345   1.012   3.023
 8152SOL    HW125355   1.293   0.940   3.069
 8152SOL    HW225356   1.387   0.976   2.940
 8153SOL     OW25357   2.015   6.872   0.554
 8153SOL    HW125358   1.916   6.886   0.549
 8153SOL    HW225359   2.062   6.946   0.506
 8154SOL     OW25360   2.358   6.812   3.428
 8154SOL    HW125361   2.444   6.764   3.444
 8154SOL    HW225362   2.346   6.827   3.330
 8155SOL     OW25363   3.463   3.298   3.635
 8155SOL    HW125364   3.494   3.339   3.550
 8155SOL    HW225365   3.459   3.368   3.706
 8156SOL     OW25366   6.574   0.384   5.848
 8156SOL    HW125367   6.502   0.402   5.915
 8156SOL    HW225368   6.547   0.307   5.790
 8157SOL     OW25369   5.950   3.107   6.712
 8157SOL    HW125370   6.011   3.150   6.778
 8157SOL    HW225371   5.983   3.123   6.619
 8158SOL     OW25372   2.015   5.446   2.333
 8158SOL    HW125373   2.034   5.544   2.325
 8158SOL    HW225374   2.094   5.399   2.371
 8159SOL     OW25375   1.139   5.377   1.809
 8159SOL    HW125376   1.053   5.329   1.790
 8159SOL    HW225377   1.166   5.429   1.728
 8160SOL     OW25378   4.284   2.340   2.137
 8160SOL    HW125379   4.338   2.423   2.148
 8160SOL    HW225380   4.260   2.330   2.040
 8161SOL     OW25381   4.314   1.888   1.360
 8161SOL    HW125382   4.281   1.898   1.453
 8161SOL    HW225383   4.243   1.919   1.296
 8162SOL     OW25384   6.322   0.992   1.396
 8162SOL    HW125385   6.342   0.920   1.330
 8162SOL    HW225386   6.226   1.021   1.386
 8163SOL     OW25387   2.239   3.579   5.235
 8163SOL    HW125388   2.257   3.487   5.268
 8163SOL    HW225389   2.306   3.643   5.274
 8164SOL     OW25390   4.788   2.037   1.922
 8164SOL    HW125391   4.761   2.078   1.834
 8164SOL    HW225392   4.853   2.098   1.968
 8165SOL     OW25393   2.497   4.883   1.593
 8165SOL    HW125394   2.571   4.936   1.635
 8165SOL    HW225395   2.536   4.818   1.528
 8166SOL     OW25396   2.912   6.958   1.298
 8166SOL    HW125397   2.939   6.993   1.208
 8166SOL    HW225398   2.812   6.955   1.303
 8167SOL     OW25399   4.961   3.094   4.187
 8167SOL    HW125400   4.942   3.054   4.097
 8167SOL    HW225401   4.891   3.066   4.252
 8168SOL     OW25402   3.209   1.541   2.878
 8168SOL    HW125403   3.232   1.622   2.824
 8168SOL    HW225404   3.224   1.459   2.822
 8169SOL     OW25405   5.166   4.040   5.758
 8169SOL    HW125406   5.114   4.121   5.782
 8169SOL    HW225407   5.136   4.005   5.669
 8170SOL     OW25408   0.349   5.021   3.874
 8170SOL    HW125409   0.302   4.962   3.809
 8170SOL    HW225410   0.447   4.998   3.875
 8171SOL     OW25411   1.730   1.417   5.652
 8171SOL    HW125412   1.720   1.390   5.557
 8171SOL    HW225413   1.751   1.337   5.708
 8172SOL     OW25414   0.113   6.573   1.438
 8172SOL    HW125415   0.168   6.499   1.400
 8172SOL    HW225416   0.051   6.607   1.368
 8173SOL     OW25417   5.320   3.150   6.567
 8173SOL    HW125418   5.291   3.227   6.510
 8173SOL    HW225419   5.306   3.064   6.517
 8174SOL     OW25420   5.479   0.399   2.028
 8174SOL    HW125421   5.454   0.354   1.943
 8174SOL    HW225422   5.396   0.429   2.076
 8175SOL     OW25423   1.621   3.197   5.332
 8175SOL    HW125424   1.620   3.290   5.295
 8175SOL    HW225425   1.659   3.198   5.425
 8176SOL     OW25426   4.006   5.345   2.986
 8176SOL    HW125427   3.986   5.425   2.929
 8176SOL    HW225428   3.948   5.269   2.958
 8177SOL     OW25429   1.530   0.219   6.184
 8177SOL    HW125430   1.524   0.319   6.180
 8177SOL    HW225431   1.466   0.179   6.119
 8178SOL     OW25432   1.838   6.609   6.211
 8178SOL    HW125433   1.930   6.648   6.214
 8178SOL    HW225434   1.794   6.619   6.301
 8179SOL     OW25435   3.151   0.661   0.203
 8179SOL    HW125436   3.077   0.717   0.241
 8179SOL    HW225437   3.218   0.720   0.159
 8180SOL     OW25438   4.802   5.377   5.208
 8180SOL    HW125439   4.743   5.411   5.280
 8180SOL    HW225440   4.872   5.317   5.248
 8181SOL     OW25441   2.577   2.155   2.540
 8181SOL    HW125442   2.576   2.250   2.571
 8181SOL    HW225443   2.599   2.152   2.443
 8182SOL     OW25444   4.170   2.113   5.789
 8182SOL    HW125445   4.215   2.176   5.853
 8182SOL    HW225446   4.225   2.106   5.705
 8183SOL     OW25447   1.659   2.983   3.945
 8183SOL    HW125448   1.709   3.068   3.962
 8183SOL    HW225449   1.700   2.936   3.867
 8184SOL     OW25450   6.040   5.708   5.845
 8184SOL    HW125451   6.045   5.728   5.942
 8184SOL    HW225452   6.132   5.699   5.807
 8185SOL     OW25453   1.666   1.565   2.647
 8185SOL    HW125454   1.764   1.576   2.634
 8185SOL    HW225455   1.647   1.471   2.678
 8186SOL     OW25456   3.770   4.467   6.023
 8186SOL    HW125457   3.789   4.461   6.121
 8186SOL    HW225458   3.763   4.564   5.997
 8187SOL     OW25459   1.638   1.140   6.190
 8187SOL    HW125460   1.665   1.198   6.267
 8187SOL    HW225461   1.577   1.191   6.130
 8188SOL     OW25462   6.057   2.920   2.638
 8188SOL    HW125463   6.140   2.944   2.588
 8188SOL    HW225464   5.982   2.979   2.608
 8189SOL     OW25465   6.637   4.917   2.860
 8189SOL    HW125466   6.579   4.861   2.920
 8189SOL    HW225467   6.640   5.011   2.894
 8190SOL     OW25468   5.324   3.501   2.531
 8190SOL    HW125469   5.327   3.576   2.465
 8190SOL    HW225470   5.349   3.415   2.486
 8191SOL     OW25471   0.042   5.736   2.076
 8191SOL    HW125472   0.018   5.769   1.985
 8191SOL    HW225473   7.010   5.780   2.144
 8192SOL     OW25474   1.379   3.769   0.993
 8192SOL    HW125475   1.463   3.716   1.003
 8192SOL    HW225476   1.311   3.735   1.059
 8193SOL     OW25477   3.427   0.184   5.474
 8193SOL    HW125478   3.361   0.256   5.496
 8193SOL    HW225479   3.416   0.108   5.538
 8194SOL     OW25480   1.576   0.328   1.397
 8194SOL    HW125481   1.599   0.370   1.309
 8194SOL    HW225482   1.480   0.300   1.396
 8195SOL     OW25483   5.990   0.733   0.949
 8195SOL    HW125484   6.030   0.819   0.979
 8195SOL    HW225485   5.936   0.749   0.867
 8196SOL     OW25486   2.153   0.250   0.038
 8196SOL    HW125487   2.238   0.207   0.067
 8196SOL    HW225488   2.164   0.350   0.037
 8197SOL     OW25489   0.701   6.700   0.847
 8197SOL    HW125490   0.779   6.682   0.907
 8197SOL    HW225491   0.684   6.798   0.843
 8198SOL     OW25492   3.960   6.796   2.914
 8198SOL    HW125493   3.885   6.775   2.850
 8198SOL    HW225494   4.036   6.836   2.864
 8199SOL     OW25495   5.909   4.505   0.404
 8199SOL    HW125496   5.977   4.443   0.365
 8199SOL    HW225497   5.818   4.471   0.382
 8200SOL     OW25498   4.633   3.091   1.384
 8200SOL    HW125499   4.585   3.166   1.338
 8200SOL    HW225500   4.687   3.040   1.317
 8201SOL     OW25501   6.105   1.265   4.576
 8201SOL    HW125502   6.032   1.300   4.636
 8201SOL    HW225503   6.095   1.305   4.485
 8202SOL     OW25504   1.514   3.917   4.378
 8202SOL    HW125505   1.584   3.913   4.449
 8202SOL    HW225506   1.437   3.858   4.404
 8203SOL     OW25507   6.109   4.001   0.742
 8203SOL    HW125508   6.027   3.967   0.698
 8203SOL    HW225509   6.140   3.936   0.812
 8204SOL     OW25510   3.495   0.460   0.498
 8204SOL    HW125511   3.517   0.543   0.446
 8204SOL    HW225512   3.421   0.479   0.562
 8205SOL     OW25513   5.931   5.876   3.117
 8205SOL    HW125514   5.856   5.815   3.090
 8205SOL    HW225515   6.017   5.840   3.082
 8206SOL     OW25516   3.889   1.771   4.505
 8206SOL    HW125517   3.829   1.692   4.496
 8206SOL    HW225518   3.909   1.788   4.602
 8207SOL     OW25519   2.932   5.861   6.813
 8207SOL    HW125520   2.982   5.865   6.900
 8207SOL    HW225521   2.998   5.865   6.738
 8208SOL     OW25522   1.288   5.274   6.345
 8208SOL    HW125523   1.331   5.199   6.395
 8208SOL    HW225524   1.204   5.301   6.391
 8209SOL     OW25525   1.010   5.777   5.368
 8209SOL    HW125526   1.002   5.872   5.337
 8209SOL    HW225527   0.967   5.768   5.458
 8210SOL     OW25528   2.590   1.720   0.174
 8210SOL    HW125529   2.667   1.667   0.212
 8210SOL    HW225530   2.609   1.817   0.183
 8211SOL     OW25531   3.076   3.505   4.203
 8211SOL    HW125532   3.175   3.493   4.207
 8211SOL    HW225533   3.033   3.419   4.175
 8212SOL     OW25534   4.040   6.150   0.739
 8212SOL    HW125535   4.033   6.117   0.833
 8212SOL    HW225536   3.989   6.089   0.679
 8213SOL     OW25537   4.504   4.542   1.847
 8213SOL    HW125538   4.478   4.445   1.844
 8213SOL    HW225539   4.591   4.555   1.801
 8214SOL     OW25540   4.169   5.284   3.212
 8214SOL    HW125541   4.101   5.330   3.155
 8214SOL    HW225542   4.131   5.267   3.303
 8215SOL     OW25543   2.243   5.871   6.329
 8215SOL    HW125544   2.267   5.947   6.388
 8215SOL    HW225545   2.256   5.784   6.378
 8216SOL     OW25546   5.489   5.266   1.526
 8216SOL    HW125547   5.577   5.284   1.570
 8216SOL    HW225548   5.492   5.298   1.431
 8217SOL     OW25549   2.671   6.286   3.881
 8217SOL    HW125550   2.607   6.362   3.871
 8217SOL    HW225551   2.764   6.319   3.867
 8218SOL     OW25552   2.080   5.606   4.933
 8218SOL    HW125553   2.160   5.588   4.991
 8218SOL    HW225554   2.002   5.627   4.992
 8219SOL     OW25555   4.308   3.322   1.801
 8219SOL    HW125556   4.373   3.257   1.840
 8219SOL    HW225557   4.243   3.274   1.742
 8220SOL     OW25558   3.188   4.120   5.002
 8220SOL    HW125559   3.167   4.058   4.927
 8220SOL    HW225560   3.113   4.120   5.068
 8221SOL     OW25561   6.075   3.647   3.763
 8221SOL    HW125562   6.081   3.716   3.835
 8221SOL    HW225563   6.144   3.667   3.692
 8222SOL     OW25564   6.476   2.764   0.086
 8222SOL    HW125565   6.573   2.790   0.088
 8222SOL    HW225566   6.465   2.679   0.034
 8223SOL     OW25567   2.446   6.429   6.059
 8223SOL    HW125568   2.501   6.382   5.990
 8223SOL    HW225569   2.481   6.407   6.150
 8224SOL     OW25570   4.961   1.196   0.021
 8224SOL    HW125571   4.881   1.216   0.079
 8224SOL    HW225572   4.982   1.099   0.026
 8225SOL     OW25573   5.539   2.694   6.990
 8225SOL    HW125574   5.570   2.656   6.902
 8225SOL    HW225575   5.591   2.777   7.010
 8226SOL     OW25576   3.898   0.648   0.160
 8226SOL    HW125577   3.892   0.727   0.221
 8226SOL    HW225578   3.895   0.678   0.065
 8227SOL     OW25579   4.327   2.358   2.842
 8227SOL    HW125580   4.257   2.388   2.776
 8227SOL    HW225581   4.351   2.263   2.822
 8228SOL     OW25582   3.065   6.923   4.512
 8228SOL    HW125583   3.076   6.936   4.413
 8228SOL    HW225584   2.993   6.856   4.529
 8229SOL     OW25585   4.666   4.698   1.246
 8229SOL    HW125586   4.733   4.718   1.175
 8229SOL    HW225587   4.583   4.661   1.204
 8230SOL     OW25588   6.327   0.393   6.056
 8230SOL    HW125589   6.271   0.475   6.056
 8230SOL    HW225590   6.349   0.368   6.151
 8231SOL     OW25591   3.207   1.034   2.244
 8231SOL    HW125592   3.222   0.935   2.241
 8231SOL    HW225593   3.132   1.058   2.182
 8232SOL     OW25594   3.575   6.126   3.448
 8232SOL    HW125595   3.500   6.123   3.381
 8232SOL    HW225596   3.552   6.069   3.526
 8233SOL     OW25597   2.199   1.220   6.617
 8233SOL    HW125598   2.241   1.171   6.693
 8233SOL    HW225599   2.137   1.159   6.568
 8234SOL     OW25600   1.096   2.706   0.785
 8234SOL    HW125601   1.184   2.751   0.802
 8234SOL    HW225602   1.037   2.768   0.733
 8235SOL     OW25603   1.025   1.212   1.149
 8235SOL    HW125604   1.086   1.145   1.106
 8235SOL    HW225605   0.938   1.214   1.100
 8236SOL     OW25606   0.689   0.205   1.920
 8236SOL    HW125607   0.640   0.270   1.862
 8236SOL    HW225608   0.675   0.112   1.887
 8237SOL     OW25609   3.757   4.539   5.319
 8237SOL    HW125610   3.839   4.494   5.284
 8237SOL    HW225611   3.679   4.478   5.311
 8238SOL     OW25612   0.296   5.270   1.247
 8238SOL    HW125613   0.329   5.262   1.341
 8238SOL    HW225614   0.373   5.283   1.186
 8239SOL     OW25615   2.999   1.487   6.178
 8239SOL    HW125616   2.962   1.551   6.111
 8239SOL    HW225617   2.975   1.517   6.270
 8240SOL     OW25618   3.835   2.940   4.494
 8240SOL    HW125619   3.751   2.939   4.441
 8240SOL    HW225620   3.819   2.899   4.584
 8241SOL     OW25621   1.857   3.542   5.971
 8241SOL    HW125622   1.866   3.631   5.926
 8241SOL    HW225623   1.837   3.556   6.068
 8242SOL     OW25624   0.700   2.944   2.312
 8242SOL    HW125625   0.683   2.853   2.349
 8242SOL    HW225626   0.615   2.996   2.311
 8243SOL     OW25627   1.073   6.404   3.716
 8243SOL    HW125628   1.010   6.479   3.695
 8243SOL    HW225629   1.108   6.366   3.631
 8244SOL     OW25630   7.000   1.327   3.150
 8244SOL    HW125631   0.062   1.354   3.111
 8244SOL    HW225632   6.988   1.370   3.239
 8245SOL     OW25633   5.063   2.922   2.636
 8245SOL    HW125634   5.089   2.956   2.727
 8245SOL    HW225635   5.144   2.914   2.579
 8246SOL     OW25636   1.569   4.952   6.855
 8246SOL    HW125637   1.483   4.903   6.841
 8246SOL    HW225638   1.556   5.049   6.835
 8247SOL     OW25639   3.129   5.146   3.482
 8247SOL    HW125640   3.084   5.139   3.571
 8247SOL    HW225641   3.132   5.056   3.439
 8248SOL     OW25642   6.687   5.484   3.855
 8248SOL    HW125643   6.612   5.549   3.852
 8248SOL    HW225644   6.652   5.395   3.885
 8249SOL     OW25645   3.627   1.040   6.861
 8249SOL    HW125646   3.588   1.081   6.779
 8249SOL    HW225647   3.702   1.097   6.894
 8250SOL     OW25648   1.071   2.030   6.341
 8250SOL    HW125649   1.116   1.942   6.326
 8250SOL    HW225650   0.972   2.018   6.333
 8251SOL     OW25651   0.528   2.243   5.255
 8251SOL    HW125652   0.474   2.304   5.198
 8251SOL    HW225653   0.593   2.297   5.309
 8252SOL     OW25654   0.732   2.434   6.392
 8252SOL    HW125655   0.825   2.468   6.406
 8252SOL    HW225656   0.716   2.422   6.294
 8253SOL     OW25657   5.148   4.652   6.445
 8253SOL    HW125658   5.161   4.682   6.540
 8253SOL    HW225659   5.051   4.635   6.429
 8254SOL     OW25660   6.444   5.624   0.133
 8254SOL    HW125661   6.484   5.605   0.044
 8254SOL    HW225662   6.500   5.692   0.181
 8255SOL     OW25663   1.626   0.400   5.839
 8255SOL    HW125664   1.644   0.310   5.881
 8255SOL    HW225665   1.616   0.469   5.911
 8256SOL     OW25666   0.911   6.095   4.536
 8256SOL    HW125667   0.949   6.105   4.628
 8256SOL    HW225668   0.926   6.179   4.484
 8257SOL     OW25669   4.887   3.937   3.599
 8257SOL    HW125670   4.895   3.920   3.697
 8257SOL    HW225671   4.966   3.989   3.567
 8258SOL     OW25672   0.481   2.741   3.641
 8258SOL    HW125673   0.385   2.763   3.628
 8258SOL    HW225674   0.505   2.662   3.585
 8259SOL     OW25675   5.495   2.174   4.308
 8259SOL    HW125676   5.563   2.195   4.238
 8259SOL    HW225677   5.492   2.249   4.374
 8260SOL     OW25678   5.031   2.997   0.575
 8260SOL    HW125679   5.080   2.913   0.596
 8260SOL    HW225680   5.084   3.076   0.608
 8261SOL     OW25681   6.289   1.184   2.442
 8261SOL    HW125682   6.374   1.155   2.399
 8261SOL    HW225683   6.298   1.180   2.541
 8262SOL     OW25684   5.264   4.096   2.204
 8262SOL    HW125685   5.258   4.157   2.283
 8262SOL    HW225686   5.344   4.120   2.150
 8263SOL     OW25687   6.854   1.768   6.082
 8263SOL    HW125688   6.861   1.859   6.121
 8263SOL    HW225689   6.936   1.747   6.030
 8264SOL     OW25690   3.288   0.405   1.905
 8264SOL    HW125691   3.337   0.485   1.870
 8264SOL    HW225692   3.355   0.337   1.935
 8265SOL     OW25693   4.580   5.494   0.367
 8265SOL    HW125694   4.578   5.400   0.403
 8265SOL    HW225695   4.497   5.542   0.394
 8266SOL     OW25696   3.669   1.024   3.689
 8266SOL    HW125697   3.673   0.929   3.720
 8266SOL    HW225698   3.757   1.050   3.650
 8267SOL     OW25699   1.805   2.567   3.327
 8267SOL    HW125700   1.709   2.595   3.321
 8267SOL    HW225701   1.827   2.507   3.250
 8268SOL     OW25702   3.369   4.739   6.795
 8268SOL    HW125703   3.287   4.779   6.837
 8268SOL    HW225704   3.342   4.683   6.717
 8269SOL     OW25705   6.214   2.106   5.108
 8269SOL    HW125706   6.301   2.153   5.120
 8269SOL    HW225707   6.198   2.090   5.011
 8270SOL     OW25708   4.473   5.328   0.026
 8270SOL    HW125709   4.477   5.428   0.034
 8270SOL    HW225710   4.435   5.303   6.963
 8271SOL     OW25711   3.180   6.702   5.893
 8271SOL    HW125712   3.220   6.793   5.891
 8271SOL    HW225713   3.127   6.690   5.977
 8272SOL     OW25714   0.834   0.375   2.089
 8272SOL    HW125715   0.786   0.299   2.045
 8272SOL    HW225716   0.786   0.401   2.172
 8273SOL     OW25717   3.522   0.089   6.944
 8273SOL    HW125718   3.540   0.027   6.867
 8273SOL    HW225719   3.603   0.145   6.961
 8274SOL     OW25720   5.351   5.969   5.501
 8274SOL    HW125721   5.351   6.015   5.590
 8274SOL    HW225722   5.431   5.997   5.449
 8275SOL     OW25723   5.254   1.232   4.960
 8275SOL    HW125724   5.259   1.319   5.008
 8275SOL    HW225725   5.266   1.157   5.024
 8276SOL     OW25726   6.305   1.993   6.823
 8276SOL    HW125727   6.226   2.015   6.767
 8276SOL    HW225728   6.357   2.077   6.842
 8277SOL     OW25729   1.497   6.500   1.090
 8277SOL    HW125730   1.491   6.569   1.162
 8277SOL    HW225731   1.466   6.540   1.003
 8278SOL     OW25732   2.097   1.017   1.004
 8278SOL    HW125733   2.130   0.959   1.078
 8278SOL    HW225734   2.163   1.016   0.929
 8279SOL     OW25735   4.428   6.009   5.751
 8279SOL    HW125736   4.453   6.088   5.806
 8279SOL    HW225737   4.467   6.017   5.660
 8280SOL     OW25738   5.171   3.988   0.098
 8280SOL    HW125739   5.095   4.033   0.145
 8280SOL    HW225740   5.166   4.006   0.000
 8281SOL     OW25741   2.736   5.622   6.435
 8281SOL    HW125742   2.696   5.713   6.451
 8281SOL    HW225743   2.831   5.631   6.407
 8282SOL     OW25744   3.339   3.090   1.827
 8282SOL    HW125745   3.305   3.006   1.870
 8282SOL    HW225746   3.404   3.066   1.755
 8283SOL     OW25747   0.440   0.270   3.444
 8283SOL    HW125748   0.497   0.210   3.388
 8283SOL    HW225749   0.487   0.357   3.458
 8284SOL     OW25750   4.715   1.637   1.754
 8284SOL    HW125751   4.619   1.648   1.728
 8284SOL    HW225752   4.726   1.656   1.851
 8285SOL     OW25753   1.183   4.160   0.604
 8285SOL    HW125754   1.208   4.077   0.654
 8285SOL    HW225755   1.263   4.196   0.557
 8286SOL     OW25756   6.447   2.274   6.266
 8286SOL    HW125757   6.503   2.308   6.342
 8286SOL    HW225758   6.441   2.174   6.271
 8287SOL     OW25759   1.643   1.358   3.392
 8287SOL    HW125760   1.735   1.349   3.353
 8287SOL    HW225761   1.646   1.336   3.489
 8288SOL     OW25762   1.860   0.611   3.013
 8288SOL    HW125763   1.790   0.540   3.011
 8288SOL    HW225764   1.948   0.572   3.041
 8289SOL     OW25765   5.589   0.121   0.262
 8289SOL    HW125766   5.621   0.116   0.168
 8289SOL    HW225767   5.659   0.086   0.324
 8290SOL     OW25768   4.671   2.648   2.007
 8290SOL    HW125769   4.733   2.688   2.074
 8290SOL    HW225770   4.659   2.711   1.930
 8291SOL     OW25771   4.898   6.280   6.727
 8291SOL    HW125772   4.955   6.344   6.677
 8291SOL    HW225773   4.801   6.302   6.712
 8292SOL     OW25774   0.262   2.989   5.465
 8292SOL    HW125775   0.335   2.934   5.507
 8292SOL    HW225776   0.194   3.012   5.534
 8293SOL     OW25777   2.716   5.498   4.526
 8293SOL    HW125778   2.623   5.534   4.516
 8293SOL    HW225779   2.712   5.400   4.543
 8294SOL     OW25780   5.647   3.688   5.335
 8294SOL    HW125781   5.590   3.606   5.332
 8294SOL    HW225782   5.624   3.741   5.417
 8295SOL     OW25783   4.540   4.955   2.909
 8295SOL    HW125784   4.631   4.926   2.878
 8295SOL    HW225785   4.529   4.933   3.006
 8296SOL     OW25786   3.824   0.211   2.207
 8296SOL    HW125787   3.794   0.192   2.114
 8296SOL    HW225788   3.799   0.305   2.232
 8297SOL     OW25789   5.451   4.381   2.464
 8297SOL    HW125790   5.488   4.387   2.557
 8297SOL    HW225791   5.378   4.313   2.461
 8298SOL     OW25792   6.714   6.962   0.458
 8298SOL    HW125793   6.650   6.993   0.529
 8298SOL    HW225794   6.757   0.015   0.415
 8299SOL     OW25795   1.271   3.383   6.861
 8299SOL    HW125796   1.227   3.305   6.906
 8299SOL    HW225797   1.345   3.417   6.919
 8300SOL     OW25798   6.115   5.032   4.021
 8300SOL    HW125799   6.084   4.977   4.098
 8300SOL    HW225800   6.104   4.980   3.936
 8301SOL     OW25801   6.294   6.027   0.344
 8301SOL    HW125802   6.285   5.939   0.390
 8301SOL    HW225803   6.298   6.101   0.412
 8302SOL     OW25804   4.003   6.635   5.158
 8302SOL    HW125805   3.949   6.589   5.088
 8302SOL    HW225806   4.100   6.615   5.145
 8303SOL     OW25807   0.267   4.984   3.497
 8303SOL    HW125808   0.214   4.921   3.554
 8303SOL    HW225809   0.364   4.977   3.521
 8304SOL     OW25810   6.132   3.098   3.737
 8304SOL    HW125811   6.135   3.186   3.785
 8304SOL    HW225812   6.224   3.059   3.734
 8305SOL     OW25813   4.891   0.098   5.742
 8305SOL    HW125814   4.949   0.133   5.816
 8305SOL    HW225815   4.797   0.090   5.774
 8306SOL     OW25816   6.411   0.936   3.911
 8306SOL    HW125817   6.510   0.945   3.902
 8306SOL    HW225818   6.372   0.912   3.822
 8307SOL     OW25819   1.288   3.697   3.233
 8307SOL    HW125820   1.354   3.771   3.218
 8307SOL    HW225821   1.201   3.736   3.264
 8308SOL     OW25822   1.192   5.267   0.624
 8308SOL    HW125823   1.100   5.282   0.589
 8308SOL    HW225824   1.258   5.320   0.570
 8309SOL     OW25825   6.193   5.352   4.292
 8309SOL    HW125826   6.207   5.451   4.292
 8309SOL    HW225827   6.150   5.324   4.206
 8310SOL     OW25828   2.881   0.077   2.805
 8310SOL    HW125829   2.970   0.085   2.760
 8310SOL    HW225830   2.867   7.009   2.836
 8311SOL     OW25831   4.234   5.724   2.890
 8311SOL    HW125832   4.187   5.635   2.885
 8311SOL    HW225833   4.229   5.758   2.984
 8312SOL     OW25834   6.060   2.182   0.701
 8312SOL    HW125835   6.050   2.084   0.714
 8312SOL    HW225836   6.112   2.199   0.617
 8313SOL     OW25837   5.634   2.646   6.150
 8313SOL    HW125838   5.733   2.630   6.154
 8313SOL    HW225839   5.609   2.675   6.058
 8314SOL     OW25840   4.466   5.872   4.308
 8314SOL    HW125841   4.416   5.919   4.235
 8314SOL    HW225842   4.518   5.796   4.269
 8315SOL     OW25843   3.019   2.860   5.428
 8315SOL    HW125844   2.992   2.766   5.409
 8315SOL    HW225845   2.946   2.922   5.399
 8316SOL     OW25846   2.135   1.952   5.345
 8316SOL    HW125847   2.074   2.014   5.394
 8316SOL    HW225848   2.126   1.859   5.382
 8317SOL     OW25849   1.129   1.896   3.983
 8317SOL    HW125850   1.131   1.872   4.080
 8317SOL    HW225851   1.215   1.870   3.941
 8318SOL     OW25852   4.331   6.585   5.995
 8318SOL    HW125853   4.345   6.529   6.077
 8318SOL    HW225854   4.247   6.638   6.004
 8319SOL     OW25855   1.861   5.295   6.320
 8319SOL    HW125856   1.917   5.311   6.401
 8319SOL    HW225857   1.794   5.223   6.340
 8320SOL     OW25858   3.824   3.754   5.561
 8320SOL    HW125859   3.826   3.655   5.546
 8320SOL    HW225860   3.743   3.778   5.615
 8321SOL     OW25861   0.688   0.418   1.060
 8321SOL    HW125862   0.666   0.441   0.966
 8321SOL    HW225863   0.639   0.479   1.122
 8322SOL     OW25864   1.434   0.127   0.917
 8322SOL    HW125865   1.479   0.217   0.916
 8322SOL    HW225866   1.470   0.073   0.993
 8323SOL     OW25867   5.379   4.321   6.637
 8323SOL    HW125868   5.448   4.321   6.708
 8323SOL    HW225869   5.371   4.230   6.597
 8324SOL     OW25870   5.487   6.704   0.215
 8324SOL    HW125871   5.532   6.627   0.259
 8324SOL    HW225872   5.554   6.759   0.165
 8325SOL     OW25873   1.606   6.745   4.825
 8325SOL    HW125874   1.702   6.718   4.834
 8325SOL    HW225875   1.600   6.824   4.764
 8326SOL     OW25876   2.376   2.750   6.423
 8326SOL    HW125877   2.442   2.782   6.491
 8326SOL    HW225878   2.296   2.712   6.470
 8327SOL     OW25879   0.454   6.346   4.948
 8327SOL    HW125880   0.523   6.281   4.978
 8327SOL    HW225881   0.415   6.317   4.861
 8328SOL     OW25882   1.445   6.108   0.531
 8328SOL    HW125883   1.412   6.085   0.440
 8328SOL    HW225884   1.464   6.206   0.535
 8329SOL     OW25885   1.780   2.285   5.061
 8329SOL    HW125886   1.860   2.256   5.114
 8329SOL    HW225887   1.778   2.385   5.056
 8330SOL     OW25888   2.724   6.578   6.972
 8330SOL    HW125889   2.671   6.641   0.003
 8330SOL    HW225890   2.731   6.616   6.879
 8331SOL     OW25891   2.508   2.100   6.301
 8331SOL    HW125892   2.460   2.017   6.328
 8331SOL    HW225893   2.444   2.176   6.295
 8332SOL     OW25894   6.217   4.139   1.426
 8332SOL    HW125895   6.275   4.103   1.499
 8332SOL    HW225896   6.135   4.179   1.467
 8333SOL     OW25897   2.269   4.388   6.636
 8333SOL    HW125898   2.360   4.348   6.622
 8333SOL    HW225899   2.264   4.430   6.726
 8334SOL     OW25900   3.476   2.214   5.237
 8334SOL    HW125901   3.407   2.286   5.228
 8334SOL    HW225902   3.473   2.154   5.157
 8335SOL     OW25903   5.579   4.769   5.652
 8335SOL    HW125904   5.650   4.726   5.595
 8335SOL    HW225905   5.564   4.713   5.733
 8336SOL     OW25906   1.285   3.513   3.912
 8336SOL    HW125907   1.191   3.532   3.937
 8336SOL    HW225908   1.342   3.510   3.994
 8337SOL     OW25909   6.537   1.092   4.377
 8337SOL    HW125910   6.624   1.048   4.354
 8337SOL    HW225911   6.505   1.058   4.465
 8338SOL     OW25912   2.448   5.757   0.955
 8338SOL    HW125913   2.468   5.722   1.046
 8338SOL    HW225914   2.373   5.822   0.961
 8339SOL     OW25915   5.789   0.389   1.798
 8339SOL    HW125916   5.778   0.420   1.892
 8339SOL    HW225917   5.886   0.387   1.775
 8340SOL     OW25918   5.896   2.593   6.202
 8340SOL    HW125919   5.978   2.645   6.178
 8340SOL    HW225920   5.923   2.501   6.233
 8341SOL     OW25921   3.778   1.463   0.653
 8341SOL    HW125922   3.684   1.437   0.672
 8341SOL    HW225923   3.833   1.453   0.736
 8342SOL     OW25924   4.077   0.458   0.518
 8342SOL    HW125925   4.000   0.480   0.458
 8342SOL    HW225926   4.133   0.386   0.476
 8343SOL     OW25927   5.414   4.733   3.027
 8343SOL    HW125928   5.463   4.795   2.965
 8343SOL    HW225929   5.316   4.740   3.011
 8344SOL     OW25930   1.267   4.874   5.787
 8344SOL    HW125931   1.267   4.923   5.700
 8344SOL    HW225932   1.311   4.784   5.775
 8345SOL     OW25933   5.813   0.409   3.642
 8345SOL    HW125934   5.807   0.359   3.729
 8345SOL    HW225935   5.895   0.381   3.593
 8346SOL     OW25936   5.342   3.380   4.321
 8346SOL    HW125937   5.365   3.303   4.261
 8346SOL    HW225938   5.421   3.402   4.379
 8347SOL     OW25939   2.128   1.654   5.839
 8347SOL    HW125940   2.151   1.747   5.808
 8347SOL    HW225941   2.157   1.588   5.770
 8348SOL     OW25942   2.605   5.655   1.818
 8348SOL    HW125943   2.581   5.666   1.914
 8348SOL    HW225944   2.648   5.566   1.804
 8349SOL     OW25945   5.331   6.451   1.994
 8349SOL    HW125946   5.276   6.481   2.071
 8349SOL    HW225947   5.272   6.414   1.922
 8350SOL     OW25948   1.365   0.269   0.522
 8350SOL    HW125949   1.404   0.349   0.570
 8350SOL    HW225950   1.297   0.300   0.457
 8351SOL     OW25951   0.320   2.016   2.851
 8351SOL    HW125952   0.325   1.926   2.807
 8351SOL    HW225953   0.401   2.030   2.908
 8352SOL     OW25954   2.360   6.216   0.015
 8352SOL    HW125955   2.403   6.306   0.004
 8352SOL    HW225956   2.392   6.174   0.100
 8353SOL     OW25957   0.440   6.033   1.811
 8353SOL    HW125958   0.404   5.984   1.732
 8353SOL    HW225959   0.365   6.078   1.859
 8354SOL     OW25960   3.995   1.365   3.639
 8354SOL    HW125961   3.967   1.415   3.557
 8354SOL    HW225962   3.970   1.268   3.628
 8355SOL     OW25963   3.359   5.311   6.373
 8355SOL    HW125964   3.406   5.298   6.286
 8355SOL    HW225965   3.388   5.241   6.439
 8356SOL     OW25966   2.652   4.593   1.113
 8356SOL    HW125967   2.679   4.500   1.090
 8356SOL    HW225968   2.627   4.642   1.029
 8357SOL     OW25969   4.766   0.050   5.430
 8357SOL    HW125970   4.776   6.987   5.387
 8357SOL    HW225971   4.837   0.111   5.398
 8358SOL     OW25972   0.934   0.512   5.771
 8358SOL    HW125973   0.915   0.414   5.762
 8358SOL    HW225974   1.014   0.535   5.715
 8359SOL     OW25975   4.283   1.864   6.021
 8359SOL    HW125976   4.352   1.927   6.058
 8359SOL    HW225977   4.241   1.904   5.940
 8360SOL     OW25978   4.281   7.016   1.146
 8360SOL    HW125979   4.181   7.019   1.152
 8360SOL    HW225980   4.312   0.042   1.067
 8361SOL     OW25981   4.772   1.762   7.012
 8361SOL    HW125982   4.677   1.735   0.002
 8361SOL    HW225983   4.818   1.776   0.073
 8362SOL     OW25984   6.547   3.870   1.402
 8362SOL    HW125985   6.452   3.840   1.405
 8362SOL    HW225986   6.557   3.944   1.336
 8363SOL     OW25987   1.594   2.381   1.362
 8363SOL    HW125988   1.642   2.468   1.349
 8363SOL    HW225989   1.565   2.374   1.458
 8364SOL     OW25990   0.415   1.938   4.700
 8364SOL    HW125991   0.348   2.003   4.663
 8364SOL    HW225992   0.506   1.961   4.664
 8365SOL     OW25993   1.521   2.290   1.615
 8365SOL    HW125994   1.513   2.191   1.622
 8365SOL    HW225995   1.557   2.327   1.700
 8366SOL     OW25996   5.427   5.101   2.182
 8366SOL    HW125997   5.377   5.028   2.228
 8366SOL    HW225998   5.467   5.066   2.097
 8367SOL     OW25999   2.117   4.446   3.710
 8367SOL    HW126000   2.027   4.443   3.666
 8367SOL    HW226001   2.172   4.517   3.666
 8368SOL     OW26002   5.746   5.648   5.808
 8368SOL    HW126003   5.715   5.687   5.721
 8368SOL    HW226004   5.844   5.663   5.819
 8369SOL     OW26005   2.207   6.721   0.648
 8369SOL    HW126006   2.133   6.785   0.630
 8369SOL    HW226007   2.203   6.693   0.744
 8370SOL     OW26008   2.815   3.289   0.911
 8370SOL    HW126009   2.738   3.241   0.953
 8370SOL    HW226010   2.860   3.347   0.979
 8371SOL     OW26011   2.648   3.599   6.351
 8371SOL    HW126012   2.637   3.699   6.347
 8371SOL    HW226013   2.625   3.567   6.443
 8372SOL     OW26014   1.408   6.241   1.196
 8372SOL    HW126015   1.406   6.327   1.145
 8372SOL    HW226016   1.436   6.167   1.135
 8373SOL     OW26017   6.648   1.490   3.820
 8373SOL    HW126018   6.577   1.511   3.888
 8373SOL    HW226019   6.650   1.392   3.803
 8374SOL     OW26020   0.356   0.964   3.865
 8374SOL    HW126021   0.294   1.015   3.805
 8374SOL    HW226022   0.448   0.963   3.826
 8375SOL     OW26023   2.119   1.502   4.937
 8375SOL    HW126024   2.063   1.581   4.962
 8375SOL    HW226025   2.080   1.458   4.856
 8376SOL     OW26026   0.851   1.925   4.073
 8376SOL    HW126027   0.804   1.856   4.127
 8376SOL    HW226028   0.943   1.893   4.050
 8377SOL     OW26029   4.089   5.383   6.711
 8377SOL    HW126030   4.109   5.405   6.615
 8377SOL    HW226031   3.995   5.349   6.717
 8378SOL     OW26032   4.618   5.971   4.822
 8378SOL    HW126033   4.698   6.001   4.875
 8378SOL    HW226034   4.648   5.908   4.750
 8379SOL     OW26035   6.079   1.969   1.766
 8379SOL    HW126036   6.123   2.030   1.699
 8379SOL    HW226037   5.980   1.976   1.757
 8380SOL     OW26038   0.243   6.183   1.432
 8380SOL    HW126039   0.232   6.264   1.375
 8380SOL    HW226040   0.245   6.101   1.374
 8381SOL     OW26041   0.610   1.439   2.842
 8381SOL    HW126042   0.582   1.484   2.758
 8381SOL    HW226043   0.531   1.425   2.901
 8382SOL     OW26044   0.906   0.282   1.618
 8382SOL    HW126045   0.932   0.213   1.686
 8382SOL    HW226046   0.915   0.244   1.526
 8383SOL     OW26047   2.869   6.863   6.105
 8383SOL    HW126048   2.852   6.962   6.104
 8383SOL    HW226049   2.784   6.816   6.128
 8384SOL     OW26050   0.740   3.872   2.988
 8384SOL    HW126051   0.831   3.902   2.961
 8384SOL    HW226052   0.671   3.923   2.936
 8385SOL     OW26053   4.229   2.315   1.858
 8385SOL    HW126054   4.311   2.333   1.803
 8385SOL    HW226055   4.148   2.341   1.806
 8386SOL     OW26056   2.683   5.943   1.692
 8386SOL    HW126057   2.669   5.988   1.780
 8386SOL    HW226058   2.650   5.848   1.698
 8387SOL     OW26059   0.970   1.351   3.705
 8387SOL    HW126060   0.996   1.443   3.675
 8387SOL    HW226061   1.025   1.325   3.784
 8388SOL     OW26062   3.727   5.324   0.798
 8388SOL    HW126063   3.683   5.347   0.885
 8388SOL    HW226064   3.820   5.363   0.797
 8389SOL     OW26065   0.515   2.771   4.397
 8389SOL    HW126066   0.599   2.779   4.449
 8389SOL    HW226067   0.450   2.714   4.447
 8390SOL     OW26068   2.669   0.076   5.890
 8390SOL    HW126069   2.678   0.097   5.987
 8390SOL    HW226070   2.755   0.097   5.843
 8391SOL     OW26071   5.440   5.589   1.023
 8391SOL    HW126072   5.511   5.539   1.073
 8391SOL    HW226073   5.480   5.670   0.980
 8392SOL     OW26074   4.684   6.274   0.099
 8392SOL    HW126075   4.755   6.229   0.045
 8392SOL    HW226076   4.667   6.221   0.182
 8393SOL     OW26077   0.333   4.834   2.977
 8393SOL    HW126078   0.298   4.741   2.986
 8393SOL    HW226079   0.304   4.888   3.057
 8394SOL     OW26080   1.005   1.498   2.693
 8394SOL    HW126081   0.927   1.501   2.631
 8394SOL    HW226082   0.973   1.502   2.788
 8395SOL     OW26083   0.996   6.256   5.657
 8395SOL    HW126084   1.067   6.186   5.660
 8395SOL    HW226085   0.972   6.274   5.562
 8396SOL     OW26086   4.463   2.778   1.612
 8396SOL    HW126087   4.421   2.867   1.597
 8396SOL    HW226088   4.393   2.714   1.645
 8397SOL     OW26089   2.402   5.137   3.751
 8397SOL    HW126090   2.408   5.075   3.829
 8397SOL    HW226091   2.348   5.217   3.776
 8398SOL     OW26092   5.918   1.464   0.076
 8398SOL    HW126093   5.943   1.474   0.173
 8398SOL    HW226094   5.847   1.394   0.068
 8399SOL     OW26095   5.633   5.935   0.236
 8399SOL    HW126096   5.567   5.999   0.276
 8399SOL    HW226097   5.724   5.952   0.273
 8400SOL     OW26098   6.031   6.642   4.359
 8400SOL    HW126099   6.096   6.641   4.283
 8400SOL    HW226100   5.972   6.723   4.351
 8401SOL     OW26101   2.868   4.303   6.014
 8401SOL    HW126102   2.868   4.206   5.993
 8401SOL    HW226103   2.920   4.353   5.944
 8402SOL     OW26104   4.556   1.078   6.113
 8402SOL    HW126105   4.573   1.046   6.020
 8402SOL    HW226106   4.572   1.177   6.117
 8403SOL     OW26107   1.223   2.273   4.856
 8403SOL    HW126108   1.126   2.288   4.841
 8403SOL    HW226109   1.276   2.345   4.812
 8404SOL     OW26110   4.661   5.110   5.273
 8404SOL    HW126111   4.630   5.157   5.191
 8404SOL    HW226112   4.700   5.176   5.337
 8405SOL     OW26113   1.212   2.677   4.730
 8405SOL    HW126114   1.250   2.608   4.792
 8405SOL    HW226115   1.249   2.662   4.638
 8406SOL     OW26116   5.125   3.879   1.355
 8406SOL    HW126117   5.165   3.866   1.446
 8406SOL    HW226118   5.053   3.811   1.340
 8407SOL     OW26119   4.879   3.262   2.613
 8407SOL    HW126120   4.867   3.214   2.526
 8407SOL    HW226121   4.913   3.355   2.596
 8408SOL     OW26122   4.923   4.239   4.189
 8408SOL    HW126123   4.994   4.308   4.200
 8408SOL    HW226124   4.853   4.273   4.125
 8409SOL     OW26125   0.658   1.619   3.974
 8409SOL    HW126126   0.629   1.651   4.064
 8409SOL    HW226127   0.580   1.616   3.913
 8410SOL     OW26128   2.388   6.420   2.389
 8410SOL    HW126129   2.390   6.482   2.466
 8410SOL    HW226130   2.334   6.339   2.412
 8411SOL     OW26131   1.785   2.995   3.481
 8411SOL    HW126132   1.869   3.040   3.452
 8411SOL    HW226133   1.707   3.038   3.435
 8412SOL     OW26134   6.301   3.030   2.536
 8412SOL    HW126135   6.321   2.937   2.566
 8412SOL    HW226136   6.364   3.056   2.463
 8413SOL     OW26137   2.494   4.613   1.427
 8413SOL    HW126138   2.523   4.546   1.496
 8413SOL    HW226139   2.394   4.621   1.428
 8414SOL     OW26140   5.723   0.049   2.952
 8414SOL    HW126141   5.630   0.072   2.924
 8414SOL    HW226142   5.725   6.982   2.988
 8415SOL     OW26143   6.378   3.801   1.768
 8415SOL    HW126144   6.436   3.814   1.849
 8415SOL    HW226145   6.291   3.760   1.796
 8416SOL     OW26146   4.666   4.578   2.318
 8416SOL    HW126147   4.709   4.544   2.401
 8416SOL    HW226148   4.638   4.501   2.261
 8417SOL     OW26149   2.289   5.416   6.416
 8417SOL    HW126150   2.340   5.393   6.333
 8417SOL    HW226151   2.208   5.357   6.422
 8418SOL     OW26152   6.166   5.948   2.945
 8418SOL    HW126153   6.251   5.937   2.895
 8418SOL    HW226154   6.091   5.906   2.894
 8419SOL     OW26155   4.923   0.567   4.008
 8419SOL    HW126156   4.870   0.482   4.019
 8419SOL    HW226157   4.968   0.589   4.095
 8420SOL     OW26158   3.468   1.962   5.856
 8420SOL    HW126159   3.499   1.970   5.761
 8420SOL    HW226160   3.508   2.036   5.910
 8421SOL     OW26161   0.818   6.826   1.402
 8421SOL    HW126162   0.781   6.899   1.459
 8421SOL    HW226163   0.912   6.806   1.431
 8422SOL     OW26164   4.386   0.066   1.389
 8422SOL    HW126165   4.296   0.085   1.427
 8422SOL    HW226166   4.377   0.042   1.292
 8423SOL     OW26167   1.631   3.730   1.626
 8423SOL    HW126168   1.729   3.740   1.644
 8423SOL    HW226169   1.614   3.645   1.576
 8424SOL     OW26170   2.944   2.236   2.264
 8424SOL    HW126171   2.992   2.303   2.320
 8424SOL    HW226172   2.941   2.267   2.169
 8425SOL     OW26173   6.413   4.679   6.620
 8425SOL    HW126174   6.316   4.678   6.594
 8425SOL    HW226175   6.421   4.696   6.718
 8426SOL     OW26176   3.907   3.846   2.397
 8426SOL    HW126177   3.971   3.769   2.403
 8426SOL    HW226178   3.920   3.907   2.475
 8427SOL     OW26179   2.168   2.617   6.544
 8427SOL    HW126180   2.107   2.618   6.624
 8427SOL    HW226181   2.116   2.587   6.464
 8428SOL     OW26182   6.344   4.487   1.889
 8428SOL    HW126183   6.373   4.563   1.831
 8428SOL    HW226184   6.248   4.498   1.913
 8429SOL     OW26185   2.853   6.424   3.093
 8429SOL    HW126186   2.780   6.485   3.123
 8429SOL    HW226187   2.877   6.361   3.167
 8430SOL     OW26188   5.162   4.148   3.272
 8430SOL    HW126189   5.241   4.204   3.248
 8430SOL    HW226190   5.183   4.051   3.258
 8431SOL     OW26191   2.712   3.621   1.737
 8431SOL    HW126192   2.670   3.533   1.760
 8431SOL    HW226193   2.642   3.682   1.699
 8432SOL     OW26194   4.644   6.703   0.496
 8432SOL    HW126195   4.720   6.722   0.557
 8432SOL    HW226196   4.669   6.727   0.402
 8433SOL     OW26197   1.288   1.584   4.325
 8433SOL    HW126198   1.282   1.673   4.280
 8433SOL    HW226199   1.197   1.542   4.329
 8434SOL     OW26200   5.280   6.315   6.512
 8434SOL    HW126201   5.277   6.364   6.599
 8434SOL    HW226202   5.370   6.327   6.470
 8435SOL     OW26203   5.358   3.060   1.755
 8435SOL    HW126204   5.270   3.061   1.707
 8435SOL    HW226205   5.418   3.129   1.716
 8436SOL     OW26206   3.101   4.435   1.681
 8436SOL    HW126207   3.086   4.349   1.632
 8436SOL    HW226208   3.029   4.446   1.750
 8437SOL     OW26209   6.648   1.646   1.126
 8437SOL    HW126210   6.678   1.694   1.044
 8437SOL    HW226211   6.712   1.663   1.201
 8438SOL     OW26212   1.974   6.438   0.953
 8438SOL    HW126213   1.999   6.345   0.926
 8438SOL    HW226214   1.962   6.442   1.052
 8439SOL     OW26215   6.420   0.324   2.261
 8439SOL    HW126216   6.396   0.236   2.220
 8439SOL    HW226217   6.499   0.362   2.214
 8440SOL     OW26218   6.959   2.100   4.092
 8440SOL    HW126219   6.898   2.122   4.168
 8440SOL    HW226220   6.937   2.009   4.058
 8441SOL     OW26221   4.362   5.375   1.933
 8441SOL    HW126222   4.378   5.449   1.998
 8441SOL    HW226223   4.413   5.393   1.849
 8442SOL     OW26224   1.897   3.465   0.288
 8442SOL    HW126225   1.821   3.530   0.288
 8442SOL    HW226226   1.873   3.386   0.232
 8443SOL     OW26227   0.549   2.152   1.976
 8443SOL    HW126228   0.593   2.081   2.032
 8443SOL    HW226229   0.588   2.241   1.999
 8444SOL     OW26230   4.595   0.794   2.692
 8444SOL    HW126231   4.505   0.753   2.707
 8444SOL    HW226232   4.589   0.893   2.705
 8445SOL     OW26233   4.559   5.633   1.854
 8445SOL    HW126234   4.607   5.606   1.938
 8445SOL    HW226235   4.527   5.728   1.864
 8446SOL     OW26236   6.718   4.285   3.419
 8446SOL    HW126237   6.732   4.234   3.334
 8446SOL    HW226238   6.721   4.383   3.400
 8447SOL     OW26239   4.505   3.314   1.237
 8447SOL    HW126240   4.510   3.323   1.138
 8447SOL    HW226241   4.549   3.393   1.280
 8448SOL     OW26242   1.793   2.788   5.670
 8448SOL    HW126243   1.830   2.729   5.741
 8448SOL    HW226244   1.694   2.794   5.679
 8449SOL     OW26245   1.423   1.535   4.803
 8449SOL    HW126246   1.363   1.504   4.877
 8449SOL    HW226247   1.381   1.613   4.758
 8450SOL     OW26248   2.366   5.376   1.774
 8450SOL    HW126249   2.342   5.382   1.678
 8450SOL    HW226250   2.460   5.408   1.788
 8451SOL     OW26251   4.351   3.043   0.502
 8451SOL    HW126252   4.443   3.009   0.483
 8451SOL    HW226253   4.298   3.043   0.417
 8452SOL     OW26254   6.945   5.560   1.280
 8452SOL    HW126255   6.857   5.515   1.295
 8452SOL    HW226256   6.996   5.510   1.209
 8453SOL     OW26257   6.442   5.315   5.326
 8453SOL    HW126258   6.486   5.240   5.277
 8453SOL    HW226259   6.442   5.397   5.269
 8454SOL     OW26260   1.882   6.350   4.897
 8454SOL    HW126261   1.865   6.272   4.836
 8454SOL    HW226262   1.947   6.412   4.853
 8455SOL     OW26263   6.289   2.626   0.419
 8455SOL    HW126264   6.325   2.544   0.463
 8455SOL    HW226265   6.252   2.688   0.488
 8456SOL     OW26266   5.644   5.455   3.221
 8456SOL    HW126267   5.641   5.436   3.123
 8456SOL    HW226268   5.615   5.374   3.272
 8457SOL     OW26269   6.168   5.984   6.860
 8457SOL    HW126270   6.226   6.043   6.803
 8457SOL    HW226271   6.225   5.935   6.925
 8458SOL     OW26272   1.630   1.907   1.192
 8458SOL    HW126273   1.570   1.861   1.126
 8458SOL    HW226274   1.574   1.952   1.262
 8459SOL     OW26275   3.058   5.858   2.505
 8459SOL    HW126276   3.008   5.773   2.486
 8459SOL    HW226277   3.016   5.933   2.455
 8460SOL     OW26278   3.837   1.241   0.386
 8460SOL    HW126279   3.880   1.331   0.394
 8460SOL    HW226280   3.753   1.249   0.332
 8461SOL     OW26281   4.923   3.687   2.988
 8461SOL    HW126282   4.935   3.693   3.088
 8461SOL    HW226283   4.951   3.596   2.957
 8462SOL     OW26284   2.815   4.418   0.242
 8462SOL    HW126285   2.847   4.509   0.217
 8462SOL    HW226286   2.892   4.354   0.240
 8463SOL     OW26287   6.418   0.570   0.073
 8463SOL    HW126288   6.365   0.486   0.056
 8463SOL    HW226289   6.370   0.626   0.141
 8464SOL     OW26290   6.577   3.999   6.743
 8464SOL    HW126291   6.662   3.960   6.710
 8464SOL    HW226292   6.581   4.009   6.842
 8465SOL     OW26293   4.507   3.285   0.954
 8465SOL    HW126294   4.559   3.299   0.870
 8465SOL    HW226295   4.481   3.189   0.962
 8466SOL     OW26296   0.224   1.201   5.713
 8466SOL    HW126297   0.315   1.160   5.708
 8466SOL    HW226298   0.216   1.255   5.797
 8467SOL     OW26299   3.275   1.666   0.139
 8467SOL    HW126300   3.360   1.615   0.146
 8467SOL    HW226301   3.262   1.722   0.221
 8468SOL     OW26302   5.730   3.314   6.460
 8468SOL    HW126303   5.760   3.370   6.537
 8468SOL    HW226304   5.664   3.246   6.493
 8469SOL     OW26305   3.856   3.496   5.529
 8469SOL    HW126306   3.796   3.427   5.489
 8469SOL    HW226307   3.918   3.452   5.595
 8470SOL     OW26308   2.027   5.187   1.898
 8470SOL    HW126309   2.067   5.226   1.980
 8470SOL    HW226310   2.066   5.097   1.881
 8471SOL     OW26311   4.129   1.527   4.004
 8471SOL    HW126312   4.201   1.567   4.062
 8471SOL    HW226313   4.171   1.466   3.937
 8472SOL     OW26314   6.192   2.032   6.287
 8472SOL    HW126315   6.107   1.979   6.283
 8472SOL    HW226316   6.170   2.129   6.302
 8473SOL     OW26317   4.901   4.802   0.138
 8473SOL    HW126318   4.912   4.861   0.218
 8473SOL    HW226319   4.946   4.845   0.059
 8474SOL     OW26320   3.818   4.027   3.899
 8474SOL    HW126321   3.743   4.003   3.961
 8474SOL    HW226322   3.784   4.087   3.826
 8475SOL     OW26323   6.261   2.312   3.245
 8475SOL    HW126324   6.163   2.319   3.265
 8475SOL    HW226325   6.297   2.402   3.222
 8476SOL     OW26326   5.843   0.984   1.631
 8476SOL    HW126327   5.858   0.956   1.726
 8476SOL    HW226328   5.929   1.019   1.592
 8477SOL     OW26329   5.697   0.138   1.765
 8477SOL    HW126330   5.776   0.081   1.744
 8477SOL    HW226331   5.724   0.234   1.763
 8478SOL     OW26332   0.196   0.128   5.608
 8478SOL    HW126333   0.250   0.055   5.651
 8478SOL    HW226334   0.157   0.094   5.522
 8479SOL     OW26335   0.698   3.236   0.637
 8479SOL    HW126336   0.790   3.242   0.598
 8479SOL    HW226337   0.695   3.284   0.725
 8480SOL     OW26338   4.178   3.746   0.508
 8480SOL    HW126339   4.266   3.792   0.497
 8480SOL    HW226340   4.132   3.781   0.590
 8481SOL     OW26341   4.357   2.231   3.238
 8481SOL    HW126342   4.388   2.299   3.172
 8481SOL    HW226343   4.309   2.157   3.190
 8482SOL     OW26344   4.279   0.832   0.375
 8482SOL    HW126345   4.369   0.812   0.336
 8482SOL    HW226346   4.287   0.905   0.442
 8483SOL     OW26347   4.051   5.062   3.066
 8483SOL    HW126348   4.057   5.152   3.108
 8483SOL    HW226349   4.096   5.063   2.977
 8484SOL     OW26350   5.383   5.845   5.050
 8484SOL    HW126351   5.331   5.788   4.986
 8484SOL    HW226352   5.425   5.787   5.120
 8485SOL     OW26353   3.494   2.045   0.230
 8485SOL    HW126354   3.551   1.967   0.254
 8485SOL    HW226355   3.435   2.067   0.308
 8486SOL     OW26356   6.170   2.308   3.590
 8486SOL    HW126357   6.217   2.370   3.653
 8486SOL    HW226358   6.193   2.213   3.614
 8487SOL     OW26359   6.909   1.840   6.473
 8487SOL    HW126360   6.814   1.831   6.505
 8487SOL    HW226361   6.964   1.766   6.512
 8488SOL     OW26362   4.925   5.488   2.043
 8488SOL    HW126363   4.906   5.410   1.983
 8488SOL    HW226364   4.854   5.495   2.113
 8489SOL     OW26365   6.187   2.420   1.685
 8489SOL    HW126366   6.103   2.367   1.698
 8489SOL    HW226367   6.233   2.431   1.772
 8490SOL     OW26368   3.390   0.546   6.805
 8490SOL    HW126369   3.417   0.622   6.864
 8490SOL    HW226370   3.365   0.467   6.861
 8491SOL     OW26371   3.044   5.642   1.815
 8491SOL    HW126372   3.008   5.584   1.742
 8491SOL    HW226373   3.010   5.736   1.803
 8492SOL     OW26374   6.371   6.616   4.803
 8492SOL    HW126375   6.385   6.523   4.838
 8492SOL    HW226376   6.329   6.673   4.874
 8493SOL     OW26377   5.377   1.373   6.403
 8493SOL    HW126378   5.311   1.406   6.471
 8493SOL    HW226379   5.331   1.361   6.315
 8494SOL     OW26380   6.591   3.538   2.248
 8494SOL    HW126381   6.547   3.514   2.334
 8494SOL    HW226382   6.633   3.629   2.256
 8495SOL     OW26383   6.281   5.026   6.021
 8495SOL    HW126384   6.296   4.959   5.947
 8495SOL    HW226385   6.265   4.977   6.106
 8496SOL     OW26386   5.036   2.679   2.344
 8496SOL    HW126387   5.076   2.674   2.252
 8496SOL    HW226388   5.037   2.588   2.385
 8497SOL     OW26389   6.635   0.372   3.498
 8497SOL    HW126390   6.725   0.410   3.521
 8497SOL    HW226391   6.647   0.280   3.462
 8498SOL     OW26392   5.061   0.080   3.875
 8498SOL    HW126393   4.978   0.026   3.861
 8498SOL    HW226394   5.139   0.018   3.882
 8499SOL     OW26395   5.929   6.818   5.302
 8499SOL    HW126396   5.978   6.773   5.377
 8499SOL    HW226397   5.937   6.917   5.312
 8500SOL     OW26398   1.035   0.662   6.478
 8500SOL    HW126399   1.002   0.569   6.491
 8500SOL    HW226400   0.991   0.702   6.397
 8501SOL     OW26401   1.870   1.533   6.389
 8501SOL    HW126402   1.955   1.501   6.347
 8501SOL    HW226403   1.885   1.623   6.431
 8502SOL     OW26404   0.161   3.904   6.942
 8502SOL    HW126405   0.093   3.972   6.914
 8502SOL    HW226406   0.160   3.894   0.015
 8503SOL     OW26407   4.816   1.955   5.668
 8503SOL    HW126408   4.807   1.984   5.573
 8503SOL    HW226409   4.890   2.007   5.712
 8504SOL     OW26410   1.427   0.401   2.480
 8504SOL    HW126411   1.333   0.429   2.458
 8504SOL    HW226412   1.433   0.301   2.483
 8505SOL     OW26413   5.709   2.903   2.430
 8505SOL    HW126414   5.729   2.850   2.513
 8505SOL    HW226415   5.709   2.842   2.351
 8506SOL     OW26416   1.760   0.499   6.258
 8506SOL    HW126417   1.761   0.590   6.300
 8506SOL    HW226418   1.834   0.492   6.191
 8507SOL     OW26419   3.070   6.186   5.447
 8507SOL    HW126420   3.075   6.156   5.542
 8507SOL    HW226421   3.002   6.259   5.438
 8508SOL     OW26422   2.676   1.552   6.943
 8508SOL    HW126423   2.635   1.606   7.017
 8508SOL    HW226424   2.707   1.613   6.870
 8509SOL     OW26425   6.029   1.959   2.664
 8509SOL    HW126426   5.932   1.940   2.650
 8509SOL    HW226427   6.073   1.880   2.705
 8510SOL     OW26428   0.239   1.410   4.598
 8510SOL    HW126429   0.325   1.362   4.580
 8510SOL    HW226430   0.252   1.509   4.586
 8511SOL     OW26431   5.761   1.933   2.939
 8511SOL    HW126432   5.729   2.025   2.916
 8511SOL    HW226433   5.755   1.874   2.859
 8512SOL     OW26434   2.216   6.631   5.947
 8512SOL    HW126435   2.243   6.640   5.851
 8512SOL    HW226436   2.279   6.568   5.993
 8513SOL     OW26437   5.450   6.141   0.349
 8513SOL    HW126438   5.429   6.235   0.379
 8513SOL    HW226439   5.369   6.100   0.307
 8514SOL     OW26440   3.589   6.614   4.026
 8514SOL    HW126441   3.676   6.662   4.034
 8514SOL    HW226442   3.596   6.525   4.071
 8515SOL     OW26443   5.821   2.365   0.626
 8515SOL    HW126444   5.796   2.412   0.710
 8515SOL    HW226445   5.907   2.316   0.640
 8516SOL     OW26446   6.969   1.960   2.052
 8516SOL    HW126447   6.974   2.029   1.980
 8516SOL    HW226448   6.878   1.919   2.052
 8517SOL     OW26449   1.182   3.997   0.226
 8517SOL    HW126450   1.134   4.084   0.215
 8517SOL    HW226451   1.139   3.928   0.169
 8518SOL     OW26452   2.777   5.706   0.641
 8518SOL    HW126453   2.769   5.616   0.599
 8518SOL    HW226454   2.801   5.695   0.738
 8519SOL     OW26455   2.828   5.907   3.203
 8519SOL    HW126456   2.826   5.977   3.131
 8519SOL    HW226457   2.735   5.884   3.230
 8520SOL     OW26458   3.322   0.320   6.960
 8520SOL    HW126459   3.314   0.357   0.026
 8520SOL    HW226460   3.387   0.245   6.959
 8521SOL     OW26461   1.639   0.571   1.495
 8521SOL    HW126462   1.631   0.476   1.466
 8521SOL    HW226463   1.731   0.589   1.530
 8522SOL     OW26464   2.001   6.377   4.366
 8522SOL    HW126465   1.975   6.286   4.331
 8522SOL    HW226466   2.078   6.412   4.312
 8523SOL     OW26467   1.102   6.747   6.958
 8523SOL    HW126468   1.157   6.778   0.008
 8523SOL    HW226469   1.161   6.708   6.887
 8524SOL     OW26470   1.308   1.490   6.841
 8524SOL    HW126471   1.363   1.485   6.757
 8524SOL    HW226472   1.214   1.465   6.820
 8525SOL     OW26473   5.354   3.467   3.691
 8525SOL    HW126474   5.322   3.560   3.708
 8525SOL    HW226475   5.280   3.414   3.649
 8526SOL     OW26476   1.870   3.199   2.134
 8526SOL    HW126477   1.832   3.113   2.101
 8526SOL    HW226478   1.957   3.217   2.086
 8527SOL     OW26479   4.326   1.020   3.768
 8527SOL    HW126480   4.238   1.068   3.775
 8527SOL    HW226481   4.335   0.956   3.845
 8528SOL     OW26482   5.117   1.967   0.224
 8528SOL    HW126483   5.098   1.879   0.267
 8528SOL    HW226484   5.086   1.965   0.129
 8529SOL     OW26485   6.989   5.593   6.179
 8529SOL    HW126486   7.021   5.498   6.178
 8529SOL    HW226487   6.940   5.610   6.264
 8530SOL     OW26488   1.659   4.553   6.282
 8530SOL    HW126489   1.635   4.476   6.223
 8530SOL    HW226490   1.717   4.617   6.231
 8531SOL     OW26491   3.924   4.880   1.899
 8531SOL    HW126492   3.842   4.889   1.954
 8531SOL    HW226493   4.002   4.859   1.958
 8532SOL     OW26494   0.981   4.048   0.031
 8532SOL    HW126495   1.043   4.115   7.017
 8532SOL    HW226496   0.901   4.095   0.068
 8533SOL     OW26497   4.057   6.700   5.963
 8533SOL    HW126498   4.018   6.612   5.936
 8533SOL    HW226499   4.095   6.746   5.883
 8534SOL     OW26500   1.857   2.692   2.058
 8534SOL    HW126501   1.786   2.629   2.088
 8534SOL    HW226502   1.946   2.647   2.063
 8535SOL     OW26503   6.488   3.159   5.003
 8535SOL    HW126504   6.579   3.177   5.041
 8535SOL    HW226505   6.418   3.200   5.062
 8536SOL     OW26506   6.419   1.550   5.053
 8536SOL    HW126507   6.373   1.486   4.992
 8536SOL    HW226508   6.515   1.559   5.024
 8537SOL     OW26509   5.046   6.337   3.007
 8537SOL    HW126510   4.999   6.368   3.090
 8537SOL    HW226511   4.984   6.343   2.929
 8538SOL     OW26512   5.307   0.713   5.886
 8538SOL    HW126513   5.247   0.769   5.942
 8538SOL    HW226514   5.252   0.665   5.817
 8539SOL     OW26515   0.254   3.119   3.101
 8539SOL    HW126516   0.345   3.128   3.061
 8539SOL    HW226517   0.193   3.073   3.035
 8540SOL     OW26518   3.570   6.698   0.118
 8540SOL    HW126519   3.497   6.685   0.052
 8540SOL    HW226520   3.644   6.751   0.077
 8541SOL     OW26521   3.122   6.132   5.183
 8541SOL    HW126522   3.111   6.159   5.279
 8541SOL    HW226523   3.178   6.201   5.136
 8542SOL     OW26524   0.973   5.301   5.777
 8542SOL    HW126525   1.053   5.245   5.759
 8542SOL    HW226526   0.892   5.260   5.735
 8543SOL     OW26527   2.638   2.807   5.481
 8543SOL    HW126528   2.664   2.726   5.533
 8543SOL    HW226529   2.547   2.837   5.510
 8544SOL     OW26530   5.283   4.788   5.293
 8544SOL    HW126531   5.303   4.699   5.251
 8544SOL    HW226532   5.195   4.821   5.258
 8545SOL     OW26533   2.310   6.741   6.574
 8545SOL    HW126534   2.210   6.743   6.577
 8545SOL    HW226535   2.343   6.808   6.507
 8546SOL     OW26536   4.425   1.344   3.325
 8546SOL    HW126537   4.516   1.381   3.305
 8546SOL    HW226538   4.416   1.254   3.283
 8547SOL     OW26539   5.450   6.362   5.932
 8547SOL    HW126540   5.478   6.456   5.912
 8547SOL    HW226541   5.532   6.306   5.945
 8548SOL     OW26542   0.602   4.431   4.750
 8548SOL    HW126543   0.604   4.338   4.786
 8548SOL    HW226544   0.508   4.464   4.747
 8549SOL     OW26545   1.364   0.093   3.847
 8549SOL    HW126546   1.307   0.148   3.786
 8549SOL    HW226547   1.456   0.132   3.850
 8550SOL     OW26548   6.697   5.181   5.747
 8550SOL    HW126549   6.665   5.155   5.838
 8550SOL    HW226550   6.627   5.161   5.679
 8551SOL     OW26551   3.692   0.241   5.325
 8551SOL    HW126552   3.643   0.197   5.400
 8551SOL    HW226553   3.633   0.308   5.281
 8552SOL     OW26554   3.091   1.434   2.019
 8552SOL    HW126555   3.136   1.392   1.940
 8552SOL    HW226556   3.143   1.514   2.048
 8553SOL     OW26557   4.720   3.589   0.734
 8553SOL    HW126558   4.816   3.560   0.733
 8553SOL    HW226559   4.695   3.617   0.827
 8554SOL     OW26560   1.678   0.995   0.312
 8554SOL    HW126561   1.674   0.906   0.266
 8554SOL    HW226562   1.706   0.982   0.407
 8555SOL     OW26563   4.454   2.034   3.977
 8555SOL    HW126564   4.413   2.014   3.888
 8555SOL    HW226565   4.512   2.114   3.969
 8556SOL     OW26566   0.538   5.770   5.862
 8556SOL    HW126567   0.505   5.810   5.947
 8556SOL    HW226568   0.468   5.709   5.825
 8557SOL     OW26569   0.116   0.503   6.546
 8557SOL    HW126570   0.078   0.474   6.634
 8557SOL    HW226571   0.215   0.509   6.553
 8558SOL     OW26572   2.921   5.688   4.437
 8558SOL    HW126573   2.937   5.760   4.504
 8558SOL    HW226574   2.862   5.618   4.477
 8559SOL     OW26575   1.438   3.948   2.459
 8559SOL    HW126576   1.391   4.003   2.529
 8559SOL    HW226577   1.535   3.941   2.482
 8560SOL     OW26578   2.903   4.137   1.222
 8560SOL    HW126579   2.906   4.116   1.320
 8560SOL    HW226580   2.879   4.053   1.172
 8561SOL     OW26581   3.750   0.454   2.976
 8561SOL    HW126582   3.717   0.407   2.895
 8561SOL    HW226583   3.764   0.551   2.956
 8562SOL     OW26584   5.238   2.869   6.858
 8562SOL    HW126585   5.186   2.883   6.774
 8562SOL    HW226586   5.209   2.784   6.902
 8563SOL     OW26587   2.998   5.214   2.869
 8563SOL    HW126588   2.987   5.198   2.771
 8563SOL    HW226589   2.989   5.312   2.887
 8564SOL     OW26590   4.081   6.753   1.005
 8564SOL    HW126591   4.059   6.836   1.057
 8564SOL    HW226592   4.110   6.779   0.912
 8565SOL     OW26593   1.194   4.824   1.355
 8565SOL    HW126594   1.166   4.910   1.314
 8565SOL    HW226595   1.280   4.793   1.314
 8566SOL     OW26596   3.416   0.586   2.595
 8566SOL    HW126597   3.366   0.615   2.676
 8566SOL    HW226598   3.513   0.578   2.617
 8567SOL     OW26599   1.639   2.287   2.339
 8567SOL    HW126600   1.725   2.243   2.315
 8567SOL    HW226601   1.562   2.232   2.305
 8568SOL     OW26602   6.172   0.873   6.219
 8568SOL    HW126603   6.229   0.866   6.301
 8568SOL    HW226604   6.145   0.969   6.206
 8569SOL     OW26605   5.165   2.161   0.445
 8569SOL    HW126606   5.151   2.124   0.353
 8569SOL    HW226607   5.122   2.102   0.512
 8570SOL     OW26608   2.405   2.028   2.151
 8570SOL    HW126609   2.425   1.998   2.244
 8570SOL    HW226610   2.365   2.120   2.153
 8571SOL     OW26611   2.096   0.436   3.045
 8571SOL    HW126612   2.148   0.409   3.127
 8571SOL    HW226613   2.062   0.354   3.000
 8572SOL     OW26614   2.870   3.997   5.940
 8572SOL    HW126615   2.811   3.923   5.973
 8572SOL    HW226616   2.871   3.997   5.840
 8573SOL     OW26617   2.666   5.915   6.491
 8573SOL    HW126618   2.668   5.929   6.392
 8573SOL    HW226619   2.602   5.980   6.532
 8574SOL     OW26620   5.034   0.845   5.493
 8574SOL    HW126621   4.974   0.806   5.423
 8574SOL    HW226622   4.992   0.836   5.583
 8575SOL     OW26623   3.376   5.823   4.080
 8575SOL    HW126624   3.307   5.754   4.058
 8575SOL    HW226625   3.345   5.912   4.048
 8576SOL     OW26626   1.878   4.533   3.933
 8576SOL    HW126627   1.823   4.515   4.015
 8576SOL    HW226628   1.967   4.487   3.943
 8577SOL     OW26629   1.334   0.862   0.621
 8577SOL    HW126630   1.299   0.836   0.531
 8577SOL    HW226631   1.277   0.820   0.691
 8578SOL     OW26632   1.320   6.870   6.557
 8578SOL    HW126633   1.343   6.945   6.620
 8578SOL    HW226634   1.373   6.880   6.473
 8579SOL     OW26635   2.948   6.998   2.406
 8579SOL    HW126636   2.878   7.004   2.478
 8579SOL    HW226637   2.955   6.903   2.375
 8580SOL     OW26638   1.299   0.371   1.893
 8580SOL    HW126639   1.202   0.384   1.876
 8580SOL    HW226640   1.337   0.451   1.940
 8581SOL     OW26641   3.585   4.500   1.423
 8581SOL    HW126642   3.575   4.533   1.329
 8581SOL    HW226643   3.495   4.497   1.466
 8582SOL     OW26644   4.074   5.422   5.472
 8582SOL    HW126645   3.989   5.467   5.444
 8582SOL    HW226646   4.150   5.486   5.461
 8583SOL     OW26647   3.741   6.750   2.767
 8583SOL    HW126648   3.729   6.847   2.745
 8583SOL    HW226649   3.657   6.700   2.747
 8584SOL     OW26650   6.318   1.566   4.320
 8584SOL    HW126651   6.234   1.532   4.279
 8584SOL    HW226652   6.315   1.552   4.419
 8585SOL     OW26653   5.464   2.976   2.520
 8585SOL    HW126654   5.405   2.909   2.475
 8585SOL    HW226655   5.553   2.978   2.474
 8586SOL     OW26656   6.112   5.981   6.237
 8586SOL    HW126657   6.151   5.910   6.178
 8586SOL    HW226658   6.127   5.956   6.333
 8587SOL     OW26659   6.734   1.875   6.860
 8587SOL    HW126660   6.690   1.961   6.837
 8587SOL    HW226661   6.697   1.841   6.947
 8588SOL     OW26662   2.112   0.882   5.447
 8588SOL    HW126663   2.098   0.895   5.545
 8588SOL    HW226664   2.209   0.897   5.425
 8589SOL     OW26665   5.343   2.901   0.291
 8589SOL    HW126666   5.391   2.966   0.233
 8589SOL    HW226667   5.336   2.813   0.244
 8590SOL     OW26668   0.589   0.772   4.243
 8590SOL    HW126669   0.575   0.725   4.330
 8590SOL    HW226670   0.501   0.780   4.195
 8591SOL     OW26671   6.517   4.753   5.609
 8591SOL    HW126672   6.479   4.698   5.683
 8591SOL    HW226673   6.514   4.701   5.524
 8592SOL     OW26674   0.486   2.016   4.148
 8592SOL    HW126675   0.400   2.065   4.166
 8592SOL    HW226676   0.510   2.026   4.051
 8593SOL     OW26677   6.039   1.580   6.872
 8593SOL    HW126678   5.975   1.529   6.930
 8593SOL    HW226679   6.046   1.534   6.783
 8594SOL     OW26680   6.109   4.001   6.565
 8594SOL    HW126681   6.203   4.025   6.543
 8594SOL    HW226682   6.061   4.081   6.600
 8595SOL     OW26683   5.574   6.600   3.258
 8595SOL    HW126684   5.607   6.692   3.279
 8595SOL    HW226685   5.631   6.561   3.185
 8596SOL     OW26686   0.762   1.374   4.123
 8596SOL    HW126687   0.750   1.452   4.061
 8596SOL    HW226688   0.694   1.380   4.196
 8597SOL     OW26689   6.382   2.889   5.997
 8597SOL    HW126690   6.386   2.789   5.995
 8597SOL    HW226691   6.416   2.923   6.085
 8598SOL     OW26692   6.769   0.261   5.509
 8598SOL    HW126693   6.774   0.162   5.499
 8598SOL    HW226694   6.776   0.285   5.606
 8599SOL     OW26695   6.458   3.604   4.452
 8599SOL    HW126696   6.550   3.567   4.437
 8599SOL    HW226697   6.457   3.656   4.538
 8600SOL     OW26698   4.583   2.250   1.176
 8600SOL    HW126699   4.604   2.224   1.082
 8600SOL    HW226700   4.596   2.349   1.188
 8601SOL     OW26701   6.573   6.305   3.764
 8601SOL    HW126702   6.477   6.332   3.774
 8601SOL    HW226703   6.589   6.221   3.817
 8602SOL     OW26704   1.945   6.705   5.964
 8602SOL    HW126705   2.033   6.664   5.943
 8602SOL    HW226706   1.909   6.666   6.049
 8603SOL     OW26707   0.949   0.353   0.156
 8603SOL    HW126708   1.030   0.295   0.143
 8603SOL    HW226709   0.912   0.379   0.067
 8604SOL     OW26710   1.669   5.041   5.949
 8604SOL    HW126711   1.757   4.995   5.953
 8604SOL    HW226712   1.653   5.089   6.035
 8605SOL     OW26713   0.492   5.313   4.241
 8605SOL    HW126714   0.497   5.338   4.144
 8605SOL    HW226715   0.463   5.218   4.250
 8606SOL     OW26716   1.763   2.133   0.526
 8606SOL    HW126717   1.748   2.120   0.624
 8606SOL    HW226718   1.769   2.044   0.481
 8607SOL     OW26719   1.847   3.639   1.210
 8607SOL    HW126720   1.896   3.615   1.294
 8607SOL    HW226721   1.849   3.562   1.147
 8608SOL     OW26722   1.992   6.045   2.871
 8608SOL    HW126723   1.908   6.076   2.914
 8608SOL    HW226724   2.042   6.123   2.834
 8609SOL     OW26725   4.331   1.757   4.786
 8609SOL    HW126726   4.324   1.785   4.690
 8609SOL    HW226727   4.279   1.821   4.843
 8610SOL     OW26728   0.430   6.044   3.223
 8610SOL    HW126729   0.472   6.133   3.240
 8610SOL    HW226730   0.333   6.057   3.203
 8611SOL     OW26731   2.287   1.162   5.152
 8611SOL    HW126732   2.206   1.130   5.102
 8611SOL    HW226733   2.369   1.138   5.101
 8612SOL     OW26734   3.001   3.219   4.221
 8612SOL    HW126735   3.028   3.124   4.204
 8612SOL    HW226736   2.984   3.231   4.318
 8613SOL     OW26737   4.022   3.096   2.728
 8613SOL    HW126738   3.955   3.067   2.660
 8613SOL    HW226739   4.066   3.015   2.767
 8614SOL     OW26740   0.771   2.425   3.086
 8614SOL    HW126741   0.828   2.450   3.164
 8614SOL    HW226742   0.758   2.326   3.085
 8615SOL     OW26743   3.615   1.992   5.621
 8615SOL    HW126744   3.544   2.018   5.555
 8615SOL    HW226745   3.684   2.064   5.625
 8616SOL     OW26746   5.428   3.938   3.714
 8616SOL    HW126747   5.516   3.956   3.671
 8616SOL    HW226748   5.436   3.862   3.778
 8617SOL     OW26749   2.220   0.456   3.519
 8617SOL    HW126750   2.307   0.498   3.495
 8617SOL    HW226751   2.194   0.482   3.612
 8618SOL     OW26752   5.488   4.282   1.389
 8618SOL    HW126753   5.563   4.337   1.351
 8618SOL    HW226754   5.499   4.276   1.488
 8619SOL     OW26755   5.385   5.303   0.695
 8619SOL    HW126756   5.380   5.285   0.597
 8619SOL    HW226757   5.393   5.216   0.744
 8620SOL     OW26758   2.184   0.160   4.277
 8620SOL    HW126759   2.187   0.064   4.306
 8620SOL    HW226760   2.098   0.201   4.307
 8621SOL     OW26761   5.462   3.790   1.204
 8621SOL    HW126762   5.390   3.763   1.140
 8621SOL    HW226763   5.459   3.731   1.284
 8622SOL     OW26764   0.109   4.941   2.427
 8622SOL    HW126765   0.196   4.959   2.380
 8622SOL    HW226766   0.039   5.003   2.393
 8623SOL     OW26767   1.679   2.669   4.087
 8623SOL    HW126768   1.777   2.676   4.068
 8623SOL    HW226769   1.631   2.742   4.039
 8624SOL     OW26770   3.448   3.796   4.757
 8624SOL    HW126771   3.501   3.717   4.729
 8624SOL    HW226772   3.381   3.819   4.686
 8625SOL     OW26773   3.599   2.908   5.446
 8625SOL    HW126774   3.509   2.879   5.412
 8625SOL    HW226775   3.608   2.883   5.542
 8626SOL     OW26776   4.159   2.411   1.392
 8626SOL    HW126777   4.084   2.378   1.335
 8626SOL    HW226778   4.124   2.440   1.481
 8627SOL     OW26779   2.170   1.414   2.465
 8627SOL    HW126780   2.157   1.488   2.399
 8627SOL    HW226781   2.098   1.418   2.534
 8628SOL     OW26782   0.975   6.416   0.854
 8628SOL    HW126783   1.005   6.322   0.868
 8628SOL    HW226784   0.922   6.446   0.934
 8629SOL     OW26785   0.599   6.433   4.654
 8629SOL    HW126786   0.674   6.379   4.694
 8629SOL    HW226787   0.513   6.384   4.665
 8630SOL     OW26788   4.824   2.810   2.166
 8630SOL    HW126789   4.802   2.850   2.255
 8630SOL    HW226790   4.817   2.880   2.095
 8631SOL     OW26791   2.430   5.758   6.153
 8631SOL    HW126792   2.365   5.798   6.217
 8631SOL    HW226793   2.481   5.685   6.198
 8632SOL     OW26794   5.661   5.971   4.115
 8632SOL    HW126795   5.654   5.951   4.213
 8632SOL    HW226796   5.712   6.057   4.103
 8633SOL     OW26797   5.741   3.614   4.830
 8633SOL    HW126798   5.711   3.589   4.922
 8633SOL    HW226799   5.695   3.557   4.762
 8634SOL     OW26800   4.961   4.109   0.240
 8634SOL    HW126801   4.938   4.023   0.284
 8634SOL    HW226802   4.879   4.152   0.204
 8635SOL     OW26803   5.261   2.286   6.782
 8635SOL    HW126804   5.350   2.308   6.742
 8635SOL    HW226805   5.221   2.208   6.734
 8636SOL     OW26806   5.030   6.531   1.598
 8636SOL    HW126807   5.010   6.612   1.653
 8636SOL    HW226808   4.972   6.531   1.517
 8637SOL     OW26809   1.846   1.966   5.968
 8637SOL    HW126810   1.891   2.054   5.984
 8637SOL    HW226811   1.905   1.892   6.002
 8638SOL     OW26812   4.796   2.818   3.690
 8638SOL    HW126813   4.744   2.775   3.616
 8638SOL    HW226814   4.854   2.890   3.652
 8639SOL     OW26815   3.580   3.747   0.045
 8639SOL    HW126816   3.639   3.666   0.050
 8639SOL    HW226817   3.560   3.780   0.137
 8640SOL     OW26818   3.337   2.742   1.111
 8640SOL    HW126819   3.359   2.767   1.016
 8640SOL    HW226820   3.355   2.645   1.124
 8641SOL     OW26821   4.006   4.779   2.316
 8641SOL    HW126822   4.096   4.759   2.355
 8641SOL    HW226823   3.936   4.767   2.386
 8642SOL     OW26824   0.895   5.713   2.756
 8642SOL    HW126825   0.806   5.751   2.733
 8642SOL    HW226826   0.967   5.778   2.731
 8643SOL     OW26827   4.013   6.995   1.115
 8643SOL    HW126828   4.022   0.009   1.024
 8643SOL    HW226829   3.934   0.008   1.161
 8644SOL     OW26830   6.382   2.647   6.141
 8644SOL    HW126831   6.336   2.560   6.125
 8644SOL    HW226832   6.480   2.637   6.125
 8645SOL     OW26833   6.193   5.984   3.237
 8645SOL    HW126834   6.102   5.974   3.277
 8645SOL    HW226835   6.190   5.962   3.140
 8646SOL     OW26836   6.698   2.645   4.922
 8646SOL    HW126837   6.706   2.587   5.002
 8646SOL    HW226838   6.602   2.661   4.901
 8647SOL     OW26839   2.026   5.677   1.999
 8647SOL    HW126840   1.952   5.662   1.934
 8647SOL    HW226841   2.097   5.733   1.957
 8648SOL     OW26842   5.067   5.358   0.372
 8648SOL    HW126843   5.098   5.438   0.424
 8648SOL    HW226844   5.110   5.358   0.282
 8649SOL     OW26845   5.376   1.264   1.176
 8649SOL    HW126846   5.377   1.168   1.151
 8649SOL    HW226847   5.469   1.301   1.171
 8650SOL     OW26848   2.216   7.017   5.648
 8650SOL    HW126849   2.160   0.037   5.579
 8650SOL    HW226850   2.231   0.053   5.725
 8651SOL     OW26851   4.255   2.616   1.705
 8651SOL    HW126852   4.168   2.577   1.676
 8651SOL    HW226853   4.317   2.543   1.734
 8652SOL     OW26854   1.038   2.685   3.291
 8652SOL    HW126855   0.959   2.645   3.338
 8652SOL    HW226856   1.053   2.638   3.204
 8653SOL     OW26857   5.961   1.920   6.284
 8653SOL    HW126858   5.972   1.836   6.230
 8653SOL    HW226859   5.910   1.900   6.367
 8654SOL     OW26860   0.459   4.046   2.367
 8654SOL    HW126861   0.419   4.070   2.455
 8654SOL    HW226862   0.543   3.994   2.381
 8655SOL     OW26863   0.529   0.277   4.721
 8655SOL    HW126864   0.499   0.372   4.705
 8655SOL    HW226865   0.531   0.228   4.634
 8656SOL     OW26866   5.467   6.624   1.219
 8656SOL    HW126867   5.426   6.537   1.246
 8656SOL    HW226868   5.562   6.609   1.192
 8657SOL     OW26869   3.470   1.956   3.647
 8657SOL    HW126870   3.486   1.865   3.685
 8657SOL    HW226871   3.403   2.005   3.703
 8658SOL     OW26872   5.310   4.631   1.581
 8658SOL    HW126873   5.277   4.542   1.612
 8658SOL    HW226874   5.250   4.703   1.617
 8659SOL     OW26875   3.583   0.773   1.931
 8659SOL    HW126876   3.599   0.720   2.014
 8659SOL    HW226877   3.623   0.864   1.941
 8660SOL     OW26878   0.183   4.907   2.124
 8660SOL    HW126879   0.251   4.944   2.188
 8660SOL    HW226880   0.190   4.955   2.037
 8661SOL     OW26881   6.973   3.772   2.521
 8661SOL    HW126882   6.918   3.690   2.507
 8661SOL    HW226883   6.979   3.823   2.435
 8662SOL     OW26884   1.882   2.937   2.996
 8662SOL    HW126885   1.861   3.035   2.985
 8662SOL    HW226886   1.876   2.892   2.907
 8663SOL     OW26887   3.791   4.864   2.754
 8663SOL    HW126888   3.754   4.861   2.662
 8663SOL    HW226889   3.715   4.874   2.820
 8664SOL     OW26890   4.182   6.387   3.385
 8664SOL    HW126891   4.105   6.377   3.448
 8664SOL    HW226892   4.151   6.371   3.292
 8665SOL     OW26893   4.923   3.656   6.720
 8665SOL    HW126894   4.979   3.610   6.789
 8665SOL    HW226895   4.981   3.717   6.666
 8666SOL     OW26896   4.400   6.715   2.894
 8666SOL    HW126897   4.357   6.625   2.887
 8666SOL    HW226898   4.499   6.705   2.900
 8667SOL     OW26899   5.524   2.275   2.546
 8667SOL    HW126900   5.477   2.348   2.595
 8667SOL    HW226901   5.458   2.223   2.492
 8668SOL     OW26902   5.044   2.356   5.217
 8668SOL    HW126903   5.055   2.261   5.247
 8668SOL    HW226904   4.947   2.375   5.203
 8669SOL     OW26905   6.027   6.456   6.003
 8669SOL    HW126906   6.108   6.426   5.953
 8669SOL    HW226907   6.027   6.414   6.094
 8670SOL     OW26908   6.340   4.967   5.365
 8670SOL    HW126909   6.278   4.942   5.440
 8670SOL    HW226910   6.414   4.900   5.360
 8671SOL     OW26911   0.124   3.290   2.766
 8671SOL    HW126912   0.029   3.320   2.756
 8671SOL    HW226913   0.126   3.199   2.810
 8672SOL     OW26914   0.209   1.055   2.434
 8672SOL    HW126915   0.308   1.069   2.444
 8672SOL    HW226916   0.163   1.143   2.428
 8673SOL     OW26917   1.212   1.753   0.957
 8673SOL    HW126918   1.279   1.827   0.958
 8673SOL    HW226919   1.135   1.777   1.016
 8674SOL     OW26920   0.007   3.912   3.096
 8674SOL    HW126921   6.985   3.825   3.107
 8674SOL    HW226922   0.105   3.894   3.087
 8675SOL     OW26923   4.237   2.254   4.865
 8675SOL    HW126924   4.322   2.202   4.867
 8675SOL    HW226925   4.240   2.327   4.933
 8676SOL     OW26926   5.177   1.527   0.585
 8676SOL    HW126927   5.088   1.516   0.542
 8676SOL    HW226928   5.173   1.492   0.679
 8677SOL     OW26929   2.358   6.857   6.075
 8677SOL    HW126930   2.289   6.789   6.046
 8677SOL    HW226931   2.379   6.917   5.998
 8678SOL     OW26932   2.539   2.490   0.277
 8678SOL    HW126933   2.552   2.573   0.330
 8678SOL    HW226934   2.553   2.510   0.180
 8679SOL     OW26935   1.353   1.684   6.104
 8679SOL    HW126936   1.326   1.588   6.114
 8679SOL    HW226937   1.446   1.689   6.067
 8680SOL     OW26938   0.154   0.522   0.195
 8680SOL    HW126939   0.221   0.596   0.189
 8680SOL    HW226940   0.202   0.434   0.191
 8681SOL     OW26941   4.850   5.727   0.924
 8681SOL    HW126942   4.809   5.771   0.844
 8681SOL    HW226943   4.949   5.723   0.914
 8682SOL     OW26944   2.184   0.714   2.435
 8682SOL    HW126945   2.220   0.707   2.528
 8682SOL    HW226946   2.116   0.642   2.420
 8683SOL     OW26947   2.403   4.321   4.407
 8683SOL    HW126948   2.392   4.290   4.501
 8683SOL    HW226949   2.357   4.256   4.346
 8684SOL     OW26950   2.283   4.173   3.738
 8684SOL    HW126951   2.277   4.134   3.830
 8684SOL    HW226952   2.201   4.226   3.719
 8685SOL     OW26953   4.659   2.639   4.651
 8685SOL    HW126954   4.660   2.719   4.710
 8685SOL    HW226955   4.665   2.556   4.706
 8686SOL     OW26956   1.445   5.481   3.247
 8686SOL    HW126957   1.379   5.406   3.254
 8686SOL    HW226958   1.509   5.476   3.323
 8687SOL     OW26959   5.558   4.722   4.953
 8687SOL    HW126960   5.461   4.727   4.978
 8687SOL    HW226961   5.571   4.759   4.861
 8688SOL     OW26962   1.402   3.948   5.061
 8688SOL    HW126963   1.363   3.877   5.001
 8688SOL    HW226964   1.331   3.982   5.123
 8689SOL     OW26965   4.133   3.063   0.706
 8689SOL    HW126966   4.219   3.044   0.659
 8689SOL    HW226967   4.142   3.147   0.760
 8690SOL     OW26968   1.793   1.762   2.279
 8690SOL    HW126969   1.714   1.752   2.219
 8690SOL    HW226970   1.809   1.676   2.327
 8691SOL     OW26971   3.351   2.725   5.882
 8691SOL    HW126972   3.279   2.753   5.818
 8691SOL    HW226973   3.429   2.787   5.874
 8692SOL     OW26974   4.794   2.749   4.428
 8692SOL    HW126975   4.749   2.711   4.510
 8692SOL    HW226976   4.778   2.847   4.424
 8693SOL     OW26977   6.656   6.772   5.810
 8693SOL    HW126978   6.738   6.727   5.845
 8693SOL    HW226979   6.589   6.781   5.883
 8694SOL     OW26980   5.394   2.589   5.488
 8694SOL    HW126981   5.374   2.655   5.560
 8694SOL    HW226982   5.312   2.536   5.467
 8695SOL     OW26983   3.437   5.024   0.855
 8695SOL    HW126984   3.379   5.086   0.907
 8695SOL    HW226985   3.486   5.076   0.784
 8696SOL     OW26986   2.419   5.226   5.827
 8696SOL    HW126987   2.505   5.188   5.792
 8696SOL    HW226988   2.431   5.323   5.846
 8697SOL     OW26989   1.421   3.849   5.367
 8697SOL    HW126990   1.447   3.836   5.462
 8697SOL    HW226991   1.407   3.946   5.348
 8698SOL     OW26992   4.824   5.042   6.360
 8698SOL    HW126993   4.745   4.984   6.338
 8698SOL    HW226994   4.801   5.102   6.436
 8699SOL     OW26995   1.863   2.492   7.020
 8699SOL    HW126996   1.928   2.565   0.016
 8699SOL    HW226997   1.836   2.444   0.077
 8700SOL     OW26998   1.079   1.211   4.365
 8700SOL    HW126999   1.147   1.154   4.411
 8700SOL    HW227000   0.990   1.199   4.408
 8701SOL     OW27001   1.236   3.028   6.970
 8701SOL    HW127002   1.171   2.998   0.012
 8701SOL    HW227003   1.300   3.094   7.010
 8702SOL     OW27004   5.451   4.710   1.022
 8702SOL    HW127005   5.381   4.671   1.082
 8702SOL    HW227006   5.511   4.769   1.075
 8703SOL     OW27007   3.125   5.709   0.910
 8703SOL    HW127008   3.163   5.664   0.829
 8703SOL    HW227009   3.025   5.708   0.904
 8704SOL     OW27010   0.132   0.715   5.002
 8704SOL    HW127011   0.232   0.721   4.996
 8704SOL    HW227012   0.102   0.739   5.095
 8705SOL     OW27013   3.836   2.056   0.063
 8705SOL    HW127014   3.809   2.115   7.013
 8705SOL    HW227015   3.924   2.088   0.099
 8706SOL     OW27016   4.778   2.952   6.507
 8706SOL    HW127017   4.761   2.962   6.605
 8706SOL    HW227018   4.803   3.041   6.469
 8707SOL     OW27019   2.321   1.088   4.285
 8707SOL    HW127020   2.330   1.042   4.197
 8707SOL    HW227021   2.341   1.024   4.359
 8708SOL     OW27022   6.098   2.591   0.820
 8708SOL    HW127023   6.141   2.508   0.856
 8708SOL    HW227024   6.149   2.671   0.850
 8709SOL     OW27025   6.231   6.773   4.968
 8709SOL    HW127026   6.151   6.817   4.928
 8709SOL    HW227027   6.201   6.707   5.037
 8710SOL     OW27028   2.138   1.985   3.453
 8710SOL    HW127029   2.119   2.083   3.451
 8710SOL    HW227030   2.052   1.934   3.459
 8711SOL     OW27031   1.291   1.430   1.663
 8711SOL    HW127032   1.368   1.368   1.676
 8711SOL    HW227033   1.299   1.475   1.574
 8712SOL     OW27034   1.624   4.606   4.500
 8712SOL    HW127035   1.681   4.670   4.551
 8712SOL    HW227036   1.531   4.607   4.537
 8713SOL     OW27037   0.221   3.196   1.395
 8713SOL    HW127038   0.197   3.292   1.389
 8713SOL    HW227039   0.310   3.187   1.440
 8714SOL     OW27040   6.507   4.099   6.514
 8714SOL    HW127041   6.534   4.053   6.599
 8714SOL    HW227042   6.583   4.098   6.450
 8715SOL     OW27043   2.005   4.037   1.558
 8715SOL    HW127044   1.910   4.046   1.528
 8715SOL    HW227045   2.036   4.122   1.600
 8716SOL     OW27046   6.887   0.505   2.559
 8716SOL    HW127047   6.815   0.496   2.628
 8716SOL    HW227048   6.977   0.497   2.602
 8717SOL     OW27049   3.111   3.022   0.431
 8717SOL    HW127050   3.096   3.023   0.332
 8717SOL    HW227051   3.200   2.982   0.451
 8718SOL     OW27052   2.847   5.212   6.477
 8718SOL    HW127053   2.832   5.256   6.388
 8718SOL    HW227054   2.924   5.148   6.470
 8719SOL     OW27055   3.610   1.141   4.609
 8719SOL    HW127056   3.526   1.157   4.556
 8719SOL    HW227057   3.652   1.055   4.579
 8720SOL     OW27058   0.456   5.667   4.558
 8720SOL    HW127059   0.545   5.633   4.588
 8720SOL    HW227060   0.386   5.598   4.577
 8721SOL     OW27061   0.146   6.567   0.095
 8721SOL    HW127062   0.177   6.553   0.001
 8721SOL    HW227063   0.047   6.583   0.096
 8722SOL     OW27064   3.116   1.165   1.098
 8722SOL    HW127065   3.112   1.068   1.122
 8722SOL    HW227066   3.023   1.199   1.080
 8723SOL     OW27067   3.937   6.861   1.846
 8723SOL    HW127068   3.852   6.838   1.894
 8723SOL    HW227069   4.013   6.810   1.886
 8724SOL     OW27070   3.973   1.537   5.133
 8724SOL    HW127071   3.955   1.634   5.115
 8724SOL    HW227072   3.925   1.509   5.216
 8725SOL     OW27073   6.969   0.404   3.758
 8725SOL    HW127074   6.936   0.435   3.668
 8725SOL    HW227075   7.002   0.310   3.751
 8726SOL     OW27076   6.391   1.166   1.021
 8726SOL    HW127077   6.481   1.149   1.062
 8726SOL    HW227078   6.357   1.082   0.980
 8727SOL     OW27079   5.210   6.019   0.227
 8727SOL    HW127080   5.153   6.083   0.174
 8727SOL    HW227081   5.205   5.928   0.186
 8728SOL     OW27082   6.550   0.523   4.961
 8728SOL    HW127083   6.523   0.615   4.989
 8728SOL    HW227084   6.585   0.473   5.041
 8729SOL     OW27085   5.764   5.796   6.431
 8729SOL    HW127086   5.777   5.891   6.459
 8729SOL    HW227087   5.752   5.739   6.513
 8730SOL     OW27088   4.700   5.281   1.251
 8730SOL    HW127089   4.714   5.359   1.190
 8730SOL    HW227090   4.672   5.313   1.342
 8731SOL     OW27091   0.095   1.512   3.987
 8731SOL    HW127092   0.125   1.431   3.937
 8731SOL    HW227093   0.025   1.559   3.934
 8732SOL     OW27094   5.266   6.658   6.382
 8732SOL    HW127095   5.201   6.700   6.446
 8732SOL    HW227096   5.219   6.588   6.329
 8733SOL     OW27097   6.437   4.315   2.367
 8733SOL    HW127098   6.396   4.368   2.294
 8733SOL    HW227099   6.532   4.294   2.345
 8734SOL     OW27100   1.006   4.379   1.027
 8734SOL    HW127101   0.979   4.455   1.086
 8734SOL    HW227102   1.034   4.301   1.083
 8735SOL     OW27103   0.619   3.019   5.107
 8735SOL    HW127104   0.682   3.097   5.108
 8735SOL    HW227105   0.650   2.951   5.173
 8736SOL     OW27106   1.752   5.946   3.159
 8736SOL    HW127107   1.753   5.854   3.198
 8736SOL    HW227108   1.800   6.009   3.221
 8737SOL     OW27109   1.042   5.826   0.153
 8737SOL    HW127110   0.961   5.877   0.123
 8737SOL    HW227111   1.060   5.752   0.088
 8738SOL     OW27112   1.552   2.883   2.720
 8738SOL    HW127113   1.504   2.896   2.808
 8738SOL    HW227114   1.650   2.891   2.735
 8739SOL     OW27115   5.870   4.866   4.028
 8739SOL    HW127116   5.860   4.851   3.929
 8739SOL    HW227117   5.825   4.951   4.053
 8740SOL     OW27118   3.530   1.598   4.042
 8740SOL    HW127119   3.603   1.541   4.003
 8740SOL    HW227120   3.571   1.671   4.097
 8741SOL     OW27121   1.255   1.409   2.822
 8741SOL    HW127122   1.349   1.398   2.790
 8741SOL    HW227123   1.195   1.423   2.743
 8742SOL     OW27124   2.642   2.437   1.811
 8742SOL    HW127125   2.635   2.343   1.777
 8742SOL    HW227126   2.739   2.463   1.814
 8743SOL     OW27127   0.837   2.511   0.942
 8743SOL    HW127128   0.922   2.480   0.986
 8743SOL    HW227129   0.781   2.560   1.009
 8744SOL     OW27130   3.388   3.715   5.638
 8744SOL    HW127131   3.310   3.663   5.672
 8744SOL    HW227132   3.447   3.741   5.715
 8745SOL     OW27133   6.002   1.710   6.133
 8745SOL    HW127134   5.955   1.622   6.137
 8745SOL    HW227135   6.008   1.740   6.037
 8746SOL     OW27136   4.179   4.704   5.293
 8746SOL    HW127137   4.176   4.761   5.375
 8746SOL    HW227138   4.086   4.676   5.269
 8747SOL     OW27139   1.534   0.598   3.229
 8747SOL    HW127140   1.570   0.689   3.209
 8747SOL    HW227141   1.462   0.604   3.298
 8748SOL     OW27142   5.161   1.851   4.437
 8748SOL    HW127143   5.223   1.924   4.409
 8748SOL    HW227144   5.104   1.883   4.513
 8749SOL     OW27145   2.865   1.377   4.443
 8749SOL    HW127146   2.880   1.324   4.359
 8749SOL    HW227147   2.938   1.445   4.452
 8750SOL     OW27148   3.850   4.063   0.992
 8750SOL    HW127149   3.840   3.970   1.026
 8750SOL    HW227150   3.915   4.114   1.049
 8751SOL     OW27151   2.979   0.037   0.293
 8751SOL    HW127152   2.927   6.997   0.240
 8751SOL    HW227153   2.963   0.023   0.390
 8752SOL     OW27154   7.009   2.935   5.539
 8752SOL    HW127155   0.040   2.955   5.619
 8752SOL    HW227156   6.992   3.020   5.489
 8753SOL     OW27157   2.392   2.434   0.800
 8753SOL    HW127158   2.294   2.423   0.787
 8753SOL    HW227159   2.436   2.344   0.800
 8754SOL     OW27160   0.832   5.624   6.849
 8754SOL    HW127161   0.853   5.550   6.913
 8754SOL    HW227162   0.857   5.596   6.756
 8755SOL     OW27163   0.406   2.822   2.120
 8755SOL    HW127164   0.364   2.771   2.195
 8755SOL    HW227165   0.495   2.782   2.098
 8756SOL     OW27166   1.886   1.495   2.344
 8756SOL    HW127167   1.947   1.499   2.265
 8756SOL    HW227168   1.859   1.400   2.360
 8757SOL     OW27169   5.555   6.175   5.638
 8757SOL    HW127170   5.493   6.248   5.669
 8757SOL    HW227171   5.589   6.124   5.717
 8758SOL     OW27172   3.378   5.573   5.652
 8758SOL    HW127173   3.470   5.554   5.688
 8758SOL    HW227174   3.313   5.574   5.728
 8759SOL     OW27175   6.235   1.583   1.522
 8759SOL    HW127176   6.248   1.616   1.429
 8759SOL    HW227177   6.290   1.638   1.585
 8760SOL     OW27178   2.599   2.498   4.190
 8760SOL    HW127179   2.504   2.530   4.185
 8760SOL    HW227180   2.624   2.485   4.286
 8761SOL     OW27181   4.788   1.864   2.678
 8761SOL    HW127182   4.799   1.769   2.650
 8761SOL    HW227183   4.869   1.893   2.730
 8762SOL     OW27184   3.453   6.003   3.688
 8762SOL    HW127185   3.490   5.952   3.766
 8762SOL    HW227186   3.379   5.952   3.646
 8763SOL     OW27187   0.314   0.752   6.524
 8763SOL    HW127188   0.344   0.664   6.561
 8763SOL    HW227189   0.230   0.780   6.570
 8764SOL     OW27190   3.526   4.897   5.849
 8764SOL    HW127191   3.564   4.903   5.941
 8764SOL    HW227192   3.441   4.843   5.852
 8765SOL     OW27193   4.287   0.031   3.621
 8765SOL    HW127194   4.341   0.025   3.537
 8765SOL    HW227195   4.347   0.012   3.700
 8766SOL     OW27196   4.831   6.790   5.354
 8766SOL    HW127197   4.836   6.735   5.271
 8766SOL    HW227198   4.877   6.741   5.429
 8767SOL     OW27199   1.471   1.583   3.360
 8767SOL    HW127200   1.545   1.515   3.366
 8767SOL    HW227201   1.454   1.606   3.264
 8768SOL     OW27202   0.012   2.046   6.633
 8768SOL    HW127203   6.984   2.116   6.678
 8768SOL    HW227204   6.979   1.985   6.580
 8769SOL     OW27205   6.125   6.839   6.433
 8769SOL    HW127206   6.098   6.930   6.402
 8769SOL    HW227207   6.082   6.819   6.521
 8770SOL     OW27208   5.426   2.376   0.209
 8770SOL    HW127209   5.339   2.351   0.165
 8770SOL    HW227210   5.418   2.362   0.308
 8771SOL     OW27211   0.405   2.893   6.679
 8771SOL    HW127212   0.485   2.876   6.738
 8771SOL    HW227213   0.346   2.812   6.679
 8772SOL     OW27214   0.207   0.302   4.630
 8772SOL    HW127215   0.187   0.398   4.648
 8772SOL    HW227216   0.303   0.282   4.653
 8773SOL     OW27217   0.062   1.074   3.957
 8773SOL    HW127218   0.099   1.149   3.902
 8773SOL    HW227219   0.096   1.081   4.051
 8774SOL     OW27220   1.180   1.747   0.024
 8774SOL    HW127221   1.183   1.648   0.011
 8774SOL    HW227222   1.256   1.789   7.002
 8775SOL     OW27223   5.307   2.743   3.598
 8775SOL    HW127224   5.231   2.772   3.657
 8775SOL    HW227225   5.340   2.821   3.545
 8776SOL     OW27226   4.578   2.864   0.986
 8776SOL    HW127227   4.500   2.801   0.989
 8776SOL    HW227228   4.618   2.864   0.895
 8777SOL     OW27229   0.161   2.088   3.701
 8777SOL    HW127230   0.141   2.014   3.637
 8777SOL    HW227231   0.188   2.049   3.790
 8778SOL     OW27232   3.063   4.049   6.677
 8778SOL    HW127233   3.087   3.983   6.748
 8778SOL    HW227234   3.131   4.123   6.676
 8779SOL     OW27235   4.268   4.996   2.841
 8779SOL    HW127236   4.233   4.903   2.848
 8779SOL    HW227237   4.360   5.000   2.877
 8780SOL     OW27238   1.022   3.982   3.584
 8780SOL    HW127239   1.083   4.045   3.536
 8780SOL    HW227240   0.957   3.941   3.519
 8781SOL     OW27241   2.648   0.882   1.397
 8781SOL    HW127242   2.685   0.948   1.331
 8781SOL    HW227243   2.647   0.923   1.488
 8782SOL     OW27244   6.039   2.551   0.550
 8782SOL    HW127245   6.069   2.574   0.642
 8782SOL    HW227246   6.004   2.457   0.549
 8783SOL     OW27247   4.925   4.308   4.953
 8783SOL    HW127248   4.860   4.252   4.900
 8783SOL    HW227249   4.889   4.321   5.045
 8784SOL     OW27250   4.736   0.690   0.126
 8784SOL    HW127251   4.654   0.714   0.178
 8784SOL    HW227252   4.729   0.728   0.033
 8785SOL     OW27253   7.003   5.628   5.004
 8785SOL    HW127254   0.044   5.647   4.933
 8785SOL    HW227255   0.012   5.657   5.093
 8786SOL     OW27256   5.891   1.646   2.571
 8786SOL    HW127257   5.981   1.675   2.602
 8786SOL    HW227258   5.878   1.549   2.592
 8787SOL     OW27259   3.424   5.717   1.672
 8787SOL    HW127260   3.443   5.620   1.655
 8787SOL    HW227261   3.331   5.738   1.640
 8788SOL     OW27262   0.501   6.589   4.189
 8788SOL    HW127263   0.597   6.612   4.171
 8788SOL    HW227264   0.447   6.606   4.107
 8789SOL     OW27265   1.350   2.040   5.765
 8789SOL    HW127266   1.374   2.113   5.829
 8789SOL    HW227267   1.293   1.972   5.811
 8790SOL     OW27268   4.136   2.952   5.485
 8790SOL    HW127269   4.209   2.997   5.434
 8790SOL    HW227270   4.052   3.006   5.478
 8791SOL     OW27271   3.593   6.296   4.607
 8791SOL    HW127272   3.607   6.241   4.525
 8791SOL    HW227273   3.638   6.252   4.685
 8792SOL     OW27274   5.737   5.108   2.448
 8792SOL    HW127275   5.713   5.045   2.522
 8792SOL    HW227276   5.662   5.172   2.433
 8793SOL     OW27277   6.865   6.290   5.163
 8793SOL    HW127278   6.867   6.258   5.068
 8793SOL    HW227279   6.887   6.387   5.166
 8794SOL     OW27280   6.949   1.250   2.683
 8794SOL    HW127281   6.886   1.184   2.643
 8794SOL    HW227282   6.940   1.338   2.636
 8795SOL     OW27283   0.899   6.571   0.017
 8795SOL    HW127284   0.850   6.527   6.968
 8795SOL    HW227285   0.977   6.622   7.008
 8796SOL     OW27286   5.930   3.704   4.417
 8796SOL    HW127287   5.969   3.793   4.442
 8796SOL    HW227288   6.003   3.644   4.385
 8797SOL     OW27289   4.424   6.769   4.349
 8797SOL    HW127290   4.472   6.762   4.436
 8797SOL    HW227291   4.355   6.697   4.343
 8798SOL     OW27292   2.700   6.595   5.926
 8798SOL    HW127293   2.790   6.608   5.883
 8798SOL    HW227294   2.640   6.545   5.864
 8799SOL     OW27295   1.841   5.784   1.811
 8799SOL    HW127296   1.818   5.874   1.848
 8799SOL    HW227297   1.892   5.795   1.726
 8800SOL     OW27298   6.214   6.233   4.908
 8800SOL    HW127299   6.130   6.286   4.906
 8800SOL    HW227300   6.292   6.294   4.925
 8801SOL     OW27301   5.741   3.151   5.333
 8801SOL    HW127302   5.711   3.070   5.283
 8801SOL    HW227303   5.693   3.156   5.420
 8802SOL     OW27304   1.226   6.035   6.500
 8802SOL    HW127305   1.318   6.003   6.474
 8802SOL    HW227306   1.158   5.973   6.461
 8803SOL     OW27307   5.841   6.122   5.782
 8803SOL    HW127308   5.846   6.054   5.709
 8803SOL    HW227309   5.885   6.087   5.864
 8804SOL     OW27310   1.448   5.941   1.635
 8804SOL    HW127311   1.389   5.966   1.557
 8804SOL    HW227312   1.512   5.870   1.607
 8805SOL     OW27313   4.988   4.895   3.429
 8805SOL    HW127314   5.058   4.887   3.359
 8805SOL    HW227315   4.948   4.806   3.447
 8806SOL     OW27316   1.127   6.995   1.603
 8806SOL    HW127317   1.083   6.905   1.604
 8806SOL    HW227318   1.090   0.025   1.677
 8807SOL     OW27319   6.064   3.001   0.558
 8807SOL    HW127320   6.023   3.079   0.606
 8807SOL    HW227321   5.992   2.936   0.534
 8808SOL     OW27322   1.858   2.432   6.243
 8808SOL    HW127323   1.759   2.423   6.245
 8808SOL    HW227324   1.899   2.358   6.296
 8809SOL     OW27325   7.025   3.520   3.031
 8809SOL    HW127326   0.086   3.477   3.053
 8809SOL    HW227327   6.952   3.454   3.043
 8810SOL     OW27328   0.474   1.527   5.054
 8810SOL    HW127329   0.435   1.453   5.000
 8810SOL    HW227330   0.475   1.611   5.000
 8811SOL     OW27331   4.202   4.721   2.474
 8811SOL    HW127332   4.280   4.686   2.527
 8811SOL    HW227333   4.188   4.818   2.495
 8812SOL     OW27334   5.137   1.020   6.868
 8812SOL    HW127335   5.116   0.963   6.788
 8812SOL    HW227336   5.128   0.965   6.951
 8813SOL     OW27337   2.074   3.325   2.949
 8813SOL    HW127338   2.084   3.415   2.992
 8813SOL    HW227339   2.072   3.254   3.019
 8814SOL     OW27340   4.914   0.115   5.053
 8814SOL    HW127341   5.004   0.075   5.039
 8814SOL    HW227342   4.849   0.073   4.990
 8815SOL     OW27343   5.769   0.910   1.366
 8815SOL    HW127344   5.683   0.938   1.323
 8815SOL    HW227345   5.749   0.862   1.451
 8816SOL     OW27346   1.033   6.459   4.578
 8816SOL    HW127347   0.966   6.478   4.649
 8816SOL    HW227348   0.997   6.389   4.516
 8817SOL     OW27349   1.343   2.840   3.270
 8817SOL    HW127350   1.286   2.827   3.351
 8817SOL    HW227351   1.284   2.851   3.190
 8818SOL     OW27352   0.941   6.959   6.368
 8818SOL    HW127353   0.949   6.887   6.437
 8818SOL    HW227354   1.008   0.004   6.388
 8819SOL     OW27355   4.463   5.213   6.216
 8819SOL    HW127356   4.477   5.266   6.300
 8819SOL    HW227357   4.386   5.249   6.165
 8820SOL     OW27358   4.545   6.782   5.726
 8820SOL    HW127359   4.539   6.713   5.798
 8820SOL    HW227360   4.570   6.739   5.640
 8821SOL     OW27361   0.210   4.508   6.229
 8821SOL    HW127362   0.277   4.485   6.159
 8821SOL    HW227363   0.123   4.534   6.186
 8822SOL     OW27364   6.440   0.478   5.229
 8822SOL    HW127365   6.452   0.540   5.307
 8822SOL    HW227366   6.350   0.491   5.189
 8823SOL     OW27367   3.487   1.719   3.107
 8823SOL    HW127368   3.457   1.803   3.061
 8823SOL    HW227369   3.510   1.740   3.202
 8824SOL     OW27370   1.931   0.069   3.115
 8824SOL    HW127371   1.958   0.062   3.211
 8824SOL    HW227372   1.833   0.091   3.110
 8825SOL     OW27373   0.132   0.135   0.439
 8825SOL    HW127374   0.083   0.113   0.524
 8825SOL    HW227375   0.181   0.053   0.407
 8826SOL     OW27376   0.154   4.823   1.233
 8826SOL    HW127377   0.145   4.765   1.152
 8826SOL    HW227378   0.237   4.798   1.283
 8827SOL     OW27379   4.491   6.981   3.116
 8827SOL    HW127380   4.562   7.016   3.055
 8827SOL    HW227381   4.402   6.991   3.071
 8828SOL     OW27382   4.987   2.250   6.446
 8828SOL    HW127383   5.012   2.346   6.458
 8828SOL    HW227384   4.906   2.243   6.389
 8829SOL     OW27385   0.281   1.061   2.992
 8829SOL    HW127386   0.196   1.092   3.037
 8829SOL    HW227387   0.259   0.999   2.918
 8830SOL     OW27388   3.254   0.548   3.646
 8830SOL    HW127389   3.350   0.524   3.630
 8830SOL    HW227390   3.195   0.478   3.606
 8831SOL     OW27391   0.313   3.076   2.364
 8831SOL    HW127392   0.288   3.155   2.419
 8831SOL    HW227393   0.323   3.103   2.268
 8832SOL     OW27394   5.700   0.231   6.069
 8832SOL    HW127395   5.652   0.319   6.071
 8832SOL    HW227396   5.668   0.174   6.145
 8833SOL     OW27397   4.738   2.000   0.997
 8833SOL    HW127398   4.829   2.028   1.030
 8833SOL    HW227399   4.698   2.075   0.945
 8834SOL     OW27400   5.823   4.231   5.940
 8834SOL    HW127401   5.762   4.205   6.014
 8834SOL    HW227402   5.849   4.149   5.888
 8835SOL     OW27403   6.895   0.487   5.431
 8835SOL    HW127404   6.991   0.473   5.408
 8835SOL    HW227405   6.849   0.399   5.436
 8836SOL     OW27406   4.651   1.408   1.387
 8836SOL    HW127407   4.727   1.455   1.433
 8836SOL    HW227408   4.566   1.426   1.437
 8837SOL     OW27409   4.696   6.553   0.885
 8837SOL    HW127410   4.771   6.605   0.926
 8837SOL    HW227411   4.625   6.537   0.954
 8838SOL     OW27412   1.821   3.691   3.553
 8838SOL    HW127413   1.891   3.622   3.573
 8838SOL    HW227414   1.749   3.687   3.623
 8839SOL     OW27415   4.969   6.106   1.570
 8839SOL    HW127416   5.049   6.058   1.533
 8839SOL    HW227417   4.960   6.085   1.668
 8840SOL     OW27418   6.431   1.059   0.660
 8840SOL    HW127419   6.473   0.968   0.663
 8840SOL    HW227420   6.501   1.127   0.641
 8841SOL     OW27421   3.274   1.604   0.488
 8841SOL    HW127422   3.338   1.529   0.470
 8841SOL    HW227423   3.286   1.635   0.582
 8842SOL     OW27424   3.367   3.433   4.222
 8842SOL    HW127425   3.334   3.397   4.135
 8842SOL    HW227426   3.380   3.358   4.287
 8843SOL     OW27427   2.262   5.531   5.671
 8843SOL    HW127428   2.276   5.605   5.737
 8843SOL    HW227429   2.171   5.540   5.631
 8844SOL     OW27430   3.332   2.396   6.337
 8844SOL    HW127431   3.271   2.462   6.293
 8844SOL    HW227432   3.421   2.440   6.354
 8845SOL     OW27433   0.500   3.325   2.130
 8845SOL    HW127434   0.442   3.244   2.119
 8845SOL    HW227435   0.594   3.296   2.151
 8846SOL     OW27436   5.378   4.642   4.585
 8846SOL    HW127437   5.425   4.571   4.533
 8846SOL    HW227438   5.421   4.730   4.568
 8847SOL     OW27439   1.405   2.408   4.141
 8847SOL    HW127440   1.333   2.339   4.135
 8847SOL    HW227441   1.479   2.384   4.079
 8848SOL     OW27442   5.737   1.553   0.560
 8848SOL    HW127443   5.743   1.600   0.473
 8848SOL    HW227444   5.707   1.458   0.545
 8849SOL     OW27445   3.283   5.165   4.430
 8849SOL    HW127446   3.376   5.168   4.394
 8849SOL    HW227447   3.278   5.101   4.506
 8850SOL     OW27448   3.181   1.405   1.544
 8850SOL    HW127449   3.188   1.337   1.470
 8850SOL    HW227450   3.261   1.465   1.542
 8851SOL     OW27451   6.944   5.044   2.800
 8851SOL    HW127452   6.937   5.142   2.780
 8851SOL    HW227453   0.014   5.018   2.804
 8852SOL     OW27454   4.457   2.501   4.480
 8852SOL    HW127455   4.524   2.538   4.545
 8852SOL    HW227456   4.405   2.427   4.525
 8853SOL     OW27457   4.624   1.736   5.721
 8853SOL    HW127458   4.701   1.801   5.726
 8853SOL    HW227459   4.542   1.785   5.690
 8854SOL     OW27460   1.841   1.211   6.612
 8854SOL    HW127461   1.886   1.131   6.573
 8854SOL    HW227462   1.790   1.260   6.541
 8855SOL     OW27463   6.386   4.926   0.120
 8855SOL    HW127464   6.481   4.894   0.122
 8855SOL    HW227465   6.353   4.940   0.214
 8856SOL     OW27466   5.195   1.023   5.154
 8856SOL    HW127467   5.132   1.074   5.212
 8856SOL    HW227468   5.226   0.941   5.202
 8857SOL     OW27469   0.221   2.601   5.024
 8857SOL    HW127470   0.137   2.611   4.971
 8857SOL    HW227471   0.241   2.686   5.072
 8858SOL     OW27472   6.873   4.058   5.794
 8858SOL    HW127473   6.776   4.068   5.772
 8858SOL    HW227474   6.892   4.100   5.882
 8859SOL     OW27475   2.888   5.820   5.498
 8859SOL    HW127476   2.933   5.864   5.420
 8859SOL    HW227477   2.883   5.721   5.483
 8860SOL     OW27478   1.487   2.136   1.338
 8860SOL    HW127479   1.495   2.106   1.433
 8860SOL    HW227480   1.561   2.200   1.317
 8861SOL     OW27481   2.729   3.050   1.235
 8861SOL    HW127482   2.764   2.957   1.233
 8861SOL    HW227483   2.684   3.071   1.148
 8862SOL     OW27484   6.539   2.259   4.937
 8862SOL    HW127485   6.557   2.306   4.851
 8862SOL    HW227486   6.552   2.322   5.013
 8863SOL     OW27487   1.007   5.523   5.285
 8863SOL    HW127488   1.006   5.622   5.302
 8863SOL    HW227489   1.078   5.501   5.218
 8864SOL     OW27490   1.589   3.357   5.992
 8864SOL    HW127491   1.579   3.419   6.070
 8864SOL    HW227492   1.681   3.365   5.954
 8865SOL     OW27493   2.403   1.874   5.593
 8865SOL    HW127494   2.411   1.955   5.535
 8865SOL    HW227495   2.323   1.882   5.652
 8866SOL     OW27496   4.593   6.594   5.920
 8866SOL    HW127497   4.501   6.586   5.957
 8866SOL    HW227498   4.656   6.537   5.973
 8867SOL     OW27499   6.717   1.701   3.456
 8867SOL    HW127500   6.674   1.774   3.509
 8867SOL    HW227501   6.692   1.710   3.360
 8868SOL     OW27502   4.839   3.466   1.099
 8868SOL    HW127503   4.897   3.541   1.066
 8868SOL    HW227504   4.782   3.499   1.174
 8869SOL     OW27505   4.749   2.752   4.086
 8869SOL    HW127506   4.827   2.755   4.148
 8869SOL    HW227507   4.736   2.841   4.042
 8870SOL     OW27508   4.657   1.126   1.692
 8870SOL    HW127509   4.608   1.213   1.685
 8870SOL    HW227510   4.670   1.104   1.789
 8871SOL     OW27511   1.341   2.605   4.495
 8871SOL    HW127512   1.401   2.525   4.494
 8871SOL    HW227513   1.304   2.620   4.404
 8872SOL     OW27514   2.042   2.891   3.203
 8872SOL    HW127515   1.977   2.912   3.130
 8872SOL    HW227516   2.046   2.792   3.218
 8873SOL     OW27517   0.064   6.031   5.048
 8873SOL    HW127518   0.099   6.104   4.989
 8873SOL    HW227519   0.091   6.049   5.143
 8874SOL     OW27520   0.963   1.432   6.918
 8874SOL    HW127521   0.965   1.343   6.874
 8874SOL    HW227522   0.996   1.424   7.012
 8875SOL     OW27523   1.652   1.300   4.049
 8875SOL    HW127524   1.687   1.393   4.050
 8875SOL    HW227525   1.687   1.250   4.128
 8876SOL     OW27526   2.502   1.058   4.986
 8876SOL    HW127527   2.574   1.127   5.000
 8876SOL    HW227528   2.471   1.062   4.891
 8877SOL     OW27529   2.699   6.238   4.336
 8877SOL    HW127530   2.693   6.297   4.416
 8877SOL    HW227531   2.781   6.181   4.341
 8878SOL     OW27532   5.599   4.317   5.469
 8878SOL    HW127533   5.635   4.405   5.439
 8878SOL    HW227534   5.608   4.250   5.395
 8879SOL     OW27535   4.152   5.493   5.125
 8879SOL    HW127536   4.121   5.399   5.114
 8879SOL    HW227537   4.153   5.539   5.036
 8880SOL     OW27538   6.949   6.104   5.685
 8880SOL    HW127539   0.001   6.166   5.680
 8880SOL    HW227540   6.865   6.154   5.662
 8881SOL     OW27541   0.166   0.490   1.643
 8881SOL    HW127542   0.204   0.521   1.731
 8881SOL    HW227543   0.181   0.392   1.633
 8882SOL     OW27544   5.704   2.221   6.368
 8882SOL    HW127545   5.638   2.280   6.320
 8882SOL    HW227546   5.666   2.129   6.374
 8883SOL     OW27547   0.019   1.061   5.609
 8883SOL    HW127548   0.058   1.048   5.518
 8883SOL    HW227549   0.085   1.107   5.668
 8884SOL     OW27550   6.652   0.546   5.642
 8884SOL    HW127551   6.750   0.538   5.627
 8884SOL    HW227552   6.623   0.479   5.710
 8885SOL     OW27553   5.432   3.594   1.392
 8885SOL    HW127554   5.360   3.629   1.451
 8885SOL    HW227555   5.401   3.509   1.349
 8886SOL     OW27556   2.958   6.093   6.563
 8886SOL    HW127557   2.913   6.008   6.534
 8886SOL    HW227558   3.032   6.114   6.500
 8887SOL     OW27559   1.922   0.446   1.240
 8887SOL    HW127560   1.878   0.535   1.230
 8887SOL    HW227561   1.934   0.425   1.337
 8888SOL     OW27562   3.440   1.551   3.654
 8888SOL    HW127563   3.456   1.484   3.582
 8888SOL    HW227564   3.522   1.608   3.665
 8889SOL     OW27565   3.231   6.484   4.718
 8889SOL    HW127566   3.302   6.551   4.741
 8889SOL    HW227567   3.271   6.411   4.662
 8890SOL     OW27568   1.391   4.348   3.762
 8890SOL    HW127569   1.393   4.436   3.715
 8890SOL    HW227570   1.479   4.330   3.805
 8891SOL     OW27571   2.426   1.833   6.734
 8891SOL    HW127572   2.417   1.801   6.828
 8891SOL    HW227573   2.454   1.929   6.733
 8892SOL     OW27574   1.348   6.849   2.420
 8892SOL    HW127575   1.429   6.849   2.478
 8892SOL    HW227576   1.373   6.877   2.328
 8893SOL     OW27577   0.745   1.182   1.103
 8893SOL    HW127578   0.758   1.122   1.182
 8893SOL    HW227579   0.679   1.141   1.040
 8894SOL     OW27580   4.146   2.564   6.322
 8894SOL    HW127581   4.129   2.620   6.241
 8894SOL    HW227582   4.085   2.592   6.396
 8895SOL     OW27583   1.057   0.785   2.104
 8895SOL    HW127584   0.981   0.782   2.169
 8895SOL    HW227585   1.132   0.727   2.137
 8896SOL     OW27586   2.240   4.218   4.934
 8896SOL    HW127587   2.279   4.147   4.993
 8896SOL    HW227588   2.158   4.256   4.976
 8897SOL     OW27589   1.302   1.832   1.267
 8897SOL    HW127590   1.206   1.809   1.284
 8897SOL    HW227591   1.312   1.931   1.259
 8898SOL     OW27592   6.765   3.050   4.643
 8898SOL    HW127593   6.708   3.095   4.711
 8898SOL    HW227594   6.823   2.982   4.687
 8899SOL     OW27595   3.122   4.698   0.335
 8899SOL    HW127596   3.146   4.689   0.238
 8899SOL    HW227597   3.194   4.657   0.391
 8900SOL     OW27598   6.476   1.602   3.080
 8900SOL    HW127599   6.501   1.505   3.089
 8900SOL    HW227600   6.395   1.621   3.135
 8901SOL     OW27601   1.889   6.740   1.668
 8901SOL    HW127602   1.975   6.708   1.707
 8901SOL    HW227603   1.861   6.677   1.595
 8902SOL     OW27604   3.014   5.232   5.458
 8902SOL    HW127605   2.980   5.150   5.504
 8902SOL    HW227606   3.035   5.210   5.363
 8903SOL     OW27607   0.769   1.571   3.672
 8903SOL    HW127608   0.761   1.592   3.770
 8903SOL    HW227609   0.790   1.474   3.660
 8904SOL     OW27610   1.117   5.377   3.558
 8904SOL    HW127611   1.023   5.353   3.584
 8904SOL    HW227612   1.131   5.357   3.461
 8905SOL     OW27613   2.470   4.341   5.259
 8905SOL    HW127614   2.567   4.341   5.284
 8905SOL    HW227615   2.445   4.251   5.223
 8906SOL     OW27616   1.479   5.050   4.500
 8906SOL    HW127617   1.567   5.089   4.528
 8906SOL    HW227618   1.440   4.997   4.574
 8907SOL     OW27619   3.945   2.595   5.895
 8907SOL    HW127620   3.898   2.557   5.974
 8907SOL    HW227621   3.881   2.601   5.818
 8908SOL     OW27622   0.125   3.087   1.876
 8908SOL    HW127623   0.078   3.113   1.960
 8908SOL    HW227624   0.084   3.003   1.840
 8909SOL     OW27625   2.391   6.207   5.666
 8909SOL    HW127626   2.456   6.271   5.708
 8909SOL    HW227627   2.320   6.183   5.732
 8910SOL     OW27628   3.574   3.026   6.519
 8910SOL    HW127629   3.563   3.126   6.520
 8910SOL    HW227630   3.588   2.994   6.612
 8911SOL     OW27631   4.575   2.269   3.950
 8911SOL    HW127632   4.544   2.351   3.996
 8911SOL    HW227633   4.621   2.294   3.865
 8912SOL     OW27634   5.053   2.110   6.095
 8912SOL    HW127635   5.078   2.016   6.075
 8912SOL    HW227636   5.136   2.167   6.093
 8913SOL     OW27637   4.683   4.242   1.027
 8913SOL    HW127638   4.695   4.227   1.126
 8913SOL    HW227639   4.652   4.157   0.984
 8914SOL     OW27640   4.944   2.027   3.387
 8914SOL    HW127641   4.969   2.087   3.312
 8914SOL    HW227642   4.866   2.066   3.436
 8915SOL     OW27643   1.079   5.433   2.088
 8915SOL    HW127644   1.108   5.431   1.993
 8915SOL    HW227645   1.158   5.416   2.147
 8916SOL     OW27646   6.477   3.557   1.667
 8916SOL    HW127647   6.442   3.650   1.674
 8916SOL    HW227648   6.577   3.559   1.667
 8917SOL     OW27649   6.058   5.627   6.283
 8917SOL    HW127650   6.090   5.556   6.220
 8917SOL    HW227651   5.970   5.661   6.252
 8918SOL     OW27652   4.976   4.564   5.984
 8918SOL    HW127653   4.927   4.623   6.049
 8918SOL    HW227654   4.951   4.469   6.001
 8919SOL     OW27655   2.107   3.801   1.409
 8919SOL    HW127656   2.103   3.854   1.324
 8919SOL    HW227657   2.075   3.858   1.485
 8920SOL     OW27658   6.275   5.462   5.637
 8920SOL    HW127659   6.273   5.425   5.730
 8920SOL    HW227660   6.264   5.388   5.571
 8921SOL     OW27661   1.238   5.757   3.484
 8921SOL    HW127662   1.249   5.669   3.532
 8921SOL    HW227663   1.199   5.741   3.394
 8922SOL     OW27664   6.545   4.568   0.024
 8922SOL    HW127665   6.637   4.529   0.019
 8922SOL    HW227666   6.501   4.539   0.108
 8923SOL     OW27667   2.023   4.438   4.671
 8923SOL    HW127668   1.962   4.359   4.665
 8923SOL    HW227669   1.994   4.497   4.746
 8924SOL     OW27670   2.567   5.768   5.215
 8924SOL    HW127671   2.616   5.714   5.283
 8924SOL    HW227672   2.513   5.839   5.262
 8925SOL     OW27673   5.703   6.675   1.504
 8925SOL    HW127674   5.627   6.725   1.462
 8925SOL    HW227675   5.789   6.711   1.468
 8926SOL     OW27676   5.041   1.445   0.151
 8926SOL    HW127677   5.014   1.406   0.064
 8926SOL    HW227678   5.090   1.376   0.205
 8927SOL     OW27679   2.581   1.575   4.268
 8927SOL    HW127680   2.621   1.652   4.220
 8927SOL    HW227681   2.646   1.541   4.336
 8928SOL     OW27682   0.996   6.790   4.726
 8928SOL    HW127683   0.978   6.697   4.758
 8928SOL    HW227684   1.066   6.832   4.784
 8929SOL     OW27685   5.152   4.401   4.164
 8929SOL    HW127686   5.231   4.340   4.168
 8929SOL    HW227687   5.171   4.483   4.219
 8930SOL     OW27688   1.297   5.056   4.928
 8930SOL    HW127689   1.384   5.022   4.964
 8930SOL    HW227690   1.316   5.124   4.856
 8931SOL     OW27691   5.572   1.130   1.586
 8931SOL    HW127692   5.634   1.061   1.622
 8931SOL    HW227693   5.614   1.220   1.593
 8932SOL     OW27694   6.694   0.964   6.989
 8932SOL    HW127695   6.720   1.058   7.008
 8932SOL    HW227696   6.624   0.934   0.027
 8933SOL     OW27697   1.373   0.522   5.461
 8933SOL    HW127698   1.384   0.443   5.401
 8933SOL    HW227699   1.335   0.599   5.409
 8934SOL     OW27700   4.896   6.490   3.182
 8934SOL    HW127701   4.906   6.501   3.281
 8934SOL    HW227702   4.799   6.496   3.157
 8935SOL     OW27703   5.783   2.391   2.556
 8935SOL    HW127704   5.811   2.308   2.508
 8935SOL    HW227705   5.683   2.396   2.557
 8936SOL     OW27706   1.844   3.584   2.806
 8936SOL    HW127707   1.856   3.594   2.905
 8936SOL    HW227708   1.784   3.507   2.787
 8937SOL     OW27709   4.279   0.195   5.488
 8937SOL    HW127710   4.376   0.220   5.492
 8937SOL    HW227711   4.270   0.095   5.489
 8938SOL     OW27712   5.867   6.879   2.008
 8938SOL    HW127713   5.838   6.870   1.912
 8938SOL    HW227714   5.830   6.963   2.046
 8939SOL     OW27715   0.484   2.514   4.016
 8939SOL    HW127716   0.430   2.585   4.062
 8939SOL    HW227717   0.575   2.509   4.057
 8940SOL     OW27718   6.347   3.083   1.538
 8940SOL    HW127719   6.356   2.987   1.513
 8940SOL    HW227720   6.412   3.105   1.611
 8941SOL     OW27721   5.063   2.393   2.470
 8941SOL    HW127722   5.083   2.301   2.435
 8941SOL    HW227723   4.978   2.391   2.522
 8942SOL     OW27724   4.790   4.608   4.278
 8942SOL    HW127725   4.746   4.591   4.189
 8942SOL    HW227726   4.889   4.605   4.267
 8943SOL     OW27727   4.386   2.692   0.982
 8943SOL    HW127728   4.362   2.611   0.929
 8943SOL    HW227729   4.362   2.677   1.078
 8944SOL     OW27730   4.691   5.736   5.298
 8944SOL    HW127731   4.624   5.675   5.255
 8944SOL    HW227732   4.771   5.683   5.327
 8945SOL     OW27733   6.107   3.952   2.789
 8945SOL    HW127734   6.076   3.979   2.697
 8945SOL    HW227735   6.083   4.024   2.854
 8946SOL     OW27736   4.659   0.805   5.551
 8946SOL    HW127737   4.733   0.776   5.612
 8946SOL    HW227738   4.656   0.905   5.548
 8947SOL     OW27739   1.843   4.579   6.711
 8947SOL    HW127740   1.824   4.538   6.800
 8947SOL    HW227741   1.829   4.678   6.717
 8948SOL     OW27742   5.605   0.996   2.531
 8948SOL    HW127743   5.587   1.094   2.538
 8948SOL    HW227744   5.622   0.958   2.622
 8949SOL     OW27745   4.060   6.074   1.005
 8949SOL    HW127746   4.033   6.129   1.084
 8949SOL    HW227747   4.157   6.050   1.013
 8950SOL     OW27748   3.314   3.710   2.043
 8950SOL    HW127749   3.230   3.759   2.021
 8950SOL    HW227750   3.299   3.612   2.031
 8951SOL     OW27751   1.587   0.129   4.679
 8951SOL    HW127752   1.616   0.223   4.660
 8951SOL    HW227753   1.565   0.120   4.776
 8952SOL     OW27754   1.082   4.675   4.063
 8952SOL    HW127755   1.076   4.578   4.086
 8952SOL    HW227756   1.163   4.714   4.106
 8953SOL     OW27757   0.871   4.999   1.281
 8953SOL    HW127758   0.963   5.030   1.256
 8953SOL    HW227759   0.876   4.943   1.364
 8954SOL     OW27760   2.292   4.471   5.420
 8954SOL    HW127761   2.369   4.428   5.374
 8954SOL    HW227762   2.227   4.506   5.351
 8955SOL     OW27763   5.615   2.655   4.901
 8955SOL    HW127764   5.594   2.604   4.985
 8955SOL    HW227765   5.532   2.700   4.868
 8956SOL     OW27766   0.520   5.950   0.934
 8956SOL    HW127767   0.470   5.872   0.972
 8956SOL    HW227768   0.455   6.019   0.901
 8957SOL     OW27769   1.066   5.909   2.651
 8957SOL    HW127770   1.165   5.901   2.649
 8957SOL    HW227771   1.040   5.986   2.709
 8958SOL     OW27772   1.130   4.031   5.103
 8958SOL    HW127773   1.099   4.014   5.010
 8958SOL    HW227774   1.072   3.982   5.168
 8959SOL     OW27775   5.856   2.247   3.653
 8959SOL    HW127776   5.873   2.177   3.722
 8959SOL    HW227777   5.943   2.286   3.622
 8960SOL     OW27778   4.825   5.037   3.101
 8960SOL    HW127779   4.775   5.123   3.089
 8960SOL    HW227780   4.923   5.057   3.112
 8961SOL     OW27781   2.800   1.613   4.829
 8961SOL    HW127782   2.825   1.587   4.922
 8961SOL    HW227783   2.855   1.692   4.800
 8962SOL     OW27784   6.535   5.767   2.257
 8962SOL    HW127785   6.454   5.770   2.199
 8962SOL    HW227786   6.613   5.733   2.205
 8963SOL     OW27787   3.776   6.475   6.208
 8963SOL    HW127788   3.753   6.563   6.167
 8963SOL    HW227789   3.791   6.487   6.306
 8964SOL     OW27790   2.120   3.344   4.084
 8964SOL    HW127791   2.146   3.338   4.181
 8964SOL    HW227792   2.163   3.269   4.034
 8965SOL     OW27793   3.621   5.582   0.174
 8965SOL    HW127794   3.674   5.498   0.181
 8965SOL    HW227795   3.581   5.604   0.263
 8966SOL     OW27796   5.308   6.717   5.077
 8966SOL    HW127797   5.321   6.754   4.985
 8966SOL    HW227798   5.341   6.783   5.145
 8967SOL     OW27799   3.353   0.155   3.587
 8967SOL    HW127800   3.256   0.134   3.574
 8967SOL    HW227801   3.405   0.070   3.593
 8968SOL     OW27802   3.902   5.042   2.184
 8968SOL    HW127803   3.803   5.037   2.192
 8968SOL    HW227804   3.944   4.971   2.240
 8969SOL     OW27805   0.595   0.427   2.993
 8969SOL    HW127806   0.677   0.478   3.020
 8969SOL    HW227807   0.537   0.485   2.937
 8970SOL     OW27808   1.709   1.051   3.622
 8970SOL    HW127809   1.612   1.044   3.597
 8970SOL    HW227810   1.764   1.000   3.556
 8971SOL     OW27811   2.710   4.334   0.976
 8971SOL    HW127812   2.810   4.332   0.985
 8971SOL    HW227813   2.686   4.345   0.879
 8972SOL     OW27814   5.202   3.990   6.841
 8972SOL    HW127815   5.168   4.080   6.814
 8972SOL    HW227816   5.293   4.000   6.882
 8973SOL     OW27817   2.122   2.266   3.449
 8973SOL    HW127818   2.090   2.310   3.533
 8973SOL    HW227819   2.079   2.310   3.370
 8974SOL     OW27820   1.932   4.148   3.970
 8974SOL    HW127821   1.932   4.171   4.068
 8974SOL    HW227822   1.975   4.059   3.956
 8975SOL     OW27823   6.768   4.800   5.714
 8975SOL    HW127824   6.838   4.758   5.656
 8975SOL    HW227825   6.678   4.772   5.681
 8976SOL     OW27826   5.866   0.130   2.103
 8976SOL    HW127827   5.840   0.226   2.089
 8976SOL    HW227828   5.856   0.106   2.199
 8977SOL     OW27829   6.153   4.378   6.644
 8977SOL    HW127830   6.131   4.476   6.642
 8977SOL    HW227831   6.191   4.350   6.556
 8978SOL     OW27832   6.011   5.605   6.818
 8978SOL    HW127833   5.992   5.699   6.847
 8978SOL    HW227834   6.109   5.594   6.803
 8979SOL     OW27835   1.510   4.793   3.882
 8979SOL    HW127836   1.542   4.716   3.938
 8979SOL    HW227837   1.519   4.769   3.785
 8980SOL     OW27838   3.606   0.654   0.338
 8980SOL    HW127839   3.703   0.674   0.327
 8980SOL    HW227840   3.552   0.724   0.290
 8981SOL     OW27841   4.388   2.763   6.481
 8981SOL    HW127842   4.396   2.843   6.540
 8981SOL    HW227843   4.303   2.767   6.430
 8982SOL     OW27844   0.230   1.516   1.737
 8982SOL    HW127845   0.225   1.461   1.654
 8982SOL    HW227846   0.253   1.457   1.815
 8983SOL     OW27847   1.563   6.564   1.864
 8983SOL    HW127848   1.619   6.544   1.945
 8983SOL    HW227849   1.544   6.662   1.860
 8984SOL     OW27850   6.739   1.331   4.995
 8984SOL    HW127851   6.836   1.307   5.004
 8984SOL    HW227852   6.687   1.250   4.970
 8985SOL     OW27853   5.098   1.082   2.593
 8985SOL    HW127854   5.051   1.016   2.535
 8985SOL    HW227855   5.063   1.075   2.687
 8986SOL     OW27856   6.595   4.938   0.481
 8986SOL    HW127857   6.656   4.926   0.403
 8986SOL    HW227858   6.532   4.860   0.486
 8987SOL     OW27859   2.077   6.919   1.567
 8987SOL    HW127860   2.004   6.865   1.609
 8987SOL    HW227861   2.101   6.879   1.479
 8988SOL     OW27862   3.063   0.181   0.875
 8988SOL    HW127863   3.157   0.180   0.840
 8988SOL    HW227864   2.999   0.187   0.799
 8989SOL     OW27865   5.860   1.667   2.293
 8989SOL    HW127866   5.824   1.744   2.240
 8989SOL    HW227867   5.837   1.679   2.390
 8990SOL     OW27868   3.430   0.662   3.035
 8990SOL    HW127869   3.488   0.582   3.052
 8990SOL    HW227870   3.487   0.739   3.009
 8991SOL     OW27871   1.266   2.396   0.504
 8991SOL    HW127872   1.364   2.374   0.508
 8991SOL    HW227873   1.231   2.374   0.413
 8992SOL     OW27874   6.294   4.256   6.427
 8992SOL    HW127875   6.376   4.211   6.462
 8992SOL    HW227876   6.316   4.303   6.342
 8993SOL     OW27877   5.287   4.148   4.830
 8993SOL    HW127878   5.231   4.176   4.908
 8993SOL    HW227879   5.308   4.228   4.774
 8994SOL     OW27880   1.826   6.297   2.612
 8994SOL    HW127881   1.826   6.276   2.710
 8994SOL    HW227882   1.740   6.266   2.571
 8995SOL     OW27883   1.924   3.957   4.920
 8995SOL    HW127884   2.006   3.913   4.959
 8995SOL    HW227885   1.873   4.002   4.993
 8996SOL     OW27886   1.543   4.103   1.609
 8996SOL    HW127887   1.537   4.040   1.687
 8996SOL    HW227888   1.487   4.183   1.627
 8997SOL     OW27889   4.538   0.960   5.817
 8997SOL    HW127890   4.570   0.880   5.766
 8997SOL    HW227891   4.460   1.002   5.770
 8998SOL     OW27892   0.837   1.623   6.431
 8998SOL    HW127893   0.746   1.658   6.409
 8998SOL    HW227894   0.840   1.595   6.527
 8999SOL     OW27895   5.013   1.832   5.232
 8999SOL    HW127896   4.958   1.787   5.302
 8999SOL    HW227897   5.110   1.830   5.258
 9000SOL     OW27898   2.932   4.883   0.836
 9000SOL    HW127899   2.975   4.850   0.752
 9000SOL    HW227900   2.969   4.833   0.914
 9001SOL     OW27901   1.949   4.012   3.488
 9001SOL    HW127902   1.928   3.974   3.398
 9001SOL    HW227903   2.046   4.037   3.491
 9002SOL     OW27904   5.419   4.111   5.156
 9002SOL    HW127905   5.337   4.164   5.138
 9002SOL    HW227906   5.422   4.032   5.094
 9003SOL     OW27907   6.121   3.248   6.497
 9003SOL    HW127908   6.106   3.335   6.544
 9003SOL    HW227909   6.113   3.261   6.399
 9004SOL     OW27910   4.576   5.621   0.769
 9004SOL    HW127911   4.627   5.665   0.695
 9004SOL    HW227912   4.593   5.523   0.769
 9005SOL     OW27913   4.631   2.404   3.212
 9005SOL    HW127914   4.702   2.474   3.214
 9005SOL    HW227915   4.614   2.371   3.305
 9006SOL     OW27916   2.260   6.934   0.965
 9006SOL    HW127917   2.277   6.948   0.867
 9006SOL    HW227918   2.214   6.847   0.979
 9007SOL     OW27919   2.444   6.488   4.552
 9007SOL    HW127920   2.419   6.403   4.506
 9007SOL    HW227921   2.530   6.522   4.516
 9008SOL     OW27922   0.158   4.026   2.278
 9008SOL    HW127923   0.215   4.045   2.198
 9008SOL    HW227924   0.202   3.957   2.335
 9009SOL     OW27925   4.356   6.525   0.506
 9009SOL    HW127926   4.447   6.491   0.530
 9009SOL    HW227927   4.302   6.538   0.589
 9010SOL     OW27928   0.320   5.470   5.259
 9010SOL    HW127929   0.394   5.473   5.192
 9010SOL    HW227930   0.246   5.531   5.230
 9011SOL     OW27931   4.773   2.174   2.347
 9011SOL    HW127932   4.737   2.206   2.434
 9011SOL    HW227933   4.714   2.206   2.273
 9012SOL     OW27934   5.683   5.448   2.221
 9012SOL    HW127935   5.629   5.387   2.279
 9012SOL    HW227936   5.769   5.470   2.267
 9013SOL     OW27937   4.234   6.544   2.286
 9013SOL    HW127938   4.138   6.518   2.282
 9013SOL    HW227939   4.264   6.576   2.196
 9014SOL     OW27940   2.170   0.857   1.253
 9014SOL    HW127941   2.186   0.768   1.295
 9014SOL    HW227942   2.179   0.929   1.323
 9015SOL     OW27943   6.100   1.023   4.697
 9015SOL    HW127944   6.122   1.107   4.647
 9015SOL    HW227945   6.002   1.006   4.693
 9016SOL     OW27946   6.937   5.598   6.467
 9016SOL    HW127947   6.958   5.681   6.518
 9016SOL    HW227948   6.838   5.580   6.471
 9017SOL     OW27949   0.102   3.908   3.420
 9017SOL    HW127950   0.092   3.826   3.364
 9017SOL    HW227951   0.012   3.939   3.450
 9018SOL     OW27952   4.060   1.529   6.377
 9018SOL    HW127953   4.103   1.605   6.330
 9018SOL    HW227954   4.101   1.443   6.348
 9019SOL     OW27955   1.234   5.630   0.299
 9019SOL    HW127956   1.161   5.686   0.259
 9019SOL    HW227957   1.319   5.682   0.301
 9020SOL     OW27958   0.914   4.981   3.077
 9020SOL    HW127959   0.876   4.894   3.047
 9020SOL    HW227960   0.840   5.038   3.115
 9021SOL     OW27961   6.245   5.995   5.439
 9021SOL    HW127962   6.191   6.026   5.361
 9021SOL    HW227963   6.260   6.072   5.501
 9022SOL     OW27964   3.410   0.063   6.409
 9022SOL    HW127965   3.386   0.003   6.485
 9022SOL    HW227966   3.484   0.124   6.438
 9023SOL     OW27967   3.316   2.887   3.471
 9023SOL    HW127968   3.361   2.921   3.553
 9023SOL    HW227969   3.218   2.910   3.474
 9024SOL     OW27970   1.157   0.188   0.085
 9024SOL    HW127971   1.183   0.274   0.043
 9024SOL    HW227972   1.174   0.113   0.021
 9025SOL     OW27973   0.122   4.035   0.781
 9025SOL    HW127974   0.028   4.065   0.765
 9025SOL    HW227975   0.140   3.952   0.728
 9026SOL     OW27976   2.997   3.355   5.473
 9026SOL    HW127977   2.975   3.318   5.382
 9026SOL    HW227978   2.942   3.309   5.542
 9027SOL     OW27979   2.502   2.532   3.253
 9027SOL    HW127980   2.556   2.468   3.308
 9027SOL    HW227981   2.489   2.495   3.161
 9028SOL     OW27982   2.618   4.668   4.516
 9028SOL    HW127983   2.577   4.604   4.451
 9028SOL    HW227984   2.589   4.644   4.609
 9029SOL     OW27985   5.998   5.804   2.778
 9029SOL    HW127986   5.996   5.722   2.836
 9029SOL    HW227987   6.063   5.790   2.703
 9030SOL     OW27988   3.655   1.627   1.980
 9030SOL    HW127989   3.669   1.545   2.035
 9030SOL    HW227990   3.686   1.707   2.031
 9031SOL     OW27991   1.356   1.470   0.903
 9031SOL    HW127992   1.424   1.397   0.898
 9031SOL    HW227993   1.401   1.554   0.936
 9032SOL     OW27994   1.104   2.856   2.304
 9032SOL    HW127995   1.060   2.843   2.393
 9032SOL    HW227996   1.134   2.951   2.296
 9033SOL     OW27997   1.117   3.954   1.800
 9033SOL    HW127998   1.125   3.862   1.838
 9033SOL    HW227999   1.063   4.011   1.862
 9034SOL     OW28000   1.284   6.678   6.760
 9034SOL    HW128001   1.379   6.670   6.792
 9034SOL    HW228002   1.282   6.737   6.679
 9035SOL     OW28003   0.071   0.566   4.412
 9035SOL    HW128004   7.000   0.565   4.390
 9035SOL    HW228005   0.125   0.552   4.328
 9036SOL     OW28006   1.536   1.394   4.592
 9036SOL    HW128007   1.475   1.407   4.670
 9036SOL    HW228008   1.488   1.344   4.520
 9037SOL     OW28009   2.556   4.139   5.906
 9037SOL    HW128010   2.506   4.093   5.833
 9037SOL    HW228011   2.517   4.113   5.994
 9038SOL     OW28012   4.951   6.419   5.671
 9038SOL    HW128013   5.022   6.348   5.676
 9038SOL    HW228014   4.866   6.378   5.637
 9039SOL     OW28015   2.252   4.830   6.619
 9039SOL    HW128016   2.344   4.830   6.579
 9039SOL    HW228017   2.196   4.761   6.573
 9040SOL     OW28018   3.131   2.053   2.288
 9040SOL    HW128019   3.056   2.115   2.266
 9040SOL    HW228020   3.161   2.006   2.204
 9041SOL     OW28021   1.733   2.980   6.429
 9041SOL    HW128022   1.771   2.991   6.338
 9041SOL    HW228023   1.654   2.918   6.425
 9042SOL     OW28024   2.526   5.307   3.253
 9042SOL    HW128025   2.541   5.395   3.209
 9042SOL    HW228026   2.601   5.245   3.229
 9043SOL     OW28027   6.773   2.605   0.592
 9043SOL    HW128028   6.846   2.655   0.639
 9043SOL    HW228029   6.711   2.670   0.548
 9044SOL     OW28030   6.589   4.631   0.831
 9044SOL    HW128031   6.497   4.655   0.863
 9044SOL    HW228032   6.643   4.596   0.908
 9045SOL     OW28033   3.034   5.346   4.116
 9045SOL    HW128034   3.112   5.407   4.129
 9045SOL    HW228035   2.952   5.401   4.097
 9046SOL     OW28036   3.826   4.328   5.789
 9046SOL    HW128037   3.813   4.366   5.698
 9046SOL    HW228038   3.797   4.395   5.857
 9047SOL     OW28039   1.372   4.591   4.601
 9047SOL    HW128040   1.305   4.561   4.533
 9047SOL    HW228041   1.379   4.522   4.673
 9048SOL     OW28042   2.021   2.038   4.768
 9048SOL    HW128043   1.996   2.125   4.725
 9048SOL    HW228044   2.020   1.966   4.699
 9049SOL     OW28045   4.987   6.394   6.496
 9049SOL    HW128046   4.992   6.296   6.515
 9049SOL    HW228047   5.060   6.419   6.431
 9050SOL     OW28048   0.132   5.268   5.245
 9050SOL    HW128049   0.036   5.289   5.263
 9050SOL    HW228050   0.188   5.348   5.266
 9051SOL     OW28051   5.509   6.615   5.825
 9051SOL    HW128052   5.525   6.664   5.911
 9051SOL    HW228053   5.458   6.673   5.762
 9052SOL     OW28054   2.362   5.218   4.953
 9052SOL    HW128055   2.371   5.130   5.000
 9052SOL    HW228056   2.432   5.281   4.987
 9053SOL     OW28057   3.108   1.650   3.570
 9053SOL    HW128058   3.140   1.683   3.481
 9053SOL    HW228059   3.145   1.707   3.643
 9054SOL     OW28060   2.851   0.177   0.700
 9054SOL    HW128061   2.838   0.164   0.601
 9054SOL    HW228062   2.783   0.242   0.734
 9055SOL     OW28063   0.432   1.749   4.921
 9055SOL    HW128064   0.434   1.783   4.827
 9055SOL    HW228065   0.432   1.826   4.984
 9056SOL     OW28066   4.660   2.109   2.635
 9056SOL    HW128067   4.579   2.090   2.690
 9056SOL    HW228068   4.725   2.033   2.643
 9057SOL     OW28069   4.885   6.171   6.974
 9057SOL    HW128070   4.963   6.202   0.003
 9057SOL    HW228071   4.895   6.207   6.881
 9058SOL     OW28072   2.018   2.542   4.263
 9058SOL    HW128073   2.031   2.576   4.357
 9058SOL    HW228074   1.921   2.543   4.241
 9059SOL     OW28075   0.277   0.953   2.181
 9059SOL    HW128076   0.254   0.981   2.274
 9059SOL    HW228077   0.373   0.972   2.164
 9060SOL     OW28078   0.842   5.513   1.892
 9060SOL    HW128079   0.915   5.568   1.853
 9060SOL    HW228080   0.818   5.548   1.983
 9061SOL     OW28081   5.016   4.245   2.622
 9061SOL    HW128082   4.995   4.226   2.718
 9061SOL    HW228083   4.955   4.192   2.563
 9062SOL     OW28084   0.514   5.414   2.909
 9062SOL    HW128085   0.549   5.332   2.865
 9062SOL    HW228086   0.467   5.471   2.841
 9063SOL     OW28087   4.397   1.934   1.877
 9063SOL    HW128088   4.417   1.982   1.791
 9063SOL    HW228089   4.345   1.995   1.937
 9064SOL     OW28090   0.661   5.595   3.077
 9064SOL    HW128091   0.600   5.528   3.034
 9064SOL    HW228092   0.750   5.554   3.092
 9065SOL     OW28093   3.226   4.199   6.284
 9065SOL    HW128094   3.196   4.294   6.275
 9065SOL    HW228095   3.182   4.144   6.214
 9066SOL     OW28096   4.882   5.381   4.285
 9066SOL    HW128097   4.852   5.391   4.190
 9066SOL    HW228098   4.868   5.286   4.314
 9067SOL     OW28099   1.314   6.273   4.589
 9067SOL    HW128100   1.258   6.351   4.562
 9067SOL    HW228101   1.342   6.222   4.508
 9068SOL     OW28102   4.024   0.475   5.979
 9068SOL    HW128103   3.960   0.404   6.009
 9068SOL    HW228104   4.112   0.434   5.958
 9069SOL     OW28105   4.837   2.869   1.509
 9069SOL    HW128106   4.773   2.800   1.542
 9069SOL    HW228107   4.920   2.826   1.476
 9070SOL     OW28108   2.297   1.077   5.654
 9070SOL    HW128109   2.320   1.121   5.567
 9070SOL    HW228110   2.323   1.138   5.729
 9071SOL     OW28111   5.676   2.594   6.781
 9071SOL    HW128112   5.668   2.536   6.700
 9071SOL    HW228113   5.732   2.674   6.759
 9072SOL     OW28114   5.552   0.630   2.593
 9072SOL    HW128115   5.481   0.699   2.596
 9072SOL    HW228116   5.523   0.554   2.534
 9073SOL     OW28117   4.610   2.809   5.090
 9073SOL    HW128118   4.582   2.716   5.068
 9073SOL    HW228119   4.606   2.866   5.008
 9074SOL     OW28120   1.730   1.037   2.744
 9074SOL    HW128121   1.714   0.939   2.731
 9074SOL    HW228122   1.646   1.080   2.779
 9075SOL     OW28123   5.566   5.815   0.927
 9075SOL    HW128124   5.532   5.900   0.886
 9075SOL    HW228125   5.596   5.833   1.021
 9076SOL     OW28126   0.512   6.769   2.455
 9076SOL    HW128127   0.524   6.846   2.518
 9076SOL    HW228128   0.415   6.755   2.438
 9077SOL     OW28129   6.422   1.752   6.858
 9077SOL    HW128130   6.407   1.735   6.761
 9077SOL    HW228131   6.392   1.845   6.879
 9078SOL     OW28132   5.462   0.338   6.777
 9078SOL    HW128133   5.422   0.403   6.712
 9078SOL    HW228134   5.559   0.326   6.756
 9079SOL     OW28135   1.588   1.142   6.654
 9079SOL    HW128136   1.685   1.166   6.648
 9079SOL    HW228137   1.576   1.060   6.709
 9080SOL     OW28138   6.177   3.702   2.467
 9080SOL    HW128139   6.119   3.622   2.449
 9080SOL    HW228140   6.119   3.781   2.487
 9081SOL     OW28141   5.116   1.251   0.315
 9081SOL    HW128142   5.077   1.167   0.354
 9081SOL    HW228143   5.206   1.268   0.355
 9082SOL     OW28144   3.390   5.805   6.488
 9082SOL    HW128145   3.339   5.791   6.403
 9082SOL    HW228146   3.420   5.717   6.524
 9083SOL     OW28147   3.905   6.338   0.407
 9083SOL    HW128148   3.849   6.258   0.389
 9083SOL    HW228149   4.002   6.313   0.400
 9084SOL     OW28150   0.090   3.242   4.958
 9084SOL    HW128151   0.176   3.209   4.997
 9084SOL    HW228152   0.022   3.251   5.031
 9085SOL     OW28153   2.647   4.875   0.480
 9085SOL    HW128154   2.624   4.784   0.515
 9085SOL    HW228155   2.742   4.875   0.450
 9086SOL     OW28156   7.026   3.639   0.978
 9086SOL    HW128157   7.023   3.627   0.879
 9086SOL    HW228158   0.008   3.736   1.000
 9087SOL     OW28159   5.478   0.952   1.376
 9087SOL    HW128160   5.504   1.013   1.451
 9087SOL    HW228161   5.458   1.006   1.294
 9088SOL     OW28162   5.969   5.903   0.578
 9088SOL    HW128163   6.053   5.920   0.628
 9088SOL    HW228164   5.913   5.836   0.627
 9089SOL     OW28165   5.804   5.655   3.335
 9089SOL    HW128166   5.732   5.606   3.285
 9089SOL    HW228167   5.786   5.753   3.331
 9090SOL     OW28168   5.045   5.978   5.992
 9090SOL    HW128169   5.073   5.885   5.970
 9090SOL    HW228170   4.952   5.978   6.027
 9091SOL     OW28171   2.504   1.765   1.603
 9091SOL    HW128172   2.427   1.759   1.539
 9091SOL    HW228173   2.476   1.818   1.683
 9092SOL     OW28174   2.408   0.832   5.455
 9092SOL    HW128175   2.430   0.773   5.378
 9092SOL    HW228176   2.467   0.913   5.453
 9093SOL     OW28177   2.319   4.204   0.741
 9093SOL    HW128178   2.284   4.256   0.663
 9093SOL    HW228179   2.243   4.163   0.791
 9094SOL     OW28180   6.365   4.116   1.194
 9094SOL    HW128181   6.332   4.188   1.134
 9094SOL    HW228182   6.306   4.110   1.275
 9095SOL     OW28183   2.546   3.092   6.982
 9095SOL    HW128184   2.608   3.140   0.017
 9095SOL    HW228185   2.462   3.146   6.971
 9096SOL     OW28186   5.996   3.258   3.302
 9096SOL    HW128187   6.047   3.176   3.273
 9096SOL    HW228188   5.906   3.231   3.336
 9097SOL     OW28189   0.319   5.001   5.861
 9097SOL    HW128190   0.327   4.904   5.839
 9097SOL    HW228191   0.252   5.014   5.934
 9098SOL     OW28192   3.252   3.601   3.577
 9098SOL    HW128193   3.234   3.553   3.662
 9098SOL    HW228194   3.168   3.646   3.545
 9099SOL     OW28195   2.182   2.689   0.390
 9099SOL    HW128196   2.137   2.758   0.448
 9099SOL    HW228197   2.158   2.598   0.423
 9100SOL     OW28198   1.150   3.443   0.460
 9100SOL    HW128199   1.165   3.463   0.557
 9100SOL    HW228200   1.160   3.527   0.407
 9101SOL     OW28201   2.213   2.215   6.671
 9101SOL    HW128202   2.155   2.289   6.636
 9101SOL    HW228203   2.214   2.218   6.771
 9102SOL     OW28204   4.416   6.101   2.344
 9102SOL    HW128205   4.346   6.036   2.315
 9102SOL    HW228206   4.454   6.148   2.264
 9103SOL     OW28207   0.342   3.865   6.742
 9103SOL    HW128208   0.383   3.774   6.749
 9103SOL    HW228209   0.280   3.880   6.820
 9104SOL     OW28210   4.246   6.784   1.811
 9104SOL    HW128211   4.261   6.862   1.873
 9104SOL    HW228212   4.281   6.807   1.720
 9105SOL     OW28213   2.484   1.703   5.417
 9105SOL    HW128214   2.482   1.735   5.322
 9105SOL    HW228215   2.474   1.781   5.479
 9106SOL     OW28216   6.424   5.049   1.284
 9106SOL    HW128217   6.442   5.146   1.269
 9106SOL    HW228218   6.510   4.998   1.280
 9107SOL     OW28219   4.327   0.565   1.475
 9107SOL    HW128220   4.291   0.658   1.487
 9107SOL    HW228221   4.423   0.562   1.503
 9108SOL     OW28222   4.620   5.730   6.812
 9108SOL    HW128223   4.564   5.648   6.803
 9108SOL    HW228224   4.692   5.714   6.879
 9109SOL     OW28225   2.955   1.826   4.701
 9109SOL    HW128226   2.898   1.773   4.638
 9109SOL    HW228227   2.900   1.899   4.742
 9110SOL     OW28228   1.809   3.207   2.921
 9110SOL    HW128229   1.798   3.199   2.822
 9110SOL    HW228230   1.890   3.263   2.940
 9111SOL     OW28231   4.263   4.401   1.634
 9111SOL    HW128232   4.341   4.461   1.613
 9111SOL    HW228233   4.284   4.345   1.714
 9112SOL     OW28234   0.185   4.974   2.793
 9112SOL    HW128235   0.234   4.963   2.707
 9112SOL    HW228236   0.229   4.919   2.864
 9113SOL     OW28237   3.392   6.266   0.512
 9113SOL    HW128238   3.472   6.287   0.456
 9113SOL    HW228239   3.326   6.341   0.505
 9114SOL     OW28240   2.363   4.503   1.934
 9114SOL    HW128241   2.346   4.409   1.965
 9114SOL    HW228242   2.375   4.563   2.013
 9115SOL     OW28243   1.620   4.178   4.159
 9115SOL    HW128244   1.574   4.247   4.215
 9115SOL    HW228245   1.718   4.177   4.180
 9116SOL     OW28246   1.329   1.145   6.196
 9116SOL    HW128247   1.295   1.091   6.273
 9116SOL    HW228248   1.423   1.118   6.175
 9117SOL     OW28249   6.536   3.093   6.854
 9117SOL    HW128250   6.479   3.170   6.825
 9117SOL    HW228251   6.482   3.033   6.914
 9118SOL     OW28252   6.455   5.825   1.548
 9118SOL    HW128253   6.531   5.868   1.596
 9118SOL    HW228254   6.478   5.814   1.452
 9119SOL     OW28255   6.855   0.186   1.296
 9119SOL    HW128256   6.836   0.209   1.200
 9119SOL    HW228257   6.895   0.265   1.342
 9120SOL     OW28258   5.563   1.346   6.208
 9120SOL    HW128259   5.496   1.371   6.138
 9120SOL    HW228260   5.518   1.348   6.298
 9121SOL     OW28261   1.124   1.022   6.779
 9121SOL    HW128262   1.144   0.927   6.755
 9121SOL    HW228263   1.150   1.040   6.873
 9122SOL     OW28264   0.893   2.357   1.306
 9122SOL    HW128265   0.800   2.375   1.273
 9122SOL    HW228266   0.908   2.404   1.393
 9123SOL     OW28267   2.677   5.701   0.210
 9123SOL    HW128268   2.704   5.643   0.133
 9123SOL    HW228269   2.741   5.777   0.220
 9124SOL     OW28270   5.900   5.643   5.135
 9124SOL    HW128271   5.962   5.636   5.213
 9124SOL    HW228272   5.891   5.554   5.090
 9125SOL     OW28273   5.033   5.494   3.496
 9125SOL    HW128274   4.972   5.573   3.495
 9125SOL    HW228275   5.000   5.425   3.431
 9126SOL     OW28276   5.999   0.562   1.571
 9126SOL    HW128277   5.901   0.583   1.568
 9126SOL    HW228278   6.051   0.647   1.572
 9127SOL     OW28279   5.118   0.850   0.066
 9127SOL    HW128280   5.188   0.790   0.026
 9127SOL    HW228281   5.075   0.804   0.143
 9128SOL     OW28282   4.538   2.547   5.088
 9128SOL    HW128283   4.441   2.536   5.067
 9128SOL    HW228284   4.563   2.489   5.166
 9129SOL     OW28285   1.964   2.446   6.006
 9129SOL    HW128286   1.905   2.405   5.936
 9129SOL    HW228287   1.922   2.435   6.096
 9130SOL     OW28288   6.023   4.946   0.615
 9130SOL    HW128289   6.117   4.960   0.583
 9130SOL    HW228290   6.011   4.991   0.704
 9131SOL     OW28291   0.946   4.001   4.575
 9131SOL    HW128292   1.018   4.069   4.565
 9131SOL    HW228293   0.956   3.931   4.505
 9132SOL     OW28294   0.106   2.868   4.582
 9132SOL    HW128295   0.194   2.899   4.618
 9132SOL    HW228296   0.035   2.882   4.650
 9133SOL     OW28297   1.931   4.309   1.224
 9133SOL    HW128298   1.879   4.224   1.228
 9133SOL    HW228299   1.922   4.358   1.311
 9134SOL     OW28300   2.950   5.905   5.973
 9134SOL    HW128301   2.854   5.878   5.982
 9134SOL    HW228302   2.980   5.889   5.879
 9135SOL     OW28303   6.633   6.550   4.720
 9135SOL    HW128304   6.546   6.585   4.756
 9135SOL    HW228305   6.670   6.615   4.654
 9136SOL     OW28306   4.696   4.649   5.146
 9136SOL    HW128307   4.737   4.655   5.237
 9136SOL    HW228308   4.665   4.555   5.129
 9137SOL     OW28309   4.201   1.190   2.007
 9137SOL    HW128310   4.159   1.279   1.993
 9137SOL    HW228311   4.295   1.202   2.039
 9138SOL     OW28312   3.571   5.157   0.321
 9138SOL    HW128313   3.481   5.193   0.346
 9138SOL    HW228314   3.623   5.137   0.404
 9139SOL     OW28315   3.026   1.714   5.545
 9139SOL    HW128316   3.068   1.628   5.572
 9139SOL    HW228317   2.993   1.762   5.627
 9140SOL     OW28318   0.053   2.231   3.110
 9140SOL    HW128319   0.104   2.266   3.188
 9140SOL    HW228320   0.102   2.253   3.025
 9141SOL     OW28321   5.966   0.206   6.023
 9141SOL    HW128322   5.867   0.195   6.025
 9141SOL    HW228323   5.995   0.230   5.930
 9142SOL     OW28324   6.644   3.164   5.656
 9142SOL    HW128325   6.623   3.223   5.735
 9142SOL    HW228326   6.726   3.110   5.676
 9143SOL     OW28327   4.662   3.974   0.808
 9143SOL    HW128328   4.755   4.008   0.814
 9143SOL    HW228329   4.654   3.888   0.859
 9144SOL     OW28330   1.998   4.710   5.309
 9144SOL    HW128331   2.061   4.717   5.231
 9144SOL    HW228332   2.031   4.768   5.383
 9145SOL     OW28333   0.361   4.621   6.428
 9145SOL    HW128334   0.318   4.579   6.348
 9145SOL    HW228335   0.394   4.712   6.405
 9146SOL     OW28336   6.111   1.966   2.276
 9146SOL    HW128337   6.040   1.947   2.208
 9146SOL    HW228338   6.144   2.059   2.264
 9147SOL     OW28339   4.029   5.812   5.329
 9147SOL    HW128340   4.086   5.764   5.396
 9147SOL    HW228341   3.933   5.787   5.344
 9148SOL     OW28342   4.155   5.663   3.520
 9148SOL    HW128343   4.166   5.672   3.619
 9148SOL    HW228344   4.167   5.752   3.476
 9149SOL     OW28345   5.487   3.737   3.871
 9149SOL    HW128346   5.496   3.652   3.818
 9149SOL    HW228347   5.458   3.715   3.964
 9150SOL     OW28348   4.990   0.195   2.953
 9150SOL    HW128349   5.086   0.202   2.925
 9150SOL    HW228350   4.969   0.268   3.018
 9151SOL     OW28351   1.427   4.381   2.014
 9151SOL    HW128352   1.442   4.444   1.937
 9151SOL    HW228353   1.484   4.411   2.091
 9152SOL     OW28354   1.981   5.675   3.191
 9152SOL    HW128355   1.887   5.687   3.222
 9152SOL    HW228356   2.044   5.695   3.266
 9153SOL     OW28357   1.767   2.981   6.162
 9153SOL    HW128358   1.744   2.906   6.100
 9153SOL    HW228359   1.816   3.052   6.110
 9154SOL     OW28360   1.823   5.820   0.015
 9154SOL    HW128361   1.811   5.916   7.018
 9154SOL    HW228362   1.753   5.793   0.081
 9155SOL     OW28363   1.087   3.868   0.468
 9155SOL    HW128364   1.151   3.912   0.405
 9155SOL    HW228365   1.003   3.921   0.473
 9156SOL     OW28366   5.014   2.348   1.324
 9156SOL    HW128367   5.033   2.426   1.383
 9156SOL    HW228368   5.043   2.264   1.370
 9157SOL     OW28369   5.424   3.974   5.775
 9157SOL    HW128370   5.338   3.988   5.726
 9157SOL    HW228371   5.498   4.017   5.724
 9158SOL     OW28372   0.904   3.650   4.139
 9158SOL    HW128373   0.840   3.706   4.085
 9158SOL    HW228374   0.958   3.593   4.078
 9159SOL     OW28375   0.069   4.623   3.300
 9159SOL    HW128376   0.020   4.699   3.343
 9159SOL    HW228377   0.162   4.619   3.338
 9160SOL     OW28378   0.284   0.058   6.923
 9160SOL    HW128379   0.186   0.047   6.940
 9160SOL    HW228380   0.335   0.005   6.991
 9161SOL     OW28381   4.919   4.101   4.449
 9161SOL    HW128382   4.975   4.137   4.523
 9161SOL    HW228383   4.931   4.157   4.367
 9162SOL     OW28384   4.632   2.668   2.479
 9162SOL    HW128385   4.636   2.658   2.578
 9162SOL    HW228386   4.714   2.717   2.447
 9163SOL     OW28387   2.931   1.930   3.854
 9163SOL    HW128388   2.874   1.972   3.925
 9163SOL    HW228389   3.026   1.930   3.884
 9164SOL     OW28390   3.291   0.404   0.171
 9164SOL    HW128391   3.275   0.333   0.239
 9164SOL    HW228392   3.229   0.481   0.188
 9165SOL     OW28393   6.019   0.144   0.009
 9165SOL    HW128394   5.920   0.134   0.001
 9165SOL    HW228395   6.062   0.127   6.946
 9166SOL     OW28396   2.836   5.599   1.205
 9166SOL    HW128397   2.914   5.661   1.212
 9166SOL    HW228398   2.841   5.550   1.118
 9167SOL     OW28399   1.695   4.114   5.395
 9167SOL    HW128400   1.722   4.137   5.302
 9167SOL    HW228401   1.596   4.101   5.400
 9168SOL     OW28402   2.263   0.839   6.445
 9168SOL    HW128403   2.182   0.878   6.490
 9168SOL    HW228404   2.280   0.747   6.481
 9169SOL     OW28405   0.591   0.675   3.710
 9169SOL    HW128406   0.498   0.695   3.742
 9169SOL    HW228407   0.645   0.641   3.786
 9170SOL     OW28408   6.649   5.799   6.722
 9170SOL    HW128409   6.550   5.814   6.714
 9170SOL    HW228410   6.670   5.705   6.694
 9171SOL     OW28411   2.920   5.844   0.230
 9171SOL    HW128412   2.991   5.843   0.159
 9171SOL    HW228413   2.947   5.784   0.305
 9172SOL     OW28414   3.032   1.494   4.009
 9172SOL    HW128415   3.041   1.434   3.929
 9172SOL    HW228416   3.123   1.523   4.039
 9173SOL     OW28417   0.576   5.796   4.020
 9173SOL    HW128418   0.515   5.811   3.942
 9173SOL    HW228419   0.522   5.783   4.103
 9174SOL     OW28420   0.153   4.996   0.354
 9174SOL    HW128421   0.127   4.993   0.258
 9174SOL    HW228422   0.253   5.001   0.362
 9175SOL     OW28423   2.267   6.026   6.053
 9175SOL    HW128424   2.214   5.962   6.109
 9175SOL    HW228425   2.315   6.090   6.113
 9176SOL     OW28426   2.228   0.174   5.850
 9176SOL    HW128427   2.213   0.266   5.814
 9176SOL    HW228428   2.239   0.179   5.950
 9177SOL     OW28429   0.851   4.239   3.442
 9177SOL    HW128430   0.860   4.271   3.536
 9177SOL    HW228431   0.925   4.277   3.386
 9178SOL     OW28432   2.040   4.805   0.522
 9178SOL    HW128433   2.133   4.768   0.528
 9178SOL    HW228434   2.042   4.903   0.541
 9179SOL     OW28435   3.421   4.922   4.081
 9179SOL    HW128436   3.343   4.860   4.092
 9179SOL    HW228437   3.448   4.958   4.170
 9180SOL     OW28438   5.542   2.197   3.764
 9180SOL    HW128439   5.509   2.291   3.777
 9180SOL    HW228440   5.489   2.152   3.692
 9181SOL     OW28441   4.474   2.107   2.399
 9181SOL    HW128442   4.519   2.088   2.486
 9181SOL    HW228443   4.415   2.187   2.408
 9182SOL     OW28444   0.922   6.331   1.698
 9182SOL    HW128445   0.921   6.361   1.602
 9182SOL    HW228446   0.836   6.356   1.742
 9183SOL     OW28447   5.372   6.785   0.617
 9183SOL    HW128448   5.418   6.702   0.650
 9183SOL    HW228449   5.440   6.856   0.600
 9184SOL     OW28450   4.986   0.009   0.834
 9184SOL    HW128451   4.985   0.108   0.821
 9184SOL    HW228452   5.077   7.001   0.815
 9185SOL     OW28453   3.490   0.877   4.977
 9185SOL    HW128454   3.393   0.853   4.965
 9185SOL    HW228455   3.521   0.845   5.067
 9186SOL     OW28456   6.567   1.041   5.435
 9186SOL    HW128457   6.564   1.048   5.335
 9186SOL    HW228458   6.650   1.085   5.469
 9187SOL     OW28459   2.370   6.573   1.817
 9187SOL    HW128460   2.433   6.521   1.760
 9187SOL    HW228461   2.389   6.554   1.914
 9188SOL     OW28462   2.221   6.595   1.330
 9188SOL    HW128463   2.288   6.537   1.284
 9188SOL    HW228464   2.259   6.687   1.342
 9189SOL     OW28465   5.127   5.554   2.480
 9189SOL    HW128466   5.075   5.583   2.400
 9189SOL    HW228467   5.100   5.609   2.559
 9190SOL     OW28468   1.833   5.064   0.331
 9190SOL    HW128469   1.819   5.133   0.260
 9190SOL    HW228470   1.892   4.991   0.296
 9191SOL     OW28471   6.899   0.381   5.763
 9191SOL    HW128472   6.895   0.288   5.800
 9191SOL    HW228473   6.993   0.415   5.771
 9192SOL     OW28474   6.856   4.380   4.251
 9192SOL    HW128475   6.931   4.364   4.316
 9192SOL    HW228476   6.800   4.298   4.243
 9193SOL     OW28477   2.819   3.669   0.246
 9193SOL    HW128478   2.815   3.676   0.346
 9193SOL    HW228479   2.863   3.583   0.220
 9194SOL     OW28480   3.464   0.734   4.027
 9194SOL    HW128481   3.389   0.749   3.962
 9194SOL    HW228482   3.486   0.820   4.073
 9195SOL     OW28483   1.646   1.952   3.806
 9195SOL    HW128484   1.734   1.995   3.826
 9195SOL    HW228485   1.615   1.901   3.886
 9196SOL     OW28486   4.747   2.348   5.222
 9196SOL    HW128487   4.782   2.348   5.316
 9196SOL    HW228488   4.783   2.269   5.173
 9197SOL     OW28489   2.296   3.655   1.671
 9197SOL    HW128490   2.342   3.587   1.727
 9197SOL    HW228491   2.269   3.733   1.727
 9198SOL     OW28492   6.162   5.171   4.793
 9198SOL    HW128493   6.210   5.242   4.740
 9198SOL    HW228494   6.228   5.124   4.851
 9199SOL     OW28495   6.639   4.382   5.218
 9199SOL    HW128496   6.672   4.460   5.164
 9199SOL    HW228497   6.565   4.337   5.169
 9200SOL     OW28498   3.621   6.942   0.571
 9200SOL    HW128499   3.555   6.882   0.526
 9200SOL    HW228500   3.601   0.011   0.549
 9201SOL     OW28501   1.484   4.164   0.230
 9201SOL    HW128502   1.451   4.190   0.320
 9201SOL    HW228503   1.475   4.065   0.218
 9202SOL     OW28504   2.326   0.425   3.239
 9202SOL    HW128505   2.399   0.358   3.236
 9202SOL    HW228506   2.334   0.480   3.323
 9203SOL     OW28507   6.404   5.657   0.647
 9203SOL    HW128508   6.339   5.634   0.575
 9203SOL    HW228509   6.393   5.593   0.723
 9204SOL     OW28510   5.117   1.089   6.237
 9204SOL    HW128511   5.039   1.032   6.263
 9204SOL    HW228512   5.202   1.040   6.257
 9205SOL     OW28513   6.679   3.674   2.599
 9205SOL    HW128514   6.663   3.760   2.551
 9205SOL    HW228515   6.656   3.685   2.696
 9206SOL     OW28516   3.912   6.021   0.551
 9206SOL    HW128517   3.895   5.923   0.543
 9206SOL    HW228518   3.964   6.053   0.472
 9207SOL     OW28519   5.211   5.783   0.077
 9207SOL    HW128520   5.291   5.724   0.075
 9207SOL    HW228521   5.133   5.733   0.114
 9208SOL     OW28522   0.995   3.585   3.645
 9208SOL    HW128523   0.900   3.594   3.673
 9208SOL    HW228524   1.047   3.665   3.676
 9209SOL     OW28525   2.930   1.225   6.315
 9209SOL    HW128526   2.906   1.225   6.218
 9209SOL    HW228527   2.933   1.319   6.349
 9210SOL     OW28528   6.716   1.029   3.522
 9210SOL    HW128529   6.633   0.989   3.483
 9210SOL    HW228530   6.767   1.077   3.451
 9211SOL     OW28531   0.463   1.449   3.445
 9211SOL    HW128532   0.453   1.387   3.367
 9211SOL    HW228533   0.523   1.525   3.420
 9212SOL     OW28534   3.195   5.018   4.887
 9212SOL    HW128535   3.128   4.986   4.820
 9212SOL    HW228536   3.216   5.114   4.870
 9213SOL     OW28537   5.838   3.789   6.029
 9213SOL    HW128538   5.842   3.693   6.057
 9213SOL    HW228539   5.756   3.832   6.067
 9214SOL     OW28540   0.224   5.373   0.866
 9214SOL    HW128541   0.316   5.382   0.905
 9214SOL    HW228542   0.219   5.288   0.813
 9215SOL     OW28543   0.818   0.972   0.543
 9215SOL    HW128544   0.851   1.066   0.543
 9215SOL    HW228545   0.896   0.909   0.538
 9216SOL     OW28546   2.367   6.508   2.935
 9216SOL    HW128547   2.372   6.459   3.022
 9216SOL    HW228548   2.389   6.446   2.860
 9217SOL     OW28549   1.375   2.524   6.963
 9217SOL    HW128550   1.468   2.510   6.931
 9217SOL    HW228551   1.315   2.453   6.925
 9218SOL     OW28552   3.136   0.565   0.517
 9218SOL    HW128553   3.082   0.481   0.523
 9218SOL    HW228554   3.152   0.588   0.421
 9219SOL     OW28555   0.313   2.272   1.007
 9219SOL    HW128556   0.310   2.175   0.983
 9219SOL    HW228557   0.220   2.306   1.021
 9220SOL     OW28558   3.613   6.634   1.882
 9220SOL    HW128559   3.552   6.657   1.807
 9220SOL    HW228560   3.665   6.715   1.909
 9221SOL     OW28561   2.463   5.612   4.476
 9221SOL    HW128562   2.412   5.532   4.444
 9221SOL    HW228563   2.466   5.680   4.402
 9222SOL     OW28564   2.393   2.239   6.021
 9222SOL    HW128565   2.492   2.249   6.008
 9222SOL    HW228566   2.353   2.327   6.046
 9223SOL     OW28567   2.773   3.000   5.366
 9223SOL    HW128568   2.729   2.925   5.414
 9223SOL    HW228569   2.719   3.025   5.285
 9224SOL     OW28570   2.131   5.052   4.731
 9224SOL    HW128571   2.198   5.044   4.804
 9224SOL    HW228572   2.044   5.014   4.762
 9225SOL     OW28573   2.268   5.673   6.515
 9225SOL    HW128574   2.321   5.683   6.599
 9225SOL    HW228575   2.274   5.579   6.482
 9226SOL     OW28576   4.829   0.083   1.166
 9226SOL    HW128577   4.790   0.141   1.238
 9226SOL    HW228578   4.769   0.005   1.149
 9227SOL     OW28579   1.856   5.431   2.818
 9227SOL    HW128580   1.910   5.405   2.898
 9227SOL    HW228581   1.821   5.348   2.774
 9228SOL     OW28582   1.216   0.432   7.000
 9228SOL    HW128583   1.178   0.515   6.959
 9228SOL    HW228584   1.315   0.440   7.007
 9229SOL     OW28585   0.429   5.590   4.994
 9229SOL    HW128586   0.379   5.660   5.045
 9229SOL    HW228587   0.432   5.615   4.897
 9230SOL     OW28588   5.591   0.572   4.223
 9230SOL    HW128589   5.669   0.512   4.240
 9230SOL    HW228590   5.593   0.648   4.288
 9231SOL     OW28591   1.495   2.702   3.623
 9231SOL    HW128592   1.419   2.753   3.583
 9231SOL    HW228593   1.471   2.605   3.627
 9232SOL     OW28594   3.610   4.640   1.194
 9232SOL    HW128595   3.674   4.716   1.202
 9232SOL    HW228596   3.633   4.586   1.113
 9233SOL     OW28597   5.528   5.098   0.420
 9233SOL    HW128598   5.537   5.004   0.452
 9233SOL    HW228599   5.609   5.150   0.446
 9234SOL     OW28600   2.575   5.653   3.693
 9234SOL    HW128601   2.540   5.625   3.782
 9234SOL    HW228602   2.623   5.741   3.702
 9235SOL     OW28603   0.769   2.135   3.136
 9235SOL    HW128604   0.801   2.047   3.173
 9235SOL    HW228605   0.707   2.118   3.059
 9236SOL     OW28606   2.965   3.307   4.999
 9236SOL    HW128607   2.978   3.260   5.086
 9236SOL    HW228608   2.998   3.249   4.924
 9237SOL     OW28609   1.849   3.842   3.853
 9237SOL    HW128610   1.814   3.765   3.907
 9237SOL    HW228611   1.823   3.829   3.757
 9238SOL     OW28612   4.723   2.792   6.111
 9238SOL    HW128613   4.693   2.779   6.206
 9238SOL    HW228614   4.660   2.744   6.050
 9239SOL     OW28615   1.273   4.373   1.010
 9239SOL    HW128616   1.293   4.275   1.000
 9239SOL    HW228617   1.175   4.386   1.021
 9240SOL     OW28618   4.515   1.490   2.365
 9240SOL    HW128619   4.520   1.587   2.388
 9240SOL    HW228620   4.453   1.443   2.428
 9241SOL     OW28621   0.578   5.719   6.825
 9241SOL    HW128622   0.664   5.685   6.863
 9241SOL    HW228623   0.507   5.718   6.895
 9242SOL     OW28624   6.343   6.060   1.987
 9242SOL    HW128625   6.310   6.051   1.893
 9242SOL    HW228626   6.275   6.110   2.042
 9243SOL     OW28627   5.997   5.726   4.864
 9243SOL    HW128628   6.019   5.823   4.861
 9243SOL    HW228629   5.928   5.710   4.934
 9244SOL     OW28630   3.626   4.926   6.398
 9244SOL    HW128631   3.718   4.911   6.361
 9244SOL    HW228632   3.611   4.866   6.477
 9245SOL     OW28633   0.271   5.793   1.751
 9245SOL    HW128634   0.277   5.818   1.848
 9245SOL    HW228635   0.363   5.774   1.716
 9246SOL     OW28636   0.295   5.527   4.039
 9246SOL    HW128637   0.201   5.497   4.024
 9246SOL    HW228638   0.338   5.549   3.952
 9247SOL     OW28639   1.894   6.710   2.755
 9247SOL    HW128640   1.881   6.747   2.847
 9247SOL    HW228641   1.810   6.665   2.725
 9248SOL     OW28642   2.545   1.679   6.347
 9248SOL    HW128643   2.478   1.676   6.422
 9248SOL    HW228644   2.511   1.739   6.275
 9249SOL     OW28645   4.728   0.285   3.977
 9249SOL    HW128646   4.763   0.282   3.883
 9249SOL    HW228647   4.707   0.192   4.007
 9250SOL     OW28648   5.197   3.732   3.987
 9250SOL    HW128649   5.257   3.792   3.934
 9250SOL    HW228650   5.252   3.663   4.033
 9251SOL     OW28651   3.315   2.102   2.759
 9251SOL    HW128652   3.231   2.154   2.776
 9251SOL    HW228653   3.309   2.058   2.670
 9252SOL     OW28654   0.405   0.296   5.308
 9252SOL    HW128655   0.310   0.316   5.332
 9252SOL    HW228656   0.422   0.323   5.214
 9253SOL     OW28657   1.340   6.924   6.119
 9253SOL    HW128658   1.372   6.838   6.159
 9253SOL    HW228659   1.344   6.996   6.188
 9254SOL     OW28660   5.797   4.112   1.374
 9254SOL    HW128661   5.815   4.056   1.293
 9254SOL    HW228662   5.825   4.207   1.356
 9255SOL     OW28663   5.553   4.507   0.835
 9255SOL    HW128664   5.534   4.581   0.901
 9255SOL    HW228665   5.605   4.544   0.758
 9256SOL     OW28666   4.125   4.726   2.049
 9256SOL    HW128667   4.208   4.675   2.071
 9256SOL    HW228668   4.075   4.746   2.133
 9257SOL     OW28669   1.311   4.590   1.179
 9257SOL    HW128670   1.215   4.605   1.154
 9257SOL    HW228671   1.348   4.515   1.126
 9258SOL     OW28672   4.143   3.657   3.216
 9258SOL    HW128673   4.157   3.558   3.214
 9258SOL    HW228674   4.128   3.687   3.311
 9259SOL     OW28675   1.059   3.113   0.765
 9259SOL    HW128676   1.029   3.124   0.670
 9259SOL    HW228677   0.995   3.053   0.813
 9260SOL     OW28678   5.337   3.465   5.610
 9260SOL    HW128679   5.307   3.371   5.618
 9260SOL    HW228680   5.395   3.475   5.529
 9261SOL     OW28681   4.374   0.433   6.407
 9261SOL    HW128682   4.426   0.501   6.356
 9261SOL    HW228683   4.379   0.345   6.360
 9262SOL     OW28684   4.947   1.171   5.704
 9262SOL    HW128685   4.985   1.117   5.780
 9262SOL    HW228686   4.896   1.249   5.742
 9263SOL     OW28687   5.254   3.750   1.606
 9263SOL    HW128688   5.296   3.769   1.695
 9263SOL    HW228689   5.156   3.765   1.611
 9264SOL     OW28690   6.555   3.738   0.227
 9264SOL    HW128691   6.459   3.761   0.215
 9264SOL    HW228692   6.570   3.702   0.319
 9265SOL     OW28693   2.115   1.505   6.708
 9265SOL    HW128694   2.118   1.513   6.808
 9265SOL    HW228695   2.102   1.410   6.682
 9266SOL     OW28696   2.181   6.278   3.089
 9266SOL    HW128697   2.156   6.297   2.994
 9266SOL    HW228698   2.256   6.212   3.090
 9267SOL     OW28699   1.172   4.824   4.456
 9267SOL    HW128700   1.192   4.727   4.473
 9267SOL    HW228701   1.249   4.866   4.408
 9268SOL     OW28702   0.861   6.925   2.976
 9268SOL    HW128703   0.912   6.920   2.890
 9268SOL    HW228704   0.788   6.856   2.976
 9269SOL     OW28705   3.213   1.591   6.353
 9269SOL    HW128706   3.212   1.544   6.264
 9269SOL    HW228707   3.199   1.524   6.426
 9270SOL     OW28708   6.933   6.920   6.244
 9270SOL    HW128709   7.023   6.959   6.226
 9270SOL    HW228710   6.886   6.977   6.312
 9271SOL     OW28711   1.552   5.074   0.274
 9271SOL    HW128712   1.634   5.048   0.325
 9271SOL    HW228713   1.472   5.064   0.332
 9272SOL     OW28714   2.644   5.059   5.868
 9272SOL    HW128715   2.584   5.057   5.948
 9272SOL    HW228716   2.594   5.022   5.789
 9273SOL     OW28717   4.182   5.614   4.845
 9273SOL    HW128718   4.121   5.662   4.781
 9273SOL    HW228719   4.215   5.530   4.801
 9274SOL     OW28720   6.414   2.268   6.813
 9274SOL    HW128721   6.432   2.341   6.879
 9274SOL    HW228722   6.349   2.300   6.744
 9275SOL     OW28723   1.469   0.548   6.703
 9275SOL    HW128724   1.443   0.606   6.779
 9275SOL    HW228725   1.499   0.605   6.626
 9276SOL     OW28726   4.407   5.847   5.141
 9276SOL    HW128727   4.406   5.912   5.217
 9276SOL    HW228728   4.416   5.754   5.177
 9277SOL     OW28729   3.734   2.876   0.010
 9277SOL    HW128730   3.639   2.861   0.036
 9277SOL    HW228731   3.758   2.813   6.963
 9278SOL     OW28732   1.153   2.000   2.455
 9278SOL    HW128733   1.144   2.090   2.412
 9278SOL    HW228734   1.247   1.987   2.486
 9279SOL     OW28735   3.208   6.988   1.850
 9279SOL    HW128736   3.253   0.038   1.805
 9279SOL    HW228737   3.260   6.904   1.832
 9280SOL     OW28738   2.176   6.578   3.428
 9280SOL    HW128739   2.166   6.483   3.460
 9280SOL    HW228740   2.252   6.621   3.476
 9281SOL     OW28741   2.070   2.358   0.226
 9281SOL    HW128742   2.119   2.385   0.143
 9281SOL    HW228743   2.137   2.332   0.296
 9282SOL     OW28744   4.337   1.821   5.606
 9282SOL    HW128745   4.262   1.784   5.661
 9282SOL    HW228746   4.361   1.755   5.535
 9283SOL     OW28747   5.470   2.740   2.288
 9283SOL    HW128748   5.555   2.773   2.246
 9283SOL    HW228749   5.442   2.654   2.244
 9284SOL     OW28750   3.195   3.148   1.106
 9284SOL    HW128751   3.183   3.214   1.032
 9284SOL    HW228752   3.285   3.161   1.148
 9285SOL     OW28753   6.256   2.995   6.910
 9285SOL    HW128754   6.267   3.029   7.003
 9285SOL    HW228755   6.303   3.056   6.846
 9286SOL     OW28756   5.170   6.662   5.332
 9286SOL    HW128757   5.244   6.661   5.265
 9286SOL    HW228758   5.087   6.626   5.290
 9287SOL     OW28759   3.314   6.643   1.539
 9287SOL    HW128760   3.246   6.572   1.522
 9287SOL    HW228761   3.406   6.603   1.540
 9288SOL     OW28762   5.059   2.382   5.766
 9288SOL    HW128763   5.113   2.423   5.840
 9288SOL    HW228764   4.968   2.424   5.763
 9289SOL     OW28765   4.866   2.864   2.426
 9289SOL    HW128766   4.912   2.885   2.512
 9289SOL    HW228767   4.908   2.783   2.385
 9290SOL     OW28768   4.822   2.114   4.600
 9290SOL    HW128769   4.729   2.076   4.608
 9290SOL    HW228770   4.889   2.043   4.620
 9291SOL     OW28771   0.371   1.241   4.413
 9291SOL    HW128772   0.320   1.160   4.440
 9291SOL    HW228773   0.314   1.299   4.354
 9292SOL     OW28774   0.295   3.359   6.581
 9292SOL    HW128775   0.302   3.432   6.513
 9292SOL    HW228776   0.364   3.289   6.562
 9293SOL     OW28777   5.446   4.038   0.251
 9293SOL    HW128778   5.353   4.020   0.220
 9293SOL    HW228779   5.502   3.956   0.240
 9294SOL     OW28780   5.502   6.429   6.891
 9294SOL    HW128781   5.596   6.402   6.870
 9294SOL    HW228782   5.489   6.525   6.868
 9295SOL     OW28783   4.965   1.626   2.957
 9295SOL    HW128784   5.046   1.670   2.917
 9295SOL    HW228785   4.992   1.542   3.003
 9296SOL     OW28786   5.846   6.924   5.793
 9296SOL    HW128787   5.926   6.967   5.834
 9296SOL    HW228788   5.868   6.831   5.764
 9297SOL     OW28789   0.293   1.013   0.761
 9297SOL    HW128790   0.259   0.979   0.848
 9297SOL    HW228791   0.337   0.939   0.711
 9298SOL     OW28792   1.314   5.980   5.042
 9298SOL    HW128793   1.318   6.031   4.957
 9298SOL    HW228794   1.375   6.022   5.109
 9299SOL     OW28795   1.866   3.217   4.266
 9299SOL    HW128796   1.953   3.197   4.309
 9299SOL    HW228797   1.791   3.182   4.323
 9300SOL     OW28798   5.212   4.662   4.806
 9300SOL    HW128799   5.149   4.585   4.799
 9300SOL    HW228800   5.284   4.652   4.737
 9301SOL     OW28801   5.179   4.468   2.693
 9301SOL    HW128802   5.181   4.541   2.625
 9301SOL    HW228803   5.125   4.391   2.657
 9302SOL     OW28804   2.384   1.972   2.560
 9302SOL    HW128805   2.445   2.050   2.547
 9302SOL    HW228806   2.293   1.995   2.525
 9303SOL     OW28807   3.568   5.688   6.960
 9303SOL    HW128808   3.537   5.602   6.919
 9303SOL    HW228809   3.602   5.670   0.026
 9304SOL     OW28810   3.733   3.694   0.851
 9304SOL    HW128811   3.807   3.629   0.834
 9304SOL    HW228812   3.663   3.651   0.908
 9305SOL     OW28813   5.647   3.105   1.952
 9305SOL    HW128814   5.592   3.022   1.963
 9305SOL    HW228815   5.717   3.108   2.024
 9306SOL     OW28816   6.786   3.937   4.331
 9306SOL    HW128817   6.856   3.970   4.268
 9306SOL    HW228818   6.821   3.860   4.383
 9307SOL     OW28819   1.577   1.950   0.169
 9307SOL    HW128820   1.496   1.900   0.201
 9307SOL    HW228821   1.653   1.933   0.231
 9308SOL     OW28822   0.066   3.000   0.616
 9308SOL    HW128823   0.142   3.030   0.673
 9308SOL    HW228824   0.089   3.012   0.520
 9309SOL     OW28825   4.686   3.341   5.744
 9309SOL    HW128826   4.778   3.369   5.718
 9309SOL    HW228827   4.653   3.399   5.819
 9310SOL     OW28828   4.398   6.104   6.913
 9310SOL    HW128829   4.493   6.079   6.893
 9310SOL    HW228830   4.396   6.168   6.990
 9311SOL     OW28831   6.017   3.425   0.961
 9311SOL    HW128832   6.088   3.466   1.017
 9311SOL    HW228833   5.964   3.361   1.016
 9312SOL     OW28834   1.436   4.050   6.356
 9312SOL    HW128835   1.468   4.113   6.286
 9312SOL    HW228836   1.336   4.054   6.362
 9313SOL     OW28837   6.704   6.757   2.974
 9313SOL    HW128838   6.779   6.713   2.926
 9313SOL    HW228839   6.736   6.843   3.014
 9314SOL     OW28840   4.929   4.544   0.218
 9314SOL    HW128841   4.895   4.543   0.312
 9314SOL    HW228842   4.888   4.621   0.168
 9315SOL     OW28843   0.248   6.670   6.015
 9315SOL    HW128844   0.155   6.635   5.999
 9315SOL    HW228845   0.313   6.615   5.963
 9316SOL     OW28846   4.063   6.159   4.057
 9316SOL    HW128847   3.994   6.205   4.002
 9316SOL    HW228848   4.020   6.085   4.109
 9317SOL     OW28849   6.620   4.886   3.912
 9317SOL    HW128850   6.719   4.883   3.911
 9317SOL    HW228851   6.589   4.982   3.907
 9318SOL     OW28852   0.523   0.513   6.362
 9318SOL    HW128853   0.587   0.480   6.293
 9318SOL    HW228854   0.430   0.496   6.332
 9319SOL     OW28855   0.408   3.131   5.773
 9319SOL    HW128856   0.350   3.179   5.707
 9319SOL    HW228857   0.361   3.126   5.861
 9320SOL     OW28858   4.222   2.376   5.991
 9320SOL    HW128859   4.150   2.436   6.026
 9320SOL    HW228860   4.310   2.401   6.033
 9321SOL     OW28861   6.429   5.941   3.390
 9321SOL    HW128862   6.341   5.952   3.345
 9321SOL    HW228863   6.484   6.024   3.374
 9322SOL     OW28864   1.074   6.440   6.657
 9322SOL    HW128865   1.063   6.538   6.675
 9322SOL    HW228866   1.027   6.416   6.573
 9323SOL     OW28867   0.904   0.934   6.542
 9323SOL    HW128868   0.953   0.853   6.576
 9323SOL    HW228869   0.810   0.910   6.521
 9324SOL     OW28870   1.491   5.732   0.321
 9324SOL    HW128871   1.533   5.815   0.285
 9324SOL    HW228872   1.518   5.720   0.417
 9325SOL     OW28873   5.915   2.655   1.025
 9325SOL    HW128874   5.946   2.634   1.118
 9325SOL    HW228875   5.988   2.633   0.960
 9326SOL     OW28876   1.444   6.669   1.283
 9326SOL    HW128877   1.409   6.760   1.305
 9326SOL    HW228878   1.465   6.619   1.367
 9327SOL     OW28879   4.291   1.083   2.735
 9327SOL    HW128880   4.332   0.994   2.758
 9327SOL    HW228881   4.335   1.120   2.654
 9328SOL     OW28882   3.620   1.432   1.484
 9328SOL    HW128883   3.599   1.522   1.445
 9328SOL    HW228884   3.587   1.360   1.423
 9329SOL     OW28885   1.062   3.211   1.782
 9329SOL    HW128886   1.116   3.131   1.757
 9329SOL    HW228887   1.056   3.217   1.882
 9330SOL     OW28888   5.898   0.904   0.079
 9330SOL    HW128889   5.831   0.946   0.019
 9330SOL    HW228890   5.966   0.972   0.107
 9331SOL     OW28891   0.794   0.908   6.888
 9331SOL    HW128892   0.788   0.998   6.844
 9331SOL    HW228893   0.704   0.864   6.884
 9332SOL     OW28894   2.914   3.268   3.939
 9332SOL    HW128895   2.957   3.188   3.897
 9332SOL    HW228896   2.915   3.258   4.039
 9333SOL     OW28897   6.029   4.762   0.418
 9333SOL    HW128898   5.975   4.681   0.441
 9333SOL    HW228899   6.011   4.835   0.484
 9334SOL     OW28900   3.110   0.231   4.493
 9334SOL    HW128901   3.139   0.149   4.443
 9334SOL    HW228902   3.047   0.284   4.436
 9335SOL     OW28903   0.900   0.509   0.469
 9335SOL    HW128904   0.815   0.547   0.435
 9335SOL    HW228905   0.880   0.434   0.531
 9336SOL     OW28906   2.612   6.750   6.140
 9336SOL    HW128907   2.514   6.772   6.139
 9336SOL    HW228908   2.630   6.675   6.077
 9337SOL     OW28909   5.530   0.443   2.386
 9337SOL    HW128910   5.624   0.475   2.373
 9337SOL    HW228911   5.524   0.346   2.361
 9338SOL     OW28912   3.820   0.208   1.913
 9338SOL    HW128913   3.855   0.138   1.851
 9338SOL    HW228914   3.892   0.276   1.930
 9339SOL     OW28915   4.567   6.365   1.160
 9339SOL    HW128916   4.624   6.444   1.179
 9339SOL    HW228917   4.564   6.306   1.241
 9340SOL     OW28918   6.094   3.508   6.563
 9340SOL    HW128919   6.121   3.594   6.606
 9340SOL    HW228920   6.083   3.522   6.464
 9341SOL     OW28921   0.089   5.383   6.573
 9341SOL    HW128922   0.177   5.431   6.563
 9341SOL    HW228923   0.021   5.427   6.515
 9342SOL     OW28924   1.476   6.251   6.165
 9342SOL    HW128925   1.399   6.231   6.104
 9342SOL    HW228926   1.556   6.276   6.111
 9343SOL     OW28927   5.943   5.311   4.738
 9343SOL    HW128928   5.943   5.323   4.639
 9343SOL    HW228929   6.009   5.241   4.763
 9344SOL     OW28930   5.187   0.209   1.529
 9344SOL    HW128931   5.112   0.170   1.476
 9344SOL    HW228932   5.257   0.245   1.467
 9345SOL     OW28933   6.663   3.229   1.313
 9345SOL    HW128934   6.654   3.309   1.372
 9345SOL    HW228935   6.651   3.146   1.368
 9346SOL     OW28936   5.718   7.020   0.899
 9346SOL    HW128937   5.789   7.023   0.969
 9346SOL    HW228938   5.754   0.030   0.813
 9347SOL     OW28939   1.339   6.925   1.377
 9347SOL    HW128940   1.244   6.952   1.360
 9347SOL    HW228941   1.360   6.942   1.473
 9348SOL     OW28942   3.135   4.863   6.870
 9348SOL    HW128943   3.040   4.859   6.841
 9348SOL    HW228944   3.155   4.954   6.906
 9349SOL     OW28945   2.012   6.966   2.710
 9349SOL    HW128946   1.977   6.873   2.714
 9349SOL    HW228947   2.028   6.992   2.615
 9350SOL     OW28948   0.672   2.692   5.868
 9350SOL    HW128949   0.723   2.680   5.954
 9350SOL    HW228950   0.628   2.606   5.843
 9351SOL     OW28951   2.974   1.962   6.542
 9351SOL    HW128952   3.061   1.993   6.503
 9351SOL    HW228953   2.974   1.976   6.641
 9352SOL     OW28954   2.341   4.994   5.445
 9352SOL    HW128955   2.255   5.021   5.488
 9352SOL    HW228956   2.418   5.029   5.498
 9353SOL     OW28957   6.345   0.360   1.129
 9353SOL    HW128958   6.357   0.360   1.030
 9353SOL    HW228959   6.433   0.370   1.174
 9354SOL     OW28960   6.999   2.500   6.477
 9354SOL    HW128961   7.020   2.545   6.390
 9354SOL    HW228962   7.009   2.401   6.466
 9355SOL     OW28963   0.073   1.678   5.160
 9355SOL    HW128964   0.145   1.727   5.209
 9355SOL    HW228965   0.104   1.658   5.067
 9356SOL     OW28966   4.991   0.130   2.121
 9356SOL    HW128967   5.063   0.068   2.151
 9356SOL    HW228968   4.967   0.109   2.026
 9357SOL     OW28969   0.723   2.224   6.786
 9357SOL    HW128970   0.683   2.140   6.821
 9357SOL    HW228971   0.650   2.290   6.767
 9358SOL     OW28972   0.822   3.538   1.223
 9358SOL    HW128973   0.847   3.566   1.315
 9358SOL    HW228974   0.811   3.438   1.220
 9359SOL     OW28975   1.430   0.284   5.344
 9359SOL    HW128976   1.471   0.266   5.255
 9359SOL    HW228977   1.481   0.235   5.415
 9360SOL     OW28978   1.044   6.759   6.530
 9360SOL    HW128979   1.073   6.719   6.443
 9360SOL    HW228980   1.106   6.833   6.555
 9361SOL     OW28981   2.006   6.146   3.888
 9361SOL    HW128982   2.006   6.051   3.918
 9361SOL    HW228983   1.969   6.152   3.796
 9362SOL     OW28984   1.825   0.372   2.673
 9362SOL    HW128985   1.800   0.307   2.745
 9362SOL    HW228986   1.873   0.324   2.599
 9363SOL     OW28987   2.360   4.897   2.271
 9363SOL    HW128988   2.390   4.960   2.342
 9363SOL    HW228989   2.263   4.914   2.250
 9364SOL     OW28990   1.586   2.353   0.818
 9364SOL    HW128991   1.610   2.435   0.766
 9364SOL    HW228992   1.579   2.375   0.915
 9365SOL     OW28993   3.463   1.763   4.541
 9365SOL    HW128994   3.373   1.773   4.584
 9365SOL    HW228995   3.522   1.707   4.598
 9366SOL     OW28996   4.006   5.578   1.525
 9366SOL    HW128997   4.046   5.540   1.608
 9366SOL    HW228998   4.001   5.507   1.455
 9367SOL     OW28999   0.048   1.030   1.213
 9367SOL    HW129000   0.027   0.959   1.146
 9367SOL    HW229001   0.087   0.988   1.295
 9368SOL     OW29002   3.321   0.016   3.312
 9368SOL    HW129003   3.260   7.009   3.240
 9368SOL    HW229004   3.298   6.999   3.399
 9369SOL     OW29005   2.676   5.427   0.312
 9369SOL    HW129006   2.707   5.414   0.217
 9369SOL    HW229007   2.644   5.522   0.323
 9370SOL     OW29008   4.519   1.496   4.279
 9370SOL    HW129009   4.579   1.558   4.229
 9370SOL    HW229010   4.572   1.416   4.309
 9371SOL     OW29011   4.502   5.457   1.003
 9371SOL    HW129012   4.464   5.512   0.928
 9371SOL    HW229013   4.427   5.422   1.059
 9372SOL     OW29014   4.527   6.511   1.717
 9372SOL    HW129015   4.573   6.597   1.694
 9372SOL    HW229016   4.438   6.508   1.672
 9373SOL     OW29017   0.048   2.377   1.010
 9373SOL    HW129018   0.091   2.450   0.957
 9373SOL    HW229019   7.023   2.317   0.949
 9374SOL     OW29020   0.239   5.395   5.866
 9374SOL    HW129021   0.278   5.308   5.835
 9374SOL    HW229022   0.197   5.442   5.789
 9375SOL     OW29023   0.387   0.788   0.568
 9375SOL    HW129024   0.485   0.784   0.546
 9375SOL    HW229025   0.343   0.857   0.511
 9376SOL     OW29026   1.879   3.765   1.710
 9376SOL    HW129027   1.842   3.809   1.792
 9376SOL    HW229028   1.929   3.833   1.656
 9377SOL     OW29029   1.810   0.847   3.820
 9377SOL    HW129030   1.744   0.909   3.863
 9377SOL    HW229031   1.852   0.893   3.742
 9378SOL     OW29032   3.387   0.833   4.356
 9378SOL    HW129033   3.329   0.872   4.428
 9378SOL    HW229034   3.463   0.895   4.338
 9379SOL     OW29035   4.235   6.550   4.353
 9379SOL    HW129036   4.272   6.457   4.353
 9379SOL    HW229037   4.199   6.571   4.443
 9380SOL     OW29038   4.861   5.918   0.046
 9380SOL    HW129039   4.903   5.856   7.006
 9380SOL    HW229040   4.887   6.012   0.024
 9381SOL     OW29041   5.956   1.450   5.381
 9381SOL    HW129042   5.924   1.365   5.337
 9381SOL    HW229043   6.037   1.431   5.435
 9382SOL     OW29044   3.015   5.869   5.274
 9382SOL    HW129045   3.024   5.800   5.202
 9382SOL    HW229046   3.041   5.958   5.238
 9383SOL     OW29047   5.803   4.635   2.630
 9383SOL    HW129048   5.874   4.603   2.693
 9383SOL    HW229049   5.718   4.584   2.647
 9384SOL     OW29050   2.598   0.785   2.290
 9384SOL    HW129051   2.549   0.784   2.203
 9384SOL    HW229052   2.695   0.770   2.274
 9385SOL     OW29053   4.680   1.518   3.767
 9385SOL    HW129054   4.608   1.488   3.704
 9385SOL    HW229055   4.760   1.460   3.758
 9386SOL     OW29056   4.611   6.472   0.647
 9386SOL    HW129057   4.619   6.501   0.743
 9386SOL    HW229058   4.667   6.532   0.590
 9387SOL     OW29059   2.839   2.669   0.414
 9387SOL    HW129060   2.743   2.652   0.433
 9387SOL    HW229061   2.886   2.694   0.499
 9388SOL     OW29062   2.322   6.359   5.019
 9388SOL    HW129063   2.346   6.408   4.936
 9388SOL    HW229064   2.328   6.421   5.097
 9389SOL     OW29065   2.610   5.070   2.030
 9389SOL    HW129066   2.587   4.974   2.045
 9389SOL    HW229067   2.536   5.115   1.981
 9390SOL     OW29068   5.281   5.385   4.371
 9390SOL    HW129069   5.273   5.353   4.276
 9390SOL    HW229070   5.351   5.332   4.418
 9391SOL     OW29071   1.502   4.838   4.321
 9391SOL    HW129072   1.526   4.905   4.392
 9391SOL    HW229073   1.546   4.751   4.341
 9392SOL     OW29074   5.050   4.522   3.194
 9392SOL    HW129075   5.020   4.476   3.110
 9392SOL    HW229076   5.150   4.521   3.200
 9393SOL     OW29077   2.424   6.172   6.220
 9393SOL    HW129078   2.490   6.232   6.265
 9393SOL    HW229079   2.467   6.084   6.201
 9394SOL     OW29080   3.477   1.009   0.210
 9394SOL    HW129081   3.559   1.062   0.191
 9394SOL    HW229082   3.441   1.034   0.300
 9395SOL     OW29083   1.912   1.789   0.868
 9395SOL    HW129084   1.862   1.872   0.891
 9395SOL    HW229085   1.895   1.765   0.773
 9396SOL     OW29086   0.628   6.743   6.867
 9396SOL    HW129087   0.585   6.654   6.859
 9396SOL    HW229088   0.716   6.742   6.820
 9397SOL     OW29089   3.503   0.550   5.141
 9397SOL    HW129090   3.418   0.602   5.129
 9397SOL    HW229091   3.499   0.467   5.085
 9398SOL     OW29092   0.709   1.877   0.150
 9398SOL    HW129093   0.713   1.778   0.139
 9398SOL    HW229094   0.794   1.918   0.118
 9399SOL     OW29095   0.845   2.822   4.129
 9399SOL    HW129096   0.752   2.835   4.163
 9399SOL    HW229097   0.903   2.899   4.159
 9400SOL     OW29098   5.532   1.206   0.800
 9400SOL    HW129099   5.534   1.157   0.713
 9400SOL    HW229100   5.482   1.292   0.790
 9401SOL     OW29101   0.708   2.325   3.880
 9401SOL    HW129102   0.627   2.330   3.822
 9401SOL    HW229103   0.731   2.229   3.896
 9402SOL     OW29104   2.537   6.519   3.898
 9402SOL    HW129105   2.573   6.587   3.962
 9402SOL    HW229106   2.456   6.556   3.852
 9403SOL     OW29107   5.907   2.222   2.113
 9403SOL    HW129108   5.877   2.228   2.208
 9403SOL    HW229109   5.831   2.245   2.052
 9404SOL     OW29110   2.154   2.612   0.989
 9404SOL    HW129111   2.239   2.628   0.938
 9404SOL    HW229112   2.131   2.515   0.986
 9405SOL     OW29113   6.727   5.709   5.282
 9405SOL    HW129114   6.729   5.722   5.183
 9405SOL    HW229115   6.801   5.647   5.310
 9406SOL     OW29116   0.681   2.458   7.019
 9406SOL    HW129117   0.686   2.557   7.006
 9406SOL    HW229118   0.752   2.414   6.964
 9407SOL     OW29119   1.317   5.053   5.541
 9407SOL    HW129120   1.281   5.140   5.507
 9407SOL    HW229121   1.409   5.038   5.504
 9408SOL     OW29122   0.201   3.601   4.572
 9408SOL    HW129123   0.223   3.572   4.665
 9408SOL    HW229124   0.277   3.652   4.534
 9409SOL     OW29125   6.495   4.959   3.169
 9409SOL    HW129126   6.555   5.022   3.120
 9409SOL    HW229127   6.507   4.971   3.267
 9410SOL     OW29128   3.482   1.037   0.860
 9410SOL    HW129129   3.556   1.018   0.796
 9410SOL    HW229130   3.491   1.131   0.894
 9411SOL     OW29131   2.999   3.481   3.008
 9411SOL    HW129132   3.025   3.538   2.929
 9411SOL    HW229133   2.971   3.391   2.975
 9412SOL     OW29134   5.816   6.202   1.275
 9412SOL    HW129135   5.823   6.139   1.198
 9412SOL    HW229136   5.874   6.282   1.258
 9413SOL     OW29137   4.821   4.028   2.992
 9413SOL    HW129138   4.739   3.979   3.021
 9413SOL    HW229139   4.880   3.966   2.940
 9414SOL     OW29140   1.761   2.165   3.476
 9414SOL    HW129141   1.827   2.203   3.411
 9414SOL    HW229142   1.749   2.067   3.457
 9415SOL     OW29143   5.125   1.365   2.182
 9415SOL    HW129144   5.180   1.448   2.184
 9415SOL    HW229145   5.095   1.342   2.275
 9416SOL     OW29146   5.690   5.367   5.223
 9416SOL    HW129147   5.716   5.382   5.318
 9416SOL    HW229148   5.642   5.280   5.215
 9417SOL     OW29149   3.023   5.581   2.941
 9417SOL    HW129150   3.102   5.635   2.911
 9417SOL    HW229151   2.942   5.612   2.892
 9418SOL     OW29152   3.581   1.530   5.154
 9418SOL    HW129153   3.487   1.533   5.121
 9418SOL    HW229154   3.586   1.481   5.241
 9419SOL     OW29155   1.391   3.092   6.462
 9419SOL    HW129156   1.339   3.094   6.377
 9419SOL    HW229157   1.450   3.012   6.463
 9420SOL     OW29158   5.682   4.213   6.436
 9420SOL    HW129159   5.742   4.290   6.417
 9420SOL    HW229160   5.590   4.234   6.405
 9421SOL     OW29161   4.143   6.670   6.859
 9421SOL    HW129162   4.072   6.661   6.929
 9421SOL    HW229163   4.114   6.625   6.775
 9422SOL     OW29164   1.846   6.165   5.777
 9422SOL    HW129165   1.799   6.085   5.814
 9422SOL    HW229166   1.923   6.135   5.720
 9423SOL     OW29167   4.401   4.612   2.609
 9423SOL    HW129168   4.437   4.524   2.577
 9423SOL    HW229169   4.474   4.664   2.652
 9424SOL     OW29170   6.133   0.179   4.046
 9424SOL    HW129171   6.204   0.217   3.987
 9424SOL    HW229172   6.046   0.174   3.995
 9425SOL     OW29173   6.620   4.058   1.223
 9425SOL    HW129174   6.524   4.085   1.225
 9425SOL    HW229175   6.653   4.058   1.129
 9426SOL     OW29176   6.698   2.661   6.084
 9426SOL    HW129177   6.793   2.630   6.093
 9426SOL    HW229178   6.656   2.665   6.174
 9427SOL     OW29179   4.599   4.377   2.572
 9427SOL    HW129180   4.695   4.406   2.565
 9427SOL    HW229181   4.570   4.380   2.667
 9428SOL     OW29182   1.282   5.733   5.914
 9428SOL    HW129183   1.362   5.672   5.916
 9428SOL    HW229184   1.217   5.701   5.845
 9429SOL     OW29185   2.361   2.763   4.425
 9429SOL    HW129186   2.351   2.683   4.366
 9429SOL    HW229187   2.382   2.733   4.518
 9430SOL     OW29188   1.586   1.646   4.388
 9430SOL    HW129189   1.509   1.587   4.366
 9430SOL    HW229190   1.671   1.604   4.356
 9431SOL     OW29191   0.534   4.445   5.661
 9431SOL    HW129192   0.528   4.387   5.580
 9431SOL    HW229193   0.577   4.532   5.636
 9432SOL     OW29194   6.894   1.233   3.658
 9432SOL    HW129195   6.873   1.136   3.645
 9432SOL    HW229196   6.833   1.271   3.727
 9433SOL     OW29197   4.360   5.879   1.735
 9433SOL    HW129198   4.301   5.811   1.692
 9433SOL    HW229199   4.450   5.879   1.691
 9434SOL     OW29200   4.629   5.644   4.220
 9434SOL    HW129201   4.596   5.616   4.310
 9434SOL    HW229202   4.677   5.567   4.177
 9435SOL     OW29203   6.694   3.819   0.827
 9435SOL    HW129204   6.702   3.732   0.876
 9435SOL    HW229205   6.619   3.813   0.761
 9436SOL     OW29206   2.487   1.119   3.025
 9436SOL    HW129207   2.444   1.191   3.079
 9436SOL    HW229208   2.428   1.038   3.024
 9437SOL     OW29209   5.165   0.342   5.032
 9437SOL    HW129210   5.181   0.279   4.956
 9437SOL    HW229211   5.193   0.299   5.118
 9438SOL     OW29212   4.679   6.842   2.328
 9438SOL    HW129213   4.673   6.743   2.314
 9438SOL    HW229214   4.743   6.862   2.401
 9439SOL     OW29215   1.782   4.086   1.258
 9439SOL    HW129216   1.815   4.033   1.180
 9439SOL    HW229217   1.762   4.025   1.334
 9440SOL     OW29218   2.158   5.029   3.279
 9440SOL    HW129219   2.066   5.013   3.316
 9440SOL    HW229220   2.150   5.073   3.189
 9441SOL     OW29221   0.200   6.996   4.579
 9441SOL    HW129222   0.224   0.030   4.503
 9441SOL    HW229223   0.275   6.993   4.644
 9442SOL     OW29224   6.130   3.373   0.672
 9442SOL    HW129225   6.101   3.332   0.759
 9442SOL    HW229226   6.126   3.304   0.600
 9443SOL     OW29227   2.068   4.441   2.267
 9443SOL    HW129228   2.072   4.413   2.363
 9443SOL    HW229229   2.104   4.367   2.209
 9444SOL     OW29230   1.553   4.926   6.293
 9444SOL    HW129231   1.635   4.908   6.347
 9444SOL    HW229232   1.574   4.994   6.223
 9445SOL     OW29233   0.055   1.320   4.383
 9445SOL    HW129234   0.110   1.316   4.467
 9445SOL    HW229235   0.015   1.411   4.374
 9446SOL     OW29236   6.232   3.743   4.375
 9446SOL    HW129237   6.315   3.689   4.388
 9446SOL    HW229238   6.237   3.826   4.431
 9447SOL     OW29239   4.911   4.287   2.235
 9447SOL    HW129240   4.815   4.291   2.263
 9447SOL    HW229241   4.937   4.192   2.219
 9448SOL     OW29242   6.305   1.163   6.052
 9448SOL    HW129243   6.379   1.096   6.054
 9448SOL    HW229244   6.256   1.156   5.966
 9449SOL     OW29245   4.993   6.836   2.153
 9449SOL    HW129246   5.004   6.814   2.250
 9449SOL    HW229247   5.080   6.821   2.106
 9450SOL     OW29248   1.274   6.273   2.788
 9450SOL    HW129249   1.224   6.360   2.785
 9450SOL    HW229250   1.309   6.258   2.880
 9451SOL     OW29251   4.239   4.943   6.614
 9451SOL    HW129252   4.301   4.982   6.681
 9451SOL    HW229253   4.173   5.012   6.584
 9452SOL     OW29254   5.871   4.409   6.448
 9452SOL    HW129255   5.912   4.493   6.414
 9452SOL    HW229256   5.845   4.421   6.544
 9453SOL     OW29257   5.399   4.622   1.926
 9453SOL    HW129258   5.363   4.550   1.866
 9453SOL    HW229259   5.327   4.689   1.944
 9454SOL     OW29260   6.134   4.557   0.202
 9454SOL    HW129261   6.113   4.564   0.300
 9454SOL    HW229262   6.065   4.605   0.149
 9455SOL     OW29263   4.345   1.190   1.664
 9455SOL    HW129264   4.319   1.247   1.742
 9455SOL    HW229265   4.358   1.096   1.694
 9456SOL     OW29266   6.890   2.469   3.137
 9456SOL    HW129267   6.809   2.456   3.194
 9456SOL    HW229268   6.936   2.382   3.122
 9457SOL     OW29269   6.380   6.968   5.081
 9457SOL    HW129270   6.325   6.897   5.038
 9457SOL    HW229271   6.319   0.010   5.121
 9458SOL     OW29272   5.876   3.914   0.056
 9458SOL    HW129273   5.960   3.945   0.102
 9458SOL    HW229274   5.825   3.994   0.024
 9459SOL     OW29275   4.608   4.407   5.034
 9459SOL    HW129276   4.654   4.426   4.947
 9459SOL    HW229277   4.516   4.445   5.033
 9460SOL     OW29278   1.180   3.140   2.229
 9460SOL    HW129279   1.279   3.154   2.218
 9460SOL    HW229280   1.150   3.186   2.313
 9461SOL     OW29281   1.659   1.513   1.414
 9461SOL    HW129282   1.682   1.429   1.465
 9461SOL    HW229283   1.600   1.571   1.471
 9462SOL     OW29284   0.107   1.103   4.213
 9462SOL    HW129285   0.099   1.027   4.278
 9462SOL    HW229286   0.090   1.189   4.260
 9463SOL     OW29287   5.872   4.381   1.332
 9463SOL    HW129288   5.932   4.460   1.325
 9463SOL    HW229289   5.784   4.402   1.289
 9464SOL     OW29290   1.356   0.630   1.983
 9464SOL    HW129291   1.455   0.642   1.976
 9464SOL    HW229292   1.327   0.641   2.078
 9465SOL     OW29293   6.363   5.018   0.833
 9465SOL    HW129294   6.314   5.032   0.747
 9465SOL    HW229295   6.339   5.091   0.898
 9466SOL     OW29296   4.348   3.602   5.519
 9466SOL    HW129297   4.404   3.609   5.437
 9466SOL    HW229298   4.289   3.521   5.513
 9467SOL     OW29299   1.661   2.924   0.399
 9467SOL    HW129300   1.614   2.861   0.336
 9467SOL    HW229301   1.742   2.961   0.354
 9468SOL     OW29302   5.979   1.454   0.659
 9468SOL    HW129303   5.905   1.497   0.608
 9468SOL    HW229304   6.060   1.512   0.656
 9469SOL     OW29305   6.881   6.451   1.395
 9469SOL    HW129306   6.801   6.404   1.433
 9469SOL    HW229307   6.852   6.538   1.354
 9470SOL     OW29308   3.260   3.227   0.087
 9470SOL    HW129309   3.320   3.186   0.018
 9470SOL    HW229310   3.272   3.326   0.088
 9471SOL     OW29311   6.427   2.632   4.878
 9471SOL    HW129312   6.355   2.604   4.814
 9471SOL    HW229313   6.388   2.691   4.948
 9472SOL     OW29314   1.899   3.203   6.008
 9472SOL    HW129315   1.954   3.286   5.995
 9472SOL    HW229316   1.948   3.124   5.969
 9473SOL     OW29317   2.527   3.781   1.081
 9473SOL    HW129318   2.608   3.735   1.044
 9473SOL    HW229319   2.465   3.712   1.120
 9474SOL     OW29320   5.538   4.258   1.040
 9474SOL    HW129321   5.489   4.326   0.986
 9474SOL    HW229322   5.492   4.169   1.031
 9475SOL     OW29323   5.007   4.295   5.994
 9475SOL    HW129324   5.082   4.246   6.039
 9475SOL    HW229325   4.964   4.235   5.927
 9476SOL     OW29326   4.437   4.097   0.694
 9476SOL    HW129327   4.362   4.100   0.761
 9476SOL    HW229328   4.496   4.019   0.715
 9477SOL     OW29329   2.267   4.538   0.318
 9477SOL    HW129330   2.341   4.604   0.306
 9477SOL    HW229331   2.294   4.450   0.279
 9478SOL     OW29332   5.638   3.496   5.877
 9478SOL    HW129333   5.690   3.532   5.799
 9478SOL    HW229334   5.598   3.571   5.928
 9479SOL     OW29335   4.566   0.620   2.051
 9479SOL    HW129336   4.655   0.657   2.025
 9479SOL    HW229337   4.577   0.553   2.124
 9480SOL     OW29338   6.309   0.863   0.840
 9480SOL    HW129339   6.308   0.888   0.744
 9480SOL    HW229340   6.231   0.904   0.887
 9481SOL     OW29341   4.129   0.363   2.897
 9481SOL    HW129342   4.134   0.280   2.841
 9481SOL    HW229343   4.174   0.346   2.985
 9482SOL     OW29344   6.102   5.755   0.185
 9482SOL    HW129345   6.173   5.806   0.136
 9482SOL    HW229346   6.024   5.815   0.200
 9483SOL     OW29347   6.701   6.455   0.026
 9483SOL    HW129348   6.727   6.362   0.053
 9483SOL    HW229349   6.770   6.520   0.057
 9484SOL     OW29350   3.532   5.877   4.303
 9484SOL    HW129351   3.567   5.788   4.331
 9484SOL    HW229352   3.453   5.864   4.243
 9485SOL     OW29353   0.057   1.113   6.304
 9485SOL    HW129354   0.079   1.177   6.377
 9485SOL    HW229355   0.134   1.051   6.289
 9486SOL     OW29356   6.167   5.183   6.604
 9486SOL    HW129357   6.090   5.193   6.666
 9486SOL    HW229358   6.252   5.205   6.653
 9487SOL     OW29359   3.289   3.796   2.878
 9487SOL    HW129360   3.274   3.839   2.967
 9487SOL    HW229361   3.234   3.842   2.808
 9488SOL     OW29362   1.929   1.064   1.227
 9488SOL    HW129363   1.981   1.016   1.297
 9488SOL    HW229364   1.973   1.052   1.138
 9489SOL     OW29365   5.458   3.235   0.582
 9489SOL    HW129366   5.494   3.275   0.666
 9489SOL    HW229367   5.532   3.227   0.515
 9490SOL     OW29368   5.538   3.451   4.628
 9490SOL    HW129369   5.577   3.445   4.536
 9490SOL    HW229370   5.472   3.526   4.632
 9491SOL     OW29371   5.321   6.929   2.682
 9491SOL    HW129372   5.305   6.830   2.677
 9491SOL    HW229373   5.377   6.958   2.605
 9492SOL     OW29374   5.130   2.838   3.352
 9492SOL    HW129375   5.084   2.751   3.368
 9492SOL    HW229376   5.227   2.821   3.334
 9493SOL     OW29377   3.983   5.880   1.272
 9493SOL    HW129378   3.898   5.929   1.257
 9493SOL    HW229379   4.056   5.922   1.217
 9494SOL     OW29380   5.725   1.837   2.096
 9494SOL    HW129381   5.700   1.767   2.029
 9494SOL    HW229382   5.819   1.867   2.079
 9495SOL     OW29383   6.932   2.415   1.245
 9495SOL    HW129384   6.978   2.396   1.159
 9495SOL    HW229385   6.878   2.499   1.237
 9496SOL     OW29386   5.580   1.950   1.088
 9496SOL    HW129387   5.509   1.989   1.148
 9496SOL    HW229388   5.670   1.969   1.126
 9497SOL     OW29389   4.774   4.612   4.774
 9497SOL    HW129390   4.803   4.672   4.699
 9497SOL    HW229391   4.683   4.639   4.806
 9498SOL     OW29392   0.961   5.524   4.214
 9498SOL    HW129393   0.905   5.605   4.233
 9498SOL    HW229394   0.902   5.444   4.201
 9499SOL     OW29395   5.754   5.907   4.655
 9499SOL    HW129396   5.749   5.959   4.740
 9499SOL    HW229397   5.727   5.812   4.673
 9500SOL     OW29398   3.182   2.081   0.706
 9500SOL    HW129399   3.120   2.006   0.730
 9500SOL    HW229400   3.239   2.103   0.784
 9501SOL     OW29401   1.672   3.676   4.926
 9501SOL    HW129402   1.752   3.731   4.949
 9501SOL    HW229403   1.623   3.653   5.010
 9502SOL     OW29404   5.467   5.048   4.319
 9502SOL    HW129405   5.453   5.022   4.414
 9502SOL    HW229406   5.379   5.063   4.274
 9503SOL     OW29407   6.247   1.296   0.103
 9503SOL    HW129408   6.242   1.293   0.203
 9503SOL    HW229409   6.287   1.384   0.075
 9504SOL     OW29410   5.967   5.164   2.211
 9504SOL    HW129411   5.893   5.099   2.192
 9504SOL    HW229412   6.037   5.156   2.141
 9505SOL     OW29413   4.487   4.684   5.929
 9505SOL    HW129414   4.410   4.663   5.868
 9505SOL    HW229415   4.503   4.606   5.990
 9506SOL     OW29416   2.938   0.926   1.194
 9506SOL    HW129417   2.900   1.004   1.243
 9506SOL    HW229418   3.033   0.913   1.220
 9507SOL     OW29419   5.450   6.996   2.456
 9507SOL    HW129420   5.433   0.039   2.387
 9507SOL    HW229421   5.502   6.921   2.416
 9508SOL     OW29422   4.404   2.107   2.781
 9508SOL    HW129423   4.316   2.060   2.772
 9508SOL    HW229424   4.452   2.070   2.861
 9509SOL     OW29425   5.448   0.895   3.197
 9509SOL    HW129426   5.457   0.863   3.291
 9509SOL    HW229427   5.539   0.920   3.162
 9510SOL     OW29428   1.726   2.823   3.688
 9510SOL    HW129429   1.640   2.778   3.664
 9510SOL    HW229430   1.745   2.897   3.623
 9511SOL     OW29431   7.013   1.625   1.144
 9511SOL    HW129432   0.083   1.645   1.123
 9511SOL    HW229433   7.008   1.569   1.226
 9512SOL     OW29434   6.503   2.127   1.249
 9512SOL    HW129435   6.543   2.217   1.262
 9512SOL    HW229436   6.447   2.127   1.166
 9513SOL     OW29437   4.387   4.063   5.781
 9513SOL    HW129438   4.334   3.978   5.775
 9513SOL    HW229439   4.333   4.133   5.827
 9514SOL     OW29440   3.882   2.919   6.508
 9514SOL    HW129441   3.835   2.919   6.420
 9514SOL    HW229442   3.836   2.982   6.570
 9515SOL     OW29443   0.688   5.618   3.626
 9515SOL    HW129444   0.689   5.713   3.595
 9515SOL    HW229445   0.596   5.595   3.660
 9516SOL     OW29446   0.302   4.218   6.727
 9516SOL    HW129447   0.215   4.169   6.718
 9516SOL    HW229448   0.377   4.152   6.734
 9517SOL     OW29449   0.165   6.326   1.666
 9517SOL    HW129450   0.184   6.270   1.585
 9517SOL    HW229451   0.247   6.375   1.693
 9518SOL     OW29452   1.196   0.967   1.233
 9518SOL    HW129453   1.291   0.964   1.265
 9518SOL    HW229454   1.194   0.982   1.134
 9519SOL     OW29455   1.576   2.909   5.469
 9519SOL    HW129456   1.582   3.002   5.506
 9519SOL    HW229457   1.657   2.891   5.413
 9520SOL     OW29458   4.515   0.300   1.773
 9520SOL    HW129459   4.564   0.343   1.850
 9520SOL    HW229460   4.420   0.331   1.772
 9521SOL     OW29461   5.342   5.421   3.474
 9521SOL    HW129462   5.428   5.467   3.494
 9521SOL    HW229463   5.266   5.479   3.503
 9522SOL     OW29464   3.361   6.174   0.803
 9522SOL    HW129465   3.309   6.098   0.841
 9522SOL    HW229466   3.359   6.170   0.703
 9523SOL     OW29467   1.999   6.379   5.596
 9523SOL    HW129468   1.902   6.386   5.573
 9523SOL    HW229469   2.034   6.469   5.620
 9524SOL     OW29470   4.684   2.236   0.882
 9524SOL    HW129471   4.730   2.325   0.881
 9524SOL    HW229472   4.631   2.225   0.798
 9525SOL     OW29473   3.911   0.429   5.307
 9525SOL    HW129474   3.854   0.348   5.326
 9525SOL    HW229475   3.880   0.473   5.223
 9526SOL     OW29476   4.731   5.983   2.125
 9526SOL    HW129477   4.758   5.954   2.033
 9526SOL    HW229478   4.654   6.046   2.119
 9527SOL     OW29479   6.373   2.115   1.028
 9527SOL    HW129480   6.363   2.034   0.969
 9527SOL    HW229481   6.322   2.191   0.988
 9528SOL     OW29482   6.631   0.816   1.940
 9528SOL    HW129483   6.641   0.819   1.841
 9528SOL    HW229484   6.722   0.815   1.982
 9529SOL     OW29485   1.063   3.685   4.499
 9529SOL    HW129486   0.994   3.646   4.559
 9529SOL    HW229487   1.136   3.618   4.483
 9530SOL     OW29488   1.562   2.439   4.357
 9530SOL    HW129489   1.496   2.419   4.285
 9530SOL    HW229490   1.586   2.536   4.354
 9531SOL     OW29491   3.025   6.416   3.469
 9531SOL    HW129492   3.038   6.328   3.513
 9531SOL    HW229493   2.982   6.479   3.534
 9532SOL     OW29494   2.641   0.996   1.637
 9532SOL    HW129495   2.641   1.096   1.634
 9532SOL    HW229496   2.734   0.964   1.655
 9533SOL     OW29497   1.607   0.576   4.867
 9533SOL    HW129498   1.700   0.547   4.847
 9533SOL    HW229499   1.548   0.559   4.788
 9534SOL     OW29500   4.641   2.147   4.346
 9534SOL    HW129501   4.642   2.241   4.312
 9534SOL    HW229502   4.603   2.145   4.438
 9535SOL     OW29503   2.798   2.294   4.604
 9535SOL    HW129504   2.873   2.294   4.670
 9535SOL    HW229505   2.712   2.280   4.651
 9536SOL     OW29506   3.117   6.809   6.451
 9536SOL    HW129507   3.115   6.888   6.512
 9536SOL    HW229508   3.094   6.726   6.502
 9537SOL     OW29509   2.289   6.374   0.469
 9537SOL    HW129510   2.357   6.444   0.446
 9537SOL    HW229511   2.198   6.408   0.444
 9538SOL     OW29512   6.167   3.387   3.735
 9538SOL    HW129513   6.103   3.357   3.664
 9538SOL    HW229514   6.148   3.482   3.759
 9539SOL     OW29515   0.340   4.212   0.698
 9539SOL    HW129516   0.289   4.279   0.644
 9539SOL    HW229517   0.277   4.160   0.755
 9540SOL     OW29518   5.479   2.954   5.425
 9540SOL    HW129519   5.427   3.039   5.418
 9540SOL    HW229520   5.524   2.934   5.338
 9541SOL     OW29521   0.207   1.518   3.510
 9541SOL    HW129522   0.221   1.586   3.582
 9541SOL    HW229523   0.295   1.486   3.476
 9542SOL     OW29524   4.617   4.382   4.716
 9542SOL    HW129525   4.538   4.439   4.691
 9542SOL    HW229526   4.702   4.429   4.691
 9543SOL     OW29527   5.630   2.382   1.550
 9543SOL    HW129528   5.586   2.355   1.636
 9543SOL    HW229529   5.629   2.304   1.487
 9544SOL     OW29530   3.879   1.822   2.134
 9544SOL    HW129531   3.928   1.799   2.049
 9544SOL    HW229532   3.901   1.754   2.204
 9545SOL     OW29533   1.482   0.149   4.337
 9545SOL    HW129534   1.429   0.214   4.391
 9545SOL    HW229535   1.437   0.134   4.249
 9546SOL     OW29536   2.135   4.508   1.772
 9546SOL    HW129537   2.094   4.597   1.752
 9546SOL    HW229538   2.217   4.521   1.828
 9547SOL     OW29539   6.326   5.511   3.619
 9547SOL    HW129540   6.261   5.439   3.599
 9547SOL    HW229541   6.379   5.531   3.536
 9548SOL     OW29542   4.662   6.987   2.862
 9548SOL    HW129543   4.644   6.999   2.765
 9548SOL    HW229544   4.738   6.923   2.875
 9549SOL     OW29545   2.725   5.444   0.583
 9549SOL    HW129546   2.684   5.432   0.493
 9549SOL    HW229547   2.658   5.424   0.654
 9550SOL     OW29548   1.499   0.740   0.146
 9550SOL    HW129549   1.435   0.671   0.179
 9550SOL    HW229550   1.592   0.715   0.173
 9551SOL     OW29551   1.241   6.227   5.985
 9551SOL    HW129552   1.146   6.257   5.991
 9551SOL    HW229553   1.244   6.127   5.989
 9552SOL     OW29554   0.459   5.113   3.070
 9552SOL    HW129555   0.373   5.066   3.092
 9552SOL    HW229556   0.457   5.142   2.974
 9553SOL     OW29557   5.295   4.379   5.703
 9553SOL    HW129558   5.201   4.350   5.723
 9553SOL    HW229559   5.330   4.326   5.625
 9554SOL     OW29560   2.061   1.666   1.242
 9554SOL    HW129561   2.062   1.571   1.213
 9554SOL    HW229562   1.967   1.700   1.243
 9555SOL     OW29563   6.999   2.932   6.391
 9555SOL    HW129564   0.031   2.943   6.472
 9555SOL    HW229565   6.916   2.882   6.416
 9556SOL     OW29566   6.258   1.566   0.700
 9556SOL    HW129567   6.295   1.488   0.751
 9556SOL    HW229568   6.322   1.592   0.628
 9557SOL     OW29569   5.638   2.160   1.969
 9557SOL    HW129570   5.636   2.062   1.949
 9557SOL    HW229571   5.608   2.211   1.889
 9558SOL     OW29572   5.508   4.446   2.190
 9558SOL    HW129573   5.440   4.491   2.131
 9558SOL    HW229574   5.474   4.446   2.284
 9559SOL     OW29575   6.526   3.635   2.837
 9559SOL    HW129576   6.459   3.598   2.773
 9559SOL    HW229577   6.558   3.563   2.899
 9560SOL     OW29578   4.047   2.167   5.118
 9560SOL    HW129579   4.090   2.236   5.059
 9560SOL    HW229580   4.113   2.137   5.187
 9561SOL     OW29581   2.989   6.342   6.718
 9561SOL    HW129582   2.990   6.261   6.660
 9561SOL    HW229583   3.023   6.319   6.810
 9562SOL     OW29584   5.997   4.411   3.962
 9562SOL    HW129585   5.965   4.426   3.868
 9562SOL    HW229586   5.964   4.485   4.021
 9563SOL     OW29587   0.316   6.179   6.655
 9563SOL    HW129588   0.244   6.243   6.628
 9563SOL    HW229589   0.359   6.211   6.739
 9564SOL     OW29590   1.991   0.456   6.689
 9564SOL    HW129591   2.028   0.369   6.722
 9564SOL    HW229592   1.892   0.448   6.677
 9565SOL     OW29593   3.708   5.914   4.045
 9565SOL    HW129594   3.647   5.884   4.118
 9565SOL    HW229595   3.794   5.862   4.051
 9566SOL     OW29596   3.655   4.979   6.084
 9566SOL    HW129597   3.707   5.050   6.036
 9566SOL    HW229598   3.629   5.011   6.175
 9567SOL     OW29599   6.125   5.487   4.860
 9567SOL    HW129600   6.043   5.436   4.834
 9567SOL    HW229601   6.107   5.585   4.854
 9568SOL     OW29602   4.907   4.150   6.295
 9568SOL    HW129603   4.817   4.105   6.299
 9568SOL    HW229604   4.943   4.161   6.388
 9569SOL     OW29605   5.260   6.801   2.064
 9569SOL    HW129606   5.286   6.792   1.968
 9569SOL    HW229607   5.343   6.807   2.120
 9570SOL     OW29608   0.739   1.161   6.762
 9570SOL    HW129609   0.659   1.172   6.702
 9570SOL    HW229610   0.817   1.208   6.722
 9571SOL     OW29611   2.269   2.774   0.127
 9571SOL    HW129612   2.235   2.746   0.217
 9571SOL    HW229613   2.357   2.730   0.109
 9572SOL     OW29614   0.337   3.700   1.359
 9572SOL    HW129615   0.435   3.701   1.379
 9572SOL    HW229616   0.309   3.790   1.326
 9573SOL     OW29617   5.791   1.302   1.884
 9573SOL    HW129618   5.770   1.215   1.929
 9573SOL    HW229619   5.791   1.375   1.952
 9574SOL     OW29620   2.725   1.858   3.667
 9574SOL    HW129621   2.794   1.894   3.729
 9574SOL    HW229622   2.689   1.772   3.703
 9575SOL     OW29623   4.580   1.089   2.273
 9575SOL    HW129624   4.679   1.083   2.257
 9575SOL    HW229625   4.536   1.004   2.244
 9576SOL     OW29626   4.182   3.011   5.746
 9576SOL    HW129627   4.162   2.986   5.651
 9576SOL    HW229628   4.274   2.981   5.770
 9577SOL     OW29629   0.750   6.399   3.420
 9577SOL    HW129630   0.752   6.367   3.515
 9577SOL    HW229631   0.829   6.364   3.371
 9578SOL     OW29632   6.212   4.378   2.201
 9578SOL    HW129633   6.175   4.312   2.266
 9578SOL    HW229634   6.152   4.383   2.121
 9579SOL     OW29635   2.064   5.769   2.953
 9579SOL    HW129636   2.027   5.862   2.949
 9579SOL    HW229637   2.024   5.720   3.030
 9580SOL     OW29638   4.032   3.400   5.729
 9580SOL    HW129639   4.109   3.371   5.673
 9580SOL    HW229640   4.017   3.335   5.803
 9581SOL     OW29641   1.075   5.659   5.761
 9581SOL    HW129642   1.034   5.638   5.850
 9581SOL    HW229643   1.053   5.587   5.695
 9582SOL     OW29644   4.106   4.942   3.720
 9582SOL    HW129645   4.011   4.915   3.733
 9582SOL    HW229646   4.144   4.892   3.642
 9583SOL     OW29647   2.146   4.948   1.895
 9583SOL    HW129648   2.224   4.998   1.859
 9583SOL    HW229649   2.123   4.872   1.835
 9584SOL     OW29650   4.920   5.330   6.956
 9584SOL    HW129651   4.960   5.268   6.889
 9584SOL    HW229652   4.993   5.379   7.004
 9585SOL     OW29653   0.746   0.355   3.343
 9585SOL    HW129654   0.703   0.415   3.276
 9585SOL    HW229655   0.788   0.411   3.415
 9586SOL     OW29656   5.316   3.672   2.299
 9586SOL    HW129657   5.380   3.749   2.296
 9586SOL    HW229658   5.339   3.607   2.227
 9587SOL     OW29659   5.162   6.380   1.798
 9587SOL    HW129660   5.134   6.462   1.748
 9587SOL    HW229661   5.085   6.316   1.804
 9588SOL     OW29662   6.623   0.429   2.986
 9588SOL    HW129663   6.640   0.337   3.022
 9588SOL    HW229664   6.539   0.466   3.026
 9589SOL     OW29665   3.189   1.835   5.001
 9589SOL    HW129666   3.240   1.903   5.054
 9589SOL    HW229667   3.109   1.805   5.053
 9590SOL     OW29668   0.387   5.298   4.664
 9590SOL    HW129669   0.343   5.227   4.609
 9590SOL    HW229670   0.405   5.263   4.755
 9591SOL     OW29671   1.255   4.634   2.625
 9591SOL    HW129672   1.276   4.669   2.716
 9591SOL    HW229673   1.211   4.706   2.571
 9592SOL     OW29674   5.211   6.027   1.259
 9592SOL    HW129675   5.208   6.012   1.358
 9592SOL    HW229676   5.170   5.949   1.212
 9593SOL     OW29677   2.513   2.557   3.616
 9593SOL    HW129678   2.567   2.585   3.695
 9593SOL    HW229679   2.541   2.466   3.586
 9594SOL     OW29680   6.251   6.998   0.920
 9594SOL    HW129681   6.269   6.994   1.018
 9594SOL    HW229682   6.197   0.054   0.900
 9595SOL     OW29683   0.945   4.411   4.159
 9595SOL    HW129684   0.974   4.331   4.105
 9595SOL    HW229685   0.848   4.427   4.147
 9596SOL     OW29686   5.386   5.557   2.374
 9596SOL    HW129687   5.298   5.562   2.421
 9596SOL    HW229688   5.381   5.487   2.303
 9597SOL     OW29689   1.936   4.205   0.631
 9597SOL    HW129690   1.849   4.199   0.582
 9597SOL    HW229691   1.995   4.272   0.587
 9598SOL     OW29692   1.168   5.946   6.012
 9598SOL    HW129693   1.225   5.872   5.977
 9598SOL    HW229694   1.096   5.908   6.070
 9599SOL     OW29695   4.442   1.345   4.900
 9599SOL    HW129696   4.459   1.437   4.936
 9599SOL    HW229697   4.364   1.348   4.837
 9600SOL     OW29698   2.158   6.081   6.560
 9600SOL    HW129699   2.190   6.079   6.654
 9600SOL    HW229700   2.087   6.012   6.547
 9601SOL     OW29701   0.485   6.790   6.354
 9601SOL    HW129702   0.490   6.878   6.401
 9601SOL    HW229703   0.572   6.771   6.309
 9602SOL     OW29704   0.218   5.148   6.649
 9602SOL    HW129705   0.151   5.219   6.628
 9602SOL    HW229706   0.181   5.088   6.720
 9603SOL     OW29707   0.833   5.264   2.925
 9603SOL    HW129708   0.915   5.315   2.901
 9603SOL    HW229709   0.799   5.215   2.845
 9604SOL     OW29710   6.917   6.681   0.067
 9604SOL    HW129711   6.889   6.749   0.135
 9604SOL    HW229712   6.929   6.726   7.005
 9605SOL     OW29713   3.014   5.429   0.612
 9605SOL    HW129714   3.052   5.348   0.657
 9605SOL    HW229715   2.916   5.416   0.598
 9606SOL     OW29716   6.825   7.010   5.425
 9606SOL    HW129717   6.758   7.001   5.499
 9606SOL    HW229718   6.780   0.020   5.343
 9607SOL     OW29719   0.228   1.937   2.075
 9607SOL    HW129720   0.140   1.929   2.029
 9607SOL    HW229721   0.243   2.032   2.102
 9608SOL     OW29722   6.560   0.363   2.554
 9608SOL    HW129723   6.560   0.444   2.496
 9608SOL    HW229724   6.468   0.323   2.557
 9609SOL     OW29725   1.571   2.202   3.662
 9609SOL    HW129726   1.598   2.128   3.724
 9609SOL    HW229727   1.644   2.218   3.596
 9610SOL     OW29728   3.718   0.479   5.779
 9610SOL    HW129729   3.714   0.547   5.706
 9610SOL    HW229730   3.649   0.409   5.763
 9611SOL     OW29731   5.622   5.878   1.165
 9611SOL    HW129732   5.629   5.847   1.259
 9611SOL    HW229733   5.580   5.968   1.162
 9612SOL     OW29734   5.071   3.352   3.199
 9612SOL    HW129735   5.123   3.305   3.127
 9612SOL    HW229736   5.121   3.434   3.228
 9613SOL     OW29737   5.793   0.135   5.487
 9613SOL    HW129738   5.802   0.197   5.566
 9613SOL    HW229739   5.717   0.073   5.503
 9614SOL     OW29740   3.132   2.714   1.729
 9614SOL    HW129741   3.167   2.771   1.804
 9614SOL    HW229742   3.072   2.768   1.671
 9615SOL     OW29743   0.559   6.507   3.784
 9615SOL    HW129744   0.599   6.430   3.734
 9615SOL    HW229745   0.565   6.490   3.882
 9616SOL     OW29746   1.626   2.772   1.550
 9616SOL    HW129747   1.620   2.859   1.597
 9616SOL    HW229748   1.536   2.748   1.512
 9617SOL     OW29749   0.057   2.981   2.204
 9617SOL    HW129750   0.016   2.917   2.268
 9617SOL    HW229751   0.146   3.011   2.239
 9618SOL     OW29752   4.488   4.372   0.682
 9618SOL    HW129753   4.469   4.405   0.775
 9618SOL    HW229754   4.489   4.272   0.682
 9619SOL     OW29755   0.719   0.035   1.538
 9619SOL    HW129756   0.686   0.007   1.628
 9619SOL    HW229757   0.692   0.129   1.519
 9620SOL     OW29758   3.170   1.881   6.998
 9620SOL    HW129759   3.203   1.806   0.028
 9620SOL    HW229760   3.152   1.848   6.905
 9621SOL     OW29761   0.654   0.797   1.809
 9621SOL    HW129762   0.707   0.882   1.798
 9621SOL    HW229763   0.648   0.774   1.906
 9622SOL     OW29764   6.740   5.800   5.984
 9622SOL    HW129765   6.745   5.711   5.938
 9622SOL    HW229766   6.705   5.868   5.920
 9623SOL     OW29767   3.802   6.243   5.618
 9623SOL    HW129768   3.809   6.332   5.664
 9623SOL    HW229769   3.718   6.241   5.562
 9624SOL     OW29770   4.441   5.339   5.312
 9624SOL    HW129771   4.494   5.313   5.393
 9624SOL    HW229772   4.360   5.281   5.305
 9625SOL     OW29773   4.519   3.981   6.418
 9625SOL    HW129774   4.496   3.996   6.322
 9625SOL    HW229775   4.619   3.980   6.429
 9626SOL     OW29776   2.488   2.080   6.784
 9626SOL    HW129777   2.529   2.085   6.875
 9626SOL    HW229778   2.489   2.171   6.742
 9627SOL     OW29779   0.406   5.122   0.645
 9627SOL    HW129780   0.336   5.141   0.715
 9627SOL    HW229781   0.442   5.029   0.659
 9628SOL     OW29782   0.149   2.063   6.295
 9628SOL    HW129783   0.132   1.984   6.354
 9628SOL    HW229784   0.115   2.146   6.339
 9629SOL     OW29785   0.257   6.354   4.074
 9629SOL    HW129786   0.211   6.377   3.988
 9629SOL    HW229787   0.356   6.351   4.058
 9630SOL     OW29788   5.625   1.729   6.110
 9630SOL    HW129789   5.660   1.796   6.044
 9630SOL    HW229790   5.701   1.680   6.151
 9631SOL     OW29791   4.400   6.777   0.682
 9631SOL    HW129792   4.357   6.703   0.734
 9631SOL    HW229793   4.460   6.738   0.612
 9632SOL     OW29794   2.895   4.843   2.651
 9632SOL    HW129795   2.989   4.869   2.629
 9632SOL    HW229796   2.874   4.869   2.746
 9633SOL     OW29797   3.806   2.985   3.629
 9633SOL    HW129798   3.807   2.937   3.542
 9633SOL    HW229799   3.807   3.083   3.614
 9634SOL     OW29800   5.145   4.789   3.160
 9634SOL    HW129801   5.223   4.781   3.222
 9634SOL    HW229802   5.087   4.708   3.169
 9635SOL     OW29803   0.471   4.557   3.716
 9635SOL    HW129804   0.559   4.512   3.730
 9635SOL    HW229805   0.441   4.600   3.802
 9636SOL     OW29806   5.806   3.765   4.038
 9636SOL    HW129807   5.755   3.836   3.990
 9636SOL    HW229808   5.904   3.778   4.021
 9637SOL     OW29809   1.230   3.812   0.026
 9637SOL    HW129810   1.305   3.748   0.011
 9637SOL    HW229811   1.187   3.834   6.965
 9638SOL     OW29812   5.911   5.407   6.098
 9638SOL    HW129813   5.890   5.347   6.176
 9638SOL    HW229814   6.008   5.397   6.075
 9639SOL     OW29815   4.539   2.043   1.356
 9639SOL    HW129816   4.447   2.006   1.345
 9639SOL    HW229817   4.553   2.117   1.291
 9640SOL     OW29818   3.782   0.559   3.604
 9640SOL    HW129819   3.837   0.477   3.612
 9640SOL    HW229820   3.842   0.639   3.594
 9641SOL     OW29821   6.928   2.605   4.091
 9641SOL    HW129822   6.931   2.701   4.063
 9641SOL    HW229823   6.857   2.594   4.161
 9642SOL     OW29824   0.957   1.587   4.811
 9642SOL    HW129825   1.001   1.645   4.880
 9642SOL    HW229826   1.023   1.563   4.740
 9643SOL     OW29827   5.511   5.257   3.932
 9643SOL    HW129828   5.432   5.196   3.931
 9643SOL    HW229829   5.518   5.304   3.844
 9644SOL     OW29830   0.815   5.313   3.338
 9644SOL    HW129831   0.791   5.290   3.432
 9644SOL    HW229832   0.783   5.241   3.277
 9645SOL     OW29833   0.982   5.076   6.049
 9645SOL    HW129834   0.893   5.110   6.077
 9645SOL    HW229835   1.023   5.023   6.123
 9646SOL     OW29836   3.480   5.986   0.461
 9646SOL    HW129837   3.462   6.084   0.464
 9646SOL    HW229838   3.518   5.957   0.549
 9647SOL     OW29839   6.129   6.580   3.132
 9647SOL    HW129840   6.173   6.669   3.149
 9647SOL    HW229841   6.060   6.591   3.061
 9648SOL     OW29842   3.049   1.558   0.851
 9648SOL    HW129843   3.132   1.609   0.876
 9648SOL    HW229844   3.075   1.479   0.796
 9649SOL     OW29845   0.024   5.368   1.108
 9649SOL    HW129846   7.019   5.323   1.191
 9649SOL    HW229847   0.100   5.315   1.069
 9650SOL     OW29848   0.835   4.750   3.986
 9650SOL    HW129849   0.925   4.730   4.024
 9650SOL    HW229850   0.834   4.843   3.950
 9651SOL     OW29851   3.391   2.061   7.006
 9651SOL    HW129852   3.432   2.043   0.069
 9651SOL    HW229853   3.304   2.011   7.000
 9652SOL     OW29854   0.326   3.959   0.534
 9652SOL    HW129855   0.259   3.904   0.583
 9652SOL    HW229856   0.319   4.054   0.563
 9653SOL     OW29857   5.001   4.444   5.697
 9653SOL    HW129858   5.003   4.509   5.773
 9653SOL    HW229859   5.044   4.485   5.617
 9654SOL     OW29860   3.598   3.573   3.226
 9654SOL    HW129861   3.666   3.612   3.288
 9654SOL    HW229862   3.613   3.474   3.217
 9655SOL     OW29863   4.578   1.565   0.811
 9655SOL    HW129864   4.488   1.608   0.819
 9655SOL    HW229865   4.649   1.635   0.807
 9656SOL     OW29866   4.949   4.205   6.551
 9656SOL    HW129867   4.908   4.259   6.625
 9656SOL    HW229868   5.043   4.182   6.575
 9657SOL     OW29869   5.280   4.773   3.948
 9657SOL    HW129870   5.207   4.744   3.887
 9657SOL    HW229871   5.331   4.693   3.980
 9658SOL     OW29872   5.033   1.313   2.433
 9658SOL    HW129873   4.934   1.316   2.423
 9658SOL    HW229874   5.060   1.226   2.474
 9659SOL     OW29875   2.880   2.937   6.692
 9659SOL    HW129876   2.944   2.916   6.618
 9659SOL    HW229877   2.813   3.005   6.660
 9660SOL     OW29878   1.265   6.667   1.596
 9660SOL    HW129879   1.258   6.642   1.692
 9660SOL    HW229880   1.361   6.675   1.570
 9661SOL     OW29881   4.030   4.159   1.202
 9661SOL    HW129882   4.012   4.092   1.274
 9661SOL    HW229883   4.102   4.222   1.232
 9662SOL     OW29884   4.834   6.546   6.285
 9662SOL    HW129885   4.870   6.481   6.352
 9662SOL    HW229886   4.840   6.506   6.193
 9663SOL     OW29887   1.326   5.114   2.529
 9663SOL    HW129888   1.253   5.178   2.506
 9663SOL    HW229889   1.355   5.066   2.447
 9664SOL     OW29890   3.641   4.953   2.189
 9664SOL    HW129891   3.646   4.874   2.127
 9664SOL    HW229892   3.550   4.959   2.228
 9665SOL     OW29893   6.604   4.068   5.734
 9665SOL    HW129894   6.595   4.087   5.636
 9665SOL    HW229895   6.532   4.117   5.784
 9666SOL     OW29896   5.038   3.646   0.534
 9666SOL    HW129897   5.029   3.576   0.604
 9666SOL    HW229898   5.084   3.727   0.573
 9667SOL     OW29899   5.644   6.125   0.519
 9667SOL    HW129900   5.717   6.073   0.475
 9667SOL    HW229901   5.570   6.142   0.453
 9668SOL     OW29902   1.508   1.189   5.971
 9668SOL    HW129903   1.513   1.286   5.948
 9668SOL    HW229904   1.496   1.135   5.888
 9669SOL     OW29905   2.957   0.675   6.928
 9669SOL    HW129906   2.968   0.764   6.883
 9669SOL    HW229907   3.000   0.678   7.018
 9670SOL     OW29908   0.841   0.261   0.658
 9670SOL    HW129909   0.917   0.280   0.720
 9670SOL    HW229910   0.868   0.191   0.592
 9671SOL     OW29911   0.782   5.051   6.603
 9671SOL    HW129912   0.848   5.003   6.546
 9671SOL    HW229913   0.805   5.039   6.699
 9672SOL     OW29914   0.936   3.889   4.282
 9672SOL    HW129915   0.923   3.791   4.300
 9672SOL    HW229916   0.994   3.900   4.202
 9673SOL     OW29917   2.110   3.775   0.071
 9673SOL    HW129918   2.144   3.777   7.004
 9673SOL    HW229919   2.151   3.697   0.120
 9674SOL     OW29920   2.084   6.384   3.969
 9674SOL    HW129921   2.000   6.427   4.002
 9674SOL    HW229922   2.064   6.292   3.938
 9675SOL     OW29923   6.011   3.651   5.733
 9675SOL    HW129924   6.056   3.611   5.653
 9675SOL    HW229925   5.915   3.671   5.710
 9676SOL     OW29926   0.685   3.353   6.104
 9676SOL    HW129927   0.768   3.393   6.143
 9676SOL    HW229928   0.710   3.280   6.040
 9677SOL     OW29929   6.412   5.127   2.611
 9677SOL    HW129930   6.451   5.156   2.698
 9677SOL    HW229931   6.462   5.046   2.578
 9678SOL     OW29932   3.684   3.792   5.150
 9678SOL    HW129933   3.656   3.697   5.169
 9678SOL    HW229934   3.707   3.837   5.236
 9679SOL     OW29935   1.782   0.572   3.871
 9679SOL    HW129936   1.753   0.566   3.967
 9679SOL    HW229937   1.812   0.665   3.851
 9680SOL     OW29938   4.320   0.682   1.973
 9680SOL    HW129939   4.407   0.641   1.999
 9680SOL    HW229940   4.256   0.611   1.944
 9681SOL     OW29941   1.238   2.330   1.541
 9681SOL    HW129942   1.189   2.381   1.470
 9681SOL    HW229943   1.333   2.316   1.512
 9682SOL     OW29944   5.235   6.637   6.060
 9682SOL    HW129945   5.333   6.644   6.081
 9682SOL    HW229946   5.223   6.630   5.961
 9683SOL     OW29947   3.449   6.477   3.531
 9683SOL    HW129948   3.405   6.554   3.578
 9683SOL    HW229949   3.546   6.476   3.554
 9684SOL     OW29950   6.453   3.408   5.233
 9684SOL    HW129951   6.373   3.370   5.280
 9684SOL    HW229952   6.530   3.346   5.243
 9685SOL     OW29953   3.366   4.538   1.602
 9685SOL    HW129954   3.415   4.578   1.680
 9685SOL    HW229955   3.283   4.494   1.635
 9686SOL     OW29956   6.801   1.190   5.512
 9686SOL    HW129957   6.877   1.148   5.561
 9686SOL    HW229958   6.821   1.287   5.497
 9687SOL     OW29959   5.460   1.241   3.152
 9687SOL    HW129960   5.496   1.273   3.240
 9687SOL    HW229961   5.478   1.143   3.143
 9688SOL     OW29962   0.560   4.967   1.711
 9688SOL    HW129963   0.564   4.881   1.762
 9688SOL    HW229964   0.598   5.040   1.767
 9689SOL     OW29965   2.016   6.235   1.314
 9689SOL    HW129966   1.982   6.286   1.393
 9689SOL    HW229967   1.939   6.196   1.264
 9690SOL     OW29968   0.498   4.842   4.528
 9690SOL    HW129969   0.489   4.804   4.436
 9690SOL    HW229970   0.594   4.848   4.553
 9691SOL     OW29971   2.970   3.441   1.836
 9691SOL    HW129972   3.040   3.373   1.858
 9691SOL    HW229973   2.954   3.441   1.737
 9692SOL     OW29974   5.097   4.451   0.980
 9692SOL    HW129975   5.099   4.454   1.080
 9692SOL    HW229976   5.180   4.406   0.946
 9693SOL     OW29977   4.384   3.024   5.336
 9693SOL    HW129978   4.353   2.938   5.376
 9693SOL    HW229979   4.479   3.014   5.306
 9694SOL     OW29980   2.913   6.539   1.460
 9694SOL    HW129981   2.832   6.581   1.502
 9694SOL    HW229982   2.993   6.554   1.518
 9695SOL     OW29983   0.931   2.934   3.854
 9695SOL    HW129984   0.847   2.927   3.801
 9695SOL    HW229985   0.921   2.885   3.941
 9696SOL     OW29986   5.375   2.476   3.461
 9696SOL    HW129987   5.360   2.574   3.453
 9696SOL    HW229988   5.469   2.459   3.489
 9697SOL     OW29989   6.976   6.618   1.657
 9697SOL    HW129990   6.896   6.662   1.615
 9697SOL    HW229991   0.017   6.596   1.587
 9698SOL     OW29992   0.129   3.646   2.243
 9698SOL    HW129993   0.189   3.707   2.294
 9698SOL    HW229994   0.175   3.559   2.228
 9699SOL     OW29995   1.906   5.815   1.300
 9699SOL    HW129996   1.844   5.892   1.289
 9699SOL    HW229997   1.883   5.743   1.234
 9700SOL     OW29998   5.371   0.014   6.179
 9700SOL    HW129999   5.296   6.977   6.160
 9700SOL    HW230000   5.430   0.022   6.099
 9701SOL     OW30001   5.160   3.704   6.905
 9701SOL    HW130002   5.085   3.701   6.971
 9701SOL    HW230003   5.175   3.798   6.875
 9702SOL     OW30004   3.746   4.064   2.312
 9702SOL    HW130005   3.788   3.974   2.324
 9702SOL    HW230006   3.815   4.135   2.325
 9703SOL     OW30007   6.015   4.752   3.612
 9703SOL    HW130008   6.079   4.685   3.574
 9703SOL    HW230009   5.959   4.789   3.538
 9704SOL     OW30010   1.316   4.669   2.211
 9704SOL    HW130011   1.259   4.631   2.284
 9704SOL    HW230012   1.408   4.686   2.245
 9705SOL     OW30013   0.429   2.809   5.629
 9705SOL    HW130014   0.382   2.758   5.702
 9705SOL    HW230015   0.523   2.774   5.620
 9706SOL     OW30016   0.868   1.443   2.953
 9706SOL    HW130017   0.771   1.445   2.930
 9706SOL    HW230018   0.883   1.388   3.035
 9707SOL     OW30019   0.937   4.904   2.752
 9707SOL    HW130020   1.022   4.935   2.795
 9707SOL    HW230021   0.873   4.872   2.822
 9708SOL     OW30022   2.581   0.513   1.916
 9708SOL    HW130023   2.615   0.601   1.885
 9708SOL    HW230024   2.620   0.491   2.005
 9709SOL     OW30025   5.401   1.950   1.559
 9709SOL    HW130026   5.382   2.048   1.556
 9709SOL    HW230027   5.332   1.901   1.505
 9710SOL     OW30028   5.375   5.614   4.505
 9710SOL    HW130029   5.303   5.673   4.542
 9710SOL    HW230030   5.334   5.534   4.462
 9711SOL     OW30031   2.801   1.200   6.598
 9711SOL    HW130032   2.705   1.226   6.604
 9711SOL    HW230033   2.854   1.275   6.560
 9712SOL     OW30034   5.924   1.228   6.821
 9712SOL    HW130035   5.977   1.184   6.748
 9712SOL    HW230036   5.986   1.284   6.877
 9713SOL     OW30037   2.651   0.099   2.469
 9713SOL    HW130038   2.703   0.135   2.391
 9713SOL    HW230039   2.573   0.158   2.486
 9714SOL     OW30040   2.240   4.114   4.000
 9714SOL    HW130041   2.267   4.086   4.092
 9714SOL    HW230042   2.218   4.033   3.945
 9715SOL     OW30043   0.076   3.287   6.407
 9715SOL    HW130044   0.144   3.308   6.477
 9715SOL    HW230045   7.012   3.286   6.448
 9716SOL     OW30046   2.442   6.148   0.257
 9716SOL    HW130047   2.525   6.096   0.279
 9716SOL    HW230048   2.427   6.217   0.327
 9717SOL     OW30049   3.763   2.254   5.584
 9717SOL    HW130050   3.818   2.265   5.667
 9717SOL    HW230051   3.820   2.216   5.511
 9718SOL     OW30052   4.635   2.072   5.885
 9718SOL    HW130053   4.690   1.992   5.857
 9718SOL    HW230054   4.586   2.107   5.805
 9719SOL     OW30055   5.065   0.096   5.947
 9719SOL    HW130056   5.121   0.119   6.027
 9719SOL    HW230057   5.023   0.006   5.961
 9720SOL     OW30058   2.239   2.915   2.741
 9720SOL    HW130059   2.325   2.890   2.698
 9720SOL    HW230060   2.233   2.874   2.832
 9721SOL     OW30061   0.615   1.390   0.903
 9721SOL    HW130062   0.622   1.291   0.919
 9721SOL    HW230063   0.626   1.438   0.990
 9722SOL     OW30064   3.990   2.350   5.351
 9722SOL    HW130065   3.920   2.280   5.335
 9722SOL    HW230066   3.959   2.413   5.422
 9723SOL     OW30067   6.583   0.779   5.059
 9723SOL    HW130068   6.665   0.820   5.018
 9723SOL    HW230069   6.608   0.728   5.141
 9724SOL     OW30070   1.409   4.251   0.473
 9724SOL    HW130071   1.449   4.342   0.475
 9724SOL    HW230072   1.472   4.186   0.517
 9725SOL     OW30073   4.520   5.318   4.391
 9725SOL    HW130074   4.555   5.331   4.298
 9725SOL    HW230075   4.582   5.259   4.442
 9726SOL     OW30076   6.868   0.309   3.266
 9726SOL    HW130077   6.928   0.327   3.189
 9726SOL    HW230078   6.786   0.261   3.234
 9727SOL     OW30079   6.164   2.956   1.710
 9727SOL    HW130080   6.106   3.004   1.775
 9727SOL    HW230081   6.259   2.958   1.741
 9728SOL     OW30082   5.319   2.464   4.065
 9728SOL    HW130083   5.289   2.368   4.058
 9728SOL    HW230084   5.345   2.497   3.974
 9729SOL     OW30085   0.318   4.410   3.038
 9729SOL    HW130086   0.319   4.453   3.128
 9729SOL    HW230087   0.332   4.311   3.048
 9730SOL     OW30088   1.165   4.953   2.923
 9730SOL    HW130089   1.244   5.014   2.920
 9730SOL    HW230090   1.089   4.998   2.970
 9731SOL     OW30091   5.527   2.866   1.640
 9731SOL    HW130092   5.481   2.929   1.703
 9731SOL    HW230093   5.462   2.839   1.568
 9732SOL     OW30094   1.005   3.868   2.660
 9732SOL    HW130095   0.945   3.794   2.629
 9732SOL    HW230096   1.045   3.843   2.748
 9733SOL     OW30097   6.110   4.864   1.970
 9733SOL    HW130098   6.144   4.853   2.063
 9733SOL    HW230099   6.035   4.800   1.954
 9734SOL     OW30100   5.019   4.999   5.861
 9734SOL    HW130101   5.049   5.084   5.819
 9734SOL    HW230102   5.035   5.002   5.959
 9735SOL     OW30103   0.002   1.998   0.258
 9735SOL    HW130104   0.084   1.967   0.210
 9735SOL    HW230105   6.953   2.006   0.194
 9736SOL     OW30106   4.915   2.250   4.821
 9736SOL    HW130107   4.859   2.216   4.746
 9736SOL    HW230108   5.008   2.267   4.788
 9737SOL     OW30109   5.954   2.653   3.693
 9737SOL    HW130110   5.944   2.744   3.734
 9737SOL    HW230111   5.958   2.584   3.765
 9738SOL     OW30112   2.565   6.452   1.688
 9738SOL    HW130113   2.533   6.365   1.649
 9738SOL    HW230114   2.655   6.437   1.731
 9739SOL     OW30115   6.091   6.679   0.880
 9739SOL    HW130116   6.111   6.582   0.894
 9739SOL    HW230117   6.068   6.694   0.784
 9740SOL     OW30118   6.008   0.581   2.485
 9740SOL    HW130119   6.041   0.488   2.472
 9740SOL    HW230120   6.086   0.645   2.483
 9741SOL     OW30121   2.197   1.916   4.173
 9741SOL    HW130122   2.149   1.849   4.231
 9741SOL    HW230123   2.165   1.906   4.079
 9742SOL     OW30124   3.800   1.855   6.195
 9742SOL    HW130125   3.702   1.861   6.177
 9742SOL    HW230126   3.816   1.859   6.293
 9743SOL     OW30127   6.024   4.102   3.834
 9743SOL    HW130128   5.950   4.163   3.806
 9743SOL    HW230129   6.036   4.108   3.933
 9744SOL     OW30130   2.055   1.878   2.320
 9744SOL    HW130131   2.111   1.856   2.240
 9744SOL    HW230132   1.975   1.820   2.322
 9745SOL     OW30133   0.365   0.215   5.938
 9745SOL    HW130134   0.397   0.165   6.019
 9745SOL    HW230135   0.302   0.287   5.966
 9746SOL     OW30136   3.593   6.287   6.166
 9746SOL    HW130137   3.661   6.361   6.171
 9746SOL    HW230138   3.638   6.201   6.143
 9747SOL     OW30139   2.924   1.300   3.015
 9747SOL    HW130140   2.996   1.306   3.084
 9747SOL    HW230141   2.944   1.365   2.941
 9748SOL     OW30142   1.551   1.207   2.984
 9748SOL    HW130143   1.638   1.184   3.029
 9748SOL    HW230144   1.487   1.131   2.996
 9749SOL     OW30145   0.012   0.355   2.108
 9749SOL    HW130146   6.979   0.381   2.184
 9749SOL    HW230147   0.107   0.349   2.140
 9750SOL     OW30148   5.504   2.696   5.268
 9750SOL    HW130149   5.593   2.741   5.278
 9750SOL    HW230150   5.471   2.667   5.359
 9751SOL     OW30151   3.417   6.906   1.599
 9751SOL    HW130152   3.368   6.993   1.602
 9751SOL    HW230153   3.362   6.838   1.551
 9752SOL     OW30154   3.072   3.025   0.706
 9752SOL    HW130155   2.976   3.041   0.682
 9752SOL    HW230156   3.126   3.012   0.623
 9753SOL     OW30157   6.447   6.395   4.933
 9753SOL    HW130158   6.522   6.427   4.991
 9753SOL    HW230159   6.484   6.339   4.859
 9754SOL     OW30160   3.126   1.163   2.465
 9754SOL    HW130161   3.186   1.123   2.395
 9754SOL    HW230162   3.058   1.096   2.494
 9755SOL     OW30163   3.508   3.834   0.324
 9755SOL    HW130164   3.472   3.927   0.335
 9755SOL    HW230165   3.585   3.821   0.386
 9756SOL     OW30166   5.817   0.643   5.532
 9756SOL    HW130167   5.787   0.653   5.627
 9756SOL    HW230168   5.799   0.550   5.501
 9757SOL     OW30169   4.864   3.538   4.254
 9757SOL    HW130170   4.932   3.467   4.272
 9757SOL    HW230171   4.854   3.596   4.334
 9758SOL     OW30172   2.269   1.200   2.359
 9758SOL    HW130173   2.231   1.114   2.394
 9758SOL    HW230174   2.237   1.276   2.415
 9759SOL     OW30175   6.533   1.884   1.786
 9759SOL    HW130176   6.526   1.853   1.691
 9759SOL    HW230177   6.510   1.808   1.848
 9760SOL     OW30178   4.748   0.456   7.024
 9760SOL    HW130179   4.651   0.432   7.019
 9760SOL    HW230180   4.758   0.542   0.048
 9761SOL     OW30181   1.374   2.656   1.122
 9761SOL    HW130182   1.385   2.581   1.056
 9761SOL    HW230183   1.344   2.738   1.074
 9762SOL     OW30184   2.875   1.377   5.549
 9762SOL    HW130185   2.853   1.473   5.532
 9762SOL    HW230186   2.919   1.368   5.639
 9763SOL     OW30187   6.641   2.377   1.311
 9763SOL    HW130188   6.721   2.420   1.270
 9763SOL    HW230189   6.650   2.378   1.411
 9764SOL     OW30190   0.529   2.085   2.657
 9764SOL    HW130191   0.509   2.181   2.641
 9764SOL    HW230192   0.494   2.030   2.581
 9765SOL     OW30193   6.865   0.338   1.908
 9765SOL    HW130194   6.857   0.238   1.905
 9765SOL    HW230195   6.936   0.363   1.974
 9766SOL     OW30196   1.383   2.210   2.715
 9766SOL    HW130197   1.305   2.222   2.777
 9766SOL    HW230198   1.385   2.285   2.649
 9767SOL     OW30199   2.366   1.449   5.087
 9767SOL    HW130200   2.274   1.485   5.073
 9767SOL    HW230201   2.381   1.371   5.026
 9768SOL     OW30202   5.729   3.219   0.413
 9768SOL    HW130203   5.722   3.119   0.412
 9768SOL    HW230204   5.776   3.250   0.331
 9769SOL     OW30205   3.370   1.731   5.596
 9769SOL    HW130206   3.312   1.809   5.621
 9769SOL    HW230207   3.398   1.742   5.500
 9770SOL     OW30208   1.941   3.064   5.414
 9770SOL    HW130209   1.865   3.012   5.375
 9770SOL    HW230210   1.910   3.117   5.492
 9771SOL     OW30211   3.014   0.570   1.429
 9771SOL    HW130212   2.993   0.535   1.521
 9771SOL    HW230213   2.933   0.561   1.371
 9772SOL     OW30214   1.060   0.750   1.166
 9772SOL    HW130215   1.106   0.826   1.211
 9772SOL    HW230216   1.001   0.785   1.093
 9773SOL     OW30217   6.170   5.320   2.536
 9773SOL    HW130218   6.233   5.367   2.475
 9773SOL    HW230219   6.213   5.307   2.626
 9774SOL     OW30220   1.756   4.484   4.190
 9774SOL    HW130221   1.691   4.437   4.249
 9774SOL    HW230222   1.836   4.511   4.245
 9775SOL     OW30223   2.426   1.396   3.193
 9775SOL    HW130224   2.361   1.452   3.142
 9775SOL    HW230225   2.512   1.390   3.142
 9776SOL     OW30226   2.518   5.384   1.153
 9776SOL    HW130227   2.575   5.305   1.131
 9776SOL    HW230228   2.423   5.363   1.131
 9777SOL     OW30229   4.449   1.211   5.528
 9777SOL    HW130230   4.461   1.292   5.586
 9777SOL    HW230231   4.364   1.165   5.553
 9778SOL     OW30232   0.960   3.758   3.269
 9778SOL    HW130233   0.990   3.793   3.180
 9778SOL    HW230234   0.909   3.829   3.317
 9779SOL     OW30235   3.122   0.773   3.458
 9779SOL    HW130236   3.155   0.797   3.367
 9779SOL    HW230237   3.197   0.733   3.511
 9780SOL     OW30238   0.587   2.517   1.720
 9780SOL    HW130239   0.658   2.586   1.733
 9780SOL    HW230240   0.511   2.535   1.783
 9781SOL     OW30241   1.808   1.210   2.262
 9781SOL    HW130242   1.785   1.241   2.170
 9781SOL    HW230243   1.860   1.125   2.257
 9782SOL     OW30244   0.384   2.126   0.415
 9782SOL    HW130245   0.395   2.040   0.364
 9782SOL    HW230246   0.446   2.127   0.493
 9783SOL     OW30247   4.597   1.374   2.880
 9783SOL    HW130248   4.579   1.289   2.929
 9783SOL    HW230249   4.510   1.423   2.866
 9784SOL     OW30250   1.719   1.315   6.391
 9784SOL    HW130251   1.627   1.353   6.379
 9784SOL    HW230252   1.785   1.389   6.395
 9785SOL     OW30253   0.677   4.041   4.616
 9785SOL    HW130254   0.653   3.948   4.642
 9785SOL    HW230255   0.771   4.043   4.581
 9786SOL     OW30256   2.437   4.502   6.352
 9786SOL    HW130257   2.528   4.535   6.327
 9786SOL    HW230258   2.440   4.462   6.444
 9787SOL     OW30259   2.951   3.258   2.181
 9787SOL    HW130260   2.968   3.210   2.095
 9787SOL    HW230261   2.939   3.356   2.163
 9788SOL     OW30262   3.997   0.037   1.700
 9788SOL    HW130263   3.981   6.983   1.757
 9788SOL    HW230264   3.911   0.066   1.658
 9789SOL     OW30265   3.468   1.498   6.671
 9789SOL    HW130266   3.412   1.509   6.753
 9789SOL    HW230267   3.417   1.449   6.601
 9790SOL     OW30268   5.548   6.066   4.517
 9790SOL    HW130269   5.608   5.988   4.537
 9790SOL    HW230270   5.469   6.063   4.578
 9791SOL     OW30271   0.687   6.980   1.795
 9791SOL    HW130272   0.606   6.923   1.812
 9791SOL    HW230273   0.760   6.954   1.859
 9792SOL     OW30274   3.904   4.785   0.760
 9792SOL    HW130275   3.913   4.855   0.689
 9792SOL    HW230276   3.991   4.737   0.772
 9793SOL     OW30277   6.463   0.679   3.504
 9793SOL    HW130278   6.513   0.673   3.418
 9793SOL    HW230279   6.387   0.614   3.503
 9794SOL     OW30280   4.424   4.669   4.514
 9794SOL    HW130281   4.483   4.598   4.476
 9794SOL    HW230282   4.416   4.657   4.613
 9795SOL     OW30283   1.045   3.292   2.808
 9795SOL    HW130284   0.965   3.302   2.750
 9795SOL    HW230285   1.032   3.214   2.870
 9796SOL     OW30286   3.173   3.977   4.064
 9796SOL    HW130287   3.258   3.927   4.083
 9796SOL    HW230288   3.097   3.933   4.112
 9797SOL     OW30289   2.487   5.078   0.454
 9797SOL    HW130290   2.548   4.999   0.463
 9797SOL    HW230291   2.407   5.065   0.512
 9798SOL     OW30292   0.059   4.206   6.180
 9798SOL    HW130293   0.057   4.256   6.266
 9798SOL    HW230294   0.148   4.161   6.169
 9799SOL     OW30295   3.237   0.103   0.222
 9799SOL    HW130296   3.291   0.048   0.158
 9799SOL    HW230297   3.140   0.079   0.213
 9800SOL     OW30298   6.855   3.437   3.982
 9800SOL    HW130299   6.800   3.514   3.948
 9800SOL    HW230300   6.904   3.464   4.065
 9801SOL     OW30301   5.061   6.486   0.538
 9801SOL    HW130302   5.060   6.539   0.623
 9801SOL    HW230303   5.002   6.406   0.547
 9802SOL     OW30304   4.145   3.749   6.698
 9802SOL    HW130305   4.232   3.746   6.648
 9802SOL    HW230306   4.162   3.773   6.793
 9803SOL     OW30307   0.774   3.069   6.422
 9803SOL    HW130308   0.833   3.117   6.358
 9803SOL    HW230309   0.704   3.018   6.372
 9804SOL     OW30310   0.463   4.712   2.574
 9804SOL    HW130311   0.459   4.765   2.658
 9804SOL    HW230312   0.387   4.647   2.571
 9805SOL     OW30313   0.865   5.404   3.685
 9805SOL    HW130314   0.820   5.493   3.674
 9805SOL    HW230315   0.797   5.332   3.690
 9806SOL     OW30316   3.727   1.887   0.232
 9806SOL    HW130317   3.807   1.871   0.289
 9806SOL    HW230318   3.748   1.956   0.162
 9807SOL     OW30319   3.889   3.266   2.919
 9807SOL    HW130320   3.936   3.190   2.873
 9807SOL    HW230321   3.943   3.349   2.908
 9808SOL     OW30322   4.149   5.715   1.970
 9808SOL    HW130323   4.104   5.765   1.896
 9808SOL    HW230324   4.093   5.636   1.995
 9809SOL     OW30325   6.819   3.289   0.490
 9809SOL    HW130326   6.722   3.308   0.496
 9809SOL    HW230327   6.834   3.191   0.481
 9810SOL     OW30328   2.702   1.970   0.253
 9810SOL    HW130329   2.728   2.058   0.294
 9810SOL    HW230330   2.707   1.899   0.323
 9811SOL     OW30331   5.659   3.656   4.240
 9811SOL    HW130332   5.719   3.689   4.167
 9811SOL    HW230333   5.681   3.704   4.325
 9812SOL     OW30334   3.555   6.222   5.840
 9812SOL    HW130335   3.517   6.216   5.933
 9812SOL    HW230336   3.603   6.138   5.818
 9813SOL     OW30337   5.120   0.446   1.958
 9813SOL    HW130338   5.167   0.440   1.870
 9813SOL    HW230339   5.139   0.536   1.999
 9814SOL     OW30340   6.316   1.149   6.907
 9814SOL    HW130341   6.403   1.190   6.879
 9814SOL    HW230342   6.277   1.203   6.982
 9815SOL     OW30343   4.538   2.533   4.092
 9815SOL    HW130344   4.559   2.628   4.072
 9815SOL    HW230345   4.457   2.529   4.151
 9816SOL     OW30346   2.396   1.009   1.790
 9816SOL    HW130347   2.478   1.028   1.737
 9816SOL    HW230348   2.325   1.077   1.769
 9817SOL     OW30349   6.457   6.874   2.258
 9817SOL    HW130350   6.363   6.862   2.288
 9817SOL    HW230351   6.516   6.886   2.338
 9818SOL     OW30352   5.254   2.442   5.042
 9818SOL    HW130353   5.272   2.538   5.065
 9818SOL    HW230354   5.168   2.413   5.084
 9819SOL     OW30355   4.445   0.517   2.497
 9819SOL    HW130356   4.426   0.611   2.527
 9819SOL    HW230357   4.362   0.475   2.462
 9820SOL     OW30358   4.335   2.791   6.155
 9820SOL    HW130359   4.238   2.793   6.133
 9820SOL    HW230360   4.363   2.880   6.191
 9821SOL     OW30361   6.562   5.269   0.037
 9821SOL    HW130362   6.554   5.258   0.136
 9821SOL    HW230363   6.595   5.361   0.016
 9822SOL     OW30364   0.661   6.691   2.728
 9822SOL    HW130365   0.737   6.724   2.673
 9822SOL    HW230366   0.696   6.647   2.811
 9823SOL     OW30367   3.755   0.127   1.607
 9823SOL    HW130368   3.692   0.119   1.530
 9823SOL    HW230369   3.796   0.218   1.607
 9824SOL     OW30370   1.512   3.819   5.645
 9824SOL    HW130371   1.437   3.785   5.701
 9824SOL    HW230372   1.567   3.884   5.697
 9825SOL     OW30373   4.171   5.083   5.100
 9825SOL    HW130374   4.218   5.153   5.047
 9825SOL    HW230375   4.214   4.994   5.083
 9826SOL     OW30376   5.109   0.603   6.205
 9826SOL    HW130377   5.025   0.549   6.211
 9826SOL    HW230378   5.185   0.551   6.243
 9827SOL     OW30379   1.237   3.494   4.462
 9827SOL    HW130380   1.332   3.522   4.445
 9827SOL    HW230381   1.204   3.440   4.384
 9828SOL     OW30382   3.290   3.015   6.644
 9828SOL    HW130383   3.370   2.955   6.638
 9828SOL    HW230384   3.317   3.108   6.620
 9829SOL     OW30385   3.392   4.787   0.967
 9829SOL    HW130386   3.365   4.808   1.061
 9829SOL    HW230387   3.412   4.872   0.918
 9830SOL     OW30388   5.856   0.148   0.693
 9830SOL    HW130389   5.955   0.149   0.704
 9830SOL    HW230390   5.825   0.234   0.653
 9831SOL     OW30391   6.093   6.959   0.688
 9831SOL    HW130392   6.154   7.023   0.642
 9831SOL    HW230393   6.117   6.953   0.784
 9832SOL     OW30394   4.314   4.891   0.754
 9832SOL    HW130395   4.380   4.910   0.827
 9832SOL    HW230396   4.271   4.802   0.771
 9833SOL     OW30397   4.103   4.039   5.489
 9833SOL    HW130398   4.071   4.113   5.549
 9833SOL    HW230399   4.155   3.973   5.542
 9834SOL     OW30400   0.803   3.578   4.582
 9834SOL    HW130401   0.771   3.574   4.488
 9834SOL    HW230402   0.819   3.485   4.615
 9835SOL     OW30403   5.148   1.365   4.262
 9835SOL    HW130404   5.090   1.288   4.291
 9835SOL    HW230405   5.131   1.443   4.322
 9836SOL     OW30406   4.960   5.462   2.940
 9836SOL    HW130407   5.027   5.505   3.001
 9836SOL    HW230408   4.889   5.417   2.995
 9837SOL     OW30409   1.687   6.326   4.222
 9837SOL    HW130410   1.679   6.258   4.149
 9837SOL    HW230411   1.630   6.405   4.200
 9838SOL     OW30412   0.267   5.821   5.385
 9838SOL    HW130413   0.355   5.775   5.401
 9838SOL    HW230414   0.281   5.920   5.384
 9839SOL     OW30415   6.673   1.948   2.058
 9839SOL    HW130416   6.654   1.960   1.961
 9839SOL    HW230417   6.621   1.871   2.094
 9840SOL     OW30418   6.560   0.412   1.279
 9840SOL    HW130419   6.657   0.407   1.257
 9840SOL    HW230420   6.548   0.439   1.374
 9841SOL     OW30421   1.576   3.603   4.116
 9841SOL    HW130422   1.669   3.630   4.143
 9841SOL    HW230423   1.523   3.685   4.092
 9842SOL     OW30424   3.551   2.892   2.174
 9842SOL    HW130425   3.535   2.809   2.121
 9842SOL    HW230426   3.649   2.909   2.182
 9843SOL     OW30427   6.133   3.038   2.278
 9843SOL    HW130428   6.172   3.023   2.370
 9843SOL    HW230429   6.170   2.970   2.215
 9844SOL     OW30430   5.051   6.932   2.662
 9844SOL    HW130431   5.148   6.933   2.688
 9844SOL    HW230432   5.016   7.026   2.658
 9845SOL     OW30433   0.655   2.158   3.508
 9845SOL    HW130434   0.567   2.112   3.506
 9845SOL    HW230435   0.712   2.119   3.580
 9846SOL     OW30436   3.001   3.198   2.869
 9846SOL    HW130437   2.957   3.145   2.796
 9846SOL    HW230438   3.095   3.220   2.842
 9847SOL     OW30439   2.008   4.369   5.082
 9847SOL    HW130440   2.066   4.433   5.132
 9847SOL    HW230441   1.953   4.419   5.016
 9848SOL     OW30442   4.573   3.708   0.528
 9848SOL    HW130443   4.634   3.678   0.602
 9848SOL    HW230444   4.591   3.652   0.447
 9849SOL     OW30445   0.455   0.012   5.743
 9849SOL    HW130446   0.485   0.105   5.763
 9849SOL    HW230447   0.418   6.997   5.826
 9850SOL     OW30448   4.096   6.399   2.517
 9850SOL    HW130449   4.098   6.330   2.444
 9850SOL    HW230450   4.122   6.488   2.479
 9851SOL     OW30451   5.801   1.935   5.142
 9851SOL    HW130452   5.769   2.022   5.104
 9851SOL    HW230453   5.829   1.948   5.237
 9852SOL     OW30454   4.990   1.904   3.642
 9852SOL    HW130455   4.995   1.943   3.550
 9852SOL    HW230456   4.924   1.830   3.644
 9853SOL     OW30457   6.519   4.090   2.036
 9853SOL    HW130458   6.536   3.995   2.011
 9853SOL    HW230459   6.475   4.093   2.126
 9854SOL     OW30460   4.822   5.622   3.845
 9854SOL    HW130461   4.916   5.657   3.839
 9854SOL    HW230462   4.759   5.687   3.803
 9855SOL     OW30463   1.426   3.023   1.255
 9855SOL    HW130464   1.377   3.083   1.192
 9855SOL    HW230465   1.466   3.076   1.328
 9856SOL     OW30466   4.231   2.670   1.234
 9856SOL    HW130467   4.148   2.687   1.180
 9856SOL    HW230468   4.211   2.602   1.305
 9857SOL     OW30469   5.165   4.027   3.611
 9857SOL    HW130470   5.165   4.125   3.588
 9857SOL    HW230471   5.259   3.995   3.619
 9858SOL     OW30472   4.857   0.558   0.723
 9858SOL    HW130473   4.814   0.527   0.808
 9858SOL    HW230474   4.835   0.493   0.650
 9859SOL     OW30475   6.653   0.444   2.137
 9859SOL    HW130476   6.661   0.373   2.067
 9859SOL    HW230477   6.632   0.532   2.094
 9860SOL     OW30478   0.452   0.857   2.598
 9860SOL    HW130479   0.353   0.859   2.589
 9860SOL    HW230480   0.478   0.895   2.687
 9861SOL     OW30481   3.713   6.842   4.670
 9861SOL    HW130482   3.695   6.767   4.607
 9861SOL    HW230483   3.789   6.818   4.730
 9862SOL     OW30484   0.716   2.452   0.280
 9862SOL    HW130485   0.738   2.444   0.183
 9862SOL    HW230486   0.759   2.535   0.317
 9863SOL     OW30487   3.036   6.743   1.068
 9863SOL    HW130488   2.951   6.690   1.074
 9863SOL    HW230489   3.055   6.764   0.972
 9864SOL     OW30490   4.602   5.919   2.474
 9864SOL    HW130491   4.540   5.971   2.416
 9864SOL    HW230492   4.551   5.853   2.528
 9865SOL     OW30493   0.169   1.716   4.880
 9865SOL    HW130494   0.267   1.706   4.895
 9865SOL    HW230495   0.142   1.810   4.902
 9866SOL     OW30496   4.589   4.375   3.783
 9866SOL    HW130497   4.545   4.431   3.714
 9866SOL    HW230498   4.565   4.409   3.874
 9867SOL     OW30499   4.095   0.616   6.752
 9867SOL    HW130500   4.011   0.570   6.722
 9867SOL    HW230501   4.080   0.714   6.756
 9868SOL     OW30502   6.928   5.507   7.022
 9868SOL    HW130503   6.945   5.426   0.053
 9868SOL    HW230504   6.870   5.571   0.045
 9869SOL     OW30505   1.599   3.741   3.033
 9869SOL    HW130506   1.684   3.690   3.043
 9869SOL    HW230507   1.608   3.830   3.077
 9870SOL     OW30508   4.936   4.720   2.873
 9870SOL    HW130509   5.032   4.730   2.844
 9870SOL    HW230510   4.886   4.803   2.848
 9871SOL     OW30511   1.873   1.143   5.099
 9871SOL    HW130512   1.950   1.099   5.053
 9871SOL    HW230513   1.855   1.098   5.186
 9872SOL     OW30514   1.906   4.615   3.465
 9872SOL    HW130515   1.921   4.647   3.372
 9872SOL    HW230516   1.940   4.522   3.475
 9873SOL     OW30517   1.166   2.644   0.376
 9873SOL    HW130518   1.223   2.621   0.297
 9873SOL    HW230519   1.183   2.579   0.450
 9874SOL     OW30520   0.721   2.914   3.694
 9874SOL    HW130521   0.746   2.919   3.597
 9874SOL    HW230522   0.638   2.859   3.704
 9875SOL     OW30523   1.314   0.717   3.388
 9875SOL    HW130524   1.375   0.790   3.420
 9875SOL    HW230525   1.261   0.750   3.310
 9876SOL     OW30526   6.957   5.958   2.658
 9876SOL    HW130527   7.026   5.974   2.587
 9876SOL    HW230528   6.868   5.943   2.616
 9877SOL     OW30529   3.462   0.134   2.125
 9877SOL    HW130530   3.449   0.038   2.102
 9877SOL    HW230531   3.485   0.186   2.042
 9878SOL     OW30532   0.741   6.405   5.178
 9878SOL    HW130533   0.713   6.325   5.126
 9878SOL    HW230534   0.734   6.487   5.120
 9879SOL     OW30535   4.413   5.970   6.197
 9879SOL    HW130536   4.447   6.060   6.224
 9879SOL    HW230537   4.483   5.921   6.146
 9880SOL     OW30538   1.697   1.687   5.244
 9880SOL    HW130539   1.663   1.779   5.224
 9880SOL    HW230540   1.645   1.621   5.192
 9881SOL     OW30541   0.445   2.806   6.009
 9881SOL    HW130542   0.534   2.779   5.972
 9881SOL    HW230543   0.372   2.760   5.958
 9882SOL     OW30544   1.438   1.354   3.880
 9882SOL    HW130545   1.513   1.339   3.945
 9882SOL    HW230546   1.472   1.350   3.787
 9883SOL     OW30547   2.072   0.829   1.872
 9883SOL    HW130548   2.084   0.862   1.966
 9883SOL    HW230549   2.019   0.896   1.821
 9884SOL     OW30550   3.974   0.424   4.269
 9884SOL    HW130551   4.059   0.476   4.265
 9884SOL    HW230552   3.907   0.473   4.325
 9885SOL     OW30553   6.394   5.010   4.125
 9885SOL    HW130554   6.381   4.959   4.210
 9885SOL    HW230555   6.305   5.039   4.090
 9886SOL     OW30556   1.254   4.089   2.098
 9886SOL    HW130557   1.237   4.116   2.003
 9886SOL    HW230558   1.222   3.995   2.112
 9887SOL     OW30559   3.839   0.777   6.914
 9887SOL    HW130560   3.894   0.860   6.907
 9887SOL    HW230561   3.742   0.801   6.922
 9888SOL     OW30562   0.199   4.195   0.308
 9888SOL    HW130563   0.241   4.104   0.305
 9888SOL    HW230564   0.258   4.260   0.261
 9889SOL     OW30565   6.442   5.139   0.320
 9889SOL    HW130566   6.506   5.083   0.373
 9889SOL    HW230567   6.464   5.236   0.332
 9890SOL     OW30568   1.668   2.656   1.070
 9890SOL    HW130569   1.714   2.582   1.118
 9890SOL    HW230570   1.580   2.675   1.115
 9891SOL     OW30571   4.994   2.076   1.101
 9891SOL    HW130572   4.936   2.117   1.171
 9891SOL    HW230573   5.067   2.140   1.077
 9892SOL     OW30574   6.664   5.538   6.660
 9892SOL    HW130575   6.742   5.490   6.701
 9892SOL    HW230576   6.636   5.492   6.577
 9893SOL     OW30577   2.235   1.617   0.591
 9893SOL    HW130578   2.228   1.654   0.683
 9893SOL    HW230579   2.144   1.596   0.556
 9894SOL     OW30580   1.752   2.330   0.209
 9894SOL    HW130581   1.695   2.271   0.266
 9894SOL    HW230582   1.844   2.335   0.249
 9895SOL     OW30583   5.334   3.160   5.543
 9895SOL    HW130584   5.317   3.130   5.637
 9895SOL    HW230585   5.248   3.185   5.499
 9896SOL     OW30586   5.948   6.963   0.204
 9896SOL    HW130587   5.974   0.002   0.133
 9896SOL    HW230588   6.019   6.893   0.212
 9897SOL     OW30589   5.585   5.272   3.483
 9897SOL    HW130590   5.587   5.327   3.567
 9897SOL    HW230591   5.505   5.212   3.483
 9898SOL     OW30592   3.634   6.319   5.410
 9898SOL    HW130593   3.600   6.232   5.374
 9898SOL    HW230594   3.704   6.355   5.348
 9899SOL     OW30595   0.115   5.664   6.929
 9899SOL    HW130596   0.068   5.746   6.896
 9899SOL    HW230597   0.048   5.594   6.952
 9900SOL     OW30598   2.189   3.766   3.307
 9900SOL    HW130599   2.201   3.765   3.406
 9900SOL    HW230600   2.210   3.857   3.271
 9901SOL     OW30601   2.463   2.064   5.386
 9901SOL    HW130602   2.543   2.035   5.334
 9901SOL    HW230603   2.401   2.115   5.326
 9902SOL     OW30604   2.599   4.526   6.775
 9902SOL    HW130605   2.583   4.449   6.712
 9902SOL    HW230606   2.606   4.491   6.868
 9903SOL     OW30607   5.297   0.736   3.045
 9903SOL    HW130608   5.353   0.792   3.106
 9903SOL    HW230609   5.282   0.784   2.959
 9904SOL     OW30610   6.300   3.168   6.686
 9904SOL    HW130611   6.250   3.179   6.600
 9904SOL    HW230612   6.325   3.257   6.723
 9905SOL     OW30613   3.925   1.516   0.401
 9905SOL    HW130614   3.850   1.519   0.467
 9905SOL    HW230615   4.003   1.567   0.438
 9906SOL     OW30616   4.057   3.250   3.716
 9906SOL    HW130617   3.971   3.252   3.665
 9906SOL    HW230618   4.051   3.182   3.789
 9907SOL     OW30619   0.614   6.853   2.205
 9907SOL    HW130620   0.562   6.783   2.253
 9907SOL    HW230621   0.655   6.814   2.123
 9908SOL     OW30622   5.042   3.026   3.212
 9908SOL    HW130623   5.073   3.115   3.243
 9908SOL    HW230624   5.088   2.954   3.264
 9909SOL     OW30625   2.191   6.818   4.924
 9909SOL    HW130626   2.142   6.755   4.984
 9909SOL    HW230627   2.206   6.905   4.972
 9910SOL     OW30628   1.387   4.092   3.004
 9910SOL    HW130629   1.477   4.087   2.960
 9910SOL    HW230630   1.395   4.066   3.100
 9911SOL     OW30631   3.530   6.514   1.562
 9911SOL    HW130632   3.507   6.426   1.519
 9911SOL    HW230633   3.628   6.531   1.552
 9912SOL     OW30634   4.608   1.649   0.427
 9912SOL    HW130635   4.541   1.595   0.378
 9912SOL    HW230636   4.658   1.591   0.491
 9913SOL     OW30637   5.788   3.409   6.727
 9913SOL    HW130638   5.882   3.395   6.758
 9913SOL    HW230639   5.724   3.378   6.797
 9914SOL     OW30640   0.818   3.092   4.787
 9914SOL    HW130641   0.777   3.182   4.799
 9914SOL    HW230642   0.912   3.102   4.754
 9915SOL     OW30643   5.689   1.400   3.643
 9915SOL    HW130644   5.604   1.419   3.692
 9915SOL    HW230645   5.719   1.483   3.595
 9916SOL     OW30646   2.338   2.826   2.360
 9916SOL    HW130647   2.268   2.875   2.308
 9916SOL    HW230648   2.382   2.758   2.301
 9917SOL     OW30649   6.613   4.086   5.441
 9917SOL    HW130650   6.692   4.146   5.432
 9917SOL    HW230651   6.642   3.991   5.440
 9918SOL     OW30652   3.807   2.121   2.535
 9918SOL    HW130653   3.712   2.115   2.566
 9918SOL    HW230654   3.811   2.102   2.437
 9919SOL     OW30655   6.116   5.702   0.880
 9919SOL    HW130656   6.109   5.754   0.965
 9919SOL    HW230657   6.100   5.605   0.898
 9920SOL     OW30658   4.828   1.332   2.765
 9920SOL    HW130659   4.733   1.345   2.792
 9920SOL    HW230660   4.869   1.421   2.744
 9921SOL     OW30661   3.506   5.368   6.103
 9921SOL    HW130662   3.458   5.450   6.134
 9921SOL    HW230663   3.443   5.309   6.053
 9922SOL     OW30664   0.167   5.721   0.570
 9922SOL    HW130665   0.196   5.630   0.599
 9922SOL    HW230666   0.213   5.745   0.484
 9923SOL     OW30667   4.685   5.189   0.084
 9923SOL    HW130668   4.598   5.238   0.081
 9923SOL    HW230669   4.755   5.241   0.037
 9924SOL     OW30670   0.524   3.516   4.911
 9924SOL    HW130671   0.516   3.485   5.006
 9924SOL    HW230672   0.601   3.581   4.904
 9925SOL     OW30673   5.342   2.773   4.070
 9925SOL    HW130674   5.286   2.691   4.062
 9925SOL    HW230675   5.301   2.836   4.137
 9926SOL     OW30676   1.769   4.453   6.958
 9926SOL    HW130677   1.813   4.491   0.013
 9926SOL    HW230678   1.723   4.368   6.982
 9927SOL     OW30679   6.340   0.225   3.222
 9927SOL    HW130680   6.246   0.191   3.216
 9927SOL    HW230681   6.396   0.181   3.152
 9928SOL     OW30682   4.600   4.276   1.505
 9928SOL    HW130683   4.531   4.348   1.514
 9928SOL    HW230684   4.691   4.316   1.518
 9929SOL     OW30685   2.460   4.558   4.279
 9929SOL    HW130686   2.368   4.580   4.246
 9929SOL    HW230687   2.457   4.471   4.328
 9930SOL     OW30688   6.848   0.539   4.306
 9930SOL    HW130689   6.830   0.441   4.303
 9930SOL    HW230690   6.785   0.583   4.371
 9931SOL     OW30691   0.879   4.559   4.975
 9931SOL    HW130692   0.952   4.565   5.043
 9931SOL    HW230693   0.794   4.532   5.021
 9932SOL     OW30694   0.615   6.556   6.125
 9932SOL    HW130695   0.634   6.467   6.083
 9932SOL    HW230696   0.522   6.555   6.164
 9933SOL     OW30697   0.821   5.440   2.392
 9933SOL    HW130698   0.838   5.345   2.418
 9933SOL    HW230699   0.895   5.498   2.426
 9934SOL     OW30700   6.734   1.540   6.095
 9934SOL    HW130701   6.776   1.630   6.083
 9934SOL    HW230702   6.705   1.529   6.190
 9935SOL     OW30703   2.653   1.125   6.324
 9935SOL    HW130704   2.741   1.157   6.359
 9935SOL    HW230705   2.667   1.061   6.249
 9936SOL     OW30706   0.536   4.140   4.852
 9936SOL    HW130707   0.606   4.120   4.784
 9936SOL    HW230708   0.572   4.119   4.943
 9937SOL     OW30709   6.959   2.517   6.087
 9937SOL    HW130710   6.894   2.448   6.055
 9937SOL    HW230711   0.011   2.471   6.130
 9938SOL     OW30712   6.673   6.202   3.070
 9938SOL    HW130713   6.643   6.146   2.993
 9938SOL    HW230714   6.620   6.286   3.073
 9939SOL     OW30715   3.265   2.839   1.933
 9939SOL    HW130716   3.349   2.786   1.918
 9939SOL    HW230717   3.259   2.865   2.030
 9940SOL     OW30718   6.815   1.054   0.575
 9940SOL    HW130719   6.820   0.964   0.530
 9940SOL    HW230720   6.881   1.057   0.650
 9941SOL     OW30721   3.308   4.736   5.895
 9941SOL    HW130722   3.281   4.644   5.925
 9941SOL    HW230723   3.237   4.801   5.922
 9942SOL     OW30724   2.956   5.521   3.408
 9942SOL    HW130725   2.917   5.520   3.316
 9942SOL    HW230726   2.885   5.497   3.474
 9943SOL     OW30727   0.710   6.314   6.036
 9943SOL    HW130728   0.683   6.273   6.123
 9943SOL    HW230729   0.755   6.246   5.978
 9944SOL     OW30730   0.769   4.189   0.152
 9944SOL    HW130731   0.717   4.237   0.081
 9944SOL    HW230732   0.719   4.193   0.239
 9945SOL     OW30733   6.767   5.605   0.349
 9945SOL    HW130734   6.806   5.534   0.409
 9945SOL    HW230735   6.740   5.684   0.404
 9946SOL     OW30736   4.563   0.484   5.245
 9946SOL    HW130737   4.501   0.431   5.186
 9946SOL    HW230738   4.655   0.484   5.205
 9947SOL     OW30739   6.655   4.610   4.207
 9947SOL    HW130740   6.719   4.536   4.227
 9947SOL    HW230741   6.705   4.697   4.200
 9948SOL     OW30742   4.950   4.667   5.036
 9948SOL    HW130743   4.960   4.600   4.962
 9948SOL    HW230744   4.855   4.668   5.067
 9949SOL     OW30745   5.512   5.170   3.158
 9949SOL    HW130746   5.603   5.127   3.160
 9949SOL    HW230747   5.447   5.108   3.115
 9950SOL     OW30748   4.176   6.269   5.435
 9950SOL    HW130749   4.082   6.264   5.402
 9950SOL    HW230750   4.177   6.277   5.535
 9951SOL     OW30751   5.622   2.108   2.708
 9951SOL    HW130752   5.676   2.041   2.657
 9951SOL    HW230753   5.594   2.182   2.648
 9952SOL     OW30754   6.848   4.704   0.491
 9952SOL    HW130755   6.867   4.643   0.415
 9952SOL    HW230756   6.883   4.796   0.470
 9953SOL     OW30757   6.819   1.194   3.911
 9953SOL    HW130758   6.825   1.211   4.009
 9953SOL    HW230759   6.900   1.144   3.881
 9954SOL     OW30760   4.868   0.369   5.397
 9954SOL    HW130761   4.918   0.296   5.444
 9954SOL    HW230762   4.801   0.409   5.459
 9955SOL     OW30763   0.194   4.247   4.800
 9955SOL    HW130764   0.150   4.175   4.746
 9955SOL    HW230765   0.291   4.225   4.811
 9956SOL     OW30766   1.551   6.672   1.571
 9956SOL    HW130767   1.640   6.668   1.525
 9956SOL    HW230768   1.550   6.606   1.646
 9957SOL     OW30769   6.685   3.955   4.035
 9957SOL    HW130770   6.693   4.047   3.995
 9957SOL    HW230771   6.711   3.959   4.131
 9958SOL     OW30772   2.489   4.373   1.592
 9958SOL    HW130773   2.565   4.308   1.585
 9958SOL    HW230774   2.509   4.440   1.663
 9959SOL     OW30775   4.087   3.470   0.389
 9959SOL    HW130776   4.148   3.542   0.424
 9959SOL    HW230777   3.994   3.487   0.421
 9960SOL     OW30778   0.440   1.562   2.638
 9960SOL    HW130779   0.387   1.480   2.617
 9960SOL    HW230780   0.449   1.618   2.556
 9961SOL     OW30781   1.985   5.195   4.527
 9961SOL    HW130782   2.055   5.186   4.597
 9961SOL    HW230783   1.993   5.119   4.462
 9962SOL     OW30784   4.867   6.275   5.038
 9962SOL    HW130785   4.864   6.297   5.136
 9962SOL    HW230786   4.882   6.359   4.986
 9963SOL     OW30787   2.832   1.088   0.856
 9963SOL    HW130788   2.851   1.136   0.770
 9963SOL    HW230789   2.772   1.144   0.913
 9964SOL     OW30790   4.378   6.069   5.328
 9964SOL    HW130791   4.464   6.080   5.379
 9964SOL    HW230792   4.321   6.150   5.343
 9965SOL     OW30793   4.402   0.227   0.429
 9965SOL    HW130794   4.466   0.190   0.497
 9965SOL    HW230795   4.311   0.190   0.444
 9966SOL     OW30796   0.809   6.819   2.561
 9966SOL    HW130797   0.722   6.859   2.533
 9966SOL    HW230798   0.832   6.744   2.498
 9967SOL     OW30799   0.937   5.538   0.541
 9967SOL    HW130800   0.899   5.515   0.451
 9967SOL    HW230801   0.963   5.454   0.589
 9968SOL     OW30802   4.027   3.122   2.297
 9968SOL    HW130803   4.115   3.124   2.250
 9968SOL    HW230804   4.005   3.214   2.331
 9969SOL     OW30805   0.696   3.349   1.837
 9969SOL    HW130806   0.639   3.270   1.816
 9969SOL    HW230807   0.785   3.339   1.792
 9970SOL     OW30808   5.633   4.471   1.213
 9970SOL    HW130809   5.606   4.385   1.169
 9970SOL    HW230810   5.688   4.526   1.149
 9971SOL     OW30811   1.810   4.728   0.195
 9971SOL    HW130812   1.722   4.681   0.193
 9971SOL    HW230813   1.875   4.676   0.251
 9972SOL     OW30814   6.664   4.488   2.200
 9972SOL    HW130815   6.658   4.388   2.209
 9972SOL    HW230816   6.575   4.528   2.218
 9973SOL     OW30817   5.824   0.947   4.655
 9973SOL    HW130818   5.810   1.010   4.579
 9973SOL    HW230819   5.750   0.958   4.722
 9974SOL     OW30820   1.916   1.200   4.382
 9974SOL    HW130821   1.826   1.160   4.400
 9974SOL    HW230822   1.927   1.213   4.283
 9975SOL     OW30823   0.544   3.082   0.243
 9975SOL    HW130824   0.639   3.083   0.211
 9975SOL    HW230825   0.486   3.131   0.178
 9976SOL     OW30826   2.120   0.050   5.034
 9976SOL    HW130827   2.041   0.014   5.083
 9976SOL    HW230828   2.119   0.150   5.036
 9977SOL     OW30829   6.924   4.670   4.762
 9977SOL    HW130830   6.985   4.677   4.841
 9977SOL    HW230831   6.907   4.573   4.742
 9978SOL     OW30832   6.792   1.781   4.281
 9978SOL    HW130833   6.792   1.682   4.270
 9978SOL    HW230834   6.712   1.809   4.334
 9979SOL     OW30835   6.804   3.783   5.170
 9979SOL    HW130836   6.889   3.735   5.190
 9979SOL    HW230837   6.734   3.718   5.142
 9980SOL     OW30838   3.571   0.072   5.992
 9980SOL    HW130839   3.503   0.019   6.042
 9980SOL    HW230840   3.624   0.010   5.933
 9981SOL     OW30841   3.296   2.073   4.365
 9981SOL    HW130842   3.226   2.143   4.378
 9981SOL    HW230843   3.295   2.009   4.441
 9982SOL     OW30844   6.770   6.412   4.330
 9982SOL    HW130845   6.852   6.428   4.386
 9982SOL    HW230846   6.779   6.461   4.244
 9983SOL     OW30847   0.267   1.311   1.901
 9983SOL    HW130848   0.201   1.248   1.941
 9983SOL    HW230849   0.348   1.261   1.870
 9984SOL     OW30850   3.202   1.803   6.738
 9984SOL    HW130851   3.295   1.807   6.773
 9984SOL    HW230852   3.203   1.808   6.638
 9985SOL     OW30853   1.022   0.400   1.878
 9985SOL    HW130854   0.967   0.400   1.794
 9985SOL    HW230855   0.963   0.383   1.957
 9986SOL     OW30856   5.115   4.423   4.794
 9986SOL    HW130857   5.060   4.410   4.711
 9986SOL    HW230858   5.060   4.398   4.874
 9987SOL     OW30859   6.924   3.770   5.805
 9987SOL    HW130860   7.013   3.748   5.845
 9987SOL    HW230861   6.916   3.868   5.792
 9988SOL     OW30862   6.569   6.730   5.241
 9988SOL    HW130863   6.476   6.766   5.232
 9988SOL    HW230864   6.569   6.651   5.302
 9989SOL     OW30865   0.522   3.596   5.370
 9989SOL    HW130866   0.606   3.650   5.375
 9989SOL    HW230867   0.528   3.531   5.294
 9990SOL     OW30868   1.367   5.456   2.187
 9990SOL    HW130869   1.389   5.445   2.284
 9990SOL    HW230870   1.433   5.404   2.132
 9991SOL     OW30871   3.907   2.040   3.519
 9991SOL    HW130872   3.946   2.131   3.516
 9991SOL    HW230873   3.844   2.033   3.596
 9992SOL     OW30874   6.384   5.204   6.246
 9992SOL    HW130875   6.364   5.142   6.170
 9992SOL    HW230876   6.479   5.234   6.241
 9993SOL     OW30877   0.810   1.123   1.746
 9993SOL    HW130878   0.778   1.182   1.671
 9993SOL    HW230879   0.887   1.069   1.715
 9994SOL     OW30880   5.905   4.875   2.959
 9994SOL    HW130881   5.817   4.828   2.956
 9994SOL    HW230882   5.954   4.861   2.873
 9995SOL     OW30883   4.765   1.051   5.034
 9995SOL    HW130884   4.808   1.057   4.944
 9995SOL    HW230885   4.667   1.040   5.024
 9996SOL     OW30886   2.446   3.973   0.139
 9996SOL    HW130887   2.482   3.911   0.208
 9996SOL    HW230888   2.347   3.985   0.153
 9997SOL     OW30889   2.857   0.138   5.088
 9997SOL    HW130890   2.852   0.186   5.000
 9997SOL    HW230891   2.907   0.052   5.077
 9998SOL     OW30892   6.287   5.752   5.643
 9998SOL    HW130893   6.208   5.776   5.587
 9998SOL    HW230894   6.318   5.660   5.617
 9999SOL     OW30895   6.985   2.226   4.869
 9999SOL    HW130896   7.005   2.268   4.957
 9999SOL    HW230897   6.981   2.126   4.880
10000SOL     OW30898   7.007   3.325   6.779
10000SOL    HW130899   6.946   3.260   6.823
10000SOL    HW230900   0.075   3.305   6.806
10001SOL     OW30901   4.131   0.130   2.701
10001SOL    HW130902   4.213   0.179   2.672
10001SOL    HW230903   4.157   0.049   2.754
10002SOL     OW30904   0.849   1.118   2.031
10002SOL    HW130905   0.835   1.122   1.932
10002SOL    HW230906   0.940   1.083   2.051
10003SOL     OW30907   4.514   1.648   3.384
10003SOL    HW130908   4.571   1.590   3.325
10003SOL    HW230909   4.479   1.594   3.460
10004SOL     OW30910   0.428   1.698   3.112
10004SOL    HW130911   0.488   1.626   3.147
10004SOL    HW230912   0.475   1.786   3.118
10005SOL     OW30913   4.987   6.461   4.173
10005SOL    HW130914   5.086   6.463   4.167
10005SOL    HW230915   4.950   6.397   4.105
10006SOL     OW30916   3.643   0.511   4.765
10006SOL    HW130917   3.567   0.536   4.705
10006SOL    HW230918   3.716   0.471   4.710
10007SOL     OW30919   6.622   3.145   3.752
10007SOL    HW130920   6.562   3.080   3.798
10007SOL    HW230921   6.571   3.196   3.684
10008SOL     OW30922   3.581   0.156   4.262
10008SOL    HW130923   3.527   0.234   4.296
10008SOL    HW230924   3.607   0.098   4.339
10009SOL     OW30925   0.699   4.195   1.522
10009SOL    HW130926   0.747   4.111   1.495
10009SOL    HW230927   0.756   4.247   1.585
10010SOL     OW30928   0.862   1.613   6.712
10010SOL    HW130929   0.921   1.693   6.705
10010SOL    HW230930   0.889   1.560   6.793
10011SOL     OW30931   6.886   6.719   4.921
10011SOL    HW130932   6.947   6.783   4.967
10011SOL    HW230933   6.796   6.761   4.910
10012SOL     OW30934   5.797   1.274   4.121
10012SOL    HW130935   5.741   1.250   4.200
10012SOL    HW230936   5.755   1.239   4.038
10013SOL     OW30937   1.023   0.786   2.960
10013SOL    HW130938   0.940   0.820   3.003
10013SOL    HW230939   1.003   0.699   2.915
10014SOL     OW30940   1.366   4.601   6.054
10014SOL    HW130941   1.346   4.675   6.119
10014SOL    HW230942   1.296   4.600   5.983
10015SOL     OW30943   1.905   4.430   0.161
10015SOL    HW130944   1.940   4.500   0.224
10015SOL    HW230945   1.977   4.364   0.142
10016SOL     OW30946   2.388   0.431   5.674
10016SOL    HW130947   2.299   0.405   5.709
10016SOL    HW230948   2.386   0.431   5.574
10017SOL     OW30949   1.622   1.894   4.094
10017SOL    HW130950   1.657   1.928   4.182
10017SOL    HW230951   1.578   1.805   4.108
10018SOL     OW30952   4.736   6.927   6.511
10018SOL    HW130953   4.696   7.017   6.491
10018SOL    HW230954   4.771   6.887   6.427
10019SOL     OW30955   1.379   1.243   2.553
10019SOL    HW130956   1.283   1.213   2.546
10019SOL    HW230957   1.410   1.274   2.464
10020SOL     OW30958   0.484   3.065   0.898
10020SOL    HW130959   0.485   2.981   0.952
10020SOL    HW230960   0.430   3.050   0.815
10021SOL     OW30961   6.484   3.810   0.653
10021SOL    HW130962   6.455   3.726   0.607
10021SOL    HW230963   6.424   3.885   0.626
10022SOL     OW30964   1.863   0.782   6.902
10022SOL    HW130965   1.876   0.865   6.956
10022SOL    HW230966   1.902   0.704   6.951
10023SOL     OW30967   0.130   3.247   1.142
10023SOL    HW130968   0.157   3.228   1.236
10023SOL    HW230969   0.071   3.327   1.139
10024SOL     OW30970   1.455   4.576   3.617
10024SOL    HW130971   1.540   4.621   3.644
10024SOL    HW230972   1.473   4.515   3.540
10025SOL     OW30973   1.206   1.813   0.482
10025SOL    HW130974   1.162   1.724   0.475
10025SOL    HW230975   1.177   1.859   0.566
10026SOL     OW30976   6.895   0.849   3.618
10026SOL    HW130977   6.963   0.806   3.558
10026SOL    HW230978   6.836   0.909   3.565
10027SOL     OW30979   4.556   2.400   5.580
10027SOL    HW130980   4.642   2.377   5.535
10027SOL    HW230981   4.555   2.498   5.603
10028SOL     OW30982   1.689   1.131   1.085
10028SOL    HW130983   1.682   1.230   1.086
10028SOL    HW230984   1.730   1.099   1.171
10029SOL     OW30985   5.616   2.410   3.575
10029SOL    HW130986   5.679   2.477   3.536
10029SOL    HW230987   5.656   2.318   3.566
10030SOL     OW30988   2.015   0.885   3.645
10030SOL    HW130989   2.048   0.845   3.730
10030SOL    HW230990   2.017   0.816   3.573
10031SOL     OW30991   6.638   4.312   4.836
10031SOL    HW130992   6.603   4.244   4.771
10031SOL    HW230993   6.719   4.355   4.797
10032SOL     OW30994   3.134   1.539   5.183
10032SOL    HW130995   3.094   1.628   5.203
10032SOL    HW230996   3.116   1.476   5.259
10033SOL     OW30997   5.577   2.451   4.737
10033SOL    HW130998   5.601   2.522   4.804
10033SOL    HW230999   5.493   2.404   4.767
10034SOL     OW31000   5.037   0.723   6.428
10034SOL    HW131001   5.093   0.676   6.360
10034SOL    HW231002   4.997   0.806   6.387
10035SOL     OW31003   0.014   6.327   2.851
10035SOL    HW131004   0.079   6.305   2.924
10035SOL    HW231005   0.046   6.408   2.801
10036SOL     OW31006   6.796   0.751   0.418
10036SOL    HW131007   6.702   0.772   0.394
10036SOL    HW231008   6.847   0.726   0.336
10037SOL     OW31009   0.279   6.885   1.105
10037SOL    HW131010   0.303   6.842   1.018
10037SOL    HW231011   0.306   6.825   1.180
10038SOL     OW31012   6.644   0.950   1.157
10038SOL    HW131013   6.664   0.969   1.061
10038SOL    HW231014   6.654   0.852   1.174
10039SOL     OW31015   3.283   0.266   2.951
10039SOL    HW131016   3.346   0.245   2.876
10039SOL    HW231017   3.335   0.298   3.030
10040SOL     OW31018   0.694   2.669   1.098
10040SOL    HW131019   0.620   2.735   1.086
10040SOL    HW231020   0.738   2.684   1.186
10041SOL     OW31021   2.077   5.925   0.465
10041SOL    HW131022   2.028   5.842   0.490
10041SOL    HW231023   2.175   5.910   0.476
10042SOL     OW31024   5.856   3.143   2.578
10042SOL    HW131025   5.781   3.208   2.593
10042SOL    HW231026   5.831   3.081   2.505
10043SOL     OW31027   0.575   2.551   4.570
10043SOL    HW131028   0.501   2.570   4.634
10043SOL    HW231029   0.639   2.628   4.570
10044SOL     OW31030   3.707   1.077   6.033
10044SOL    HW131031   3.738   1.113   5.945
10044SOL    HW231032   3.607   1.084   6.039
10045SOL     OW31033   2.444   1.456   0.632
10045SOL    HW131034   2.495   1.418   0.556
10045SOL    HW231035   2.369   1.512   0.598
10046SOL     OW31036   1.200   5.377   1.066
10046SOL    HW131037   1.189   5.311   0.992
10046SOL    HW231038   1.134   5.357   1.138
10047SOL     OW31039   0.780   4.005   1.021
10047SOL    HW131040   0.734   3.916   1.026
10047SOL    HW231041   0.711   4.078   1.024
10048SOL     OW31042   5.734   5.013   3.190
10048SOL    HW131043   5.757   4.917   3.174
10048SOL    HW231044   5.818   5.066   3.203
10049SOL     OW31045   6.344   0.731   5.344
10049SOL    HW131046   6.304   0.719   5.254
10049SOL    HW231047   6.341   0.828   5.369
10050SOL     OW31048   0.147   2.903   6.602
10050SOL    HW131049   0.236   2.892   6.558
10050SOL    HW231050   0.124   2.820   6.652
10051SOL     OW31051   2.728   1.805   4.159
10051SOL    HW131052   2.751   1.894   4.121
10051SOL    HW231053   2.811   1.750   4.170
10052SOL     OW31054   1.217   6.912   3.296
10052SOL    HW131055   1.222   6.936   3.393
10052SOL    HW231056   1.189   6.817   3.287
10053SOL     OW31057   5.942   5.173   3.259
10053SOL    HW131058   5.907   5.216   3.342
10053SOL    HW231059   5.940   5.238   3.184
10054SOL     OW31060   0.092   4.071   4.604
10054SOL    HW131061   0.186   4.040   4.608
10054SOL    HW231062   0.031   3.999   4.636
10055SOL     OW31063   1.206   3.061   6.673
10055SOL    HW131064   1.203   3.075   6.772
10055SOL    HW231065   1.300   3.068   6.641
10056SOL     OW31066   6.151   2.030   3.616
10056SOL    HW131067   6.211   1.970   3.669
10056SOL    HW231068   6.062   2.036   3.661
10057SOL     OW31069   5.468   4.928   5.434
10057SOL    HW131070   5.405   4.882   5.372
10057SOL    HW231071   5.495   4.864   5.507
10058SOL     OW31072   0.158   4.045   5.009
10058SOL    HW131073   0.196   3.952   5.009
10058SOL    HW231074   0.071   4.046   4.960
10059SOL     OW31075   5.315   0.121   6.853
10059SOL    HW131076   5.357   0.211   6.844
10059SOL    HW231077   5.348   0.062   6.779
10060SOL     OW31078   2.971   2.011   1.714
10060SOL    HW131079   2.999   2.073   1.640
10060SOL    HW231080   2.879   1.976   1.695
10061SOL     OW31081   3.497   0.373   1.632
10061SOL    HW131082   3.576   0.432   1.617
10061SOL    HW231083   3.422   0.403   1.574
10062SOL     OW31084   0.920   6.493   4.827
10062SOL    HW131085   0.834   6.532   4.859
10062SOL    HW231086   0.963   6.442   4.901
10063SOL     OW31087   2.356   2.390   5.168
10063SOL    HW131088   2.347   2.294   5.144
10063SOL    HW231089   2.351   2.401   5.267
10064SOL     OW31090   2.533   0.002   0.559
10064SOL    HW131091   2.535   0.030   0.655
10064SOL    HW231092   2.491   6.939   0.551
10065SOL     OW31093   0.380   1.786   1.406
10065SOL    HW131094   0.339   1.803   1.495
10065SOL    HW231095   0.464   1.839   1.397
10066SOL     OW31096   6.142   4.849   3.816
10066SOL    HW131097   6.076   4.823   3.745
10066SOL    HW231098   6.187   4.768   3.850
10067SOL     OW31099   7.003   2.673   5.172
10067SOL    HW131100   0.049   2.621   5.217
10067SOL    HW231101   6.996   2.644   5.077
10068SOL     OW31102   1.418   3.666   2.500
10068SOL    HW131103   1.443   3.674   2.597
10068SOL    HW231104   1.421   3.756   2.458
10069SOL     OW31105   3.261   4.650   0.763
10069SOL    HW131106   3.308   4.703   0.833
10069SOL    HW231107   3.173   4.618   0.799
10070SOL     OW31108   4.933   6.810   0.073
10070SOL    HW131109   4.899   6.814   7.006
10070SOL    HW231110   5.033   6.804   0.072
10071SOL     OW31111   5.754   0.397   5.181
10071SOL    HW131112   5.801   0.447   5.108
10071SOL    HW231113   5.695   0.327   5.141
10072SOL     OW31114   5.972   3.332   1.379
10072SOL    HW131115   5.953   3.419   1.424
10072SOL    HW231116   6.035   3.279   1.435
10073SOL     OW31117   5.795   5.023   4.451
10073SOL    HW131118   5.862   4.988   4.516
10073SOL    HW231119   5.827   5.110   4.414
10074SOL     OW31120   2.276   4.811   0.134
10074SOL    HW131121   2.297   4.835   0.039
10074SOL    HW231122   2.356   4.768   0.176
10075SOL     OW31123   0.834   2.985   1.775
10075SOL    HW131124   0.891   3.030   1.844
10075SOL    HW231125   0.744   3.029   1.772
10076SOL     OW31126   5.659   5.173   4.148
10076SOL    HW131127   5.606   5.122   4.215
10076SOL    HW231128   5.600   5.195   4.069
10077SOL     OW31129   4.690   3.718   6.621
10077SOL    HW131130   4.690   3.818   6.614
10077SOL    HW231131   4.774   3.688   6.666
10078SOL     OW31132   6.228   5.352   4.579
10078SOL    HW131133   6.326   5.344   4.562
10078SOL    HW231134   6.180   5.367   4.492
10079SOL     OW31135   4.859   4.396   3.965
10079SOL    HW131136   4.941   4.368   3.914
10079SOL    HW231137   4.813   4.470   3.916
10080SOL     OW31138   5.123   1.554   5.770
10080SOL    HW131139   5.030   1.584   5.746
10080SOL    HW231140   5.188   1.597   5.707
10081SOL     OW31141   0.843   4.619   0.916
10081SOL    HW131142   0.766   4.633   0.978
10081SOL    HW231143   0.858   4.521   0.904
10082SOL     OW31144   0.954   4.863   1.512
10082SOL    HW131145   0.922   4.768   1.511
10082SOL    HW231146   1.053   4.865   1.510
10083SOL     OW31147   3.173   6.276   2.844
10083SOL    HW131148   3.120   6.313   2.767
10083SOL    HW231149   3.267   6.309   2.839
10084SOL     OW31150   0.821   1.945   4.831
10084SOL    HW131151   0.874   1.909   4.908
10084SOL    HW231152   0.737   1.891   4.820
10085SOL     OW31153   5.544   6.766   0.985
10085SOL    HW131154   5.589   6.839   0.934
10085SOL    HW231155   5.478   6.806   1.049
10086SOL     OW31156   4.412   6.228   3.428
10086SOL    HW131157   4.339   6.277   3.381
10086SOL    HW231158   4.399   6.233   3.527
10087SOL     OW31159   1.832   5.666   5.388
10087SOL    HW131160   1.879   5.628   5.468
10087SOL    HW231161   1.898   5.710   5.328
10088SOL     OW31162   6.398   2.539   1.526
10088SOL    HW131163   6.323   2.540   1.592
10088SOL    HW231164   6.473   2.483   1.561
10089SOL     OW31165   3.507   0.763   1.083
10089SOL    HW131166   3.425   0.706   1.078
10089SOL    HW231167   3.587   0.706   1.103
10090SOL     OW31168   1.767   6.710   3.327
10090SOL    HW131169   1.783   6.808   3.316
10090SOL    HW231170   1.854   6.662   3.331
10091SOL     OW31171   5.704   4.848   4.720
10091SOL    HW131172   5.777   4.781   4.703
10091SOL    HW231173   5.688   4.902   4.638
10092SOL     OW31174   1.079   2.132   3.861
10092SOL    HW131175   1.085   2.058   3.928
10092SOL    HW231176   1.022   2.103   3.784
10093SOL     OW31177   4.172   4.005   6.209
10093SOL    HW131178   4.237   4.035   6.139
10093SOL    HW231179   4.163   3.905   6.205
10094SOL     OW31180   3.644   2.006   0.733
10094SOL    HW131181   3.598   1.963   0.655
10094SOL    HW231182   3.695   2.086   0.702
10095SOL     OW31183   4.206   3.466   5.241
10095SOL    HW131184   4.180   3.473   5.144
10095SOL    HW231185   4.163   3.540   5.292
10096SOL     OW31186   6.456   3.387   2.428
10096SOL    HW131187   6.430   3.415   2.521
10096SOL    HW231188   6.442   3.288   2.419
10097SOL     OW31189   0.236   1.415   0.865
10097SOL    HW131190   0.212   1.347   0.934
10097SOL    HW231191   0.313   1.383   0.811
10098SOL     OW31192   3.178   5.442   4.534
10098SOL    HW131193   3.106   5.397   4.588
10098SOL    HW231194   3.238   5.372   4.494
10099SOL     OW31195   0.242   4.995   3.186
10099SOL    HW131196   0.274   5.001   3.281
10099SOL    HW231197   0.148   5.029   3.181
10100SOL     OW31198   5.480   4.946   3.883
10100SOL    HW131199   5.420   4.873   3.914
10100SOL    HW231200   5.427   5.012   3.829
10101SOL     OW31201   6.523   3.560   7.019
10101SOL    HW131202   6.537   3.506   0.076
10101SOL    HW231203   6.478   3.646   0.017
10102SOL     OW31204   6.545   4.711   3.725
10102SOL    HW131205   6.560   4.720   3.627
10102SOL    HW231206   6.600   4.779   3.774
10103SOL     OW31207   0.410   6.452   0.054
10103SOL    HW131208   0.485   6.516   0.071
10103SOL    HW231209   0.326   6.486   0.096
10104SOL     OW31210   3.162   1.132   4.662
10104SOL    HW131211   3.248   1.154   4.616
10104SOL    HW231212   3.093   1.200   4.636
10105SOL     OW31213   2.805   0.936   3.927
10105SOL    HW131214   2.905   0.943   3.925
10105SOL    HW231215   2.778   0.853   3.974
10106SOL     OW31216   6.103   4.118   1.807
10106SOL    HW131217   6.097   4.019   1.800
10106SOL    HW231218   6.038   4.160   1.744
10107SOL     OW31219   5.171   5.330   6.681
10107SOL    HW131220   5.139   5.344   6.588
10107SOL    HW231221   5.268   5.354   6.687
10108SOL     OW31222   2.050   2.892   4.831
10108SOL    HW131223   2.097   2.846   4.905
10108SOL    HW231224   2.103   2.972   4.802
10109SOL     OW31225   0.990   2.339   0.743
10109SOL    HW131226   0.931   2.401   0.795
10109SOL    HW231227   1.086   2.365   0.756
10110SOL     OW31228   5.801   5.966   2.684
10110SOL    HW131229   5.708   5.929   2.683
10110SOL    HW231230   5.866   5.895   2.710
10111SOL     OW31231   6.800   2.474   1.848
10111SOL    HW131232   6.864   2.529   1.901
10111SOL    HW231233   6.712   2.470   1.896
10112SOL     OW31234   5.977   2.417   3.907
10112SOL    HW131235   5.898   2.368   3.869
10112SOL    HW231236   6.058   2.358   3.901
10113SOL     OW31237   6.389   0.099   6.262
10113SOL    HW131238   6.436   0.030   6.317
10113SOL    HW231239   6.420   0.190   6.290
10114SOL     OW31240   5.764   3.107   2.225
10114SOL    HW131241   5.704   3.182   2.252
10114SOL    HW231242   5.783   3.049   2.305
10115SOL     OW31243   3.148   2.864   6.158
10115SOL    HW131244   3.208   2.932   6.115
10115SOL    HW231245   3.053   2.888   6.141
10116SOL     OW31246   0.763   0.221   6.410
10116SOL    HW131247   0.735   0.125   6.402
10116SOL    HW231248   0.731   0.257   6.498
10117SOL     OW31249   6.696   4.072   2.655
10117SOL    HW131250   6.692   4.142   2.726
10117SOL    HW231251   6.792   4.049   2.637
10118SOL     OW31252   3.653   5.132   3.660
10118SOL    HW131253   3.614   5.043   3.683
10118SOL    HW231254   3.585   5.187   3.611
10119SOL     OW31255   5.742   6.351   6.810
10119SOL    HW131256   5.786   6.375   6.724
10119SOL    HW231257   5.788   6.272   6.850
10120SOL     OW31258   2.620   2.285   3.365
10120SOL    HW131259   2.707   2.310   3.407
10120SOL    HW231260   2.584   2.203   3.410
10121SOL     OW31261   6.596   5.160   1.573
10121SOL    HW131262   6.599   5.099   1.493
10121SOL    HW231263   6.581   5.105   1.656
10122SOL     OW31264   2.248   0.115   3.468
10122SOL    HW131265   2.211   0.117   3.561
10122SOL    HW231266   2.348   0.124   3.472
10123SOL     OW31267   6.540   5.896   6.297
10123SOL    HW131268   6.502   5.958   6.366
10123SOL    HW231269   6.623   5.936   6.258
10124SOL     OW31270   2.641   5.263   2.803
10124SOL    HW131271   2.678   5.171   2.791
10124SOL    HW231272   2.664   5.318   2.723
10125SOL     OW31273   1.084   0.515   4.654
10125SOL    HW131274   1.076   0.500   4.555
10125SOL    HW231275   0.999   0.555   4.689
10126SOL     OW31276   6.675   6.174   5.364
10126SOL    HW131277   6.724   6.230   5.298
10126SOL    HW231278   6.577   6.189   5.354
10127SOL     OW31279   1.861   6.714   5.716
10127SOL    HW131280   1.929   6.768   5.665
10127SOL    HW231281   1.886   6.713   5.813
10128SOL     OW31282   2.282   2.344   0.060
10128SOL    HW131283   2.328   2.291   0.131
10128SOL    HW231284   2.349   2.379   7.022
10129SOL     OW31285   6.209   2.140   4.850
10129SOL    HW131286   6.297   2.106   4.816
10129SOL    HW231287   6.142   2.138   4.776
10130SOL     OW31288   0.750   2.047   3.860
10130SOL    HW131289   0.822   2.062   3.792
10130SOL    HW231290   0.782   1.981   3.928
10131SOL     OW31291   2.107   6.653   5.128
10131SOL    HW131292   2.063   6.587   5.188
10131SOL    HW231293   2.178   6.702   5.179
10132SOL     OW31294   5.768   0.275   2.511
10132SOL    HW131295   5.793   0.195   2.456
10132SOL    HW231296   5.787   0.358   2.459
10133SOL     OW31297   5.230   6.711   1.026
10133SOL    HW131298   5.242   6.637   1.092
10133SOL    HW231299   5.266   6.796   1.063
10134SOL     OW31300   0.339   6.849   3.609
10134SOL    HW131301   0.286   6.776   3.567
10134SOL    HW231302   0.306   6.937   3.577
10135SOL     OW31303   6.230   6.874   3.197
10135SOL    HW131304   6.316   6.831   3.170
10135SOL    HW231305   6.200   6.937   3.125
10136SOL     OW31306   4.876   1.508   3.261
10136SOL    HW131307   4.884   1.486   3.359
10136SOL    HW231308   4.898   1.604   3.247
10137SOL     OW31309   7.003   5.957   4.803
10137SOL    HW131310   0.003   5.867   4.768
10137SOL    HW231311   0.001   5.964   4.899
10138SOL     OW31312   0.010   2.571   1.973
10138SOL    HW131313   0.046   2.577   1.881
10138SOL    HW231314   0.055   2.497   2.022
10139SOL     OW31315   3.483   2.832   6.318
10139SOL    HW131316   3.392   2.796   6.339
10139SOL    HW231317   3.512   2.894   6.391
10140SOL     OW31318   0.601   6.070   5.362
10140SOL    HW131319   0.634   6.032   5.448
10140SOL    HW231320   0.567   6.163   5.376
10141SOL     OW31321   1.819   2.334   4.283
10141SOL    HW131322   1.853   2.246   4.315
10141SOL    HW231323   1.725   2.347   4.316
10142SOL     OW31324   4.655   5.546   2.870
10142SOL    HW131325   4.613   5.456   2.880
10142SOL    HW231326   4.706   5.550   2.785
10143SOL     OW31327   5.571   2.815   5.911
10143SOL    HW131328   5.504   2.780   5.845
10143SOL    HW231329   5.524   2.838   5.996
10144SOL     OW31330   3.124   6.839   0.816
10144SOL    HW131331   3.108   6.867   0.722
10144SOL    HW231332   3.215   6.869   0.844
10145SOL     OW31333   6.426   6.724   6.020
10145SOL    HW131334   6.359   6.697   5.952
10145SOL    HW231335   6.382   6.734   6.109
10146SOL     OW31336   1.531   2.804   5.158
10146SOL    HW131337   1.572   2.714   5.172
10146SOL    HW231338   1.582   2.873   5.209
10147SOL     OW31339   3.742   5.789   6.774
10147SOL    HW131340   3.680   5.738   6.834
10147SOL    HW231341   3.751   5.883   6.808
10148SOL     OW31342   0.859   4.737   6.719
10148SOL    HW131343   0.764   4.740   6.687
10148SOL    HW231344   0.861   4.753   6.818
10149SOL     OW31345   3.614   3.969   1.675
10149SOL    HW131346   3.593   3.930   1.765
10149SOL    HW231347   3.608   3.897   1.606
10150SOL     OW31348   4.762   4.156   1.313
10150SOL    HW131349   4.796   4.094   1.384
10150SOL    HW231350   4.683   4.207   1.347
10151SOL     OW31351   6.897   0.890   6.245
10151SOL    HW131352   6.946   0.975   6.266
10151SOL    HW231353   6.846   0.860   6.326
10152SOL     OW31354   4.199   6.851   2.781
10152SOL    HW131355   4.181   6.826   2.686
10152SOL    HW231356   4.282   6.806   2.812
10153SOL     OW31357   4.719   4.084   1.880
10153SOL    HW131358   4.682   4.144   1.951
10153SOL    HW231359   4.661   4.089   1.799
10154SOL     OW31360   3.817   5.492   5.134
10154SOL    HW131361   3.887   5.423   5.153
10154SOL    HW231362   3.783   5.529   5.220
10155SOL     OW31363   4.589   1.603   4.000
10155SOL    HW131364   4.620   1.567   3.912
10155SOL    HW231365   4.639   1.688   4.021
10156SOL     OW31366   4.097   1.441   5.981
10156SOL    HW131367   4.120   1.424   5.885
10156SOL    HW231368   4.046   1.527   5.988
10157SOL     OW31369   0.414   4.786   1.344
10157SOL    HW131370   0.463   4.742   1.269
10157SOL    HW231371   0.454   4.875   1.363
10158SOL     OW31372   5.368   4.977   6.700
10158SOL    HW131373   5.292   4.978   6.765
10158SOL    HW231374   5.417   4.890   6.707
10159SOL     OW31375   3.656   3.149   1.823
10159SOL    HW131376   3.587   3.215   1.852
10159SOL    HW231377   3.732   3.150   1.888
10160SOL     OW31378   0.352   3.938   2.631
10160SOL    HW131379   0.426   3.953   2.696
10160SOL    HW231380   0.272   3.902   2.679
10161SOL     OW31381   5.342   3.479   6.124
10161SOL    HW131382   5.367   3.424   6.044
10161SOL    HW231383   5.421   3.490   6.183
10162SOL     OW31384   1.939   2.789   2.360
10162SOL    HW131385   1.845   2.812   2.334
10162SOL    HW231386   1.960   2.696   2.332
10163SOL     OW31387   3.376   4.989   5.098
10163SOL    HW131388   3.314   5.001   5.021
10163SOL    HW231389   3.328   5.013   5.183
10164SOL     OW31390   0.196   1.288   3.873
10164SOL    HW131391   0.254   1.238   3.938
10164SOL    HW231392   0.240   1.291   3.784
10165SOL     OW31393   1.423   2.950   4.057
10165SOL    HW131394   1.366   2.895   3.996
10165SOL    HW231395   1.514   2.959   4.017
10166SOL     OW31396   2.811   6.540   2.847
10166SOL    HW131397   2.734   6.508   2.791
10166SOL    HW231398   2.823   6.479   2.925
10167SOL     OW31399   3.036   2.507   6.495
10167SOL    HW131400   3.083   2.467   6.573
10167SOL    HW231401   3.009   2.434   6.431
10168SOL     OW31402   0.378   0.292   0.098
10168SOL    HW131403   0.325   0.223   0.148
10168SOL    HW231404   0.467   0.253   0.072
10169SOL     OW31405   4.631   4.903   3.514
10169SOL    HW131406   4.616   4.840   3.438
10169SOL    HW231407   4.695   4.975   3.486
10170SOL     OW31408   5.383   6.329   0.792
10170SOL    HW131409   5.464   6.271   0.805
10170SOL    HW231410   5.399   6.418   0.834
10171SOL     OW31411   2.174   4.017   4.509
10171SOL    HW131412   2.198   4.106   4.549
10171SOL    HW231413   2.156   3.952   4.583
10172SOL     OW31414   0.208   0.833   2.821
10172SOL    HW131415   0.248   0.746   2.851
10172SOL    HW231416   0.108   0.825   2.820
10173SOL     OW31417   3.844   3.569   4.894
10173SOL    HW131418   3.796   3.484   4.916
10173SOL    HW231419   3.821   3.596   4.800
10174SOL     OW31420   4.640   4.857   0.923
10174SOL    HW131421   4.568   4.885   0.986
10174SOL    HW231422   4.729   4.864   0.969
10175SOL     OW31423   6.401   0.006   4.539
10175SOL    HW131424   6.384   6.935   4.555
10175SOL    HW231425   6.497   0.020   4.517
10176SOL     OW31426   0.421   0.558   4.709
10176SOL    HW131427   0.467   0.588   4.793
10176SOL    HW231428   0.331   0.601   4.704
10177SOL     OW31429   2.415   0.825   3.723
10177SOL    HW131430   2.424   0.904   3.662
10177SOL    HW231431   2.505   0.802   3.761
10178SOL     OW31432   0.511   1.570   1.469
10178SOL    HW131433   0.456   1.638   1.420
10178SOL    HW231434   0.608   1.584   1.446
10179SOL     OW31435   0.161   5.959   0.707
10179SOL    HW131436   0.192   5.876   0.662
10179SOL    HW231437   0.235   6.027   0.706
10180SOL     OW31438   3.512   6.770   6.579
10180SOL    HW131439   3.550   6.832   6.648
10180SOL    HW231440   3.427   6.730   6.612
10181SOL     OW31441   0.062   3.673   3.261
10181SOL    HW131442   0.134   3.619   3.304
10181SOL    HW231443   0.038   3.633   3.172
10182SOL     OW31444   3.890   0.736   0.636
10182SOL    HW131445   3.975   0.699   0.673
10182SOL    HW231446   3.822   0.742   0.708
10183SOL     OW31447   4.488   6.238   5.888
10183SOL    HW131448   4.413   6.222   5.953
10183SOL    HW231449   4.491   6.335   5.864
10184SOL     OW31450   5.671   1.923   5.515
10184SOL    HW131451   5.599   1.932   5.584
10184SOL    HW231452   5.649   1.847   5.454
10185SOL     OW31453   3.398   4.949   2.369
10185SOL    HW131454   3.326   4.898   2.322
10185SOL    HW231455   3.364   5.041   2.391
10186SOL     OW31456   3.542   2.936   6.765
10186SOL    HW131457   3.503   2.953   6.856
10186SOL    HW231458   3.504   2.853   6.727
10187SOL     OW31459   2.374   4.499   5.815
10187SOL    HW131460   2.413   4.549   5.738
10187SOL    HW231461   2.446   4.481   5.883
10188SOL     OW31462   2.740   6.715   6.740
10188SOL    HW131463   2.807   6.784   6.768
10188SOL    HW231464   2.758   6.687   6.646
10189SOL     OW31465   2.185   1.587   4.571
10189SOL    HW131466   2.195   1.548   4.479
10189SOL    HW231467   2.126   1.528   4.626
10190SOL     OW31468   4.447   4.383   1.183
10190SOL    HW131469   4.410   4.461   1.235
10190SOL    HW231470   4.407   4.298   1.217
10191SOL     OW31471   5.577   0.467   0.050
10191SOL    HW131472   5.493   0.463   7.022
10191SOL    HW231473   5.556   0.446   0.145
10192SOL     OW31474   1.765   0.605   4.141
10192SOL    HW131475   1.693   0.646   4.197
10192SOL    HW231476   1.835   0.565   4.201
10193SOL     OW31477   3.657   4.134   3.711
10193SOL    HW131478   3.645   4.207   3.643
10193SOL    HW231479   3.589   4.063   3.695
10194SOL     OW31480   3.180   6.975   3.071
10194SOL    HW131481   3.199   6.995   2.975
10194SOL    HW231482   3.088   6.937   3.080
10195SOL     OW31483   5.682   0.247   2.754
10195SOL    HW131484   5.699   0.256   2.656
10195SOL    HW231485   5.714   0.158   2.786
10196SOL     OW31486   5.278   3.869   4.394
10196SOL    HW131487   5.208   3.825   4.338
10196SOL    HW231488   5.312   3.803   4.462
10197SOL     OW31489   5.483   1.720   3.271
10197SOL    HW131490   5.559   1.758   3.220
10197SOL    HW231491   5.492   1.744   3.368
10198SOL     OW31492   3.196   1.069   1.651
10198SOL    HW131493   3.143   0.986   1.632
10198SOL    HW231494   3.197   1.127   1.569
10199SOL     OW31495   1.349   2.142   0.130
10199SOL    HW131496   1.434   2.191   0.112
10199SOL    HW231497   1.368   2.060   0.184
10200SOL     OW31498   5.688   6.008   4.918
10200SOL    HW131499   5.644   5.926   4.955
10200SOL    HW231500   5.678   6.084   4.983
10201SOL     OW31501   1.955   4.714   2.622
10201SOL    HW131502   2.035   4.681   2.573
10201SOL    HW231503   1.892   4.638   2.638
10202SOL     OW31504   0.450   2.219   3.117
10202SOL    HW131505   0.446   2.235   3.019
10202SOL    HW231506   0.357   2.222   3.155
10203SOL     OW31507   0.717   2.792   1.544
10203SOL    HW131508   0.795   2.850   1.564
10203SOL    HW231509   0.636   2.826   1.592
10204SOL     OW31510   2.845   4.770   4.087
10204SOL    HW131511   2.756   4.725   4.076
10204SOL    HW231512   2.878   4.800   3.998
10205SOL     OW31513   4.257   0.695   1.192
10205SOL    HW131514   4.349   0.659   1.180
10205SOL    HW231515   4.195   0.650   1.127
10206SOL     OW31516   4.762   0.194   6.170
10206SOL    HW131517   4.696   0.120   6.155
10206SOL    HW231518   4.772   0.211   6.268
10207SOL     OW31519   4.276   1.460   3.132
10207SOL    HW131520   4.334   1.542   3.141
10207SOL    HW231521   4.273   1.411   3.219
10208SOL     OW31522   6.644   3.644   5.489
10208SOL    HW131523   6.552   3.654   5.453
10208SOL    HW231524   6.694   3.730   5.479
10209SOL     OW31525   4.600   6.516   7.020
10209SOL    HW131526   4.638   6.555   6.937
10209SOL    HW231527   4.645   6.429   0.013
10210SOL     OW31528   5.476   5.675   0.487
10210SOL    HW131529   5.521   5.603   0.540
10210SOL    HW231530   5.413   5.726   0.547
10211SOL     OW31531   3.189   5.665   5.135
10211SOL    HW131532   3.270   5.654   5.077
10211SOL    HW231533   3.211   5.640   5.229
10212SOL     OW31534   5.910   6.003   6.042
10212SOL    HW131535   5.991   6.003   6.101
10212SOL    HW231536   5.846   5.932   6.073
10213SOL     OW31537   4.361   0.817   4.628
10213SOL    HW131538   4.271   0.840   4.590
10213SOL    HW231539   4.430   0.878   4.590
10214SOL     OW31540   0.594   1.081   0.898
10214SOL    HW131541   0.503   1.040   0.903
10214SOL    HW231542   0.641   1.049   0.816
10215SOL     OW31543   3.719   2.455   0.035
10215SOL    HW131544   3.635   2.503   0.058
10215SOL    HW231545   3.724   2.370   0.088
10216SOL     OW31546   4.586   0.189   2.418
10216SOL    HW131547   4.600   0.238   2.332
10216SOL    HW231548   4.551   0.252   2.487
10217SOL     OW31549   3.224   2.387   5.852
10217SOL    HW131550   3.298   2.437   5.896
10217SOL    HW231551   3.186   2.441   5.778
10218SOL     OW31552   2.886   2.385   6.946
10218SOL    HW131553   2.853   2.476   6.967
10218SOL    HW231554   2.892   2.331   0.003
10219SOL     OW31555   0.733   4.428   6.621
10219SOL    HW131556   0.789   4.445   6.703
10219SOL    HW231557   0.636   4.433   6.645
10220SOL     OW31558   4.097   2.853   0.527
10220SOL    HW131559   4.119   2.927   0.590
10220SOL    HW231560   4.043   2.890   0.451
10221SOL     OW31561   3.179   0.940   4.470
10221SOL    HW131562   3.171   0.988   4.557
10221SOL    HW231563   3.097   0.958   4.415
10222SOL     OW31564   1.626   4.802   5.778
10222SOL    HW131565   1.672   4.806   5.688
10222SOL    HW231566   1.617   4.895   5.814
10223SOL     OW31567   7.012   4.323   0.475
10223SOL    HW131568   6.935   4.290   0.530
10223SOL    HW231569   0.015   4.250   0.414
10224SOL     OW31570   2.580   0.446   4.795
10224SOL    HW131571   2.528   0.361   4.783
10224SOL    HW231572   2.548   0.514   4.730
10225SOL     OW31573   5.029   5.899   4.341
10225SOL    HW131574   5.103   5.849   4.296
10225SOL    HW231575   4.944   5.887   4.289
10226SOL     OW31576   0.177   3.162   6.909
10226SOL    HW131577   0.194   3.118   6.821
10226SOL    HW231578   0.106   3.112   6.959
10227SOL     OW31579   5.794   5.319   5.577
10227SOL    HW131580   5.715   5.258   5.577
10227SOL    HW231581   5.835   5.321   5.668
10228SOL     OW31582   1.148   3.605   2.464
10228SOL    HW131583   1.160   3.590   2.562
10228SOL    HW231584   1.234   3.637   2.424
10229SOL     OW31585   1.930   1.354   1.215
10229SOL    HW131586   1.838   1.388   1.196
10229SOL    HW231587   1.928   1.255   1.227
10230SOL     OW31588   6.136   6.700   3.915
10230SOL    HW131589   6.080   6.771   3.958
10230SOL    HW231590   6.114   6.696   3.817
10231SOL     OW31591   4.578   6.845   4.561
10231SOL    HW131592   4.606   6.933   4.523
10231SOL    HW231593   4.654   6.781   4.558
10232SOL     OW31594   4.249   1.751   3.794
10232SOL    HW131595   4.317   1.803   3.744
10232SOL    HW231596   4.215   1.805   3.871
10233SOL     OW31597   4.915   0.790   5.748
10233SOL    HW131598   4.965   0.855   5.805
10233SOL    HW231599   4.850   0.740   5.804
10234SOL     OW31600   4.550   5.552   1.335
10234SOL    HW131601   4.569   5.489   1.410
10234SOL    HW231602   4.562   5.646   1.366
10235SOL     OW31603   4.616   1.433   6.983
10235SOL    HW131604   4.560   1.514   6.998
10235SOL    HW231605   4.686   1.453   6.914
10236SOL     OW31606   2.163   6.192   1.712
10236SOL    HW131607   2.183   6.274   1.657
10236SOL    HW231608   2.215   6.196   1.797
10237SOL     OW31609   5.722   2.482   3.290
10237SOL    HW131610   5.740   2.543   3.212
10237SOL    HW231611   5.800   2.422   3.305
10238SOL     OW31612   4.373   6.023   4.934
10238SOL    HW131613   4.348   5.959   5.007
10238SOL    HW231614   4.465   6.001   4.901
10239SOL     OW31615   6.525   3.285   4.248
10239SOL    HW131616   6.564   3.313   4.336
10239SOL    HW231617   6.425   3.284   4.256
10240SOL     OW31618   5.716   3.591   3.794
10240SOL    HW131619   5.772   3.642   3.859
10240SOL    HW231620   5.759   3.594   3.704
10241SOL     OW31621   2.000   1.443   3.117
10241SOL    HW131622   1.919   1.436   3.059
10241SOL    HW231623   1.981   1.401   3.206
10242SOL     OW31624   0.841   5.914   6.501
10242SOL    HW131625   0.791   6.001   6.493
10242SOL    HW231626   0.853   5.891   6.597
10243SOL     OW31627   1.038   6.091   2.860
10243SOL    HW131628   0.990   6.071   2.945
10243SOL    HW231629   1.114   6.154   2.878
10244SOL     OW31630   1.448   5.827   7.024
10244SOL    HW131631   1.477   5.739   6.986
10244SOL    HW231632   1.348   5.833   7.023
10245SOL     OW31633   2.303   2.515   6.791
10245SOL    HW131634   2.216   2.520   6.841
10245SOL    HW231635   2.289   2.550   6.698
10246SOL     OW31636   3.300   3.262   3.993
10246SOL    HW131637   3.235   3.189   3.970
10246SOL    HW231638   3.393   3.228   3.986
10247SOL     OW31639   0.802   6.024   5.568
10247SOL    HW131640   0.825   6.089   5.496
10247SOL    HW231641   0.887   5.983   5.603
10248SOL     OW31642   5.251   0.937   2.837
10248SOL    HW131643   5.163   0.983   2.848
10248SOL    HW231644   5.325   1.003   2.845
10249SOL     OW31645   4.845   1.274   6.791
10249SOL    HW131646   4.910   1.249   6.863
10249SOL    HW231647   4.838   1.374   6.786
10250SOL     OW31648   5.524   0.386   0.322
10250SOL    HW131649   5.491   0.407   0.414
10250SOL    HW231650   5.543   0.288   0.315
10251SOL     OW31651   4.177   4.474   0.105
10251SOL    HW131652   4.101   4.539   0.099
10251SOL    HW231653   4.153   4.389   0.057
10252SOL     OW31654   6.611   4.721   1.646
10252SOL    HW131655   6.592   4.624   1.660
10252SOL    HW231656   6.647   4.761   1.730
10253SOL     OW31657   3.927   4.918   0.447
10253SOL    HW131658   3.833   4.947   0.467
10253SOL    HW231659   3.990   4.956   0.514
10254SOL     OW31660   2.463   1.254   4.486
10254SOL    HW131661   2.389   1.198   4.523
10254SOL    HW231662   2.496   1.316   4.557
10255SOL     OW31663   3.334   5.429   2.804
10255SOL    HW131664   3.310   5.521   2.775
10255SOL    HW231665   3.433   5.422   2.818
10256SOL     OW31666   6.018   5.993   0.087
10256SOL    HW131667   6.078   5.979   0.008
10256SOL    HW231668   6.002   6.091   0.100
10257SOL     OW31669   1.981   6.333   5.941
10257SOL    HW131670   1.951   6.299   6.030
10257SOL    HW231671   1.922   6.296   5.870
10258SOL     OW31672   4.558   0.992   3.643
10258SOL    HW131673   4.595   0.919   3.700
10258SOL    HW231674   4.467   1.017   3.676
10259SOL     OW31675   0.992   3.477   3.942
10259SOL    HW131676   0.984   3.541   3.866
10259SOL    HW231677   0.976   3.384   3.908
10260SOL     OW31678   6.628   6.197   1.769
10260SOL    HW131679   6.613   6.224   1.864
10260SOL    HW231680   6.713   6.238   1.735
10261SOL     OW31681   2.017   0.055   2.182
10261SOL    HW131682   1.959   0.123   2.136
10261SOL    HW231683   2.110   0.061   2.147
10262SOL     OW31684   1.259   5.767   4.536
10262SOL    HW131685   1.183   5.818   4.496
10262SOL    HW231686   1.340   5.778   4.480
10263SOL     OW31687   6.594   2.805   5.515
10263SOL    HW131688   6.628   2.810   5.609
10263SOL    HW231689   6.666   2.766   5.456
10264SOL     OW31690   0.231   6.912   0.413
10264SOL    HW131691   0.245   6.841   0.344
10264SOL    HW231692   0.269   6.883   0.500
10265SOL     OW31693   4.144   2.239   2.358
10265SOL    HW131694   4.060   2.194   2.330
10265SOL    HW231695   4.197   2.266   2.278
10266SOL     OW31696   4.243   3.573   6.396
10266SOL    HW131697   4.277   3.514   6.323
10266SOL    HW231698   4.320   3.613   6.445
10267SOL     OW31699   0.201   1.537   6.140
10267SOL    HW131700   0.112   1.509   6.177
10267SOL    HW231701   0.198   1.634   6.116
10268SOL     OW31702   6.020   4.597   1.286
10268SOL    HW131703   6.071   4.555   1.211
10268SOL    HW231704   6.081   4.655   1.339
10269SOL     OW31705   2.898   2.031   6.090
10269SOL    HW131706   2.945   1.943   6.083
10269SOL    HW231707   2.873   2.048   6.185
10270SOL     OW31708   2.815   6.942   0.852
10270SOL    HW131709   2.886   6.968   0.917
10270SOL    HW231710   2.756   7.020   0.833
10271SOL     OW31711   3.199   4.957   1.205
10271SOL    HW131712   3.193   5.012   1.289
10271SOL    HW231713   3.244   4.870   1.226
10272SOL     OW31714   1.341   1.739   4.628
10272SOL    HW131715   1.429   1.752   4.583
10272SOL    HW231716   1.312   1.825   4.670
10273SOL     OW31717   4.095   6.685   4.179
10273SOL    HW131718   4.149   6.692   4.095
10273SOL    HW231719   4.147   6.632   4.247
10274SOL     OW31720   2.767   5.070   6.894
10274SOL    HW131721   2.687   5.130   6.902
10274SOL    HW231722   2.840   5.104   6.953
10275SOL     OW31723   1.268   6.399   2.343
10275SOL    HW131724   1.352   6.432   2.299
10275SOL    HW231725   1.226   6.328   2.287
10276SOL     OW31726   0.006   6.201   6.839
10276SOL    HW131727   0.031   6.111   6.875
10276SOL    HW231728   6.933   6.205   6.826
10277SOL     OW31729   1.187   6.151   2.214
10277SOL    HW131730   1.181   6.117   2.120
10277SOL    HW231731   1.177   6.074   2.277
10278SOL     OW31732   6.818   0.252   6.073
10278SOL    HW131733   6.745   0.284   6.013
10278SOL    HW231734   6.872   0.182   6.026
10279SOL     OW31735   3.779   5.963   4.591
10279SOL    HW131736   3.742   5.980   4.500
10279SOL    HW231737   3.787   6.050   4.640
10280SOL     OW31738   3.381   2.721   6.684
10280SOL    HW131739   3.412   2.626   6.694
10280SOL    HW231740   3.285   2.728   6.711
10281SOL     OW31741   4.211   0.343   4.064
10281SOL    HW131742   4.165   0.330   4.152
10281SOL    HW231743   4.210   0.257   4.013
10282SOL     OW31744   1.054   3.158   4.623
10282SOL    HW131745   1.089   3.142   4.531
10282SOL    HW231746   1.099   3.238   4.663
10283SOL     OW31747   1.805   3.793   5.860
10283SOL    HW131748   1.889   3.811   5.911
10283SOL    HW231749   1.791   3.865   5.792
10284SOL     OW31750   5.158   2.629   6.969
10284SOL    HW131751   5.102   2.547   6.983
10284SOL    HW231752   5.198   2.657   0.030
10285SOL     OW31753   5.929   0.924   0.412
10285SOL    HW131754   5.915   0.900   0.508
10285SOL    HW231755   5.860   0.991   0.384
10286SOL     OW31756   4.338   0.916   4.309
10286SOL    HW131757   4.307   1.011   4.321
10286SOL    HW231758   4.259   0.857   4.296
10287SOL     OW31759   1.176   4.877   1.714
10287SOL    HW131760   1.161   4.966   1.671
10287SOL    HW231761   1.088   4.833   1.731
10288SOL     OW31762   5.016   6.373   4.463
10288SOL    HW131763   5.002   6.471   4.477
10288SOL    HW231764   4.977   6.346   4.374
10289SOL     OW31765   2.605   1.280   1.404
10289SOL    HW131766   2.532   1.345   1.427
10289SOL    HW231767   2.616   1.215   1.479
10290SOL     OW31768   2.899   3.101   1.810
10290SOL    HW131769   2.825   3.114   1.744
10290SOL    HW231770   2.929   3.006   1.808
10291SOL     OW31771   4.571   0.517   5.803
10291SOL    HW131772   4.476   0.525   5.774
10291SOL    HW231773   4.587   0.426   5.841
10292SOL     OW31774   0.421   0.779   5.039
10292SOL    HW131775   0.400   0.740   5.128
10292SOL    HW231776   0.475   0.863   5.052
10293SOL     OW31777   3.178   5.392   3.441
10293SOL    HW131778   3.092   5.444   3.439
10293SOL    HW231779   3.157   5.294   3.447
10294SOL     OW31780   6.613   1.141   3.029
10294SOL    HW131781   6.564   1.073   3.084
10294SOL    HW231782   6.557   1.223   3.020
10295SOL     OW31783   1.897   4.158   4.280
10295SOL    HW131784   1.876   4.081   4.341
10295SOL    HW231785   1.969   4.215   4.321
10296SOL     OW31786   6.619   2.790   1.631
10296SOL    HW131787   6.689   2.720   1.620
10296SOL    HW231788   6.654   2.878   1.598
10297SOL     OW31789   2.744   5.243   4.547
10297SOL    HW131790   2.801   5.170   4.508
10297SOL    HW231791   2.690   5.206   4.623
10298SOL     OW31792   5.950   3.315   3.040
10298SOL    HW131793   5.880   3.385   3.046
10298SOL    HW231794   6.001   3.311   3.127
10299SOL     OW31795   5.015   4.032   2.165
10299SOL    HW131796   4.975   3.966   2.229
10299SOL    HW231797   5.104   4.062   2.198
10300SOL     OW31798   1.865   6.061   1.830
10300SOL    HW131799   1.820   6.149   1.846
10300SOL    HW231800   1.889   6.054   1.733
10301SOL     OW31801   4.978   1.402   1.749
10301SOL    HW131802   4.955   1.310   1.781
10301SOL    HW231803   5.021   1.396   1.659
10302SOL     OW31804   1.031   4.983   3.674
10302SOL    HW131805   1.058   4.894   3.709
10302SOL    HW231806   1.035   5.050   3.748
10303SOL     OW31807   3.900   3.067   1.343
10303SOL    HW131808   3.833   3.034   1.276
10303SOL    HW231809   3.990   3.074   1.300
10304SOL     OW31810   5.903   6.326   3.920
10304SOL    HW131811   5.920   6.287   4.010
10304SOL    HW231812   5.944   6.267   3.850
10305SOL     OW31813   1.782   5.336   0.993
10305SOL    HW131814   1.693   5.318   0.953
10305SOL    HW231815   1.794   5.279   1.075
10306SOL     OW31816   4.094   4.810   0.247
10306SOL    HW131817   4.033   4.819   0.326
10306SOL    HW231818   4.188   4.805   0.278
10307SOL     OW31819   2.696   1.184   5.532
10307SOL    HW131820   2.765   1.256   5.535
10307SOL    HW231821   2.609   1.219   5.567
10308SOL     OW31822   2.673   5.228   3.728
10308SOL    HW131823   2.741   5.163   3.761
10308SOL    HW231824   2.581   5.194   3.752
10309SOL     OW31825   0.459   6.553   3.533
10309SOL    HW131826   0.495   6.637   3.492
10309SOL    HW231827   0.491   6.545   3.627
10310SOL     OW31828   3.113   3.053   3.916
10310SOL    HW131829   3.115   3.003   3.830
10310SOL    HW231830   3.149   2.994   3.989
10311SOL     OW31831   0.150   0.203   0.908
10311SOL    HW131832   0.187   0.249   0.827
10311SOL    HW231833   0.213   0.214   0.985
10312SOL     OW31834   2.098   4.528   0.762
10312SOL    HW131835   2.006   4.535   0.724
10312SOL    HW231836   2.093   4.529   0.862
10313SOL     OW31837   6.401   5.916   4.091
10313SOL    HW131838   6.446   5.985   4.147
10313SOL    HW231839   6.464   5.839   4.076
10314SOL     OW31840   5.993   5.226   5.028
10314SOL    HW131841   5.959   5.319   5.013
10314SOL    HW231842   6.068   5.207   4.964
10315SOL     OW31843   4.817   6.481   6.021
10315SOL    HW131844   4.812   6.387   5.989
10315SOL    HW231845   4.862   6.537   5.951
10316SOL     OW31846   0.335   3.318   2.561
10316SOL    HW131847   0.297   3.400   2.518
10316SOL    HW231848   0.275   3.289   2.635
10317SOL     OW31849   4.581   4.958   0.680
10317SOL    HW131850   4.588   4.881   0.617
10317SOL    HW231851   4.603   4.927   0.773
10318SOL     OW31852   6.207   5.773   2.602
10318SOL    HW131853   6.269   5.704   2.642
10318SOL    HW231854   6.255   5.821   2.528
10319SOL     OW31855   5.379   6.304   4.847
10319SOL    HW131856   5.452   6.363   4.881
10319SOL    HW231857   5.291   6.335   4.883
10320SOL     OW31858   4.197   5.758   1.487
10320SOL    HW131859   4.132   5.683   1.499
10320SOL    HW231860   4.162   5.822   1.418
10321SOL     OW31861   3.638   0.199   3.998
10321SOL    HW131862   3.724   0.247   4.015
10321SOL    HW231863   3.597   0.172   4.085
10322SOL     OW31864   0.521   2.392   6.716
10322SOL    HW131865   0.434   2.357   6.751
10322SOL    HW231866   0.535   2.485   6.748
10323SOL     OW31867   0.358   2.243   5.735
10323SOL    HW131868   0.454   2.258   5.712
10323SOL    HW231869   0.304   2.230   5.652
10324SOL     OW31870   3.935   3.048   4.159
10324SOL    HW131871   3.925   3.051   4.059
10324SOL    HW231872   3.991   2.969   4.184
10325SOL     OW31873   0.184   3.613   2.879
10325SOL    HW131874   0.244   3.650   2.950
10325SOL    HW231875   0.102   3.573   2.922
10326SOL     OW31876   4.953   1.795   1.318
10326SOL    HW131877   4.906   1.880   1.297
10326SOL    HW231878   4.942   1.731   1.242
10327SOL     OW31879   6.912   0.644   3.217
10327SOL    HW131880   6.963   0.699   3.150
10327SOL    HW231881   6.841   0.592   3.169
10328SOL     OW31882   6.657   3.380   2.690
10328SOL    HW131883   6.591   3.350   2.759
10328SOL    HW231884   6.639   3.475   2.665
10329SOL     OW31885   3.514   6.584   3.277
10329SOL    HW131886   3.478   6.491   3.273
10329SOL    HW231887   3.445   6.648   3.242
10330SOL     OW31888   3.328   4.405   1.207
10330SOL    HW131889   3.319   4.355   1.294
10330SOL    HW231890   3.241   4.401   1.158
10331SOL     OW31891   4.810   0.727   4.602
10331SOL    HW131892   4.877   0.652   4.595
10331SOL    HW231893   4.775   0.731   4.696
10332SOL     OW31894   0.214   1.673   6.719
10332SOL    HW131895   0.237   1.577   6.700
10332SOL    HW231896   0.126   1.677   6.766
10333SOL     OW31897   5.656   4.512   5.234
10333SOL    HW131898   5.607   4.585   5.281
10333SOL    HW231899   5.594   4.465   5.171
10334SOL     OW31900   1.006   5.049   4.857
10334SOL    HW131901   0.990   4.978   4.788
10334SOL    HW231902   1.100   5.041   4.891
10335SOL     OW31903   3.129   5.103   2.287
10335SOL    HW131904   3.171   5.162   2.356
10335SOL    HW231905   3.031   5.122   2.282
10336SOL     OW31906   4.874   6.284   2.787
10336SOL    HW131907   4.807   6.337   2.735
10336SOL    HW231908   4.946   6.251   2.725
10337SOL     OW31909   0.536   4.987   5.251
10337SOL    HW131910   0.453   5.018   5.205
10337SOL    HW231911   0.605   4.964   5.182
10338SOL     OW31912   3.282   5.103   3.047
10338SOL    HW131913   3.229   5.046   2.984
10338SOL    HW231914   3.231   5.186   3.069
10339SOL     OW31915   2.935   6.097   1.028
10339SOL    HW131916   2.843   6.074   1.060
10339SOL    HW231917   2.934   6.189   0.988
10340SOL     OW31918   1.680   6.439   0.306
10340SOL    HW131919   1.653   6.458   0.211
10340SOL    HW231920   1.778   6.456   0.316
10341SOL     OW31921   1.057   2.443   2.185
10341SOL    HW131922   0.970   2.463   2.230
10341SOL    HW231923   1.040   2.393   2.100
10342SOL     OW31924   3.274   6.039   3.959
10342SOL    HW131925   3.192   6.083   3.996
10342SOL    HW231926   3.285   6.065   3.863
10343SOL     OW31927   2.331   2.612   3.903
10343SOL    HW131928   2.430   2.597   3.911
10343SOL    HW231929   2.313   2.666   3.821
10344SOL     OW31930   4.341   4.043   1.033
10344SOL    HW131931   4.373   3.949   1.036
10344SOL    HW231932   4.384   4.096   1.106
10345SOL     OW31933   2.269   2.204   5.691
10345SOL    HW131934   2.288   2.118   5.739
10345SOL    HW231935   2.301   2.197   5.596
10346SOL     OW31936   5.712   4.700   0.278
10346SOL    HW131937   5.652   4.758   0.334
10346SOL    HW231938   5.761   4.758   0.212
10347SOL     OW31939   4.844   0.515   1.722
10347SOL    HW131940   4.843   0.433   1.778
10347SOL    HW231941   4.912   0.579   1.757
10348SOL     OW31942   6.524   5.030   5.589
10348SOL    HW131943   6.440   5.050   5.638
10348SOL    HW231944   6.536   4.930   5.583
10349SOL     OW31945   6.461   2.522   0.837
10349SOL    HW131946   6.426   2.513   0.743
10349SOL    HW231947   6.536   2.457   0.851
10350SOL     OW31948   2.291   4.789   4.882
10350SOL    HW131949   2.248   4.747   4.802
10350SOL    HW231950   2.390   4.791   4.870
10351SOL     OW31951   4.123   4.776   4.569
10351SOL    HW131952   4.200   4.714   4.553
10351SOL    HW231953   4.128   4.811   4.663
10352SOL     OW31954   6.420   0.926   0.089
10352SOL    HW131955   6.383   0.969   0.006
10352SOL    HW231956   6.458   0.996   0.149
10353SOL     OW31957   6.598   1.910   3.587
10353SOL    HW131958   6.649   1.965   3.653
10353SOL    HW231959   6.576   1.966   3.507
10354SOL     OW31960   6.019   2.879   1.334
10354SOL    HW131961   6.117   2.865   1.322
10354SOL    HW231962   5.996   2.872   1.431
10355SOL     OW31963   0.660   1.786   0.545
10355SOL    HW131964   0.687   1.795   0.449
10355SOL    HW231965   0.708   1.708   0.586
10356SOL     OW31966   5.512   2.389   6.249
10356SOL    HW131967   5.559   2.468   6.209
10356SOL    HW231968   5.474   2.414   6.338
10357SOL     OW31969   1.390   0.025   6.336
10357SOL    HW131970   1.314   0.066   6.386
10357SOL    HW231971   1.465   0.091   6.328
10358SOL     OW31972   0.245   2.679   2.863
10358SOL    HW131973   0.210   2.664   2.955
10358SOL    HW231974   0.336   2.721   2.869
10359SOL     OW31975   0.157   1.499   2.239
10359SOL    HW131976   0.233   1.486   2.176
10359SOL    HW231977   0.149   1.596   2.262
10360SOL     OW31978   5.977   4.237   1.575
10360SOL    HW131979   5.897   4.190   1.538
10360SOL    HW231980   5.974   4.333   1.548
10361SOL     OW31981   6.247   1.872   2.499
10361SOL    HW131982   6.181   1.900   2.430
10361SOL    HW231983   6.209   1.797   2.553
10362SOL     OW31984   1.519   5.319   1.624
10362SOL    HW131985   1.472   5.246   1.673
10362SOL    HW231986   1.530   5.398   1.684
10363SOL     OW31987   5.402   4.547   6.500
10363SOL    HW131988   5.317   4.591   6.471
10363SOL    HW231989   5.381   4.460   6.545
10364SOL     OW31990   5.902   5.114   2.745
10364SOL    HW131991   5.954   5.145   2.825
10364SOL    HW231992   5.962   5.114   2.665
10365SOL     OW31993   6.043   5.116   0.829
10365SOL    HW131994   6.049   5.149   0.923
10365SOL    HW231995   6.084   5.183   0.767
10366SOL     OW31996   3.077   6.200   3.662
10366SOL    HW131997   3.170   6.234   3.650
10366SOL    HW231998   3.080   6.111   3.708
10367SOL     OW31999   5.342   6.400   1.306
10367SOL    HW132000   5.247   6.374   1.326
10367SOL    HW232001   5.387   6.426   1.391
10368SOL     OW32002   1.710   6.011   1.395
10368SOL    HW132003   1.665   6.100   1.401
10368SOL    HW232004   1.640   5.939   1.384
10369SOL     OW32005   2.698   0.027   6.390
10369SOL    HW132006   2.626   0.014   6.458
10369SOL    HW232007   2.729   0.122   6.392
10370SOL     OW32008   1.944   1.250   5.449
10370SOL    HW132009   2.027   1.285   5.406
10370SOL    HW232010   1.946   1.150   5.450
10371SOL     OW32011   4.387   5.595   3.290
10371SOL    HW132012   4.345   5.521   3.343
10371SOL    HW232013   4.486   5.594   3.303
10372SOL     OW32014   1.995   6.735   1.348
10372SOL    HW132015   2.012   6.791   1.266
10372SOL    HW232016   2.059   6.658   1.349
10373SOL     OW32017   6.055   1.177   6.549
10373SOL    HW132018   6.118   1.162   6.473
10373SOL    HW232019   5.962   1.155   6.520
10374SOL     OW32020   3.591   4.871   3.299
10374SOL    HW132021   3.671   4.855   3.358
10374SOL    HW232022   3.621   4.885   3.205
10375SOL     OW32023   2.531   5.180   0.798
10375SOL    HW132024   2.488   5.123   0.729
10375SOL    HW232025   2.473   5.260   0.816
10376SOL     OW32026   2.494   4.965   4.478
10376SOL    HW132027   2.481   5.057   4.441
10376SOL    HW232028   2.587   4.934   4.459
10377SOL     OW32029   1.780   0.626   2.136
10377SOL    HW132030   1.694   0.638   2.186
10377SOL    HW232031   1.855   0.612   2.201
10378SOL     OW32032   0.294   5.832   4.310
10378SOL    HW132033   0.358   5.845   4.385
10378SOL    HW232034   0.258   5.921   4.281
10379SOL     OW32035   2.113   0.107   3.740
10379SOL    HW132036   2.110   0.177   3.812
10379SOL    HW232037   2.063   0.026   3.770
10380SOL     OW32038   3.027   2.201   4.393
10380SOL    HW132039   3.021   2.271   4.463
10380SOL    HW232040   2.941   2.196   4.342
10381SOL     OW32041   4.079   6.375   2.858
10381SOL    HW132042   4.089   6.281   2.824
10381SOL    HW232043   4.001   6.419   2.815
10382SOL     OW32044   4.343   5.430   1.233
10382SOL    HW132045   4.342   5.343   1.281
10382SOL    HW232046   4.425   5.482   1.259
10383SOL     OW32047   0.931   4.819   7.012
10383SOL    HW132048   1.008   4.783   0.037
10383SOL    HW232049   0.850   4.763   0.004
10384SOL     OW32050   5.738   5.191   1.106
10384SOL    HW132051   5.651   5.142   1.107
10384SOL    HW232052   5.783   5.175   1.018
10385SOL     OW32053   4.417   4.604   0.046
10385SOL    HW132054   4.424   4.678   0.113
10385SOL    HW232055   4.352   4.536   0.078
10386SOL     OW32056   0.205   0.603   0.583
10386SOL    HW132057   0.262   0.685   0.579
10386SOL    HW232058   0.217   0.551   0.498
10387SOL     OW32059   4.970   3.215   2.033
10387SOL    HW132060   4.896   3.154   2.005
10387SOL    HW232061   4.931   3.301   2.066
10388SOL     OW32062   1.538   6.890   5.413
10388SOL    HW132063   1.588   6.829   5.352
10388SOL    HW232064   1.549   6.859   5.508
10389SOL     OW32065   0.596   4.191   6.948
10389SOL    HW132066   0.580   4.158   6.855
10389SOL    HW232067   0.530   4.148   7.010
10390SOL     OW32068   2.272   2.260   2.096
10390SOL    HW132069   2.367   2.291   2.104
10390SOL    HW232070   2.211   2.339   2.108
10391SOL     OW32071   5.827   6.598   3.916
10391SOL    HW132072   5.828   6.499   3.931
10391SOL    HW232073   5.864   6.644   3.997
10392SOL     OW32074   6.384   3.868   4.631
10392SOL    HW132075   6.327   3.940   4.594
10392SOL    HW232076   6.330   3.810   4.692
10393SOL     OW32077   1.781   3.461   3.311
10393SOL    HW132078   1.736   3.386   3.263
10393SOL    HW232079   1.731   3.482   3.394
10394SOL     OW32080   3.425   0.347   4.427
10394SOL    HW132081   3.436   0.348   4.526
10394SOL    HW232082   3.406   0.440   4.395
10395SOL     OW32083   0.772   6.823   1.156
10395SOL    HW132084   0.782   6.841   1.254
10395SOL    HW232085   0.807   6.901   1.104
10396SOL     OW32086   3.266   2.122   4.675
10396SOL    HW132087   3.340   2.187   4.656
10396SOL    HW232088   3.302   2.044   4.725
10397SOL     OW32089   4.699   1.869   4.016
10397SOL    HW132090   4.617   1.925   4.007
10397SOL    HW232091   4.764   1.915   4.076
10398SOL     OW32092   5.797   3.202   1.756
10398SOL    HW132093   5.755   3.146   1.826
10398SOL    HW232094   5.751   3.186   1.668
10399SOL     OW32095   0.868   3.813   1.638
10399SOL    HW132096   0.774   3.847   1.645
10399SOL    HW232097   0.924   3.879   1.588
10400SOL     OW32098   2.559   6.194   0.854
10400SOL    HW132099   2.618   6.119   0.825
10400SOL    HW232100   2.610   6.255   0.915
10401SOL     OW32101   0.677   0.916   5.634
10401SOL    HW132102   0.586   0.948   5.659
10401SOL    HW232103   0.697   0.830   5.681
10402SOL     OW32104   0.298   2.856   5.151
10402SOL    HW132105   0.235   2.871   5.227
10402SOL    HW232106   0.309   2.942   5.100
10403SOL     OW32107   3.149   0.821   0.584
10403SOL    HW132108   3.145   0.722   0.581
10403SOL    HW232109   3.169   0.851   0.678
10404SOL     OW32110   6.926   6.419   6.604
10404SOL    HW132111   6.888   6.454   6.689
10404SOL    HW232112   6.901   6.322   6.594
10405SOL     OW32113   0.438   2.661   6.324
10405SOL    HW132114   0.454   2.582   6.265
10405SOL    HW232115   0.346   2.696   6.308
10406SOL     OW32116   2.691   5.032   1.715
10406SOL    HW132117   2.760   5.006   1.782
10406SOL    HW232118   2.716   5.119   1.673
10407SOL     OW32119   2.731   6.263   6.522
10407SOL    HW132120   2.640   6.231   6.548
10407SOL    HW232121   2.800   6.199   6.557
10408SOL     OW32122   4.006   1.803   0.049
10408SOL    HW132123   3.963   1.883   0.007
10408SOL    HW232124   4.102   1.823   0.069
10409SOL     OW32125   5.996   4.892   1.237
10409SOL    HW132126   5.928   4.838   1.286
10409SOL    HW232127   6.021   4.845   1.152
10410SOL     OW32128   5.853   0.724   0.726
10410SOL    HW132129   5.829   0.818   0.701
10410SOL    HW232130   5.777   0.663   0.702
10411SOL     OW32131   2.641   5.027   3.452
10411SOL    HW132132   2.671   5.113   3.493
10411SOL    HW232133   2.547   5.007   3.482
10412SOL     OW32134   6.478   0.536   0.418
10412SOL    HW132135   6.522   0.447   0.401
10412SOL    HW232136   6.449   0.541   0.513
10413SOL     OW32137   6.990   2.869   1.705
10413SOL    HW132138   6.940   2.872   1.619
10413SOL    HW232139   6.925   2.867   1.781
10414SOL     OW32140   5.063   2.774   3.950
10414SOL    HW132141   5.041   2.706   3.879
10414SOL    HW232142   5.031   2.741   4.038
10415SOL     OW32143   0.218   6.766   6.339
10415SOL    HW132144   0.313   6.772   6.369
10415SOL    HW232145   0.196   6.670   6.317
10416SOL     OW32146   5.597   2.690   4.347
10416SOL    HW132147   5.631   2.764   4.289
10416SOL    HW232148   5.589   2.723   4.441
10417SOL     OW32149   2.441   4.369   3.638
10417SOL    HW132150   2.379   4.306   3.686
10417SOL    HW232151   2.389   4.446   3.603
10418SOL     OW32152   1.141   4.632   5.879
10418SOL    HW132153   1.073   4.615   5.950
10418SOL    HW232154   1.125   4.722   5.839
10419SOL     OW32155   0.897   1.237   0.611
10419SOL    HW132156   0.900   1.288   0.525
10419SOL    HW232157   0.895   1.301   0.688
10420SOL     OW32158   0.227   3.592   3.497
10420SOL    HW132159   0.207   3.674   3.551
10420SOL    HW232160   0.325   3.573   3.501
10421SOL     OW32161   0.402   1.239   3.683
10421SOL    HW132162   0.436   1.320   3.635
10421SOL    HW232163   0.463   1.217   3.759
10422SOL     OW32164   5.832   2.796   5.857
10422SOL    HW132165   5.733   2.798   5.844
10422SOL    HW232166   5.855   2.843   5.942
10423SOL     OW32167   5.331   4.430   3.152
10423SOL    HW132168   5.373   4.371   3.221
10423SOL    HW232169   5.401   4.488   3.111
10424SOL     OW32170   4.491   2.034   6.357
10424SOL    HW132171   4.501   2.106   6.426
10424SOL    HW232172   4.409   1.981   6.376
10425SOL     OW32173   2.121   6.468   2.023
10425SOL    HW132174   2.075   6.490   1.937
10425SOL    HW232175   2.095   6.534   2.093
10426SOL     OW32176   6.426   3.796   6.674
10426SOL    HW132177   6.467   3.878   6.713
10426SOL    HW232178   6.423   3.803   6.575
10427SOL     OW32179   4.963   1.443   0.458
10427SOL    HW132180   4.980   1.408   0.367
10427SOL    HW232181   4.864   1.443   0.476
10428SOL     OW32182   4.758   0.962   4.475
10428SOL    HW132183   4.825   0.971   4.401
10428SOL    HW232184   4.793   0.900   4.545
10429SOL     OW32185   6.404   6.314   2.306
10429SOL    HW132186   6.342   6.309   2.228
10429SOL    HW232187   6.357   6.282   2.388
10430SOL     OW32188   3.838   6.438   3.210
10430SOL    HW132189   3.853   6.537   3.215
10430SOL    HW232190   3.925   6.392   3.195
10431SOL     OW32191   2.835   1.225   5.134
10431SOL    HW132192   2.746   1.191   5.163
10431SOL    HW232193   2.878   1.159   5.073
10432SOL     OW32194   5.944   0.941   5.201
10432SOL    HW132195   5.987   0.857   5.233
10432SOL    HW232196   5.998   0.979   5.126
10433SOL     OW32197   2.202   6.647   0.934
10433SOL    HW132198   2.147   6.571   0.969
10433SOL    HW232199   2.297   6.635   0.961
10434SOL     OW32200   2.620   1.360   3.836
10434SOL    HW132201   2.579   1.355   3.927
10434SOL    HW232202   2.615   1.270   3.792
10435SOL     OW32203   5.007   6.496   0.268
10435SOL    HW132204   5.038   6.582   0.228
10435SOL    HW232205   5.039   6.489   0.362
10436SOL     OW32206   1.368   6.680   2.895
10436SOL    HW132207   1.281   6.682   2.945
10436SOL    HW232208   1.424   6.605   2.928
10437SOL     OW32209   6.625   5.064   6.004
10437SOL    HW132210   6.683   5.121   6.062
10437SOL    HW232211   6.529   5.089   6.018
10438SOL     OW32212   3.111   5.762   6.632
10438SOL    HW132213   3.210   5.759   6.613
10438SOL    HW232214   3.063   5.712   6.560
10439SOL     OW32215   4.211   0.010   5.876
10439SOL    HW132216   4.186   0.077   5.806
10439SOL    HW232217   4.170   0.037   5.964
10440SOL     OW32218   2.121   5.392   0.521
10440SOL    HW132219   2.059   5.434   0.455
10440SOL    HW232220   2.214   5.390   0.483
10441SOL     OW32221   4.428   1.241   6.820
10441SOL    HW132222   4.478   1.296   6.887
10441SOL    HW232223   4.477   1.156   6.803
10442SOL     OW32224   4.354   5.409   5.815
10442SOL    HW132225   4.282   5.389   5.749
10442SOL    HW232226   4.320   5.396   5.908
10443SOL     OW32227   6.280   2.774   5.080
10443SOL    HW132228   6.214   2.843   5.109
10443SOL    HW232229   6.233   2.688   5.061
10444SOL     OW32230   4.005   4.786   4.122
10444SOL    HW132231   3.908   4.799   4.104
10444SOL    HW232232   4.059   4.828   4.049
10445SOL     OW32233   6.217   6.072   4.665
10445SOL    HW132234   6.253   6.140   4.729
10445SOL    HW232235   6.120   6.090   4.649
10446SOL     OW32236   0.688   5.634   6.166
10446SOL    HW132237   0.677   5.571   6.089
10446SOL    HW232238   0.638   5.599   6.245
10447SOL     OW32239   6.161   2.346   1.370
10447SOL    HW132240   6.244   2.336   1.315
10447SOL    HW232241   6.184   2.387   1.458
10448SOL     OW32242   3.342   4.081   2.320
10448SOL    HW132243   3.245   4.088   2.295
10448SOL    HW232244   3.399   4.105   2.241
10449SOL     OW32245   1.825   4.923   4.280
10449SOL    HW132246   1.861   4.892   4.192
10449SOL    HW232247   1.743   4.978   4.265
10450SOL     OW32248   7.017   3.061   0.940
10450SOL    HW132249   0.028   3.122   1.009
10450SOL    HW232250   0.028   3.084   0.851
10451SOL     OW32251   2.147   4.055   2.612
10451SOL    HW132252   2.171   3.986   2.543
10451SOL    HW232253   2.200   4.138   2.596
10452SOL     OW32254   1.117   3.600   5.084
10452SOL    HW132255   1.152   3.538   5.155
10452SOL    HW232256   1.020   3.580   5.068
10453SOL     OW32257   5.270   0.427   1.740
10453SOL    HW132258   5.245   0.340   1.698
10453SOL    HW232259   5.269   0.499   1.671
10454SOL     OW32260   5.182   3.485   1.889
10454SOL    HW132261   5.102   3.465   1.833
10454SOL    HW232262   5.211   3.402   1.937
10455SOL     OW32263   0.007   4.138   3.234
10455SOL    HW132264   0.031   4.048   3.198
10455SOL    HW232265   7.015   4.132   3.332
10456SOL     OW32266   4.043   5.717   0.686
10456SOL    HW132267   3.982   5.779   0.734
10456SOL    HW232268   4.137   5.748   0.697
10457SOL     OW32269   3.709   3.650   3.960
10457SOL    HW132270   3.668   3.741   3.962
10457SOL    HW232271   3.777   3.646   3.886
10458SOL     OW32272   0.047   0.033   2.067
10458SOL    HW132273   0.105   7.015   1.998
10458SOL    HW232274   7.003   0.088   2.021
10459SOL     OW32275   6.769   5.427   2.387
10459SOL    HW132276   6.827   5.345   2.380
10459SOL    HW232277   6.746   5.458   2.295
10460SOL     OW32278   2.208   5.804   2.268
10460SOL    HW132279   2.118   5.763   2.258
10460SOL    HW232280   2.254   5.805   2.179
10461SOL     OW32281   2.263   1.593   6.179
10461SOL    HW132282   2.340   1.574   6.119
10461SOL    HW232283   2.295   1.603   6.273
10462SOL     OW32284   6.546   6.995   1.174
10462SOL    HW132285   6.557   6.964   1.268
10462SOL    HW232286   6.463   0.023   1.167
10463SOL     OW32287   2.506   3.964   1.296
10463SOL    HW132288   2.522   4.048   1.244
10463SOL    HW232289   2.529   3.885   1.239
10464SOL     OW32290   5.452   0.320   1.478
10464SOL    HW132291   5.434   0.315   1.576
10464SOL    HW232292   5.524   0.387   1.460
10465SOL     OW32293   6.206   5.191   5.457
10465SOL    HW132294   6.283   5.222   5.400
10465SOL    HW232295   6.123   5.187   5.401
10466SOL     OW32296   5.150   5.758   6.258
10466SOL    HW132297   5.190   5.848   6.245
10466SOL    HW232298   5.116   5.724   6.170
10467SOL     OW32299   4.136   0.741   4.348
10467SOL    HW132300   4.127   0.766   4.444
10467SOL    HW232301   4.182   0.652   4.341
10468SOL     OW32302   3.504   5.885   2.933
10468SOL    HW132303   3.479   5.822   3.007
10468SOL    HW232304   3.482   5.979   2.961
10469SOL     OW32305   1.531   4.914   0.697
10469SOL    HW132306   1.505   4.942   0.790
10469SOL    HW232307   1.520   4.990   0.634
10470SOL     OW32308   2.951   1.673   4.200
10470SOL    HW132309   3.036   1.688   4.250
10470SOL    HW232310   2.969   1.614   4.121
10471SOL     OW32311   4.121   3.874   0.736
10471SOL    HW132312   4.125   3.974   0.744
10471SOL    HW232313   4.199   3.833   0.784
10472SOL     OW32314   4.637   1.093   2.689
10472SOL    HW132315   4.609   1.119   2.597
10472SOL    HW232316   4.729   1.127   2.707
10473SOL     OW32317   5.108   5.666   0.955
10473SOL    HW132318   5.173   5.681   0.881
10473SOL    HW232319   5.120   5.574   0.993
10474SOL     OW32320   4.312   0.021   4.076
10474SOL    HW132321   4.271   6.961   4.046
10474SOL    HW232322   4.394   0.002   4.129
10475SOL     OW32323   4.490   5.813   1.483
10475SOL    HW132324   4.397   5.774   1.481
10475SOL    HW232325   4.485   5.911   1.467
10476SOL     OW32326   0.314   4.651   0.328
10476SOL    HW132327   0.371   4.726   0.297
10476SOL    HW232328   0.295   4.661   0.426
10477SOL     OW32329   5.074   4.880   5.139
10477SOL    HW132330   5.032   4.796   5.106
10477SOL    HW232331   5.009   4.929   5.198
10478SOL     OW32332   0.245   6.135   2.084
10478SOL    HW132333   0.260   6.036   2.086
10478SOL    HW232334   0.259   6.173   2.176
10479SOL     OW32335   1.553   4.669   3.038
10479SOL    HW132336   1.627   4.605   3.015
10479SOL    HW232337   1.523   4.651   3.132
10480SOL     OW32338   6.240   0.415   2.838
10480SOL    HW132339   6.292   0.468   2.905
10480SOL    HW232340   6.147   0.450   2.832
10481SOL     OW32341   2.633   0.638   4.999
10481SOL    HW132342   2.621   0.574   4.924
10481SOL    HW232343   2.711   0.698   4.981
10482SOL     OW32344   0.604   5.369   5.879
10482SOL    HW132345   0.546   5.444   5.911
10482SOL    HW232346   0.558   5.321   5.805
10483SOL     OW32347   6.708   5.292   0.459
10483SOL    HW132348   6.797   5.334   0.478
10483SOL    HW232349   6.653   5.293   0.542
10484SOL     OW32350   5.615   2.156   1.372
10484SOL    HW132351   5.627   2.057   1.382
10484SOL    HW232352   5.696   2.195   1.326
10485SOL     OW32353   3.354   4.131   3.655
10485SOL    HW132354   3.270   4.079   3.639
10485SOL    HW232355   3.372   4.136   3.753
10486SOL     OW32356   6.077   5.961   5.179
10486SOL    HW132357   6.143   5.889   5.156
10486SOL    HW232358   6.048   6.007   5.095
10487SOL     OW32359   5.054   2.118   2.382
10487SOL    HW132360   5.083   2.075   2.296
10487SOL    HW232361   4.954   2.118   2.386
10488SOL     OW32362   6.816   2.322   5.254
10488SOL    HW132363   6.910   2.300   5.229
10488SOL    HW232364   6.815   2.369   5.342
10489SOL     OW32365   6.048   4.243   4.622
10489SOL    HW132366   6.102   4.304   4.679
10489SOL    HW232367   6.024   4.161   4.673
10490SOL     OW32368   5.514   6.991   0.549
10490SOL    HW132369   5.452   0.038   0.526
10490SOL    HW232370   5.600   7.003   0.500
10491SOL     OW32371   2.209   2.640   5.363
10491SOL    HW132372   2.281   2.685   5.311
10491SOL    HW232373   2.238   2.629   5.458
10492SOL     OW32374   3.914   6.622   0.014
10492SOL    HW132375   3.879   6.528   0.023
10492SOL    HW232376   3.839   6.687   0.025
10493SOL     OW32377   3.486   5.435   1.617
10493SOL    HW132378   3.571   5.427   1.668
10493SOL    HW232379   3.494   5.384   1.531
10494SOL     OW32380   1.181   4.060   4.389
10494SOL    HW132381   1.130   4.012   4.318
10494SOL    HW232382   1.194   4.156   4.362
10495SOL     OW32383   7.005   6.105   0.884
10495SOL    HW132384   0.008   6.194   0.918
10495SOL    HW232385   0.050   6.064   0.828
10496SOL     OW32386   0.639   4.103   6.160
10496SOL    HW132387   0.670   4.044   6.086
10496SOL    HW232388   0.551   4.070   6.195
10497SOL     OW32389   3.036   0.213   1.588
10497SOL    HW132390   2.988   0.136   1.630
10497SOL    HW232391   3.008   0.298   1.632
10498SOL     OW32392   4.873   3.855   6.989
10498SOL    HW132393   4.939   3.919   0.003
10498SOL    HW232394   4.815   3.903   6.924
10499SOL     OW32395   6.021   3.954   3.156
10499SOL    HW132396   5.965   3.883   3.199
10499SOL    HW232397   6.118   3.932   3.169
10500SOL     OW32398   0.829   3.919   5.073
10500SOL    HW132399   0.888   3.927   4.993
10500SOL    HW232400   0.882   3.880   5.149
10501SOL     OW32401   3.787   4.871   3.078
10501SOL    HW132402   3.858   4.940   3.070
10501SOL    HW232403   3.712   4.892   3.015
10502SOL     OW32404   3.783   3.505   2.594
10502SOL    HW132405   3.823   3.569   2.660
10502SOL    HW232406   3.744   3.556   2.517
10503SOL     OW32407   0.317   1.800   6.193
10503SOL    HW132408   0.266   1.815   6.277
10503SOL    HW232409   0.346   1.889   6.156
10504SOL     OW32410   0.710   3.425   5.735
10504SOL    HW132411   0.762   3.504   5.702
10504SOL    HW232412   0.614   3.449   5.744
10505SOL     OW32413   5.962   0.199   1.060
10505SOL    HW132414   5.952   0.116   1.115
10505SOL    HW232415   6.039   0.188   0.997
10506SOL     OW32416   1.248   3.415   6.203
10506SOL    HW132417   1.212   3.453   6.288
10506SOL    HW232418   1.297   3.486   6.152
10507SOL     OW32419   1.021   5.502   5.990
10507SOL    HW132420   0.986   5.430   5.930
10507SOL    HW232421   1.081   5.462   6.058
10508SOL     OW32422   1.825   5.518   6.141
10508SOL    HW132423   1.798   5.472   6.056
10508SOL    HW232424   1.824   5.452   6.216
10509SOL     OW32425   4.630   2.447   2.295
10509SOL    HW132426   4.534   2.419   2.296
10509SOL    HW232427   4.640   2.531   2.348
10510SOL     OW32428   6.038   5.876   3.577
10510SOL    HW132429   6.018   5.793   3.630
10510SOL    HW232430   5.974   5.948   3.604
10511SOL     OW32431   4.211   1.399   0.974
10511SOL    HW132432   4.260   1.425   1.058
10511SOL    HW232433   4.271   1.343   0.916
10512SOL     OW32434   4.206   1.049   5.405
10512SOL    HW132435   4.129   1.099   5.366
10512SOL    HW232436   4.279   1.042   5.336
10513SOL     OW32437   3.829   2.927   0.605
10513SOL    HW132438   3.871   2.927   0.695
10513SOL    HW232439   3.879   2.990   0.545
10514SOL     OW32440   1.804   3.936   1.886
10514SOL    HW132441   1.755   4.002   1.829
10514SOL    HW232442   1.786   3.956   1.982
10515SOL     OW32443   2.253   2.798   4.988
10515SOL    HW132444   2.330   2.736   5.002
10515SOL    HW232445   2.272   2.886   5.032
10516SOL     OW32446   4.959   2.344   1.659
10516SOL    HW132447   4.901   2.265   1.638
10516SOL    HW232448   4.902   2.426   1.663
10517SOL     OW32449   0.921   2.895   2.086
10517SOL    HW132450   0.828   2.872   2.116
10517SOL    HW232451   0.987   2.865   2.155
10518SOL     OW32452   1.146   5.318   2.493
10518SOL    HW132453   1.113   5.409   2.469
10518SOL    HW232454   1.068   5.259   2.515
10519SOL     OW32455   3.949   0.156   0.910
10519SOL    HW132456   3.994   0.175   0.823
10519SOL    HW232457   3.996   0.205   0.983
10520SOL     OW32458   1.044   2.627   5.950
10520SOL    HW132459   0.998   2.655   6.034
10520SOL    HW232460   1.018   2.534   5.927
10521SOL     OW32461   6.361   2.580   3.202
10521SOL    HW132462   6.269   2.614   3.187
10521SOL    HW232463   6.426   2.630   3.144
10522SOL     OW32464   5.600   1.935   3.803
10522SOL    HW132465   5.576   2.031   3.786
10522SOL    HW232466   5.517   1.884   3.828
10523SOL     OW32467   1.355   4.388   2.630
10523SOL    HW132468   1.298   4.355   2.555
10523SOL    HW232469   1.348   4.487   2.636
10524SOL     OW32470   6.555   6.507   5.393
10524SOL    HW132471   6.495   6.429   5.376
10524SOL    HW232472   6.538   6.544   5.484
10525SOL     OW32473   5.099   1.790   3.990
10525SOL    HW132474   5.043   1.724   3.940
10525SOL    HW232475   5.097   1.878   3.943
10526SOL     OW32476   0.555   5.082   7.013
10526SOL    HW132477   0.471   5.111   0.033
10526SOL    HW232478   0.544   4.989   6.980
10527SOL     OW32479   0.779   6.796   5.482
10527SOL    HW132480   0.751   6.704   5.509
10527SOL    HW232481   0.878   6.806   5.495
10528SOL     OW32482   1.149   4.565   5.423
10528SOL    HW132483   1.208   4.486   5.439
10528SOL    HW232484   1.192   4.647   5.459
10529SOL     OW32485   6.894   5.607   0.728
10529SOL    HW132486   6.852   5.541   0.791
10529SOL    HW232487   6.877   5.700   0.761
10530SOL     OW32488   6.848   6.343   1.692
10530SOL    HW132489   6.942   6.368   1.670
10530SOL    HW232490   6.795   6.425   1.709
10531SOL     OW32491   3.013   3.160   5.232
10531SOL    HW132492   2.936   3.114   5.277
10531SOL    HW232493   3.093   3.100   5.232
10532SOL     OW32494   5.081   5.763   6.550
10532SOL    HW132495   5.032   5.848   6.571
10532SOL    HW232496   5.093   5.754   6.451
10533SOL     OW32497   3.781   0.503   3.260
10533SOL    HW132498   3.792   0.484   3.162
10533SOL    HW232499   3.776   0.417   3.310
10534SOL     OW32500   1.583   5.748   3.871
10534SOL    HW132501   1.644   5.720   3.945
10534SOL    HW232502   1.501   5.692   3.872
10535SOL     OW32503   3.044   2.196   2.817
10535SOL    HW132504   2.983   2.210   2.738
10535SOL    HW232505   3.031   2.104   2.853
10536SOL     OW32506   5.222   3.494   4.840
10536SOL    HW132507   5.240   3.400   4.810
10536SOL    HW232508   5.287   3.556   4.796
10537SOL     OW32509   3.802   0.507   4.550
10537SOL    HW132510   3.759   0.417   4.542
10537SOL    HW232511   3.767   0.566   4.477
10538SOL     OW32512   6.882   3.303   3.142
10538SOL    HW132513   6.858   3.349   3.228
10538SOL    HW232514   6.924   3.215   3.163
10539SOL     OW32515   7.018   0.162   3.448
10539SOL    HW132516   6.961   0.202   3.376
10539SOL    HW232517   6.963   0.150   3.531
10540SOL     OW32518   1.138   4.648   6.773
10540SOL    HW132519   1.134   4.601   6.862
10540SOL    HW232520   1.046   4.667   6.742
10541SOL     OW32521   2.829   3.436   5.180
10541SOL    HW132522   2.863   3.379   5.105
10541SOL    HW232523   2.757   3.387   5.229
10542SOL     OW32524   5.150   6.579   3.187
10542SOL    HW132525   5.159   6.671   3.226
10542SOL    HW232526   5.055   6.547   3.196
10543SOL     OW32527   1.419   3.325   3.711
10543SOL    HW132528   1.339   3.376   3.744
10543SOL    HW232529   1.483   3.311   3.786
10544SOL     OW32530   2.721   1.353   3.192
10544SOL    HW132531   2.718   1.348   3.292
10544SOL    HW232532   2.807   1.314   3.159
10545SOL     OW32533   2.388   2.713   2.595
10545SOL    HW132534   2.378   2.617   2.568
10545SOL    HW232535   2.378   2.771   2.515
10546SOL     OW32536   2.767   0.062   6.914
10546SOL    HW132537   2.792   0.157   6.898
10546SOL    HW232538   2.713   0.028   6.837
10547SOL     OW32539   4.392   6.448   5.733
10547SOL    HW132540   4.381   6.527   5.793
10547SOL    HW232541   4.311   6.390   5.738
10548SOL     OW32542   0.385   5.639   3.470
10548SOL    HW132543   0.413   5.564   3.410
10548SOL    HW232544   0.288   5.627   3.494
10549SOL     OW32545   6.369   0.558   1.716
10549SOL    HW132546   6.295   0.614   1.678
10549SOL    HW232547   6.400   0.599   1.802
10550SOL     OW32548   5.252   5.949   2.849
10550SOL    HW132549   5.203   6.036   2.844
10550SOL    HW232550   5.306   5.946   2.933
10551SOL     OW32551   3.207   0.471   5.259
10551SOL    HW132552   3.160   0.479   5.347
10551SOL    HW232553   3.174   0.390   5.211
10552SOL     OW32554   3.080   0.037   3.815
10552SOL    HW132555   3.052   0.109   3.878
10552SOL    HW232556   3.059   6.974   3.854
10553SOL     OW32557   6.297   5.632   1.226
10553SOL    HW132558   6.341   5.707   1.176
10553SOL    HW232559   6.202   5.624   1.197
10554SOL     OW32560   5.969   6.226   2.449
10554SOL    HW132561   5.961   6.323   2.427
10554SOL    HW232562   5.936   6.210   2.542
10555SOL     OW32563   3.541   3.541   0.985
10555SOL    HW132564   3.486   3.467   0.946
10555SOL    HW232565   3.491   3.585   1.059
10556SOL     OW32566   2.609   1.665   2.270
10556SOL    HW132567   2.591   1.739   2.335
10556SOL    HW232568   2.654   1.589   2.316
10557SOL     OW32569   1.916   4.633   3.179
10557SOL    HW132570   1.964   4.714   3.144
10557SOL    HW232571   1.890   4.574   3.103
10558SOL     OW32572   3.540   5.462   5.243
10558SOL    HW132573   3.579   5.369   5.239
10558SOL    HW232574   3.590   5.521   5.180
10559SOL     OW32575   4.248   6.419   1.217
10559SOL    HW132576   4.192   6.337   1.207
10559SOL    HW232577   4.315   6.423   1.143
10560SOL     OW32578   5.397   6.814   3.081
10560SOL    HW132579   5.309   6.820   3.129
10560SOL    HW232580   5.399   6.731   3.025
10561SOL     OW32581   6.778   4.899   6.875
10561SOL    HW132582   6.817   4.886   6.966
10561SOL    HW232583   6.758   4.996   6.861
10562SOL     OW32584   4.425   5.772   2.698
10562SOL    HW132585   4.464   5.855   2.738
10562SOL    HW232586   4.349   5.741   2.755
10563SOL     OW32587   0.194   6.922   2.477
10563SOL    HW132588   0.098   6.923   2.503
10563SOL    HW232589   0.219   6.832   2.442
10564SOL     OW32590   4.955   4.620   3.436
10564SOL    HW132591   4.966   4.582   3.345
10564SOL    HW232592   4.923   4.549   3.499
10565SOL     OW32593   0.876   0.712   6.254
10565SOL    HW132594   0.910   0.675   6.167
10565SOL    HW232595   0.776   0.717   6.251
10566SOL     OW32596   3.651   2.490   0.395
10566SOL    HW132597   3.723   2.554   0.420
10566SOL    HW232598   3.689   2.416   0.339
10567SOL     OW32599   1.817   2.721   6.108
10567SOL    HW132600   1.908   2.737   6.147
10567SOL    HW232601   1.760   2.676   6.176
10568SOL     OW32602   4.723   2.221   6.317
10568SOL    HW132603   4.750   2.233   6.222
10568SOL    HW232604   4.657   2.292   6.342
10569SOL     OW32605   5.792   0.000   0.410
10569SOL    HW132606   5.845   7.011   0.493
10569SOL    HW232607   5.854   0.005   0.331
10570SOL     OW32608   1.228   3.498   2.720
10570SOL    HW132609   1.167   3.426   2.751
10570SOL    HW232610   1.316   3.491   2.768
10571SOL     OW32611   6.135   4.604   5.385
10571SOL    HW132612   6.073   4.676   5.354
10571SOL    HW232613   6.205   4.589   5.315
10572SOL     OW32614   5.982   4.092   1.105
10572SOL    HW132615   6.062   4.113   1.049
10572SOL    HW232616   5.913   4.164   1.094
10573SOL     OW32617   6.673   2.566   2.480
10573SOL    HW132618   6.765   2.585   2.514
10573SOL    HW232619   6.677   2.543   2.383
10574SOL     OW32620   5.253   2.815   2.470
10574SOL    HW132621   5.168   2.771   2.441
10574SOL    HW232622   5.330   2.773   2.422
10575SOL     OW32623   5.798   6.784   2.421
10575SOL    HW132624   5.702   6.772   2.447
10575SOL    HW232625   5.853   6.806   2.502
10576SOL     OW32626   1.113   4.397   3.887
10576SOL    HW132627   1.119   4.496   3.902
10576SOL    HW232628   1.205   4.358   3.883
10577SOL     OW32629   3.832   4.038   0.256
10577SOL    HW132630   3.817   4.106   0.328
10577SOL    HW232631   3.922   3.996   0.268
10578SOL     OW32632   0.728   3.617   3.701
10578SOL    HW132633   0.667   3.609   3.622
10578SOL    HW232634   0.688   3.570   3.780
10579SOL     OW32635   0.569   3.767   0.052
10579SOL    HW132636   0.557   3.825   0.132
10579SOL    HW232637   0.661   3.727   0.054
10580SOL     OW32638   5.704   6.826   0.110
10580SOL    HW132639   5.794   6.855   0.142
10580SOL    HW232640   5.702   6.829   0.010
10581SOL     OW32641   4.387   0.333   3.065
10581SOL    HW132642   4.459   0.276   3.026
10581SOL    HW232643   4.406   0.429   3.046
10582SOL     OW32644   6.727   3.646   6.258
10582SOL    HW132645   6.629   3.668   6.257
10582SOL    HW232646   6.759   3.644   6.353
10583SOL     OW32647   3.434   1.803   5.322
10583SOL    HW132648   3.477   1.800   5.232
10583SOL    HW232649   3.335   1.805   5.312
10584SOL     OW32650   0.973   6.303   3.238
10584SOL    HW132651   0.892   6.292   3.182
10584SOL    HW232652   1.053   6.312   3.179
10585SOL     OW32653   1.522   1.136   5.701
10585SOL    HW132654   1.437   1.090   5.674
10585SOL    HW232655   1.568   1.173   5.620
10586SOL     OW32656   4.393   4.293   5.370
10586SOL    HW132657   4.340   4.314   5.452
10586SOL    HW232658   4.346   4.329   5.289
10587SOL     OW32659   2.229   4.606   5.102
10587SOL    HW132660   2.241   4.642   5.009
10587SOL    HW232661   2.276   4.666   5.167
10588SOL     OW32662   1.331   3.561   3.465
10588SOL    HW132663   1.309   3.630   3.395
10588SOL    HW232664   1.358   3.607   3.549
10589SOL     OW32665   6.002   6.462   3.585
10589SOL    HW132666   5.985   6.440   3.681
10589SOL    HW232667   6.051   6.387   3.541
10590SOL     OW32668   0.554   4.760   2.082
10590SOL    HW132669   0.560   4.767   2.182
10590SOL    HW232670   0.501   4.838   2.047
10591SOL     OW32671   6.976   3.735   2.062
10591SOL    HW132672   6.893   3.785   2.085
10591SOL    HW232673   0.013   3.738   2.139
10592SOL     OW32674   0.303   1.146   4.992
10592SOL    HW132675   0.294   1.054   4.954
10592SOL    HW232676   0.306   1.140   5.092
10593SOL     OW32677   3.118   4.878   3.374
10593SOL    HW132678   3.176   4.867   3.293
10593SOL    HW232679   3.169   4.853   3.456
10594SOL     OW32680   3.432   5.243   3.511
10594SOL    HW132681   3.344   5.286   3.493
10594SOL    HW232682   3.476   5.219   3.424
10595SOL     OW32683   5.327   0.183   0.501
10595SOL    HW132684   5.309   0.158   0.406
10595SOL    HW232685   5.242   0.210   0.546
10596SOL     OW32686   4.945   3.506   0.323
10596SOL    HW132687   4.993   3.423   0.295
10596SOL    HW232688   4.992   3.548   0.400
10597SOL     OW32689   1.885   6.984   4.639
10597SOL    HW132690   1.824   6.995   4.561
10597SOL    HW232691   1.958   6.919   4.617
10598SOL     OW32692   3.176   0.780   6.672
10598SOL    HW132693   3.251   0.829   6.627
10598SOL    HW232694   3.172   0.806   6.768
10599SOL     OW32695   0.937   2.172   0.266
10599SOL    HW132696   0.926   2.073   0.272
10599SOL    HW232697   0.847   2.215   0.261
10600SOL     OW32698   3.857   1.560   1.717
10600SOL    HW132699   3.775   1.507   1.738
10600SOL    HW232700   3.936   1.498   1.711
10601SOL     OW32701   2.423   0.864   5.140
10601SOL    HW132702   2.467   0.943   5.095
10601SOL    HW232703   2.473   0.781   5.117
10602SOL     OW32704   6.694   6.865   2.136
10602SOL    HW132705   6.601   6.853   2.169
10602SOL    HW232706   6.747   6.919   2.201
10603SOL     OW32707   5.612   0.510   2.833
10603SOL    HW132708   5.631   0.419   2.795
10603SOL    HW232709   5.593   0.574   2.759
10604SOL     OW32710   4.630   0.852   4.818
10604SOL    HW132711   4.565   0.783   4.850
10604SOL    HW232712   4.583   0.918   4.760
10605SOL     OW32713   3.330   2.417   1.153
10605SOL    HW132714   3.259   2.384   1.215
10605SOL    HW232715   3.414   2.364   1.167
10606SOL     OW32716   6.798   0.628   6.822
10606SOL    HW132717   6.719   0.581   6.781
10606SOL    HW232718   6.796   0.725   6.797
10607SOL     OW32719   2.864   4.209   6.942
10607SOL    HW132720   2.809   4.218   7.025
10607SOL    HW232721   2.939   4.274   6.945
10608SOL     OW32722   5.388   4.290   4.170
10608SOL    HW132723   5.387   4.251   4.078
10608SOL    HW232724   5.458   4.362   4.175
10609SOL     OW32725   5.960   0.595   6.617
10609SOL    HW132726   5.934   0.674   6.672
10609SOL    HW232727   5.972   0.623   6.522
10610SOL     OW32728   0.933   1.243   3.454
10610SOL    HW132729   0.986   1.279   3.531
10610SOL    HW232730   0.954   1.294   3.371
10611SOL     OW32731   3.745   5.267   4.910
10611SOL    HW132732   3.758   5.337   4.981
10611SOL    HW232733   3.666   5.211   4.934
10612SOL     OW32734   6.509   2.257   3.669
10612SOL    HW132735   6.512   2.354   3.694
10612SOL    HW232736   6.520   2.247   3.570
10613SOL     OW32737   4.357   6.305   4.372
10613SOL    HW132738   4.402   6.295   4.283
10613SOL    HW232739   4.312   6.219   4.395
10614SOL     OW32740   3.901   1.674   5.991
10614SOL    HW132741   3.877   1.745   5.925
10614SOL    HW232742   3.903   1.712   6.083
10615SOL     OW32743   2.413   1.984   4.923
10615SOL    HW132744   2.466   1.901   4.902
10615SOL    HW232745   2.316   1.960   4.931
10616SOL     OW32746   1.533   5.992   6.818
10616SOL    HW132747   1.497   5.903   6.847
10616SOL    HW232748   1.621   5.978   6.771
10617SOL     OW32749   1.963   2.911   1.372
10617SOL    HW132750   2.024   2.974   1.324
10617SOL    HW232751   1.941   2.834   1.312
10618SOL     OW32752   0.962   5.197   3.852
10618SOL    HW132753   1.041   5.228   3.906
10618SOL    HW232754   0.924   5.274   3.801
10619SOL     OW32755   1.311   2.632   2.329
10619SOL    HW132756   1.340   2.605   2.238
10619SOL    HW232757   1.272   2.724   2.326
10620SOL     OW32758   3.047   0.428   5.546
10620SOL    HW132759   2.958   0.431   5.501
10620SOL    HW232760   3.060   0.511   5.601
10621SOL     OW32761   0.493   3.237   3.006
10621SOL    HW132762   0.464   3.289   2.926
10621SOL    HW232763   0.516   3.300   3.080
10622SOL     OW32764   4.267   2.330   6.981
10622SOL    HW132765   4.182   2.381   6.990
10622SOL    HW232766   4.282   2.274   0.036
10623SOL     OW32767   5.113   6.240   5.426
10623SOL    HW132768   5.132   6.185   5.508
10623SOL    HW232769   5.200   6.269   5.384
10624SOL     OW32770   0.475   2.288   0.024
10624SOL    HW132771   0.443   2.297   0.118
10624SOL    HW232772   0.549   2.353   0.008
10625SOL     OW32773   6.359   5.349   0.572
10625SOL    HW132774   6.430   5.300   0.623
10625SOL    HW232775   6.396   5.375   0.483
10626SOL     OW32776   5.532   2.964   1.109
10626SOL    HW132777   5.514   2.877   1.155
10626SOL    HW232778   5.630   2.982   1.110
10627SOL     OW32779   5.841   5.440   4.962
10627SOL    HW132780   5.853   5.427   4.864
10627SOL    HW232781   5.755   5.400   4.991
10628SOL     OW32782   3.015   6.540   0.419
10628SOL    HW132783   3.045   6.560   0.512
10628SOL    HW232784   3.058   6.605   0.355
10629SOL     OW32785   4.333   5.255   4.947
10629SOL    HW132786   4.427   5.273   4.977
10629SOL    HW232787   4.313   5.310   4.866
10630SOL     OW32788   4.066   1.379   1.785
10630SOL    HW132789   4.109   1.417   1.867
10630SOL    HW232790   3.996   1.314   1.812
10631SOL     OW32791   3.453   5.601   1.340
10631SOL    HW132792   3.544   5.611   1.379
10631SOL    HW232793   3.406   5.524   1.383
10632SOL     OW32794   5.390   6.423   3.915
10632SOL    HW132795   5.456   6.351   3.896
10632SOL    HW232796   5.352   6.458   3.829
10633SOL     OW32797   2.215   3.555   0.770
10633SOL    HW132798   2.172   3.626   0.826
10633SOL    HW232799   2.144   3.498   0.729
10634SOL     OW32800   6.980   4.498   6.762
10634SOL    HW132801   0.010   4.556   6.703
10634SOL    HW232802   6.887   4.535   6.766
10635SOL     OW32803   2.882   5.431   6.629
10635SOL    HW132804   2.835   5.357   6.581
10635SOL    HW232805   2.836   5.518   6.611
10636SOL     OW32806   6.783   2.780   0.069
10636SOL    HW132807   6.810   2.706   0.008
10636SOL    HW232808   6.863   2.835   0.092
10637SOL     OW32809   2.300   0.795   6.825
10637SOL    HW132810   2.205   0.777   6.798
10637SOL    HW232811   2.361   0.734   6.775
10638SOL     OW32812   5.770   5.143   0.791
10638SOL    HW132813   5.735   5.062   0.837
10638SOL    HW232814   5.869   5.151   0.806
10639SOL     OW32815   0.412   5.366   1.924
10639SOL    HW132816   0.361   5.324   1.848
10639SOL    HW232817   0.355   5.436   1.968
10640SOL     OW32818   4.597   6.591   3.595
10640SOL    HW132819   4.523   6.616   3.531
10640SOL    HW232820   4.593   6.651   3.675
10641SOL     OW32821   1.020   1.709   2.944
10641SOL    HW132822   1.027   1.612   2.968
10641SOL    HW232823   1.102   1.737   2.895
10642SOL     OW32824   6.621   3.364   5.843
10642SOL    HW132825   6.631   3.457   5.808
10642SOL    HW232826   6.675   3.354   5.926
10643SOL     OW32827   2.137   5.275   5.911
10643SOL    HW132828   2.227   5.261   5.871
10643SOL    HW232829   2.126   5.214   5.990
10644SOL     OW32830   6.124   3.041   3.204
10644SOL    HW132831   6.133   2.944   3.225
10644SOL    HW232832   6.154   3.058   3.110
10645SOL     OW32833   1.759   2.309   3.137
10645SOL    HW132834   1.753   2.216   3.100
10645SOL    HW232835   1.702   2.371   3.083
10646SOL     OW32836   5.331   0.418   3.722
10646SOL    HW132837   5.351   0.443   3.627
10646SOL    HW232838   5.416   0.417   3.775
10647SOL     OW32839   3.616   5.502   5.777
10647SOL    HW132840   3.660   5.477   5.691
10647SOL    HW232841   3.676   5.479   5.853
10648SOL     OW32842   4.837   4.243   5.758
10648SOL    HW132843   4.738   4.258   5.756
10648SOL    HW232844   4.884   4.325   5.725
10649SOL     OW32845   6.199   3.473   2.865
10649SOL    HW132846   6.144   3.554   2.889
10649SOL    HW232847   6.142   3.392   2.869
10650SOL     OW32848   1.072   6.862   3.602
10650SOL    HW132849   1.036   6.955   3.610
10650SOL    HW232850   1.159   6.856   3.653
10651SOL     OW32851   2.953   6.225   5.978
10651SOL    HW132852   2.933   6.183   6.066
10651SOL    HW232853   2.879   6.205   5.914
10652SOL     OW32854   1.584   0.098   0.442
10652SOL    HW132855   1.529   0.169   0.487
10652SOL    HW232856   1.610   0.130   0.351
10653SOL     OW32857   4.787   5.895   4.203
10653SOL    HW132858   4.758   5.926   4.113
10653SOL    HW232859   4.750   5.803   4.220
10654SOL     OW32860   6.394   1.916   4.271
10654SOL    HW132861   6.382   1.840   4.335
10654SOL    HW232862   6.402   1.881   4.178
10655SOL     OW32863   6.811   4.290   1.608
10655SOL    HW132864   6.861   4.244   1.535
10655SOL    HW232865   6.729   4.237   1.632
10656SOL     OW32866   5.850   2.202   4.181
10656SOL    HW132867   5.823   2.208   4.085
10656SOL    HW232868   5.949   2.184   4.186
10657SOL     OW32869   4.822   6.710   4.554
10657SOL    HW132870   4.920   6.730   4.557
10657SOL    HW232871   4.801   6.636   4.618
10658SOL     OW32872   0.612   2.296   5.652
10658SOL    HW132873   0.666   2.212   5.641
10658SOL    HW232874   0.589   2.332   5.561
10659SOL     OW32875   0.750   5.896   0.815
10659SOL    HW132876   0.667   5.930   0.859
10659SOL    HW232877   0.759   5.937   0.724
10660SOL     OW32878   5.804   2.697   5.285
10660SOL    HW132879   5.807   2.599   5.308
10660SOL    HW232880   5.898   2.731   5.278
10661SOL     OW32881   2.925   5.018   5.582
10661SOL    HW132882   2.923   5.001   5.681
10661SOL    HW232883   2.845   4.977   5.540
10662SOL     OW32884   2.155   1.367   1.406
10662SOL    HW132885   2.104   1.411   1.479
10662SOL    HW232886   2.091   1.339   1.333
10663SOL     OW32887   0.932   1.773   3.591
10663SOL    HW132888   0.853   1.717   3.616
10663SOL    HW232889   1.016   1.724   3.616
10664SOL     OW32890   0.950   5.304   4.916
10664SOL    HW132891   0.871   5.281   4.973
10664SOL    HW232892   0.979   5.223   4.865
10665SOL     OW32893   2.929   3.426   0.216
10665SOL    HW132894   2.961   3.368   0.291
10665SOL    HW232895   2.949   3.382   0.128
10666SOL     OW32896   3.515   4.092   1.312
10666SOL    HW132897   3.490   4.012   1.258
10666SOL    HW232898   3.438   4.117   1.371
10667SOL     OW32899   5.251   2.521   3.097
10667SOL    HW132900   5.267   2.594   3.163
10667SOL    HW232901   5.322   2.452   3.105
10668SOL     OW32902   3.216   3.158   5.840
10668SOL    HW132903   3.241   3.216   5.763
10668SOL    HW232904   3.117   3.141   5.839
10669SOL     OW32905   5.224   1.758   1.435
10669SOL    HW132906   5.253   1.691   1.367
10669SOL    HW232907   5.125   1.774   1.424
10670SOL     OW32908   4.869   3.770   4.394
10670SOL    HW132909   4.910   3.860   4.408
10670SOL    HW232910   4.772   3.780   4.374
10671SOL     OW32911   1.554   3.648   5.191
10671SOL    HW132912   1.602   3.618   5.273
10671SOL    HW232913   1.501   3.730   5.210
10672SOL     OW32914   5.594   3.707   2.008
10672SOL    HW132915   5.647   3.710   2.093
10672SOL    HW232916   5.632   3.638   1.948
10673SOL     OW32917   1.984   1.528   1.000
10673SOL    HW132918   1.925   1.455   1.034
10673SOL    HW232919   1.930   1.594   0.948
10674SOL     OW32920   3.796   4.104   3.056
10674SOL    HW132921   3.697   4.092   3.051
10674SOL    HW232922   3.833   4.119   2.964
10675SOL     OW32923   4.225   6.780   5.392
10675SOL    HW132924   4.179   6.717   5.454
10675SOL    HW232925   4.285   6.841   5.445
10676SOL     OW32926   1.101   0.263   5.768
10676SOL    HW132927   1.059   0.233   5.853
10676SOL    HW232928   1.138   0.355   5.779
10677SOL     OW32929   0.188   1.422   0.439
10677SOL    HW132930   0.150   1.366   0.512
10677SOL    HW232931   0.258   1.371   0.390
10678SOL     OW32932   3.713   5.793   2.775
10678SOL    HW132933   3.808   5.818   2.794
10678SOL    HW232934   3.652   5.849   2.832
10679SOL     OW32935   4.000   3.610   6.523
10679SOL    HW132936   4.055   3.661   6.589
10679SOL    HW232937   4.054   3.592   6.441
10680SOL     OW32938   4.271   1.169   4.714
10680SOL    HW132939   4.211   1.136   4.786
10680SOL    HW232940   4.243   1.261   4.687
10681SOL     OW32941   1.692   3.239   5.032
10681SOL    HW132942   1.647   3.156   4.998
10681SOL    HW232943   1.623   3.301   5.070
10682SOL     OW32944   5.104   2.974   6.288
10682SOL    HW132945   5.075   3.069   6.299
10682SOL    HW232946   5.192   2.960   6.332
10683SOL     OW32947   2.888   0.231   3.923
10683SOL    HW132948   2.878   0.194   3.831
10683SOL    HW232949   2.954   0.306   3.922
10684SOL     OW32950   4.589   4.856   2.510
10684SOL    HW132951   4.667   4.852   2.449
10684SOL    HW232952   4.504   4.846   2.457
10685SOL     OW32953   0.607   6.405   1.856
10685SOL    HW132954   0.563   6.455   1.782
10685SOL    HW232955   0.637   6.316   1.823
10686SOL     OW32956   2.533   1.261   6.611
10686SOL    HW132957   2.495   1.341   6.658
10686SOL    HW232958   2.475   1.181   6.628
10687SOL     OW32959   0.561   4.179   3.219
10687SOL    HW132960   0.474   4.134   3.202
10687SOL    HW232961   0.572   4.196   3.317
10688SOL     OW32962   5.013   1.737   2.363
10688SOL    HW132963   5.025   1.663   2.297
10688SOL    HW232964   4.940   1.798   2.330
10689SOL     OW32965   0.084   0.437   2.692
10689SOL    HW132966   0.048   0.441   2.786
10689SOL    HW232967   0.172   0.391   2.692
10690SOL     OW32968   0.144   6.938   4.178
10690SOL    HW132969   0.141   6.997   4.097
10690SOL    HW232970   0.229   6.957   4.229
10691SOL     OW32971   3.346   0.285   2.361
10691SOL    HW132972   3.401   0.281   2.445
10691SOL    HW232973   3.391   0.235   2.288
10692SOL     OW32974   2.283   0.822   4.068
10692SOL    HW132975   2.224   0.794   3.993
10692SOL    HW232976   2.296   0.745   4.131
10693SOL     OW32977   1.429   5.275   0.118
10693SOL    HW132978   1.473   5.207   0.177
10693SOL    HW232979   1.479   5.361   0.124
10694SOL     OW32980   4.395   6.945   5.524
10694SOL    HW132981   4.457   6.905   5.592
10694SOL    HW232982   4.449   6.986   5.450
10695SOL     OW32983   5.931   4.059   2.305
10695SOL    HW132984   5.870   4.057   2.225
10695SOL    HW232985   5.969   4.151   2.315
10696SOL     OW32986   6.882   4.796   3.961
10696SOL    HW132987   6.919   4.707   3.985
10696SOL    HW232988   6.846   4.841   4.042
10697SOL     OW32989   1.594   5.224   5.352
10697SOL    HW132990   1.647   5.144   5.322
10697SOL    HW232991   1.616   5.245   5.447
10698SOL     OW32992   4.244   3.132   0.204
10698SOL    HW132993   4.299   3.215   0.191
10698SOL    HW232994   4.221   3.094   0.114
10699SOL     OW32995   3.378   3.031   0.507
10699SOL    HW132996   3.435   3.113   0.498
10699SOL    HW232997   3.429   2.960   0.556
10700SOL     OW32998   4.876   1.091   1.520
10700SOL    HW132999   4.943   1.086   1.594
10700SOL    HW233000   4.789   1.126   1.555
10701SOL     OW33001   3.029   0.433   6.366
10701SOL    HW133002   3.093   0.368   6.407
10701SOL    HW233003   3.001   0.500   6.435
10702SOL     OW33004   6.106   2.367   1.965
10702SOL    HW133005   6.147   2.437   2.025
10702SOL    HW233006   6.027   2.326   2.011
10703SOL     OW33007   0.757   2.977   6.114
10703SOL    HW133008   0.834   3.019   6.160
10703SOL    HW233009   0.738   3.027   6.029
10704SOL     OW33010   5.941   6.727   1.372
10704SOL    HW133011   6.001   6.800   1.407
10704SOL    HW233012   5.960   6.713   1.275
10705SOL     OW33013   5.738   4.485   1.649
10705SOL    HW133014   5.759   4.403   1.594
10705SOL    HW233015   5.664   4.535   1.606
10706SOL     OW33016   4.534   0.295   1.106
10706SOL    HW133017   4.600   0.334   1.043
10706SOL    HW233018   4.454   0.264   1.054
10707SOL     OW33019   5.912   0.543   4.148
10707SOL    HW133020   5.955   0.519   4.061
10707SOL    HW233021   5.914   0.643   4.158
10708SOL     OW33022   4.055   1.433   2.258
10708SOL    HW133023   3.988   1.504   2.281
10708SOL    HW233024   4.010   1.344   2.260
10709SOL     OW33025   5.709   4.669   3.805
10709SOL    HW133026   5.669   4.618   3.729
10709SOL    HW233027   5.741   4.758   3.773
10710SOL     OW33028   5.169   1.137   3.574
10710SOL    HW133029   5.137   1.049   3.609
10710SOL    HW233030   5.100   1.176   3.513
10711SOL     OW33031   4.044   6.710   1.604
10711SOL    HW133032   4.076   6.726   1.698
10711SOL    HW233033   4.102   6.760   1.540
10712SOL     OW33034   4.978   6.954   3.072
10712SOL    HW133035   4.883   6.951   3.102
10712SOL    HW233036   4.995   0.013   3.023
10713SOL     OW33037   1.636   4.427   1.564
10713SOL    HW133038   1.635   4.343   1.509
10713SOL    HW233039   1.571   4.493   1.527
10714SOL     OW33040   3.575   3.893   4.356
10714SOL    HW133041   3.595   3.796   4.365
10714SOL    HW233042   3.518   3.923   4.433
10715SOL     OW33043   6.219   0.950   1.854
10715SOL    HW133044   6.164   1.029   1.827
10715SOL    HW233045   6.289   0.933   1.785
10716SOL     OW33046   6.220   1.965   3.371
10716SOL    HW133047   6.171   2.009   3.445
10716SOL    HW233048   6.197   2.010   3.284
10717SOL     OW33049   1.329   2.521   0.206
10717SOL    HW133050   1.361   2.539   0.113
10717SOL    HW233051   1.292   2.428   0.211
10718SOL     OW33052   1.198   4.826   5.467
10718SOL    HW133053   1.245   4.905   5.507
10718SOL    HW233054   1.101   4.847   5.456
10719SOL     OW33055   6.348   5.965   4.455
10719SOL    HW133056   6.304   6.031   4.516
10719SOL    HW233057   6.433   6.005   4.420
10720SOL     OW33058   6.398   5.417   3.924
10720SOL    HW133059   6.393   5.495   3.861
10720SOL    HW233060   6.308   5.376   3.933
10721SOL     OW33061   5.004   3.815   5.045
10721SOL    HW133062   4.937   3.763   4.992
10721SOL    HW233063   5.071   3.856   4.983
10722SOL     OW33064   6.906   4.271   5.985
10722SOL    HW133065   6.966   4.321   5.923
10722SOL    HW233066   6.956   4.245   6.067
10723SOL     OW33067   6.248   0.127   0.602
10723SOL    HW133068   6.225   0.158   0.510
10723SOL    HW233069   6.347   0.121   0.612
10724SOL     OW33070   6.628   6.531   0.509
10724SOL    HW133071   6.539   6.573   0.526
10724SOL    HW233072   6.614   6.437   0.478
10725SOL     OW33073   2.546   5.449   5.639
10725SOL    HW133074   2.449   5.475   5.635
10725SOL    HW233075   2.557   5.356   5.603
10726SOL     OW33076   4.964   0.624   4.294
10726SOL    HW133077   4.920   0.678   4.366
10726SOL    HW233078   4.967   0.528   4.321
10727SOL     OW33079   1.778   5.904   5.816
10727SOL    HW133080   1.710   5.883   5.746
10727SOL    HW233081   1.851   5.835   5.813
10728SOL     OW33082   6.429   5.497   0.899
10728SOL    HW133083   6.403   5.412   0.944
10728SOL    HW233084   6.470   5.559   0.966
10729SOL     OW33085   6.810   2.636   1.171
10729SOL    HW133086   6.758   2.720   1.187
10729SOL    HW233087   6.887   2.656   1.110
10730SOL     OW33088   4.201   0.202   1.822
10730SOL    HW133089   4.113   0.178   1.781
10730SOL    HW233090   4.267   0.129   1.804
10731SOL     OW33091   4.233   1.317   0.649
10731SOL    HW133092   4.298   1.351   0.717
10731SOL    HW233093   4.193   1.231   0.680
10732SOL     OW33094   0.739   5.236   5.089
10732SOL    HW133095   0.728   5.150   5.039
10732SOL    HW233096   0.764   5.216   5.184
10733SOL     OW33097   5.764   2.915   6.780
10733SOL    HW133098   5.744   2.922   6.877
10733SOL    HW233099   5.830   2.985   6.754
10734SOL     OW33100   0.201   1.862   1.228
10734SOL    HW133101   0.267   1.812   1.285
10734SOL    HW233102   0.113   1.816   1.231
10735SOL     OW33103   0.476   3.594   2.354
10735SOL    HW133104   0.493   3.510   2.302
10735SOL    HW233105   0.502   3.579   2.450
10736SOL     OW33106   3.844   6.951   3.662
10736SOL    HW133107   3.774   6.880   3.658
10736SOL    HW233108   3.802   0.011   3.693
10737SOL     OW33109   0.488   2.539   1.439
10737SOL    HW133110   0.501   2.569   1.534
10737SOL    HW233111   0.574   2.549   1.389
10738SOL     OW33112   4.406   0.843   2.985
10738SOL    HW133113   4.324   0.895   2.961
10738SOL    HW233114   4.387   0.789   3.067
10739SOL     OW33115   2.285   2.119   1.846
10739SOL    HW133116   2.280   2.150   1.941
10739SOL    HW233117   2.219   2.170   1.791
10740SOL     OW33118   4.974   4.786   4.087
10740SOL    HW133119   5.040   4.728   4.039
10740SOL    HW233120   5.005   4.881   4.082
10741SOL     OW33121   3.566   0.683   2.191
10741SOL    HW133122   3.484   0.650   2.238
10741SOL    HW233123   3.589   0.775   2.223
10742SOL     OW33124   5.716   5.265   0.547
10742SOL    HW133125   5.792   5.231   0.491
10742SOL    HW233126   5.722   5.226   0.639
10743SOL     OW33127   2.366   2.188   4.084
10743SOL    HW133128   2.313   2.266   4.050
10743SOL    HW233129   2.308   2.106   4.084
10744SOL     OW33130   3.662   2.546   0.975
10744SOL    HW133131   3.662   2.454   1.014
10744SOL    HW233132   3.751   2.589   0.991
10745SOL     OW33133   0.145   5.738   5.625
10745SOL    HW133134   0.124   5.793   5.706
10745SOL    HW233135   0.172   5.799   5.550
10746SOL     OW33136   6.904   4.174   5.163
10746SOL    HW133137   6.859   4.106   5.106
10746SOL    HW233138   6.839   4.246   5.188
10747SOL     OW33139   3.135   0.929   5.004
10747SOL    HW133140   3.187   0.849   5.032
10747SOL    HW233141   3.197   1.002   4.975
10748SOL     OW33142   4.869   1.031   2.122
10748SOL    HW133143   4.938   0.958   2.116
10748SOL    HW233144   4.909   1.117   2.092
10749SOL     OW33145   2.117   6.819   4.653
10749SOL    HW133146   2.151   6.741   4.601
10749SOL    HW233147   2.139   6.808   4.750
10750SOL     OW33148   3.529   0.878   5.724
10750SOL    HW133149   3.500   0.783   5.715
10750SOL    HW233150   3.497   0.931   5.646
10751SOL     OW33151   2.109   4.321   4.353
10751SOL    HW133152   2.158   4.327   4.440
10751SOL    HW233153   2.125   4.404   4.300
10752SOL     OW33154   5.547   5.262   4.500
10752SOL    HW133155   5.565   5.232   4.594
10752SOL    HW233156   5.585   5.195   4.436
10753SOL     OW33157   0.258   3.144   4.056
10753SOL    HW133158   0.240   3.199   4.138
10753SOL    HW233159   0.352   3.109   4.060
10754SOL     OW33160   1.432   0.779   2.631
10754SOL    HW133161   1.502   0.711   2.653
10754SOL    HW233162   1.347   0.755   2.679
10755SOL     OW33163   6.396   6.243   1.608
10755SOL    HW133164   6.341   6.183   1.666
10755SOL    HW233165   6.493   6.228   1.626
10756SOL     OW33166   6.643   7.001   5.215
10756SOL    HW133167   6.556   7.021   5.170
10756SOL    HW233168   6.653   6.902   5.225
10757SOL     OW33169   2.265   3.225   0.703
10757SOL    HW133170   2.230   3.141   0.662
10757SOL    HW233171   2.202   3.300   0.682
10758SOL     OW33172   0.779   5.864   3.533
10758SOL    HW133173   0.749   5.857   3.438
10758SOL    HW233174   0.865   5.915   3.537
10759SOL     OW33175   0.369   2.719   0.064
10759SOL    HW133176   0.340   2.625   0.083
10759SOL    HW233177   0.292   2.770   0.025
10760SOL     OW33178   6.171   1.039   3.607
10760SOL    HW133179   6.135   1.090   3.685
10760SOL    HW233180   6.119   1.064   3.525
10761SOL     OW33181   2.679   4.927   5.497
10761SOL    HW133182   2.659   4.869   5.577
10761SOL    HW233183   2.676   4.871   5.414
10762SOL     OW33184   3.409   0.586   4.299
10762SOL    HW133185   3.388   0.679   4.328
10762SOL    HW233186   3.391   0.577   4.201
10763SOL     OW33187   4.056   0.571   3.347
10763SOL    HW133188   4.017   0.639   3.409
10763SOL    HW233189   3.990   0.497   3.333
10764SOL     OW33190   5.297   0.730   4.016
10764SOL    HW133191   5.257   0.705   3.928
10764SOL    HW233192   5.395   0.710   4.016
10765SOL     OW33193   5.031   3.367   1.315
10765SOL    HW133194   5.102   3.382   1.384
10765SOL    HW233195   5.074   3.354   1.226
10766SOL     OW33196   3.737   3.427   1.161
10766SOL    HW133197   3.826   3.435   1.118
10766SOL    HW233198   3.670   3.481   1.109
10767SOL     OW33199   2.458   1.212   2.078
10767SOL    HW133200   2.363   1.222   2.048
10767SOL    HW233201   2.469   1.256   2.168
10768SOL     OW33202   6.527   4.651   0.435
10768SOL    HW133203   6.532   4.593   0.354
10768SOL    HW233204   6.587   4.614   0.506
10769SOL     OW33205   1.819   3.632   6.271
10769SOL    HW133206   1.719   3.634   6.264
10769SOL    HW233207   1.846   3.564   6.339
10770SOL     OW33208   4.792   6.063   3.193
10770SOL    HW133209   4.758   6.129   3.260
10770SOL    HW233210   4.892   6.059   3.199
10771SOL     OW33211   3.068   0.375   3.535
10771SOL    HW133212   3.067   0.353   3.438
10771SOL    HW233213   2.991   0.331   3.581
10772SOL     OW33214   6.299   5.899   3.626
10772SOL    HW133215   6.202   5.892   3.606
10772SOL    HW233216   6.349   5.925   3.543
10773SOL     OW33217   5.207   4.942   4.130
10773SOL    HW133218   5.248   4.882   4.060
10773SOL    HW233219   5.215   4.898   4.220
10774SOL     OW33220   1.393   1.031   4.262
10774SOL    HW133221   1.303   1.016   4.220
10774SOL    HW233222   1.400   1.128   4.288
10775SOL     OW33223   0.493   4.330   1.849
10775SOL    HW133224   0.491   4.378   1.762
10775SOL    HW233225   0.472   4.394   1.923
10776SOL     OW33226   1.926   0.107   0.105
10776SOL    HW133227   1.939   0.014   0.142
10776SOL    HW233228   2.014   0.141   0.072
10777SOL     OW33229   3.432   6.341   1.384
10777SOL    HW133230   3.336   6.355   1.356
10777SOL    HW233231   3.492   6.372   1.310
10778SOL     OW33232   5.788   6.229   3.294
10778SOL    HW133233   5.768   6.265   3.385
10778SOL    HW233234   5.885   6.238   3.275
10779SOL     OW33235   5.499   2.399   3.144
10779SOL    HW133236   5.556   2.378   3.065
10779SOL    HW233237   5.540   2.473   3.196
10780SOL     OW33238   0.997   1.407   3.209
10780SOL    HW133239   0.990   1.505   3.227
10780SOL    HW233240   1.064   1.392   3.136
10781SOL     OW33241   3.253   0.276   4.184
10781SOL    HW133242   3.268   0.335   4.105
10781SOL    HW233243   3.326   0.291   4.251
10782SOL     OW33244   6.482   6.170   4.735
10782SOL    HW133245   6.525   6.085   4.766
10782SOL    HW233246   6.539   6.212   4.664
10783SOL     OW33247   6.733   2.148   2.725
10783SOL    HW133248   6.647   2.142   2.675
10783SOL    HW233249   6.716   2.175   2.819
10784SOL     OW33250   2.694   1.137   4.070
10784SOL    HW133251   2.725   1.051   4.028
10784SOL    HW233252   2.694   1.127   4.169
10785SOL     OW33253   0.407   4.080   0.078
10785SOL    HW133254   0.315   4.048   0.058
10785SOL    HW233255   0.455   4.014   0.135
10786SOL     OW33256   0.014   5.549   3.299
10786SOL    HW133257   6.955   5.559   3.349
10786SOL    HW233258   0.023   5.454   3.267
10787SOL     OW33259   2.008   2.217   5.176
10787SOL    HW133260   2.033   2.288   5.242
10787SOL    HW233261   2.070   2.140   5.186
10788SOL     OW33262   6.190   4.077   5.845
10788SOL    HW133263   6.252   4.001   5.863
10788SOL    HW233264   6.153   4.112   5.932
10789SOL     OW33265   6.815   2.091   0.129
10789SOL    HW133266   6.756   2.169   0.109
10789SOL    HW233267   6.769   2.030   0.194
10790SOL     OW33268   6.976   0.126   2.749
10790SOL    HW133269   0.001   0.066   2.687
10790SOL    HW233270   6.891   0.155   2.705
10791SOL     OW33271   6.735   6.260   2.602
10791SOL    HW133272   6.691   6.212   2.526
10791SOL    HW233273   6.830   6.229   2.611
10792SOL     OW33274   3.942   4.038   4.987
10792SOL    HW133275   3.858   4.092   4.986
10792SOL    HW233276   4.016   4.092   4.947
10793SOL     OW33277   5.561   3.274   4.875
10793SOL    HW133278   5.603   3.186   4.853
10793SOL    HW233279   5.571   3.336   4.796
10794SOL     OW33280   3.210   3.516   3.885
10794SOL    HW133281   3.114   3.534   3.905
10794SOL    HW233282   3.236   3.428   3.925
10795SOL     OW33283   1.154   4.274   3.033
10795SOL    HW133284   1.118   4.339   2.967
10795SOL    HW233285   1.246   4.247   3.006
10796SOL     OW33286   1.252   5.722   5.033
10796SOL    HW133287   1.295   5.810   5.054
10796SOL    HW233288   1.254   5.706   4.935
10797SOL     OW33289   3.559   2.849   0.616
10797SOL    HW133290   3.540   2.783   0.688
10797SOL    HW233291   3.654   2.880   0.623
10798SOL     OW33292   0.890   1.525   0.651
10798SOL    HW133293   0.942   1.560   0.728
10798SOL    HW233294   0.794   1.512   0.678
10799SOL     OW33295   4.272   1.378   2.449
10799SOL    HW133296   4.229   1.404   2.536
10799SOL    HW233297   4.211   1.398   2.373
10800SOL     OW33298   1.134   6.738   0.408
10800SOL    HW133299   1.076   6.749   0.488
10800SOL    HW233300   1.229   6.758   0.433
10801SOL     OW33301   1.429   1.101   0.893
10801SOL    HW133302   1.473   1.110   0.804
10801SOL    HW233303   1.499   1.087   0.963
10802SOL     OW33304   6.051   0.034   3.677
10802SOL    HW133305   6.047   0.111   3.613
10802SOL    HW233306   6.147   0.006   3.689
10803SOL     OW33307   2.276   5.074   6.810
10803SOL    HW133308   2.353   5.109   6.863
10803SOL    HW233309   2.311   5.020   6.733
10804SOL     OW33310   6.913   3.348   3.688
10804SOL    HW133311   7.003   3.347   3.645
10804SOL    HW233312   6.924   3.359   3.787
10805SOL     OW33313   6.044   0.966   5.583
10805SOL    HW133314   5.963   0.923   5.544
10805SOL    HW233315   6.123   0.947   5.525
10806SOL     OW33316   1.818   4.839   6.759
10806SOL    HW133317   1.726   4.878   6.764
10806SOL    HW233318   1.856   4.830   6.851
10807SOL     OW33319   2.510   6.331   4.161
10807SOL    HW133320   2.538   6.366   4.071
10807SOL    HW233321   2.590   6.291   4.207
10808SOL     OW33322   0.375   2.457   6.118
10808SOL    HW133323   0.383   2.492   6.025
10808SOL    HW233324   0.450   2.393   6.136
10809SOL     OW33325   2.175   5.782   4.742
10809SOL    HW133326   2.127   5.716   4.799
10809SOL    HW233327   2.168   5.873   4.783
10810SOL     OW33328   0.243   0.227   4.370
10810SOL    HW133329   0.232   0.235   4.469
10810SOL    HW233330   0.153   0.212   4.328
10811SOL     OW33331   4.978   5.220   5.341
10811SOL    HW133332   4.972   5.125   5.373
10811SOL    HW233333   5.074   5.249   5.340
10812SOL     OW33334   6.713   2.762   6.763
10812SOL    HW133335   6.760   2.760   6.852
10812SOL    HW233336   6.620   2.728   6.774
10813SOL     OW33337   0.246   3.839   6.477
10813SOL    HW133338   0.249   3.856   6.576
10813SOL    HW233339   0.174   3.895   6.436
10814SOL     OW33340   2.525   0.670   1.293
10814SOL    HW133341   2.557   0.753   1.339
10814SOL    HW233342   2.436   0.643   1.330
10815SOL     OW33343   4.979   1.180   4.428
10815SOL    HW133344   4.925   1.206   4.348
10815SOL    HW233345   4.929   1.112   4.481
10816SOL     OW33346   3.831   3.247   3.524
10816SOL    HW133347   3.901   3.217   3.459
10816SOL    HW233348   3.755   3.287   3.474
10817SOL     OW33349   2.909   6.825   3.211
10817SOL    HW133350   2.931   6.815   3.308
10817SOL    HW233351   2.970   6.767   3.157
10818SOL     OW33352   4.730   5.222   6.131
10818SOL    HW133353   4.641   5.210   6.174
10818SOL    HW233354   4.797   5.163   6.176
10819SOL     OW33355   6.588   5.647   6.198
10819SOL    HW133356   6.652   5.669   6.124
10819SOL    HW233357   6.539   5.729   6.225
10820SOL     OW33358   2.617   4.497   5.984
10820SOL    HW133359   2.671   4.570   5.943
10820SOL    HW233360   2.677   4.419   6.004
10821SOL     OW33361   4.766   5.217   3.474
10821SOL    HW133362   4.669   5.232   3.455
10821SOL    HW233363   4.821   5.254   3.399
10822SOL     OW33364   5.837   2.594   1.470
10822SOL    HW133365   5.786   2.674   1.502
10822SOL    HW233366   5.776   2.516   1.460
10823SOL     OW33367   6.444   6.568   2.420
10823SOL    HW133368   6.528   6.619   2.399
10823SOL    HW233369   6.451   6.476   2.383
10824SOL     OW33370   0.940   2.160   4.158
10824SOL    HW133371   0.874   2.234   4.141
10824SOL    HW233372   0.895   2.072   4.146
10825SOL     OW33373   1.021   1.595   0.430
10825SOL    HW133374   0.973   1.571   0.515
10825SOL    HW233375   1.020   1.517   0.368
10826SOL     OW33376   0.862   2.642   2.492
10826SOL    HW133377   0.880   2.713   2.560
10826SOL    HW233378   0.933   2.571   2.498
10827SOL     OW33379   6.938   3.329   4.771
10827SOL    HW133380   6.982   3.290   4.852
10827SOL    HW233381   6.980   3.291   4.689
10828SOL     OW33382   6.271   5.128   5.733
10828SOL    HW133383   6.247   5.112   5.637
10828SOL    HW233384   6.194   5.102   5.791
10829SOL     OW33385   4.012   3.638   5.335
10829SOL    HW133386   3.972   3.648   5.427
10829SOL    HW233387   3.964   3.566   5.286
10830SOL     OW33388   4.749   1.114   3.793
10830SOL    HW133389   4.735   1.088   3.889
10830SOL    HW233390   4.670   1.086   3.739
10831SOL     OW33391   3.996   1.333   3.246
10831SOL    HW133392   4.009   1.384   3.331
10831SOL    HW233393   4.084   1.320   3.201
10832SOL     OW33394   0.214   3.527   0.540
10832SOL    HW133395   0.172   3.454   0.486
10832SOL    HW233396   0.312   3.511   0.546
10833SOL     OW33397   0.448   1.278   0.311
10833SOL    HW133398   0.526   1.243   0.258
10833SOL    HW233399   0.365   1.230   0.282
10834SOL     OW33400   7.005   6.653   1.020
10834SOL    HW133401   0.015   6.743   0.996
10834SOL    HW233402   6.936   6.627   0.953
10835SOL     OW33403   0.019   2.712   5.930
10835SOL    HW133404   7.014   2.626   5.969
10835SOL    HW233405   7.003   2.788   5.978
10836SOL     OW33406   0.217   1.723   3.689
10836SOL    HW133407   0.130   1.761   3.657
10836SOL    HW233408   0.278   1.797   3.717
10837SOL     OW33409   0.291   3.847   3.106
10837SOL    HW133410   0.307   3.945   3.099
10837SOL    HW233411   0.347   3.810   3.181
10838SOL     OW33412   6.766   5.624   3.412
10838SOL    HW133413   6.786   5.721   3.402
10838SOL    HW233414   6.667   5.610   3.411
10839SOL     OW33415   4.752   2.958   1.186
10839SOL    HW133416   4.724   2.902   1.108
10839SOL    HW233417   4.852   2.960   1.192
10840SOL     OW33418   3.214   0.910   1.159
10840SOL    HW133419   3.220   0.811   1.172
10840SOL    HW233420   3.306   0.950   1.163
10841SOL     OW33421   1.603   5.332   4.832
10841SOL    HW133422   1.519   5.329   4.777
10841SOL    HW233423   1.584   5.369   4.922
10842SOL     OW33424   5.265   4.193   0.584
10842SOL    HW133425   5.169   4.185   0.559
10842SOL    HW233426   5.303   4.276   0.543
10843SOL     OW33427   2.387   2.504   1.693
10843SOL    HW133428   2.441   2.536   1.771
10843SOL    HW233429   2.433   2.428   1.649
10844SOL     OW33430   1.278   5.430   5.527
10844SOL    HW133431   1.200   5.371   5.506
10844SOL    HW233432   1.300   5.487   5.447
10845SOL     OW33433   4.550   6.465   5.187
10845SOL    HW133434   4.575   6.413   5.106
10845SOL    HW233435   4.540   6.403   5.265
10846SOL     OW33436   5.243   0.806   0.507
10846SOL    HW133437   5.214   0.727   0.561
10846SOL    HW233438   5.299   0.775   0.430
10847SOL     OW33439   1.944   1.032   0.006
10847SOL    HW133440   2.025   1.083   7.002
10847SOL    HW233441   1.872   1.096   0.034
10848SOL     OW33442   1.708   4.430   1.831
10848SOL    HW133443   1.714   4.418   1.731
10848SOL    HW233444   1.793   4.398   1.873
10849SOL     OW33445   2.607   6.204   3.626
10849SOL    HW133446   2.671   6.213   3.703
10849SOL    HW233447   2.575   6.295   3.600
10850SOL     OW33448   3.283   5.669   0.260
10850SOL    HW133449   3.367   5.708   0.222
10850SOL    HW233450   3.305   5.621   0.345
10851SOL     OW33451   2.331   5.039   1.236
10851SOL    HW133452   2.423   5.048   1.273
10851SOL    HW233453   2.269   5.006   1.308
10852SOL     OW33454   1.990   1.797   1.622
10852SOL    HW133455   2.040   1.813   1.537
10852SOL    HW233456   1.997   1.879   1.680
10853SOL     OW33457   2.671   1.943   5.942
10853SOL    HW133458   2.743   1.984   5.999
10853SOL    HW233459   2.642   1.857   5.983
10854SOL     OW33460   4.162   6.299   5.716
10854SOL    HW133461   4.091   6.352   5.762
10854SOL    HW233462   4.169   6.209   5.760
10855SOL     OW33463   3.538   1.550   0.113
10855SOL    HW133464   3.546   1.615   0.038
10855SOL    HW233465   3.605   1.477   0.102
10856SOL     OW33466   0.679   0.672   0.341
10856SOL    HW133467   0.591   0.625   0.344
10856SOL    HW233468   0.665   0.768   0.320
10857SOL     OW33469   6.294   2.499   2.599
10857SOL    HW133470   6.200   2.492   2.633
10857SOL    HW233471   6.357   2.460   2.667
10858SOL     OW33472   2.667   6.032   1.937
10858SOL    HW133473   2.746   6.081   1.974
10858SOL    HW233474   2.584   6.062   1.985
10859SOL     OW33475   1.660   5.435   3.458
10859SOL    HW133476   1.663   5.528   3.494
10859SOL    HW233477   1.640   5.371   3.532
10860SOL     OW33478   7.024   2.468   3.436
10860SOL    HW133479   6.925   2.463   3.449
10860SOL    HW233480   0.023   2.557   3.400
10861SOL     OW33481   3.947   3.191   4.414
10861SOL    HW133482   3.929   3.122   4.485
10861SOL    HW233483   3.939   3.148   4.324
10862SOL     OW33484   1.468   0.596   4.633
10862SOL    HW133485   1.380   0.630   4.667
10862SOL    HW233486   1.469   0.601   4.533
10863SOL     OW33487   2.894   5.843   4.665
10863SOL    HW133488   2.807   5.836   4.714
10863SOL    HW233489   2.970   5.828   4.729
10864SOL     OW33490   3.455   6.073   2.611
10864SOL    HW133491   3.365   6.032   2.623
10864SOL    HW233492   3.526   6.004   2.624
10865SOL     OW33493   6.041   2.241   5.990
10865SOL    HW133494   5.999   2.259   6.078
10865SOL    HW233495   5.991   2.291   5.918
10866SOL     OW33496   5.464   4.836   0.535
10866SOL    HW133497   5.379   4.853   0.586
10866SOL    HW233498   5.442   4.795   0.447
10867SOL     OW33499   3.508   2.739   0.354
10867SOL    HW133500   3.511   2.784   0.444
10867SOL    HW233501   3.555   2.651   0.359
10868SOL     OW33502   3.101   1.859   2.838
10868SOL    HW133503   3.162   1.847   2.760
10868SOL    HW233504   3.007   1.840   2.810
10869NA      NA33505   6.462   2.373   5.810
10870NA      NA33506   4.402   4.690   5.210
10871NA      NA33507   2.204   3.574   1.462
10872NA      NA33508   4.935   3.622   5.183
10873NA      NA33509   4.218   2.397   5.312
10874NA      NA33510   3.685   4.762   1.705
10875NA      NA33511   6.727   5.939   5.343
10876NA      NA33512   3.919   3.804   4.961
10877NA      NA33513   4.428   6.940   7.023
10878NA      NA33514   4.023   6.861   5.275
10879NA      NA33515   6.883   4.821   2.718
10880NA      NA33516   2.624   0.636   3.012
10881NA      NA33517   3.504   4.385   1.020
10882NA      NA33518   3.429   3.594   2.806
   7.02650   7.02650   7.02650
