Generated by trjconv : CNT in water t= 259.00000
33518
    1C        C    1   2.844   2.772   4.748
    1C        C    2   2.900   2.719   4.866
    1C        C    3   2.839   2.769   4.982
    1C        C    4   2.850   2.777   4.259
    1C        C    5   2.901   2.732   4.383
    1C        C    6   2.849   2.777   4.507
    1C        C    7   3.013   2.640   4.624
    1C        C    8   2.898   2.722   4.628
    1C        C    9   3.080   2.606   4.743
    1C        C   10   3.013   2.635   4.864
    1C        C   11   3.180   2.491   4.975
    1C        C   12   3.060   2.564   4.975
    1C        C   13   2.852   2.774   3.771
    1C        C   14   2.901   2.724   3.894
    1C        C   15   2.849   2.776   4.014
    1C        C   16   3.021   2.654   4.139
    1C        C   17   2.902   2.730   4.137
    1C        C   18   3.082   2.618   4.262
    1C        C   19   3.016   2.650   4.382
    1C        C   20   3.207   2.555   4.502
    1C        C   21   3.076   2.606   4.502
    1C        C   22   3.280   2.535   4.621
    1C        C   23   3.209   2.546   4.743
    1C        C   24   3.411   2.482   4.862
    1C        C   25   3.269   2.502   4.864
    1C        C   26   3.491   2.486   4.977
    1C        C   27   2.848   2.768   3.281
    1C        C   28   2.901   2.724   3.404
    1C        C   29   2.851   2.773   3.527
    1C        C   30   3.017   2.641   3.649
    1C        C   31   2.905   2.727   3.649
    1C        C   32   3.076   2.604   3.772
    1C        C   33   3.016   2.642   3.894
    1C        C   34   3.209   2.556   4.018
    1C        C   35   3.078   2.611   4.017
    1C        C   36   3.279   2.533   4.138
    1C        C   37   3.210   2.558   4.259
    1C        C   38   3.414   2.503   4.383
    1C        C   39   3.275   2.529   4.381
    1C        C   40   3.489   2.494   4.503
    1C        C   41   3.417   2.504   4.624
    1C        C   42   3.632   2.482   4.744
    1C        C   43   3.489   2.481   4.744
    1C        C   44   3.704   2.483   4.866
    1C        C   45   3.629   2.474   4.984
    1C        C   46   2.838   2.755   2.794
    1C        C   47   2.893   2.711   2.916
    1C        C   48   2.841   2.761   3.038
    1C        C   49   3.016   2.639   3.159
    1C        C   50   2.898   2.716   3.159
    1C        C   51   3.080   2.612   3.282
    1C        C   52   3.018   2.645   3.405
    1C        C   53   3.209   2.552   3.528
    1C        C   54   3.079   2.607   3.527
    1C        C   55   3.275   2.533   3.651
    1C        C   56   3.207   2.552   3.773
    1C        C   57   3.412   2.497   3.894
    1C        C   58   3.274   2.530   3.896
    1C        C   59   3.484   2.496   4.015
    1C        C   60   3.416   2.500   4.139
    1C        C   61   3.627   2.495   4.256
    1C        C   62   3.486   2.492   4.262
    1C        C   63   3.699   2.504   4.377
    1C        C   64   3.630   2.496   4.500
    1C        C   65   3.835   2.538   4.619
    1C        C   66   3.701   2.493   4.622
    1C        C   67   3.902   2.564   4.741
    1C        C   68   3.837   2.528   4.861
    1C        C   69   4.049   2.588   4.976
    1C        C   70   3.926   2.522   4.970
    1C        C   71   2.826   2.735   2.310
    1C        C   72   2.884   2.693   2.432
    1C        C   73   2.833   2.748   2.552
    1C        C   74   3.008   2.626   2.675
    1C        C   75   2.890   2.704   2.673
    1C        C   76   3.073   2.590   2.795
    1C        C   77   3.011   2.634   2.915
    1C        C   78   3.206   2.548   3.036
    1C        C   79   3.074   2.599   3.037
    1C        C   80   3.274   2.529   3.159
    1C        C   81   3.208   2.554   3.281
    1C        C   82   3.412   2.499   3.402
    1C        C   83   3.273   2.528   3.404
    1C        C   84   3.480   2.493   3.525
    1C        C   85   3.413   2.502   3.649
    1C        C   86   3.623   2.497   3.768
    1C        C   87   3.482   2.491   3.772
    1C        C   88   3.693   2.507   3.890
    1C        C   89   3.625   2.503   4.014
    1C        C   90   3.834   2.546   4.135
    1C        C   91   3.699   2.506   4.135
    1C        C   92   3.903   2.567   4.257
    1C        C   93   3.835   2.541   4.378
    1C        C   94   4.027   2.636   4.497
    1C        C   95   3.904   2.567   4.499
    1C        C   96   4.090   2.668   4.619
    1C        C   97   4.031   2.624   4.739
    1C        C   98   4.187   2.769   4.861
    1C        C   99   4.095   2.659   4.861
    1C        C  100   4.208   2.847   4.976
    1C        C  101   2.822   2.727   2.072
    1C        C  102   2.993   2.593   2.189
    1C        C  103   2.877   2.676   2.191
    1C        C  104   3.064   2.571   2.311
    1C        C  105   3.002   2.615   2.429
    1C        C  106   3.200   2.539   2.551
    1C        C  107   3.069   2.592   2.552
    1C        C  108   3.272   2.521   2.671
    1C        C  109   3.204   2.538   2.793
    1C        C  110   3.412   2.491   2.917
    1C        C  111   3.275   2.524   2.915
    1C        C  112   3.485   2.487   3.038
    1C        C  113   3.412   2.499   3.158
    1C        C  114   3.624   2.494   3.281
    1C        C  115   3.483   2.492   3.280
    1C        C  116   3.691   2.510   3.404
    1C        C  117   3.622   2.495   3.526
    1C        C  118   3.831   2.541   3.647
    1C        C  119   3.696   2.499   3.647
    1C        C  120   3.894   2.570   3.770
    1C        C  121   3.828   2.546   3.892
    1C        C  122   4.026   2.632   4.012
    1C        C  123   3.900   2.569   4.012
    1C        C  124   4.085   2.674   4.134
    1C        C  125   4.028   2.633   4.256
    1C        C  126   4.194   2.769   4.377
    1C        C  127   4.088   2.676   4.376
    1C        C  128   4.239   2.822   4.500
    1C        C  129   4.192   2.766   4.620
    1C        C  130   4.326   2.934   4.739
    1C        C  131   4.242   2.819   4.741
    1C        C  132   4.357   2.999   4.861
    1C        C  133   4.280   2.966   4.974
    1C        C  134   3.177   2.477   2.079
    1C        C  135   3.042   2.514   2.080
    1C        C  136   3.260   2.474   2.192
    1C        C  137   3.195   2.515   2.310
    1C        C  138   3.407   2.483   2.430
    1C        C  139   3.267   2.504   2.431
    1C        C  140   3.482   2.476   2.550
    1C        C  141   3.411   2.493   2.670
    1C        C  142   3.621   2.491   2.792
    1C        C  143   3.480   2.486   2.793
    1C        C  144   3.695   2.500   2.912
    1C        C  145   3.626   2.489   3.035
    1C        C  146   3.830   2.539   3.156
    1C        C  147   3.694   2.501   3.159
    1C        C  148   3.896   2.563   3.279
    1C        C  149   3.828   2.548   3.401
    1C        C  150   4.020   2.632   3.523
    1C        C  151   3.894   2.569   3.524
    1C        C  152   4.078   2.672   3.645
    1C        C  153   4.020   2.634   3.768
    1C        C  154   4.186   2.769   3.888
    1C        C  155   4.081   2.674   3.889
    1C        C  156   4.238   2.818   4.009
    1C        C  157   4.191   2.768   4.132
    1C        C  158   4.333   2.926   4.253
    1C        C  159   4.245   2.816   4.254
    1C        C  160   4.374   2.987   4.374
    1C        C  161   4.328   2.932   4.495
    1C        C  162   4.439   3.113   4.614
    1C        C  163   4.364   2.994   4.617
    1C        C  164   4.466   3.182   4.734
    1C        C  165   4.428   3.120   4.855
    1C        C  166   4.506   3.322   4.970
    1C        C  167   4.472   3.187   4.970
    1C        C  168   3.476   2.437   2.073
    1C        C  169   3.401   2.459   2.189
    1C        C  170   3.618   2.467   2.307
    1C        C  171   3.476   2.466   2.308
    1C        C  172   3.691   2.486   2.427
    1C        C  173   3.623   2.480   2.550
    1C        C  174   3.830   2.535   2.667
    1C        C  175   3.694   2.494   2.671
    1C        C  176   3.898   2.556   2.789
    1C        C  177   3.832   2.533   2.912
    1C        C  178   4.023   2.625   3.032
    1C        C  179   3.897   2.561   3.034
    1C        C  180   4.081   2.663   3.155
    1C        C  181   4.022   2.628   3.278
    1C        C  182   4.194   2.752   3.401
    1C        C  183   4.085   2.662   3.400
    1C        C  184   4.247   2.805   3.521
    1C        C  185   4.191   2.756   3.642
    1C        C  186   4.330   2.919   3.764
    1C        C  187   4.241   2.809   3.764
    1C        C  188   4.373   2.980   3.884
    1C        C  189   4.330   2.925   4.007
    1C        C  190   4.441   3.106   4.126
    1C        C  191   4.369   2.984   4.129
    1C        C  192   4.471   3.172   4.246
    1C        C  193   4.445   3.110   4.370
    1C        C  194   4.504   3.315   4.491
    1C        C  195   4.469   3.178   4.492
    1C        C  196   4.525   3.385   4.611
    1C        C  197   4.515   3.316   4.734
    1C        C  198   4.559   3.534   4.848
    1C        C  199   4.533   3.393   4.852
    1C        C  200   4.581   3.617   4.962
    1C        C  201   3.614   2.417   2.072
    1C        C  202   3.823   2.516   2.183
    1C        C  203   3.689   2.465   2.184
    1C        C  204   3.896   2.543   2.302
    1C        C  205   3.828   2.521   2.424
    1C        C  206   4.024   2.612   2.543
    1C        C  207   3.897   2.550   2.544
    1C        C  208   4.083   2.655   2.663
    1C        C  209   4.023   2.623   2.786
    1C        C  210   4.190   2.752   2.911
    1C        C  211   4.080   2.663   2.909
    1C        C  212   4.242   2.800   3.033
    1C        C  213   4.192   2.751   3.156
    1C        C  214   4.334   2.907   3.273
    1C        C  215   4.244   2.798   3.278
    1C        C  216   4.367   2.975   3.392
    1C        C  217   4.329   2.919   3.516
    1C        C  218   4.432   3.100   3.639
    1C        C  219   4.364   2.977   3.640
    1C        C  220   4.462   3.170   3.759
    1C        C  221   4.435   3.107   3.883
    1C        C  222   4.503   3.309   4.000
    1C        C  223   4.467   3.172   4.004
    1C        C  224   4.515   3.379   4.121
    1C        C  225   4.506   3.309   4.244
    1C        C  226   4.521   3.520   4.366
    1C        C  227   4.519   3.379   4.366
    1C        C  228   4.521   3.596   4.485
    1C        C  229   4.535   3.526   4.607
    1C        C  230   4.505   3.741   4.725
    1C        C  231   4.541   3.603   4.725
    1C        C  232   4.498   3.820   4.842
    1C        C  233   4.546   3.753   4.955
    1C        C  234   4.015   2.604   2.062
    1C        C  235   3.893   2.538   2.063
    1C        C  236   4.084   2.643   2.178
    1C        C  237   4.023   2.606   2.300
    1C        C  238   4.200   2.730   2.424
    1C        C  239   4.087   2.644   2.420
    1C        C  240   4.253   2.784   2.543
    1C        C  241   4.193   2.744   2.665
    1C        C  242   4.331   2.905   2.784
    1C        C  243   4.243   2.795   2.787
    1C        C  244   4.370   2.964   2.906
    1C        C  245   4.333   2.908   3.031
    1C        C  246   4.437   3.095   3.149
    1C        C  247   4.374   2.968   3.152
    1C        C  248   4.461   3.163   3.270
    1C        C  249   4.433   3.100   3.394
    1C        C  250   4.492   3.303   3.509
    1C        C  251   4.457   3.166   3.516
    1C        C  252   4.504   3.373   3.631
    1C        C  253   4.500   3.305   3.755
    1C        C  254   4.520   3.518   3.876
    1C        C  255   4.516   3.376   3.876
    1C        C  256   4.518   3.587   3.999
    1C        C  257   4.522   3.520   4.123
    1C        C  258   4.493   3.731   4.240
    1C        C  259   4.519   3.593   4.245
    1C        C  260   4.469   3.804   4.359
    1C        C  261   4.486   3.733   4.480
    1C        C  262   4.425   3.935   4.601
    1C        C  263   4.476   3.803   4.602
    1C        C  264   4.402   4.007   4.720
    1C        C  265   4.436   3.947   4.843
    1C        C  266   4.323   4.128   4.956
    1C        C  267   4.393   4.008   4.961
    1C        C  268   4.262   2.770   2.064
    1C        C  269   4.194   2.732   2.180
    1C        C  270   4.342   2.885   2.298
    1C        C  271   4.253   2.774   2.301
    1C        C  272   4.379   2.952   2.417
    1C        C  273   4.342   2.894   2.541
    1C        C  274   4.443   3.084   2.660
    1C        C  275   4.376   2.959   2.661
    1C        C  276   4.468   3.150   2.782
    1C        C  277   4.438   3.088   2.905
    1C        C  278   4.501   3.293   3.022
    1C        C  279   4.465   3.157   3.025
    1C        C  280   4.512   3.367   3.142
    1C        C  281   4.498   3.300   3.266
    1C        C  282   4.520   3.512   3.387
    1C        C  283   4.511   3.371   3.387
    1C        C  284   4.517   3.583   3.509
    1C        C  285   4.510   3.514   3.632
    1C        C  286   4.491   3.727   3.751
    1C        C  287   4.510   3.587   3.753
    1C        C  288   4.476   3.793   3.875
    1C        C  289   4.493   3.726   3.998
    1C        C  290   4.431   3.933   4.115
    1C        C  291   4.479   3.800   4.118
    1C        C  292   4.399   4.000   4.236
    1C        C  293   4.428   3.939   4.360
    1C        C  294   4.328   4.127   4.479
    1C        C  295   4.398   4.004   4.481
    1C        C  296   4.280   4.185   4.599
    1C        C  297   4.327   4.128   4.719
    1C        C  298   4.193   4.304   4.839
    1C        C  299   4.283   4.193   4.838
    1C        C  300   4.170   4.396   4.946
    1C        C  301   4.344   2.882   2.064
    1C        C  302   4.472   3.064   2.180
    1C        C  303   4.394   2.944   2.180
    1C        C  304   4.480   3.143   2.298
    1C        C  305   4.448   3.075   2.417
    1C        C  306   4.509   3.281   2.537
    1C        C  307   4.478   3.143   2.537
    1C        C  308   4.514   3.356   2.656
    1C        C  309   4.500   3.288   2.779
    1C        C  310   4.522   3.503   2.897
    1C        C  311   4.516   3.361   2.899
    1C        C  312   4.521   3.577   3.017
    1C        C  313   4.518   3.508   3.140
    1C        C  314   4.489   3.718   3.262
    1C        C  315   4.513   3.579   3.262
    1C        C  316   4.475   3.789   3.384
    1C        C  317   4.493   3.722   3.507
    1C        C  318   4.422   3.925   3.628
    1C        C  319   4.473   3.793   3.628
    1C        C  320   4.391   3.988   3.750
    1C        C  321   4.421   3.924   3.872
    1C        C  322   4.316   4.110   3.991
    1C        C  323   4.397   3.994   3.992
    1C        C  324   4.276   4.171   4.112
    1C        C  325   4.324   4.119   4.235
    1C        C  326   4.178   4.275   4.354
    1C        C  327   4.282   4.179   4.356
    1C        C  328   4.127   4.329   4.474
    1C        C  329   4.183   4.288   4.597
    1C        C  330   4.026   4.437   4.713
    1C        C  331   4.136   4.347   4.716
    1C        C  332   3.969   4.489   4.831
    1C        C  333   4.056   4.477   4.941
    1C        C  334   4.555   3.268   2.063
    1C        C  335   4.528   3.131   2.067
    1C        C  336   4.537   3.351   2.175
    1C        C  337   4.515   3.281   2.295
    1C        C  338   4.519   3.495   2.412
    1C        C  339   4.516   3.354   2.416
    1C        C  340   4.519   3.569   2.533
    1C        C  341   4.524   3.497   2.655
    1C        C  342   4.496   3.711   2.772
    1C        C  343   4.520   3.572   2.774
    1C        C  344   4.476   3.784   2.892
    1C        C  345   4.497   3.717   3.014
    1C        C  346   4.429   3.915   3.137
    1C        C  347   4.476   3.782   3.137
    1C        C  348   4.391   3.979   3.257
    1C        C  349   4.423   3.920   3.382
    1C        C  350   4.319   4.107   3.502
    1C        C  351   4.393   3.986   3.504
    1C        C  352   4.271   4.163   3.622
    1C        C  353   4.315   4.107   3.744
    1C        C  354   4.173   4.263   3.866
    1C        C  355   4.271   4.161   3.867
    1C        C  356   4.119   4.310   3.988
    1C        C  357   4.174   4.269   4.111
    1C        C  358   4.015   4.410   4.229
    1C        C  359   4.123   4.320   4.232
    1C        C  360   3.957   4.455   4.350
    1C        C  361   4.013   4.413   4.473
    1C        C  362   3.825   4.516   4.591
    1C        C  363   3.950   4.451   4.594
    1C        C  364   3.760   4.548   4.712
    1C        C  365   3.837   4.538   4.830
    1C        C  366   3.629   4.595   4.948
    1C        C  367   3.767   4.576   4.946
    1C        C  368   4.513   3.563   2.050
    1C        C  369   4.522   3.491   2.171
    1C        C  370   4.497   3.706   2.287
    1C        C  371   4.515   3.566   2.290
    1C        C  372   4.482   3.779   2.407
    1C        C  373   4.500   3.708   2.528
    1C        C  374   4.428   3.910   2.647
    1C        C  375   4.476   3.777   2.649
    1C        C  376   4.398   3.977   2.768
    1C        C  377   4.425   3.916   2.892
    1C        C  378   4.320   4.096   3.012
    1C        C  379   4.403   3.981   3.015
    1C        C  380   4.270   4.151   3.132
    1C        C  381   4.313   4.097   3.255
    1C        C  382   4.175   4.256   3.376
    1C        C  383   4.276   4.156   3.377
    1C        C  384   4.120   4.304   3.496
    1C        C  385   4.173   4.264   3.621
    1C        C  386   4.004   4.390   3.743
    1C        C  387   4.123   4.314   3.744
    1C        C  388   3.942   4.428   3.864
    1C        C  389   4.003   4.390   3.986
    1C        C  390   3.816   4.489   4.109
    1C        C  391   3.945   4.431   4.108
    1C        C  392   3.752   4.518   4.231
    1C        C  393   3.826   4.508   4.351
    1C        C  394   3.615   4.552   4.473
    1C        C  395   3.755   4.535   4.470
    1C        C  396   3.543   4.564   4.594
    1C        C  397   3.620   4.567   4.713
    1C        C  398   3.410   4.559   4.838
    1C        C  399   3.549   4.581   4.834
    1C        C  400   3.346   4.511   4.953
    1C        C  401   4.502   3.701   2.053
    1C        C  402   4.457   3.918   2.169
    1C        C  403   4.490   3.781   2.167
    1C        C  404   4.412   3.982   2.287
    1C        C  405   4.432   3.911   2.407
    1C        C  406   4.329   4.102   2.524
    1C        C  407   4.397   3.978   2.527
    1C        C  408   4.279   4.152   2.646
    1C        C  409   4.316   4.092   2.768
    1C        C  410   4.177   4.254   2.886
    1C        C  411   4.275   4.152   2.890
    1C        C  412   4.125   4.302   3.009
    1C        C  413   4.173   4.253   3.133
    1C        C  414   4.003   4.381   3.254
    1C        C  415   4.119   4.302   3.254
    1C        C  416   3.940   4.416   3.376
    1C        C  417   4.003   4.384   3.499
    1C        C  418   3.810   4.472   3.621
    1C        C  419   3.942   4.423   3.620
    1C        C  420   3.744   4.495   3.744
    1C        C  421   3.812   4.485   3.867
    1C        C  422   3.608   4.540   3.985
    1C        C  423   3.747   4.516   3.988
    1C        C  424   3.539   4.538   4.109
    1C        C  425   3.612   4.537   4.230
    1C        C  426   3.401   4.555   4.353
    1C        C  427   3.542   4.555   4.352
    1C        C  428   3.332   4.547   4.476
    1C        C  429   3.402   4.558   4.598
    1C        C  430   3.193   4.519   4.722
    1C        C  431   3.332   4.550   4.720
    1C        C  432   3.128   4.489   4.845
    1C        C  433   3.209   4.491   4.960
    1C        C  434   4.384   4.124   2.051
    1C        C  435   4.453   4.002   2.057
    1C        C  436   4.298   4.160   2.159
    1C        C  437   4.336   4.102   2.283
    1C        C  438   4.182   4.254   2.400
    1C        C  439   4.284   4.157   2.402
    1C        C  440   4.130   4.307   2.521
    1C        C  441   4.181   4.254   2.642
    1C        C  442   4.006   4.376   2.764
    1C        C  443   4.125   4.300   2.763
    1C        C  444   3.943   4.409   2.885
    1C        C  445   4.006   4.377   3.008
    1C        C  446   3.813   4.465   3.129
    1C        C  447   3.945   4.415   3.129
    1C        C  448   3.747   4.486   3.253
    1C        C  449   3.812   4.475   3.378
    1C        C  450   3.606   4.530   3.496
    1C        C  451   3.743   4.498   3.499
    1C        C  452   3.537   4.538   3.619
    1C        C  453   3.607   4.532   3.741
    1C        C  454   3.396   4.548   3.864
    1C        C  455   3.538   4.549   3.863
    1C        C  456   3.329   4.543   3.988
    1C        C  457   3.398   4.552   4.111
    1C        C  458   3.193   4.507   4.237
    1C        C  459   3.327   4.549   4.233
    1C        C  460   3.130   4.477   4.360
    1C        C  461   3.195   4.511   4.481
    1C        C  462   2.995   4.434   4.603
    1C        C  463   3.124   4.492   4.602
    1C        C  464   2.931   4.405   4.725
    1C        C  465   2.992   4.445   4.847
    1C        C  466   2.802   4.335   4.960
    1C        C  467   2.905   4.430   4.960
    1C        C  468   4.126   4.293   2.038
    1C        C  469   4.185   4.248   2.157
    1C        C  470   4.005   4.371   2.278
    1C        C  471   4.123   4.292   2.277
    1C        C  472   3.940   4.403   2.399
    1C        C  473   4.010   4.380   2.520
    1C        C  474   3.816   4.469   2.646
    1C        C  475   3.945   4.411   2.641
    1C        C  476   3.745   4.493   2.765
    1C        C  477   3.814   4.468   2.886
    1C        C  478   3.608   4.520   3.009
    1C        C  479   3.746   4.491   3.008
    1C        C  480   3.537   4.528   3.131
    1C        C  481   3.609   4.517   3.252
    1C        C  482   3.395   4.533   3.377
    1C        C  483   3.537   4.532   3.372
    1C        C  484   3.326   4.531   3.500
    1C        C  485   3.396   4.541   3.622
    1C        C  486   3.186   4.506   3.745
    1C        C  487   3.324   4.535   3.743
    1C        C  488   3.123   4.483   3.870
    1C        C  489   3.193   4.506   3.990
    1C        C  490   3.002   4.421   4.116
    1C        C  491   3.127   4.487   4.114
    1C        C  492   2.937   4.388   4.237
    1C        C  493   3.000   4.423   4.358
    1C        C  494   2.832   4.298   4.484
    1C        C  495   2.939   4.391   4.482
    1C        C  496   2.779   4.253   4.607
    1C        C  497   2.824   4.311   4.728
    1C        C  498   2.669   4.159   4.846
    1C        C  499   2.757   4.269   4.845
    1C        C  500   2.598   4.112   4.957
    1C        C  501   4.000   4.353   2.037
    1C        C  502   3.815   4.461   2.155
    1C        C  503   3.944   4.405   2.155
    1C        C  504   3.743   4.480   2.276
    1C        C  505   3.810   4.457   2.398
    1C        C  506   3.608   4.507   2.523
    1C        C  507   3.747   4.479   2.523
    1C        C  508   3.533   4.508   2.643
    1C        C  509   3.605   4.511   2.764
    1C        C  510   3.395   4.526   2.885
    1C        C  511   3.536   4.524   2.887
    1C        C  512   3.324   4.524   3.007
    1C        C  513   3.396   4.532   3.129
    1C        C  514   3.191   4.493   3.255
    1C        C  515   3.328   4.527   3.252
    1C        C  516   3.123   4.473   3.378
    1C        C  517   3.187   4.503   3.500
    1C        C  518   2.997   4.412   3.627
    1C        C  519   3.120   4.481   3.623
    1C        C  520   2.941   4.372   3.750
    1C        C  521   3.000   4.413   3.872
    1C        C  522   2.839   4.281   3.995
    1C        C  523   2.942   4.377   3.996
    1C        C  524   2.794   4.232   4.120
    1C        C  525   2.834   4.291   4.242
    1C        C  526   2.698   4.130   4.366
    1C        C  527   2.780   4.245   4.364
    1C        C  528   2.658   4.075   4.490
    1C        C  529   2.694   4.140   4.609
    1C        C  530   2.582   3.956   4.729
    1C        C  531   2.644   4.084   4.729
    1C        C  532   2.537   3.898   4.851
    1C        C  533   2.527   3.991   4.959
    1C        C  534   3.617   4.557   2.040
    1C        C  535   3.751   4.516   2.043
    1C        C  536   3.537   4.532   2.156
    1C        C  537   3.604   4.507   2.279
    1C        C  538   3.395   4.516   2.399
    1C        C  539   3.536   4.517   2.402
    1C        C  540   3.321   4.509   2.519
    1C        C  541   3.392   4.508   2.642
    1C        C  542   3.185   4.482   2.765
    1C        C  543   3.323   4.512   2.765
    1C        C  544   3.121   4.462   2.889
    1C        C  545   3.188   4.484   3.011
    1C        C  546   3.001   4.395   3.138
    1C        C  547   3.123   4.466   3.135
    1C        C  548   2.941   4.362   3.262
    1C        C  549   2.997   4.409   3.383
    1C        C  550   2.833   4.277   3.505
    1C        C  551   2.936   4.374   3.505
    1C        C  552   2.784   4.229   3.629
    1C        C  553   2.833   4.280   3.751
    1C        C  554   2.703   4.116   3.876
    1C        C  555   2.788   4.229   3.874
    1C        C  556   2.663   4.061   4.000
    1C        C  557   2.705   4.122   4.120
    1C        C  558   2.598   3.943   4.245
    1C        C  559   2.664   4.068   4.244
    1C        C  560   2.569   3.881   4.369
    1C        C  561   2.598   3.947   4.490
    1C        C  562   2.518   3.749   4.614
    1C        C  563   2.555   3.885   4.610
    1C        C  564   2.507   3.681   4.737
    1C        C  565   2.508   3.758   4.857
    1C        C  566   2.533   3.546   4.978
    1C        C  567   2.514   3.683   4.975
    1C        C  568   3.326   4.478   2.043
    1C        C  569   3.395   4.521   2.157
    1C        C  570   3.184   4.469   2.280
    1C        C  571   3.323   4.502   2.278
    1C        C  572   3.114   4.453   2.401
    1C        C  573   3.182   4.481   2.522
    1C        C  574   2.987   4.401   2.650
    1C        C  575   3.114   4.463   2.644
    1C        C  576   2.930   4.361   2.772
    1C        C  577   2.994   4.399   2.892
    1C        C  578   2.829   4.270   3.015
    1C        C  579   2.939   4.359   3.016
    1C        C  580   2.779   4.223   3.139
    1C        C  581   2.832   4.272   3.260
    1C        C  582   2.699   4.111   3.384
    1C        C  583   2.787   4.222   3.384
    1C        C  584   2.660   4.056   3.508
    1C        C  585   2.698   4.117   3.630
    1C        C  586   2.595   3.934   3.756
    1C        C  587   2.666   4.056   3.753
    1C        C  588   2.569   3.871   3.880
    1C        C  589   2.599   3.935   4.003
    1C        C  590   2.535   3.736   4.127
    1C        C  591   2.568   3.874   4.126
    1C        C  592   2.526   3.671   4.252
    1C        C  593   2.531   3.745   4.372
    1C        C  594   2.507   3.534   4.497
    1C        C  595   2.513   3.675   4.493
    1C        C  596   2.514   3.464   4.620
    1C        C  597   2.511   3.539   4.740
    1C        C  598   2.533   3.327   4.863
    1C        C  599   2.524   3.468   4.861
    1C        C  600   2.531   3.248   4.979
    1C        C  601   3.194   4.440   2.042
    1C        C  602   2.982   4.390   2.160
    1C        C  603   3.116   4.440   2.159
    1C        C  604   2.923   4.356   2.285
    1C        C  605   2.985   4.396   2.405
    1C        C  606   2.822   4.266   2.530
    1C        C  607   2.926   4.362   2.529
    1C        C  608   2.773   4.215   2.652
    1C        C  609   2.820   4.272   2.772
    1C        C  610   2.690   4.107   2.896
    1C        C  611   2.773   4.221   2.895
    1C        C  612   2.657   4.048   3.020
    1C        C  613   2.691   4.112   3.141
    1C        C  614   2.594   3.924   3.266
    1C        C  615   2.653   4.052   3.264
    1C        C  616   2.565   3.865   3.391
    1C        C  617   2.599   3.928   3.512
    1C        C  618   2.534   3.728   3.640
    1C        C  619   2.571   3.865   3.635
    1C        C  620   2.521   3.662   3.764
    1C        C  621   2.535   3.734   3.884
    1C        C  622   2.507   3.524   4.010
    1C        C  623   2.522   3.664   4.006
    1C        C  624   2.509   3.456   4.134
    1C        C  625   2.516   3.530   4.255
    1C        C  626   2.532   3.319   4.379
    1C        C  627   2.516   3.460   4.377
    1C        C  628   2.549   3.252   4.501
    1C        C  629   2.536   3.325   4.622
    1C        C  630   2.597   3.120   4.745
    1C        C  631   2.550   3.255   4.743
    1C        C  632   2.621   3.051   4.866
    1C        C  633   2.565   3.112   4.983
    1C        C  634   2.773   4.306   2.057
    1C        C  635   2.888   4.386   2.052
    1C        C  636   2.745   4.229   2.170
    1C        C  637   2.808   4.272   2.289
    1C        C  638   2.671   4.109   2.410
    1C        C  639   2.763   4.217   2.411
    1C        C  640   2.635   4.048   2.532
    1C        C  641   2.682   4.106   2.651
    1C        C  642   2.586   3.921   2.776
    1C        C  643   2.647   4.048   2.775
    1C        C  644   2.564   3.855   2.899
    1C        C  645   2.590   3.923   3.020
    1C        C  646   2.521   3.725   3.147
    1C        C  647   2.563   3.860   3.144
    1C        C  648   2.513   3.658   3.271
    1C        C  649   2.530   3.728   3.393
    1C        C  650   2.511   3.520   3.517
    1C        C  651   2.518   3.661   3.517
    1C        C  652   2.512   3.451   3.641
    1C        C  653   2.512   3.521   3.764
    1C        C  654   2.528   3.313   3.885
    1C        C  655   2.514   3.454   3.888
    1C        C  656   2.552   3.251   4.010
    1C        C  657   2.529   3.316   4.133
    1C        C  658   2.607   3.123   4.260
    1C        C  659   2.545   3.250   4.256
    1C        C  660   2.636   3.059   4.383
    1C        C  661   2.600   3.120   4.505
    1C        C  662   2.712   2.937   4.625
    1C        C  663   2.633   3.054   4.625
    1C        C  664   2.749   2.879   4.748
    1C        C  665   2.698   2.930   4.870
    1C        C  666   2.747   2.874   4.988
    1C        C  667   2.683   4.021   2.058
    1C        C  668   2.681   4.103   2.171
    1C        C  669   2.584   3.910   2.291
    1C        C  670   2.639   4.041   2.291
    1C        C  671   2.556   3.846   2.414
    1C        C  672   2.582   3.917   2.533
    1C        C  673   2.518   3.716   2.659
    1C        C  674   2.557   3.852   2.656
    1C        C  675   2.513   3.646   2.781
    1C        C  676   2.528   3.718   2.902
    1C        C  677   2.497   3.512   3.029
    1C        C  678   2.511   3.653   3.026
    1C        C  679   2.503   3.444   3.152
    1C        C  680   2.508   3.517   3.273
    1C        C  681   2.527   3.307   3.399
    1C        C  682   2.508   3.447   3.396
    1C        C  683   2.548   3.241   3.522
    1C        C  684   2.534   3.312   3.644
    1C        C  685   2.601   3.110   3.770
    1C        C  686   2.547   3.241   3.765
    1C        C  687   2.638   3.054   3.895
    1C        C  688   2.609   3.122   4.015
    1C        C  689   2.709   2.937   4.139
    1C        C  690   2.635   3.057   4.138
    1C        C  691   2.756   2.883   4.260
    1C        C  692   2.713   2.941   4.382
    1C        C  693   2.751   2.878   4.502
    1C        C  694   2.631   3.891   2.061
    1C        C  695   2.519   3.701   2.176
    1C        C  696   2.575   3.831   2.174
    1C        C  697   2.504   3.633   2.298
    1C        C  698   2.519   3.710   2.416
    1C        C  699   2.484   3.503   2.543
    1C        C  700   2.498   3.644   2.539
    1C        C  701   2.498   3.434   2.665
    1C        C  702   2.500   3.505   2.787
    1C        C  703   2.513   3.295   2.909
    1C        C  704   2.497   3.436   2.910
    1C        C  705   2.537   3.232   3.033
    1C        C  706   2.529   3.305   3.154
    1C        C  707   2.598   3.107   3.278
    1C        C  708   2.546   3.238   3.277
    1C        C  709   2.630   3.047   3.401
    1C        C  710   2.600   3.110   3.524
    1C        C  711   2.710   2.931   3.649
    1C        C  712   2.629   3.046   3.648
    1C        C  713   2.754   2.877   3.772
    1C        C  714   2.713   2.934   3.894
    1C        C  715   2.751   2.878   4.018
    1C        C  716   2.446   3.498   2.063
    1C        C  717   2.489   3.631   2.058
    1C        C  718   2.461   3.419   2.182
    1C        C  719   2.479   3.493   2.302
    1C        C  720   2.514   3.288   2.422
    1C        C  721   2.478   3.425   2.426
    1C        C  722   2.538   3.223   2.545
    1C        C  723   2.520   3.294   2.666
    1C        C  724   2.587   3.095   2.791
    1C        C  725   2.529   3.224   2.788
    1C        C  726   2.613   3.032   2.915
    1C        C  727   2.576   3.096   3.035
    1C        C  728   2.705   2.925   3.160
    1C        C  729   2.622   3.039   3.156
    1C        C  730   2.752   2.872   3.282
    1C        C  731   2.711   2.930   3.404
    1C        C  732   2.757   2.878   3.526
    1C        C  733   2.487   3.194   2.068
    1C        C  734   2.486   3.278   2.180
    1C        C  735   2.587   3.087   2.304
    1C        C  736   2.525   3.215   2.301
    1C        C  737   2.622   3.027   2.427
    1C        C  738   2.595   3.094   2.548
    1C        C  739   2.702   2.912   2.671
    1C        C  740   2.624   3.030   2.671
    1C        C  741   2.747   2.863   2.796
    1C        C  742   2.696   2.917   2.916
    1C        C  743   2.747   2.867   3.038
    1C        C  744   2.542   3.067   2.073
    1C        C  745   2.684   2.895   2.185
    1C        C  746   2.609   3.014   2.185
    1C        C  747   2.731   2.841   2.307
    1C        C  748   2.689   2.903   2.427
    1C        C  749   2.735   2.849   2.549
    1C        C  750   2.733   2.834   2.069
    1C        C  751   3.647   2.297   1.991
    1C        O  752   3.713   2.199   2.034
    1C        O  753   3.650   2.310   1.851
    1C        C  754   4.602   3.065   1.956
    1C        O  755   4.560   3.060   1.837
    1C        O  756   4.715   2.986   1.980
    1C        C  757   4.477   4.222   1.991
    1C        O  758   4.563   4.288   2.056
    1C        O  759   4.481   4.240   1.852
    1C        C  760   3.586   4.653   1.932
    1C        O  761   3.600   4.778   1.944
    1C        O  762   3.512   4.616   1.819
    1C        C  763   2.900   4.464   1.927
    1C        O  764   2.928   4.411   1.816
    1C        O  765   2.833   4.586   1.912
    1C        C  766   2.329   3.481   1.974
    1C        O  767   2.332   3.484   1.848
    1C        O  768   2.205   3.448   2.030
    1C        C  769   4.649   3.574   5.086
    1C        O  770   4.582   3.567   5.193
    1C        O  771   4.785   3.589   5.114
    1C        C  772   4.267   4.429   5.053
    1C        O  773   4.259   4.396   5.174
    1C        O  774   4.375   4.514   5.030
    1C        C  775   4.151   2.503   5.043
    1C        O  776   4.226   2.411   5.003
    1C        O  777   4.131   2.467   5.177
    1C        C  778   2.869   4.540   5.052
    1C        O  779   2.781   4.625   5.022
    1C        O  780   2.884   4.524   5.190
    1C        C  781   2.475   3.033   5.069
    1C        O  782   2.361   3.007   5.023
    1C        O  783   2.478   3.043   5.208
    1C        C  784   2.398   4.008   5.030
    1C        O  785   2.292   4.054   4.980
    1C        O  786   2.404   4.031   5.168
    1C        C  787   2.950   2.433   1.997
    1C        O  788   2.975   2.416   1.875
    1C        O  789   2.907   2.311   2.047
    1C        C  790   3.171   2.366   5.053
    1C        O  791   3.190   2.257   4.993
    1C        O  792   3.211   2.360   5.187
    1C        H  793   4.226   3.048   5.019
    1C        H  794   4.142   2.834   5.059
    1C        H  795   4.479   3.127   5.058
    1C        H  796   4.557   3.349   5.060
    1C        H  797   4.580   3.810   5.039
    1C        H  798   4.459   4.011   5.045
    1C        H  799   4.285   4.171   5.046
    1C        H  800   4.024   4.519   5.034
    1C        H  801   3.823   4.590   5.036
    1C        H  802   3.594   4.665   5.021
    1C        H  803   3.405   4.465   5.029
    1C        H  804   3.162   4.531   5.047
    1C        H  805   3.907   2.439   5.034
    1C        H  806   3.676   2.445   5.076
    1C        H  807   2.994   2.543   5.057
    1C        H  808   3.446   2.510   5.071
    1C        H  809   2.836   2.705   5.068
    1C        H  810   2.669   2.860   5.060
    1C        H  811   2.471   3.282   5.061
    1C        H  812   2.619   3.515   5.032
    1C        H  813   2.523   3.736   5.067
    1C        H  814   2.567   4.187   5.028
    1C        H  815   2.744   4.330   5.049
    1C        H  816   2.725   2.887   1.976
    1C        H  817   2.834   2.671   1.982
    1C        H  818   3.214   2.429   1.992
    1C        H  819   3.431   2.459   1.978
    1C        H  820   3.859   2.493   1.972
    1C        H  821   4.047   2.642   1.967
    1C        H  822   4.272   2.693   1.990
    1C        H  823   4.372   2.925   1.970
    1C        H  824   4.586   3.313   1.971
    1C        H  825   4.446   3.514   1.982
    1C        H  826   4.486   3.747   1.957
    1C        H  827   3.802   4.506   1.950
    1C        H  828   3.938   4.321   1.956
    1C        H  829   4.185   4.303   1.949
    1C        H  830   4.491   3.966   1.964
    1C        H  831   2.599   3.852   1.966
    1C        H  832   2.695   4.061   1.959
    1C        H  833   2.682   4.346   2.018
    1C        H  834   3.378   4.489   1.950
    1C        H  835   3.163   4.380   1.959
    1C        H  836   2.577   3.033   1.978
    1C        H  837   2.489   3.241   1.972
    1C        H  838   2.465   3.689   1.971
    2V3OU   H29  839   2.805   3.547   2.513
    2V3OU   C27  840   2.789   3.502   2.615
    2V3OU   H27  841   2.730   3.571   2.680
    2V3OU   H28  842   2.745   3.400   2.605
    2V3OU   O11  843   2.911   3.480   2.686
    2V3OU   C15  844   2.924   3.398   2.796
    2V3OU   C13  845   3.050   3.376   2.856
    2V3OU   C14  846   3.078   3.269   2.941
    2V3OU   C16  847   2.976   3.182   2.980
    2V3OU    H6  848   2.991   3.104   3.056
    2V3OU   C12  849   3.214   3.234   2.989
    2V3OU    O2  850   3.235   3.129   3.052
    2V3OU   C10  851   3.328   3.316   2.943
    2V3OU    C8  852   3.458   3.273   2.966
    2V3OU   O10  853   3.484   3.155   3.027
    2V3OU   H26  854   3.397   3.116   3.048
    2V3OU    C6  855   3.567   3.350   2.913
    2V3OU    C5  856   3.540   3.463   2.836
    2V3OU    C4  857   3.705   3.294   2.918
    2V3OU    H4  858   3.724   3.229   3.008
    2V3OU    H5  859   3.708   3.223   2.831
    2V3OU    C2  860   3.814   3.400   2.910
    2V3OU    O6  861   3.812   3.474   3.032
    2V3OU   H21  862   3.766   3.556   3.006
    2V3OU    C3  863   3.784   3.493   2.792
    2V3OU    H2  864   3.857   3.578   2.790
    2V3OU    H3  865   3.787   3.434   2.696
    2V3OU   C25  866   3.948   3.328   2.894
    2V3OU    O7  867   3.996   3.298   2.785
    2V3OU   C26  868   4.031   3.290   3.016
    2V3OU   H22  869   4.062   3.385   3.066
    2V3OU   H23  870   4.121   3.231   2.984
    2V3OU    O8  871   3.966   3.212   3.113
    2V3OU   H24  872   3.923   3.265   3.183
    2V3OU    C1  873   3.649   3.561   2.807
    2V3OU    H1  874   3.629   3.625   2.715
    2V3OU    O3  875   3.660   3.659   2.910
    2V3OU   C19  876   3.618   3.796   2.904
    2V3OU    H9  877   3.521   3.799   2.845
    2V3OU    O4  878   3.718   3.852   2.822
    2V3OU   C20  879   3.847   3.874   2.878
    2V3OU   H10  880   3.900   3.778   2.905
    2V3OU   C24  881   3.612   3.853   3.045
    2V3OU   H16  882   3.542   3.790   3.105
    2V3OU   H17  883   3.572   3.958   3.038
    2V3OU   C23  884   3.752   3.873   3.105
    2V3OU   H15  885   3.793   3.768   3.120
    2V3OU    N1  886   3.736   3.952   3.225
    2V3OU   H19  887   3.808   3.918   3.286
    2V3OU   H20  888   3.642   3.934   3.254
    2V3OU   C21  889   3.850   3.949   3.011
    2V3OU   H11  890   3.954   3.929   3.049
    2V3OU    O5  891   3.826   4.089   3.022
    2V3OU   H18  892   3.783   4.102   3.108
    2V3OU   C22  893   3.914   3.949   2.764
    2V3OU   H12  894   3.867   4.050   2.750
    2V3OU   H13  895   3.908   3.889   2.669
    2V3OU   H14  896   4.023   3.961   2.786
    2V3OU   C11  897   3.161   3.471   2.841
    2V3OU    O1  898   3.128   3.586   2.805
    2V3OU    C9  899   3.302   3.431   2.865
    2V3OU    C7  900   3.406   3.506   2.810
    2V3OU    O9  901   3.389   3.608   2.719
    2V3OU   H25  902   3.296   3.629   2.740
    2V3OU   C17  903   2.824   3.316   2.853
    2V3OU    H7  904   2.726   3.348   2.817
    2V3OU   C18  905   2.846   3.210   2.941
    2V3OU    H8  906   2.779   3.168   3.018
    3SOL     OW  907   2.258   5.429   0.196
    3SOL    HW1  908   2.337   5.418   0.256
    3SOL    HW2  909   2.286   5.476   0.112
    4SOL     OW  910   6.629   0.454   2.350
    4SOL    HW1  911   6.616   0.404   2.264
    4SOL    HW2  912   6.569   0.415   2.420
    5SOL     OW  913   4.420   1.660   2.656
    5SOL    HW1  914   4.475   1.689   2.578
    5SOL    HW2  915   4.356   1.732   2.681
    6SOL     OW  916   3.906   0.934   1.810
    6SOL    HW1  917   3.834   0.911   1.744
    6SOL    HW2  918   3.953   0.850   1.838
    7SOL     OW  919   0.175   4.233   3.024
    7SOL    HW1  920   0.118   4.310   2.996
    7SOL    HW2  921   0.142   4.196   3.111
    8SOL     OW  922   3.336   1.037   6.223
    8SOL    HW1  923   3.271   0.973   6.181
    8SOL    HW2  924   3.331   1.028   6.323
    9SOL     OW  925   4.690   0.865   5.644
    9SOL    HW1  926   4.760   0.890   5.710
    9SOL    HW2  927   4.732   0.856   5.553
   10SOL     OW  928   1.847   4.778   5.259
   10SOL    HW1  929   1.938   4.741   5.242
   10SOL    HW2  930   1.853   4.851   5.328
   11SOL     OW  931   2.969   0.681   5.764
   11SOL    HW1  932   2.902   0.607   5.778
   11SOL    HW2  933   2.947   0.729   5.679
   12SOL     OW  934   3.253   5.674   3.684
   12SOL    HW1  935   3.209   5.735   3.619
   12SOL    HW2  936   3.184   5.620   3.733
   13SOL     OW  937   4.033   6.297   3.544
   13SOL    HW1  938   4.119   6.247   3.539
   13SOL    HW2  939   3.958   6.234   3.564
   14SOL     OW  940   3.932   5.387   6.338
   14SOL    HW1  941   3.978   5.459   6.390
   14SOL    HW2  942   3.965   5.298   6.367
   15SOL     OW  943   0.947   6.550   1.897
   15SOL    HW1  944   0.976   6.543   1.801
   15SOL    HW2  945   0.852   6.522   1.905
   16SOL     OW  946   5.695   2.394   5.993
   16SOL    HW1  947   5.738   2.366   6.079
   16SOL    HW2  948   5.749   2.467   5.951
   17SOL     OW  949   5.667   6.135   6.858
   17SOL    HW1  950   5.598   6.075   6.816
   17SOL    HW2  951   5.751   6.083   6.873
   18SOL     OW  952   3.181   0.980   5.517
   18SOL    HW1  953   3.237   1.053   5.478
   18SOL    HW2  954   3.211   0.961   5.610
   19SOL     OW  955   0.054   1.180   3.035
   19SOL    HW1  956   0.112   1.181   3.117
   19SOL    HW2  957   0.092   1.117   2.968
   20SOL     OW  958   5.174   1.676   4.202
   20SOL    HW1  959   5.142   1.761   4.244
   20SOL    HW2  960   5.266   1.656   4.235
   21SOL     OW  961   3.149   1.265   2.420
   21SOL    HW1  962   3.155   1.319   2.336
   21SOL    HW2  963   3.111   1.322   2.493
   22SOL     OW  964   1.220   6.496   0.082
   22SOL    HW1  965   1.193   6.531   0.172
   22SOL    HW2  966   1.138   6.475   0.029
   23SOL     OW  967   5.923   5.486   2.475
   23SOL    HW1  968   5.857   5.435   2.530
   23SOL    HW2  969   5.950   5.433   2.395
   24SOL     OW  970   3.516   0.445   3.330
   24SOL    HW1  971   3.539   0.381   3.403
   24SOL    HW2  972   3.428   0.489   3.350
   25SOL     OW  973   3.688   0.402   4.417
   25SOL    HW1  974   3.692   0.374   4.513
   25SOL    HW2  975   3.728   0.331   4.359
   26SOL     OW  976   6.585   0.629   0.539
   26SOL    HW1  977   6.631   0.558   0.592
   26SOL    HW2  978   6.570   0.596   0.446
   27SOL     OW  979   1.957   1.825   2.901
   27SOL    HW1  980   2.021   1.872   2.962
   27SOL    HW2  981   2.008   1.772   2.833
   28SOL     OW  982   2.527   1.018   5.860
   28SOL    HW1  983   2.560   0.968   5.940
   28SOL    HW2  984   2.507   0.954   5.786
   29SOL     OW  985   6.174   2.052   2.096
   29SOL    HW1  986   6.112   2.112   2.045
   29SOL    HW2  987   6.121   1.996   2.160
   30SOL     OW  988   3.828   1.126   3.699
   30SOL    HW1  989   3.756   1.097   3.762
   30SOL    HW2  990   3.786   1.160   3.615
   31SOL     OW  991   0.657   2.444   6.446
   31SOL    HW1  992   0.623   2.536   6.426
   31SOL    HW2  993   0.652   2.427   6.544
   32SOL     OW  994   6.941   1.797   3.122
   32SOL    HW1  995   6.890   1.879   3.150
   32SOL    HW2  996   6.977   1.810   3.030
   33SOL     OW  997   1.247   4.815   5.336
   33SOL    HW1  998   1.183   4.800   5.260
   33SOL    HW2  999   1.238   4.739   5.401
   34SOL     OW 1000   2.675   6.840   4.824
   34SOL    HW1 1001   2.740   6.778   4.868
   34SOL    HW2 1002   2.583   6.801   4.829
   35SOL     OW 1003   4.432   3.218   6.689
   35SOL    HW1 1004   4.465   3.271   6.610
   35SOL    HW2 1005   4.388   3.280   6.754
   36SOL     OW 1006   5.522   0.952   4.994
   36SOL    HW1 1007   5.488   1.045   5.007
   36SOL    HW2 1008   5.617   0.954   4.963
   37SOL     OW 1009   1.177   2.005   6.521
   37SOL    HW1 1010   1.097   1.948   6.503
   37SOL    HW2 1011   1.221   1.975   6.606
   38SOL     OW 1012   0.821   5.529   2.477
   38SOL    HW1 1013   0.781   5.458   2.419
   38SOL    HW2 1014   0.801   5.508   2.573
   39SOL     OW 1015   6.961   4.114   6.614
   39SOL    HW1 1016   0.024   4.154   6.644
   39SOL    HW2 1017   6.908   4.182   6.562
   40SOL     OW 1018   4.568   1.550   0.603
   40SOL    HW1 1019   4.489   1.490   0.617
   40SOL    HW2 1020   4.540   1.645   0.615
   41SOL     OW 1021   6.784   4.728   3.413
   41SOL    HW1 1022   6.732   4.685   3.487
   41SOL    HW2 1023   6.734   4.717   3.327
   42SOL     OW 1024   3.059   4.838   4.384
   42SOL    HW1 1025   2.995   4.796   4.320
   42SOL    HW2 1026   3.025   4.827   4.477
   43SOL     OW 1027   4.664   6.851   5.642
   43SOL    HW1 1028   4.667   6.948   5.666
   43SOL    HW2 1029   4.652   6.841   5.543
   44SOL     OW 1030   4.438   2.194   6.205
   44SOL    HW1 1031   4.474   2.284   6.229
   44SOL    HW2 1032   4.430   2.187   6.105
   45SOL     OW 1033   4.879   5.913   1.414
   45SOL    HW1 1034   4.781   5.898   1.425
   45SOL    HW2 1035   4.902   5.915   1.317
   46SOL     OW 1036   0.979   3.225   3.243
   46SOL    HW1 1037   1.037   3.296   3.285
   46SOL    HW2 1038   0.931   3.176   3.315
   47SOL     OW 1039   4.475   4.405   0.903
   47SOL    HW1 1040   4.376   4.399   0.915
   47SOL    HW2 1041   4.508   4.323   0.856
   48SOL     OW 1042   6.569   3.018   6.336
   48SOL    HW1 1043   6.586   3.116   6.336
   48SOL    HW2 1044   6.585   2.981   6.428
   49SOL     OW 1045   5.825   3.197   1.630
   49SOL    HW1 1046   5.862   3.276   1.581
   49SOL    HW2 1047   5.787   3.132   1.564
   50SOL     OW 1048   5.744   1.229   4.842
   50SOL    HW1 1049   5.711   1.322   4.828
   50SOL    HW2 1050   5.678   1.164   4.803
   51SOL     OW 1051   2.097   6.575   3.457
   51SOL    HW1 1052   2.100   6.672   3.433
   51SOL    HW2 1053   2.027   6.560   3.527
   52SOL     OW 1054   6.149   3.335   2.508
   52SOL    HW1 1055   6.052   3.350   2.488
   52SOL    HW2 1056   6.166   3.237   2.521
   53SOL     OW 1057   4.715   6.808   3.732
   53SOL    HW1 1058   4.663   6.829   3.814
   53SOL    HW2 1059   4.680   6.724   3.690
   54SOL     OW 1060   4.277   5.339   1.321
   54SOL    HW1 1061   4.291   5.381   1.232
   54SOL    HW2 1062   4.365   5.334   1.370
   55SOL     OW 1063   1.779   2.916   6.162
   55SOL    HW1 1064   1.775   2.960   6.072
   55SOL    HW2 1065   1.720   2.835   6.163
   56SOL     OW 1066   0.323   0.882   0.963
   56SOL    HW1 1067   0.240   0.832   0.987
   56SOL    HW2 1068   0.403   0.829   0.991
   57SOL     OW 1069   4.497   0.755   1.497
   57SOL    HW1 1070   4.416   0.797   1.537
   57SOL    HW2 1071   4.561   0.827   1.469
   58SOL     OW 1072   0.498   0.012   5.339
   58SOL    HW1 1073   0.460   0.041   5.251
   58SOL    HW2 1074   0.595   7.013   5.328
   59SOL     OW 1075   0.620   2.723   6.033
   59SOL    HW1 1076   0.714   2.703   6.004
   59SOL    HW2 1077   0.614   2.819   6.061
   60SOL     OW 1078   5.316   2.622   4.364
   60SOL    HW1 1079   5.380   2.640   4.439
   60SOL    HW2 1080   5.255   2.701   4.353
   61SOL     OW 1081   6.670   2.076   3.909
   61SOL    HW1 1082   6.653   2.025   3.825
   61SOL    HW2 1083   6.748   2.137   3.896
   62SOL     OW 1084   1.059   0.576   1.633
   62SOL    HW1 1085   1.111   0.606   1.712
   62SOL    HW2 1086   1.120   0.532   1.567
   63SOL     OW 1087   5.299   1.423   4.024
   63SOL    HW1 1088   5.213   1.446   4.070
   63SOL    HW2 1089   5.312   1.324   4.026
   64SOL     OW 1090   0.286   2.965   6.042
   64SOL    HW1 1091   0.316   3.050   6.000
   64SOL    HW2 1092   0.334   2.951   6.128
   65SOL     OW 1093   0.787   4.410   6.157
   65SOL    HW1 1094   0.702   4.408   6.210
   65SOL    HW2 1095   0.789   4.493   6.101
   66SOL     OW 1096   4.171   1.117   4.948
   66SOL    HW1 1097   4.238   1.067   5.002
   66SOL    HW2 1098   4.097   1.055   4.921
   67SOL     OW 1099   0.244   2.835   5.562
   67SOL    HW1 1100   0.260   2.860   5.657
   67SOL    HW2 1101   0.149   2.806   5.550
   68SOL     OW 1102   6.541   1.185   0.110
   68SOL    HW1 1103   6.454   1.151   0.146
   68SOL    HW2 1104   6.525   1.235   0.025
   69SOL     OW 1105   0.785   3.348   6.256
   69SOL    HW1 1106   0.745   3.418   6.315
   69SOL    HW2 1107   0.794   3.383   6.163
   70SOL     OW 1108   5.517   4.150   5.134
   70SOL    HW1 1109   5.511   4.244   5.167
   70SOL    HW2 1110   5.607   4.112   5.159
   71SOL     OW 1111   3.847   1.869   3.549
   71SOL    HW1 1112   3.749   1.887   3.545
   71SOL    HW2 1113   3.874   1.817   3.467
   72SOL     OW 1114   1.589   0.499   3.968
   72SOL    HW1 1115   1.668   0.467   3.916
   72SOL    HW2 1116   1.558   0.427   4.029
   73SOL     OW 1117   3.770   0.526   1.196
   73SOL    HW1 1118   3.782   0.478   1.282
   73SOL    HW2 1119   3.846   0.589   1.182
   74SOL     OW 1120   4.224   0.578   0.246
   74SOL    HW1 1121   4.127   0.556   0.233
   74SOL    HW2 1122   4.279   0.496   0.227
   75SOL     OW 1123   4.314   0.777   1.135
   75SOL    HW1 1124   4.249   0.824   1.075
   75SOL    HW2 1125   4.394   0.748   1.082
   76SOL     OW 1126   2.654   3.458   1.100
   76SOL    HW1 1127   2.639   3.395   1.177
   76SOL    HW2 1128   2.724   3.421   1.040
   77SOL     OW 1129   0.660   0.425   3.599
   77SOL    HW1 1130   0.675   0.327   3.611
   77SOL    HW2 1131   0.748   0.471   3.587
   78SOL     OW 1132   5.430   1.597   0.470
   78SOL    HW1 1133   5.504   1.540   0.507
   78SOL    HW2 1134   5.445   1.613   0.373
   79SOL     OW 1135   3.225   5.766   1.378
   79SOL    HW1 1136   3.229   5.810   1.288
   79SOL    HW2 1137   3.197   5.833   1.447
   80SOL     OW 1138   4.274   1.351   3.973
   80SOL    HW1 1139   4.303   1.311   3.886
   80SOL    HW2 1140   4.328   1.433   3.993
   81SOL     OW 1141   2.615   0.101   2.332
   81SOL    HW1 1142   2.606   0.197   2.307
   81SOL    HW2 1143   2.587   0.044   2.255
   82SOL     OW 1144   5.842   4.645   0.783
   82SOL    HW1 1145   5.870   4.711   0.852
   82SOL    HW2 1146   5.919   4.623   0.723
   83SOL     OW 1147   0.009   0.052   0.646
   83SOL    HW1 1148   6.994   0.082   0.558
   83SOL    HW2 1149   0.005   6.975   0.653
   84SOL     OW 1150   5.959   3.113   2.882
   84SOL    HW1 1151   5.950   3.023   2.840
   84SOL    HW2 1152   6.047   3.118   2.930
   85SOL     OW 1153   1.651   1.221   4.098
   85SOL    HW1 1154   1.697   1.141   4.137
   85SOL    HW2 1155   1.586   1.258   4.165
   86SOL     OW 1156   0.523   1.344   6.777
   86SOL    HW1 1157   0.451   1.406   6.809
   86SOL    HW2 1158   0.610   1.372   6.817
   87SOL     OW 1159   5.040   4.456   0.826
   87SOL    HW1 1160   5.064   4.387   0.894
   87SOL    HW2 1161   5.121   4.512   0.807
   88SOL     OW 1162   3.095   1.457   6.278
   88SOL    HW1 1163   3.121   1.549   6.249
   88SOL    HW2 1164   3.049   1.409   6.203
   89SOL     OW 1165   2.413   2.256   6.844
   89SOL    HW1 1166   2.488   2.225   6.786
   89SOL    HW2 1167   2.372   2.339   6.804
   90SOL     OW 1168   4.252   5.101   1.890
   90SOL    HW1 1169   4.221   5.075   1.799
   90SOL    HW2 1170   4.185   5.071   1.958
   91SOL     OW 1171   5.765   3.850   6.357
   91SOL    HW1 1172   5.748   3.780   6.426
   91SOL    HW2 1173   5.848   3.827   6.306
   92SOL     OW 1174   4.449   4.518   1.166
   92SOL    HW1 1175   4.414   4.611   1.152
   92SOL    HW2 1176   4.473   4.478   1.078
   93SOL     OW 1177   3.585   3.467   0.908
   93SOL    HW1 1178   3.563   3.528   0.832
   93SOL    HW2 1179   3.635   3.518   0.978
   94SOL     OW 1180   2.379   5.770   6.214
   94SOL    HW1 1181   2.422   5.680   6.225
   94SOL    HW2 1182   2.301   5.777   6.276
   95SOL     OW 1183   1.234   0.200   2.792
   95SOL    HW1 1184   1.161   0.254   2.751
   95SOL    HW2 1185   1.195   0.123   2.843
   96SOL     OW 1186   3.496   0.004   4.768
   96SOL    HW1 1187   3.444   7.008   4.685
   96SOL    HW2 1188   3.525   0.099   4.769
   97SOL     OW 1189   2.210   3.187   6.150
   97SOL    HW1 1190   2.124   3.172   6.197
   97SOL    HW2 1191   2.253   3.099   6.129
   98SOL     OW 1192   1.432   3.089   0.691
   98SOL    HW1 1193   1.433   3.014   0.758
   98SOL    HW2 1194   1.525   3.112   0.665
   99SOL     OW 1195   3.817   2.772   1.635
   99SOL    HW1 1196   3.794   2.848   1.695
   99SOL    HW2 1197   3.762   2.692   1.659
  100SOL     OW 1198   0.861   6.230   3.930
  100SOL    HW1 1199   0.814   6.165   3.989
  100SOL    HW2 1200   0.799   6.305   3.907
  101SOL     OW 1201   1.987   4.809   2.187
  101SOL    HW1 1202   2.012   4.728   2.239
  101SOL    HW2 1203   2.069   4.855   2.154
  102SOL     OW 1204   3.410   5.252   1.313
  102SOL    HW1 1205   3.356   5.228   1.393
  102SOL    HW2 1206   3.349   5.281   1.239
  103SOL     OW 1207   2.374   1.958   1.721
  103SOL    HW1 1208   2.387   1.936   1.624
  103SOL    HW2 1209   2.456   1.933   1.772
  104SOL     OW 1210   1.547   5.831   3.214
  104SOL    HW1 1211   1.451   5.849   3.235
  104SOL    HW2 1212   1.578   5.752   3.267
  105SOL     OW 1213   6.352   1.157   6.522
  105SOL    HW1 1214   6.323   1.165   6.617
  105SOL    HW2 1215   6.304   1.079   6.480
  106SOL     OW 1216   3.707   6.213   4.426
  106SOL    HW1 1217   3.779   6.194   4.493
  106SOL    HW2 1218   3.618   6.214   4.472
  107SOL     OW 1219   0.879   1.193   0.342
  107SOL    HW1 1220   0.892   1.198   0.441
  107SOL    HW2 1221   0.901   1.281   0.300
  108SOL     OW 1222   3.598   7.003   5.697
  108SOL    HW1 1223   3.627   0.046   5.767
  108SOL    HW2 1224   3.501   6.982   5.710
  109SOL     OW 1225   1.610   1.206   2.351
  109SOL    HW1 1226   1.570   1.295   2.373
  109SOL    HW2 1227   1.545   1.134   2.373
  110SOL     OW 1228   2.538   5.494   4.291
  110SOL    HW1 1229   2.522   5.592   4.283
  110SOL    HW2 1230   2.481   5.446   4.224
  111SOL     OW 1231   2.043   1.098   4.098
  111SOL    HW1 1232   2.123   1.042   4.079
  111SOL    HW2 1233   2.036   1.171   4.030
  112SOL     OW 1234   3.224   5.669   6.582
  112SOL    HW1 1235   3.285   5.699   6.509
  112SOL    HW2 1236   3.155   5.739   6.599
  113SOL     OW 1237   1.146   5.870   2.419
  113SOL    HW1 1238   1.176   5.801   2.353
  113SOL    HW2 1239   1.046   5.874   2.419
  114SOL     OW 1240   0.633   6.503   1.917
  114SOL    HW1 1241   0.572   6.541   1.987
  114SOL    HW2 1242   0.637   6.404   1.927
  115SOL     OW 1243   4.835   1.294   3.089
  115SOL    HW1 1244   4.825   1.196   3.069
  115SOL    HW2 1245   4.899   1.334   3.023
  116SOL     OW 1246   6.399   6.145   1.403
  116SOL    HW1 1247   6.394   6.225   1.344
  116SOL    HW2 1248   6.494   6.114   1.410
  117SOL     OW 1249   0.999   1.564   1.240
  117SOL    HW1 1250   1.045   1.652   1.258
  117SOL    HW2 1251   0.987   1.515   1.326
  118SOL     OW 1252   1.160   1.087   2.124
  118SOL    HW1 1253   1.148   0.988   2.125
  118SOL    HW2 1254   1.117   1.127   2.205
  119SOL     OW 1255   0.320   0.355   0.387
  119SOL    HW1 1256   0.328   0.270   0.441
  119SOL    HW2 1257   0.398   0.414   0.409
  120SOL     OW 1258   5.250   1.163   5.722
  120SOL    HW1 1259   5.217   1.248   5.763
  120SOL    HW2 1260   5.225   1.085   5.781
  121SOL     OW 1261   2.007   2.719   0.246
  121SOL    HW1 1262   2.051   2.651   0.303
  121SOL    HW2 1263   2.076   2.779   0.205
  122SOL     OW 1264   1.409   3.704   6.533
  122SOL    HW1 1265   1.490   3.646   6.540
  122SOL    HW2 1266   1.327   3.649   6.552
  123SOL     OW 1267   0.788   1.482   2.723
  123SOL    HW1 1268   0.739   1.415   2.779
  123SOL    HW2 1269   0.881   1.450   2.706
  124SOL     OW 1270   3.978   2.411   1.042
  124SOL    HW1 1271   3.949   2.449   0.954
  124SOL    HW2 1272   4.034   2.330   1.027
  125SOL     OW 1273   3.818   2.172   0.504
  125SOL    HW1 1274   3.800   2.177   0.405
  125SOL    HW2 1275   3.885   2.243   0.528
  126SOL     OW 1276   3.027   3.969   1.574
  126SOL    HW1 1277   2.988   4.045   1.521
  126SOL    HW2 1278   3.022   3.991   1.671
  127SOL     OW 1279   0.798   4.897   6.678
  127SOL    HW1 1280   0.843   4.943   6.754
  127SOL    HW2 1281   0.809   4.798   6.688
  128SOL     OW 1282   4.525   2.728   1.317
  128SOL    HW1 1283   4.476   2.745   1.403
  128SOL    HW2 1284   4.476   2.772   1.241
  129SOL     OW 1285   3.288   3.469   6.206
  129SOL    HW1 1286   3.195   3.474   6.241
  129SOL    HW2 1287   3.351   3.445   6.280
  130SOL     OW 1288   1.270   1.875   4.302
  130SOL    HW1 1289   1.224   1.786   4.304
  130SOL    HW2 1290   1.319   1.885   4.215
  131SOL     OW 1291   4.101   0.828   3.353
  131SOL    HW1 1292   4.090   0.831   3.452
  131SOL    HW2 1293   4.123   0.734   3.324
  132SOL     OW 1294   2.950   2.646   1.753
  132SOL    HW1 1295   3.042   2.677   1.777
  132SOL    HW2 1296   2.939   2.551   1.782
  133SOL     OW 1297   5.120   0.815   4.499
  133SOL    HW1 1298   5.155   0.891   4.445
  133SOL    HW2 1299   5.063   0.850   4.573
  134SOL     OW 1300   6.909   1.139   2.718
  134SOL    HW1 1301   6.975   1.149   2.793
  134SOL    HW2 1302   6.927   1.209   2.649
  135SOL     OW 1303   5.093   3.725   3.846
  135SOL    HW1 1304   5.106   3.787   3.768
  135SOL    HW2 1305   5.171   3.734   3.908
  136SOL     OW 1306   1.568   5.251   4.799
  136SOL    HW1 1307   1.638   5.200   4.848
  136SOL    HW2 1308   1.561   5.218   4.705
  137SOL     OW 1309   5.083   1.966   2.923
  137SOL    HW1 1310   5.086   1.897   2.996
  137SOL    HW2 1311   4.989   1.998   2.911
  138SOL     OW 1312   1.171   3.866   3.146
  138SOL    HW1 1313   1.081   3.842   3.112
  138SOL    HW2 1314   1.162   3.926   3.226
  139SOL     OW 1315   1.485   6.864   5.297
  139SOL    HW1 1316   1.450   6.875   5.204
  139SOL    HW2 1317   1.560   6.798   5.296
  140SOL     OW 1318   1.749   6.794   4.107
  140SOL    HW1 1319   1.650   6.801   4.107
  140SOL    HW2 1320   1.787   6.839   4.026
  141SOL     OW 1321   0.291   2.639   4.865
  141SOL    HW1 1322   0.286   2.732   4.828
  141SOL    HW2 1323   0.356   2.585   4.811
  142SOL     OW 1324   1.530   4.572   1.678
  142SOL    HW1 1325   1.587   4.553   1.758
  142SOL    HW2 1326   1.552   4.508   1.605
  143SOL     OW 1327   6.302   4.627   0.166
  143SOL    HW1 1328   6.223   4.568   0.181
  143SOL    HW2 1329   6.331   4.621   0.070
  144SOL     OW 1330   1.645   4.248   5.703
  144SOL    HW1 1331   1.692   4.274   5.619
  144SOL    HW2 1332   1.596   4.162   5.689
  145SOL     OW 1333   1.821   4.851   1.627
  145SOL    HW1 1334   1.863   4.939   1.650
  145SOL    HW2 1335   1.722   4.863   1.618
  146SOL     OW 1336   5.015   6.927   5.661
  146SOL    HW1 1337   5.043   6.872   5.739
  146SOL    HW2 1338   4.946   6.994   5.690
  147SOL     OW 1339   5.450   2.430   6.133
  147SOL    HW1 1340   5.531   2.410   6.078
  147SOL    HW2 1341   5.368   2.413   6.078
  148SOL     OW 1342   0.082   5.162   0.990
  148SOL    HW1 1343   0.049   5.076   1.030
  148SOL    HW2 1344   0.030   5.239   1.027
  149SOL     OW 1345   3.434   2.123   4.096
  149SOL    HW1 1346   3.399   2.159   4.010
  149SOL    HW2 1347   3.534   2.120   4.094
  150SOL     OW 1348   5.223   6.788   0.168
  150SOL    HW1 1349   5.146   6.806   0.107
  150SOL    HW2 1350   5.308   6.787   0.115
  151SOL     OW 1351   2.950   1.170   2.062
  151SOL    HW1 1352   3.010   1.248   2.043
  151SOL    HW2 1353   2.874   1.200   2.119
  152SOL     OW 1354   0.079   1.078   1.798
  152SOL    HW1 1355   0.172   1.045   1.781
  152SOL    HW2 1356   0.079   1.177   1.804
  153SOL     OW 1357   2.857   0.115   3.724
  153SOL    HW1 1358   2.794   0.053   3.770
  153SOL    HW2 1359   2.863   0.201   3.775
  154SOL     OW 1360   1.063   3.257   1.138
  154SOL    HW1 1361   1.041   3.288   1.231
  154SOL    HW2 1362   1.161   3.236   1.133
  155SOL     OW 1363   0.784   1.429   5.312
  155SOL    HW1 1364   0.851   1.457   5.381
  155SOL    HW2 1365   0.812   1.462   5.222
  156SOL     OW 1366   6.851   0.617   1.014
  156SOL    HW1 1367   6.842   0.698   1.072
  156SOL    HW2 1368   6.765   0.566   1.014
  157SOL     OW 1369   5.885   3.234   1.280
  157SOL    HW1 1370   5.914   3.254   1.373
  157SOL    HW2 1371   5.855   3.139   1.275
  158SOL     OW 1372   1.165   2.960   1.932
  158SOL    HW1 1373   1.193   2.933   1.839
  158SOL    HW2 1374   1.235   3.019   1.972
  159SOL     OW 1375   4.534   5.148   2.223
  159SOL    HW1 1376   4.603   5.093   2.176
  159SOL    HW2 1377   4.478   5.197   2.156
  160SOL     OW 1378   5.452   6.583   1.101
  160SOL    HW1 1379   5.390   6.604   1.025
  160SOL    HW2 1380   5.409   6.516   1.161
  161SOL     OW 1381   1.036   6.474   3.678
  161SOL    HW1 1382   0.973   6.457   3.601
  161SOL    HW2 1383   1.129   6.486   3.643
  162SOL     OW 1384   3.940   6.196   7.008
  162SOL    HW1 1385   3.856   6.178   0.036
  162SOL    HW2 1386   3.985   6.109   6.987
  163SOL     OW 1387   6.524   5.777   2.234
  163SOL    HW1 1388   6.579   5.819   2.162
  163SOL    HW2 1389   6.582   5.762   2.315
  164SOL     OW 1390   0.661   4.358   3.096
  164SOL    HW1 1391   0.671   4.263   3.068
  164SOL    HW2 1392   0.587   4.400   3.043
  165SOL     OW 1393   4.945   4.021   1.078
  165SOL    HW1 1394   4.846   4.019   1.075
  165SOL    HW2 1395   4.982   3.958   1.009
  166SOL     OW 1396   1.558   3.234   2.222
  166SOL    HW1 1397   1.498   3.155   2.207
  166SOL    HW2 1398   1.606   3.223   2.309
  167SOL     OW 1399   5.485   2.455   6.813
  167SOL    HW1 1400   5.541   2.379   6.848
  167SOL    HW2 1401   5.545   2.529   6.783
  168SOL     OW 1402   3.573   2.629   0.547
  168SOL    HW1 1403   3.570   2.535   0.581
  168SOL    HW2 1404   3.483   2.671   0.556
  169SOL     OW 1405   6.550   2.078   1.332
  169SOL    HW1 1406   6.551   1.978   1.339
  169SOL    HW2 1407   6.481   2.106   1.266
  170SOL     OW 1408   0.137   7.018   2.470
  170SOL    HW1 1409   0.103   0.089   2.483
  170SOL    HW2 1410   0.071   6.953   2.509
  171SOL     OW 1411   2.487   4.173   6.506
  171SOL    HW1 1412   2.545   4.241   6.462
  171SOL    HW2 1413   2.422   4.137   6.440
  172SOL     OW 1414   6.092   1.190   2.706
  172SOL    HW1 1415   6.048   1.213   2.793
  172SOL    HW2 1416   6.041   1.231   2.631
  173SOL     OW 1417   6.290   1.209   3.806
  173SOL    HW1 1418   6.358   1.239   3.739
  173SOL    HW2 1419   6.198   1.229   3.770
  174SOL     OW 1420   4.059   5.328   3.544
  174SOL    HW1 1421   3.963   5.310   3.524
  174SOL    HW2 1422   4.115   5.251   3.513
  175SOL     OW 1423   2.933   0.045   1.736
  175SOL    HW1 1424   3.001   0.103   1.781
  175SOL    HW2 1425   2.946   0.049   1.637
  176SOL     OW 1426   6.965   4.641   1.045
  176SOL    HW1 1427   7.012   4.581   0.980
  176SOL    HW2 1428   6.950   4.591   1.130
  177SOL     OW 1429   5.762   3.391   4.115
  177SOL    HW1 1430   5.698   3.388   4.192
  177SOL    HW2 1431   5.856   3.393   4.150
  178SOL     OW 1432   3.698   4.482   5.701
  178SOL    HW1 1433   3.607   4.515   5.726
  178SOL    HW2 1434   3.694   4.438   5.611
  179SOL     OW 1435   4.296   1.366   5.686
  179SOL    HW1 1436   4.270   1.388   5.592
  179SOL    HW2 1437   4.342   1.277   5.688
  180SOL     OW 1438   2.200   6.814   0.943
  180SOL    HW1 1439   2.217   6.720   0.916
  180SOL    HW2 1440   2.178   6.869   0.863
  181SOL     OW 1441   3.649   3.642   6.061
  181SOL    HW1 1442   3.581   3.569   6.060
  181SOL    HW2 1443   3.718   3.622   6.132
  182SOL     OW 1444   3.795   1.930   5.623
  182SOL    HW1 1445   3.724   1.985   5.667
  182SOL    HW2 1446   3.885   1.971   5.641
  183SOL     OW 1447   3.245   1.753   3.725
  183SOL    HW1 1448   3.328   1.794   3.762
  183SOL    HW2 1449   3.201   1.818   3.663
  184SOL     OW 1450   0.704   6.440   4.261
  184SOL    HW1 1451   0.671   6.532   4.283
  184SOL    HW2 1452   0.654   6.405   4.182
  185SOL     OW 1453   0.886   0.905   5.297
  185SOL    HW1 1454   0.958   0.975   5.299
  185SOL    HW2 1455   0.908   0.834   5.364
  186SOL     OW 1456   6.347   1.183   4.074
  186SOL    HW1 1457   6.325   1.225   3.986
  186SOL    HW2 1458   6.263   1.156   4.121
  187SOL     OW 1459   5.021   6.658   2.480
  187SOL    HW1 1460   5.014   6.650   2.380
  187SOL    HW2 1461   5.090   6.594   2.513
  188SOL     OW 1462   1.570   3.275   3.155
  188SOL    HW1 1463   1.546   3.354   3.099
  188SOL    HW2 1464   1.507   3.268   3.232
  189SOL     OW 1465   2.270   5.480   0.560
  189SOL    HW1 1466   2.193   5.436   0.515
  189SOL    HW2 1467   2.351   5.476   0.501
  190SOL     OW 1468   5.846   3.329   5.488
  190SOL    HW1 1469   5.840   3.395   5.414
  190SOL    HW2 1470   5.760   3.279   5.495
  191SOL     OW 1471   5.664   0.593   6.481
  191SOL    HW1 1472   5.719   0.643   6.548
  191SOL    HW2 1473   5.639   0.504   6.518
  192SOL     OW 1474   0.675   4.996   2.419
  192SOL    HW1 1475   0.678   4.912   2.365
  192SOL    HW2 1476   0.594   5.049   2.394
  193SOL     OW 1477   4.395   3.430   5.322
  193SOL    HW1 1478   4.431   3.404   5.412
  193SOL    HW2 1479   4.467   3.475   5.269
  194SOL     OW 1480   3.886   7.002   2.803
  194SOL    HW1 1481   3.823   0.041   2.757
  194SOL    HW2 1482   3.840   6.958   2.880
  195SOL     OW 1483   1.509   0.313   4.207
  195SOL    HW1 1484   1.435   0.246   4.197
  195SOL    HW2 1485   1.546   0.307   4.300
  196SOL     OW 1486   2.585   0.362   0.290
  196SOL    HW1 1487   2.648   0.389   0.218
  196SOL    HW2 1488   2.542   0.443   0.330
  197SOL     OW 1489   2.439   0.166   1.465
  197SOL    HW1 1490   2.362   0.105   1.480
  197SOL    HW2 1491   2.517   0.137   1.521
  198SOL     OW 1492   4.932   6.899   2.019
  198SOL    HW1 1493   4.931   6.823   2.083
  198SOL    HW2 1494   4.903   6.866   1.928
  199SOL     OW 1495   6.694   1.436   3.558
  199SOL    HW1 1496   6.602   1.415   3.526
  199SOL    HW2 1497   6.722   1.369   3.626
  200SOL     OW 1498   1.221   4.284   1.620
  200SOL    HW1 1499   1.253   4.364   1.671
  200SOL    HW2 1500   1.270   4.203   1.651
  201SOL     OW 1501   6.835   6.955   6.154
  201SOL    HW1 1502   6.806   0.009   6.213
  201SOL    HW2 1503   6.764   6.938   6.086
  202SOL     OW 1504   4.795   0.498   5.656
  202SOL    HW1 1505   4.808   0.427   5.587
  202SOL    HW2 1506   4.709   0.546   5.639
  203SOL     OW 1507   4.389   2.340   4.041
  203SOL    HW1 1508   4.290   2.333   4.048
  203SOL    HW2 1509   4.427   2.375   4.127
  204SOL     OW 1510   0.389   0.792   6.240
  204SOL    HW1 1511   0.371   0.868   6.302
  204SOL    HW2 1512   0.315   0.725   6.247
  205SOL     OW 1513   0.664   0.922   3.492
  205SOL    HW1 1514   0.703   0.941   3.582
  205SOL    HW2 1515   0.697   0.991   3.427
  206SOL     OW 1516   0.314   5.000   2.064
  206SOL    HW1 1517   0.351   5.059   1.992
  206SOL    HW2 1518   0.371   4.919   2.074
  207SOL     OW 1519   5.137   1.005   3.876
  207SOL    HW1 1520   5.077   0.925   3.873
  207SOL    HW2 1521   5.082   1.088   3.870
  208SOL     OW 1522   5.618   3.184   5.478
  208SOL    HW1 1523   5.519   3.187   5.470
  208SOL    HW2 1524   5.650   3.090   5.469
  209SOL     OW 1525   0.396   4.826   4.927
  209SOL    HW1 1526   0.355   4.779   5.004
  209SOL    HW2 1527   0.411   4.761   4.852
  210SOL     OW 1528   4.620   2.149   0.969
  210SOL    HW1 1529   4.661   2.238   0.986
  210SOL    HW2 1530   4.669   2.079   1.022
  211SOL     OW 1531   2.511   6.247   3.448
  211SOL    HW1 1532   2.514   6.164   3.392
  211SOL    HW2 1533   2.551   6.323   3.396
  212SOL     OW 1534   2.115   4.313   1.197
  212SOL    HW1 1535   2.142   4.392   1.252
  212SOL    HW2 1536   2.015   4.308   1.194
  213SOL     OW 1537   3.365   0.676   6.276
  213SOL    HW1 1538   3.310   0.702   6.197
  213SOL    HW2 1539   3.354   0.578   6.293
  214SOL     OW 1540   4.575   5.493   1.931
  214SOL    HW1 1541   4.635   5.518   2.008
  214SOL    HW2 1542   4.500   5.436   1.965
  215SOL     OW 1543   2.315   3.462   0.890
  215SOL    HW1 1544   2.243   3.524   0.921
  215SOL    HW2 1545   2.405   3.501   0.912
  216SOL     OW 1546   2.066   5.741   4.492
  216SOL    HW1 1547   2.041   5.838   4.497
  216SOL    HW2 1548   2.153   5.732   4.444
  217SOL     OW 1549   2.021   2.533   3.748
  217SOL    HW1 1550   1.943   2.509   3.690
  217SOL    HW2 1551   2.079   2.452   3.760
  218SOL     OW 1552   1.213   3.088   4.589
  218SOL    HW1 1553   1.175   3.034   4.514
  218SOL    HW2 1554   1.228   3.029   4.669
  219SOL     OW 1555   3.827   6.382   5.801
  219SOL    HW1 1556   3.776   6.441   5.863
  219SOL    HW2 1557   3.838   6.428   5.712
  220SOL     OW 1558   3.713   6.630   0.632
  220SOL    HW1 1559   3.649   6.580   0.690
  220SOL    HW2 1560   3.713   6.727   0.657
  221SOL     OW 1561   6.452   3.214   2.246
  221SOL    HW1 1562   6.543   3.224   2.286
  221SOL    HW2 1563   6.392   3.285   2.281
  222SOL     OW 1564   2.908   5.092   5.830
  222SOL    HW1 1565   2.823   5.140   5.851
  222SOL    HW2 1566   2.886   5.003   5.788
  223SOL     OW 1567   5.805   3.089   0.776
  223SOL    HW1 1568   5.849   3.116   0.862
  223SOL    HW2 1569   5.758   3.002   0.789
  224SOL     OW 1570   2.157   2.206   4.384
  224SOL    HW1 1571   2.170   2.115   4.343
  224SOL    HW2 1572   2.238   2.262   4.367
  225SOL     OW 1573   5.051   2.759   5.940
  225SOL    HW1 1574   5.011   2.825   6.003
  225SOL    HW2 1575   5.142   2.790   5.911
  226SOL     OW 1576   1.519   0.657   6.262
  226SOL    HW1 1577   1.575   0.736   6.286
  226SOL    HW2 1578   1.545   0.579   6.318
  227SOL     OW 1579   1.517   3.481   3.001
  227SOL    HW1 1580   1.461   3.490   2.918
  227SOL    HW2 1581   1.494   3.554   3.065
  228SOL     OW 1582   3.167   6.213   3.578
  228SOL    HW1 1583   3.210   6.159   3.650
  228SOL    HW2 1584   3.233   6.228   3.504
  229SOL     OW 1585   4.873   5.910   6.927
  229SOL    HW1 1586   4.872   5.836   6.859
  229SOL    HW2 1587   4.967   5.927   6.955
  230SOL     OW 1588   2.907   5.173   2.988
  230SOL    HW1 1589   3.000   5.139   3.006
  230SOL    HW2 1590   2.854   5.101   2.944
  231SOL     OW 1591   5.699   1.665   6.592
  231SOL    HW1 1592   5.691   1.696   6.687
  231SOL    HW2 1593   5.793   1.634   6.575
  232SOL     OW 1594   1.515   3.956   6.173
  232SOL    HW1 1595   1.607   3.989   6.194
  232SOL    HW2 1596   1.510   3.858   6.192
  233SOL     OW 1597   2.373   2.156   4.068
  233SOL    HW1 1598   2.311   2.091   4.024
  233SOL    HW2 1599   2.349   2.249   4.042
  234SOL     OW 1600   4.571   6.589   4.986
  234SOL    HW1 1601   4.664   6.592   4.950
  234SOL    HW2 1602   4.519   6.667   4.949
  235SOL     OW 1603   3.519   3.183   1.769
  235SOL    HW1 1604   3.613   3.179   1.800
  235SOL    HW2 1605   3.475   3.094   1.784
  236SOL     OW 1606   5.315   2.862   6.708
  236SOL    HW1 1607   5.329   2.806   6.626
  236SOL    HW2 1608   5.354   2.816   6.787
  237SOL     OW 1609   6.278   5.388   2.160
  237SOL    HW1 1610   6.298   5.483   2.136
  237SOL    HW2 1611   6.224   5.346   2.088
  238SOL     OW 1612   5.403   2.259   0.037
  238SOL    HW1 1613   5.493   2.256   0.080
  238SOL    HW2 1614   5.336   2.214   0.095
  239SOL     OW 1615   0.213   5.643   5.849
  239SOL    HW1 1616   0.143   5.677   5.912
  239SOL    HW2 1617   0.245   5.553   5.880
  240SOL     OW 1618   0.609   2.750   4.491
  240SOL    HW1 1619   0.590   2.716   4.398
  240SOL    HW2 1620   0.705   2.730   4.514
  241SOL     OW 1621   1.690   0.072   4.858
  241SOL    HW1 1622   1.735   0.039   4.940
  241SOL    HW2 1623   1.726   0.023   4.778
  242SOL     OW 1624   2.540   3.140   5.652
  242SOL    HW1 1625   2.442   3.150   5.635
  242SOL    HW2 1626   2.560   3.047   5.682
  243SOL     OW 1627   4.794   0.410   5.938
  243SOL    HW1 1628   4.787   0.453   5.848
  243SOL    HW2 1629   4.702   0.397   5.976
  244SOL     OW 1630   5.378   2.676   4.978
  244SOL    HW1 1631   5.372   2.651   4.882
  244SOL    HW2 1632   5.461   2.730   4.993
  245SOL     OW 1633   6.818   3.597   5.111
  245SOL    HW1 1634   6.847   3.536   5.037
  245SOL    HW2 1635   6.796   3.542   5.192
  246SOL     OW 1636   5.228   2.734   3.156
  246SOL    HW1 1637   5.275   2.822   3.163
  246SOL    HW2 1638   5.181   2.715   3.243
  247SOL     OW 1639   2.751   1.046   1.755
  247SOL    HW1 1640   2.772   0.965   1.808
  247SOL    HW2 1641   2.706   1.114   1.813
  248SOL     OW 1642   3.921   2.010   3.092
  248SOL    HW1 1643   3.836   2.062   3.107
  248SOL    HW2 1644   3.899   1.922   3.049
  249SOL     OW 1645   4.748   6.918   6.239
  249SOL    HW1 1646   4.685   6.974   6.292
  249SOL    HW2 1647   4.759   6.958   6.148
  250SOL     OW 1648   5.898   2.881   0.970
  250SOL    HW1 1649   5.898   2.804   0.907
  250SOL    HW2 1650   5.811   2.885   1.019
  251SOL     OW 1651   4.820   3.981   5.820
  251SOL    HW1 1652   4.900   3.923   5.804
  251SOL    HW2 1653   4.782   4.011   5.732
  252SOL     OW 1654   6.516   0.086   6.217
  252SOL    HW1 1655   6.449   0.108   6.287
  252SOL    HW2 1656   6.550   7.016   6.231
  253SOL     OW 1657   2.173   4.317   6.853
  253SOL    HW1 1658   2.114   4.237   6.860
  253SOL    HW2 1659   2.123   4.398   6.883
  254SOL     OW 1660   5.243   3.119   3.144
  254SOL    HW1 1661   5.221   3.212   3.116
  254SOL    HW2 1662   5.165   3.059   3.129
  255SOL     OW 1663   2.096   3.310   4.665
  255SOL    HW1 1664   2.007   3.278   4.632
  255SOL    HW2 1665   2.120   3.261   4.749
  256SOL     OW 1666   6.024   4.445   6.572
  256SOL    HW1 1667   5.953   4.477   6.636
  256SOL    HW2 1668   6.062   4.523   6.523
  257SOL     OW 1669   4.564   6.852   3.939
  257SOL    HW1 1670   4.545   6.818   4.032
  257SOL    HW2 1671   4.486   6.906   3.907
  258SOL     OW 1672   0.151   4.680   4.952
  258SOL    HW1 1673   0.127   4.768   4.993
  258SOL    HW2 1674   0.142   4.685   4.853
  259SOL     OW 1675   1.842   1.968   2.238
  259SOL    HW1 1676   1.801   1.936   2.153
  259SOL    HW2 1677   1.781   2.034   2.282
  260SOL     OW 1678   4.457   1.037   0.853
  260SOL    HW1 1679   4.362   1.069   0.855
  260SOL    HW2 1680   4.469   0.972   0.778
  261SOL     OW 1681   6.883   3.896   0.770
  261SOL    HW1 1682   6.881   3.864   0.675
  261SOL    HW2 1683   6.798   3.871   0.816
  262SOL     OW 1684   0.245   4.373   0.541
  262SOL    HW1 1685   0.253   4.275   0.525
  262SOL    HW2 1686   0.214   4.418   0.458
  263SOL     OW 1687   0.653   1.025   4.258
  263SOL    HW1 1688   0.563   0.995   4.225
  263SOL    HW2 1689   0.725   0.975   4.209
  264SOL     OW 1690   4.755   3.113   6.144
  264SOL    HW1 1691   4.701   3.107   6.060
  264SOL    HW2 1692   4.693   3.125   6.222
  265SOL     OW 1693   4.875   4.667   3.330
  265SOL    HW1 1694   4.875   4.638   3.235
  265SOL    HW2 1695   4.780   4.672   3.363
  266SOL     OW 1696   3.748   3.382   5.800
  266SOL    HW1 1697   3.658   3.373   5.757
  266SOL    HW2 1698   3.778   3.292   5.832
  267SOL     OW 1699   6.012   2.230   6.023
  267SOL    HW1 1700   6.107   2.198   6.026
  267SOL    HW2 1701   5.983   2.257   6.115
  268SOL     OW 1702   4.305   0.205   4.607
  268SOL    HW1 1703   4.322   0.239   4.700
  268SOL    HW2 1704   4.264   0.115   4.612
  269SOL     OW 1705   1.714   3.359   1.319
  269SOL    HW1 1706   1.619   3.347   1.291
  269SOL    HW2 1707   1.717   3.404   1.408
  270SOL     OW 1708   6.894   0.248   1.069
  270SOL    HW1 1709   6.807   0.298   1.073
  270SOL    HW2 1710   6.879   0.153   1.096
  271SOL     OW 1711   2.966   1.222   0.694
  271SOL    HW1 1712   2.975   1.313   0.656
  271SOL    HW2 1713   2.943   1.157   0.621
  272SOL     OW 1714   3.184   4.998   4.221
  272SOL    HW1 1715   3.195   4.957   4.130
  272SOL    HW2 1716   3.136   4.934   4.281
  273SOL     OW 1717   2.341   5.035   4.616
  273SOL    HW1 1718   2.346   5.085   4.702
  273SOL    HW2 1719   2.347   5.099   4.539
  274SOL     OW 1720   4.921   2.578   3.639
  274SOL    HW1 1721   4.894   2.496   3.588
  274SOL    HW2 1722   4.945   2.553   3.733
  275SOL     OW 1723   6.194   5.147   5.898
  275SOL    HW1 1724   6.275   5.201   5.875
  275SOL    HW2 1725   6.145   5.190   5.974
  276SOL     OW 1726   0.354   5.221   2.849
  276SOL    HW1 1727   0.345   5.123   2.870
  276SOL    HW2 1728   0.327   5.237   2.754
  277SOL     OW 1729   2.448   3.505   0.455
  277SOL    HW1 1730   2.384   3.497   0.531
  277SOL    HW2 1731   2.541   3.487   0.487
  278SOL     OW 1732   0.185   5.545   1.960
  278SOL    HW1 1733   0.236   5.558   2.045
  278SOL    HW2 1734   0.103   5.492   1.979
  279SOL     OW 1735   0.157   3.499   4.068
  279SOL    HW1 1736   0.090   3.569   4.095
  279SOL    HW2 1737   0.144   3.476   3.971
  280SOL     OW 1738   1.754   0.011   3.104
  280SOL    HW1 1739   1.842   0.021   3.056
  280SOL    HW2 1740   1.729   6.937   3.107
  281SOL     OW 1741   3.531   4.930   2.181
  281SOL    HW1 1742   3.481   5.002   2.133
  281SOL    HW2 1743   3.564   4.863   2.115
  282SOL     OW 1744   3.719   1.613   5.283
  282SOL    HW1 1745   3.689   1.707   5.298
  282SOL    HW2 1746   3.770   1.581   5.363
  283SOL     OW 1747   6.494   1.376   6.003
  283SOL    HW1 1748   6.412   1.338   5.959
  283SOL    HW2 1749   6.502   1.340   6.095
  284SOL     OW 1750   0.536   4.428   4.574
  284SOL    HW1 1751   0.469   4.473   4.514
  284SOL    HW2 1752   0.599   4.373   4.519
  285SOL     OW 1753   5.559   5.302   6.093
  285SOL    HW1 1754   5.632   5.254   6.044
  285SOL    HW2 1755   5.474   5.295   6.041
  286SOL     OW 1756   3.411   5.071   5.366
  286SOL    HW1 1757   3.438   5.127   5.445
  286SOL    HW2 1758   3.315   5.087   5.345
  287SOL     OW 1759   0.571   4.437   6.768
  287SOL    HW1 1760   0.490   4.454   6.711
  287SOL    HW2 1761   0.585   4.515   6.830
  288SOL     OW 1762   4.447   2.495   0.073
  288SOL    HW1 1763   4.358   2.453   0.087
  288SOL    HW2 1764   4.518   2.435   0.110
  289SOL     OW 1765   0.107   5.400   5.360
  289SOL    HW1 1766   0.185   5.361   5.311
  289SOL    HW2 1767   0.130   5.410   5.456
  290SOL     OW 1768   4.888   1.576   3.692
  290SOL    HW1 1769   4.844   1.487   3.680
  290SOL    HW2 1770   4.943   1.575   3.776
  291SOL     OW 1771   2.760   1.613   5.112
  291SOL    HW1 1772   2.813   1.677   5.168
  291SOL    HW2 1773   2.821   1.546   5.071
  292SOL     OW 1774   2.588   1.948   2.597
  292SOL    HW1 1775   2.638   1.972   2.514
  292SOL    HW2 1776   2.513   1.885   2.574
  293SOL     OW 1777   5.156   4.987   1.858
  293SOL    HW1 1778   5.087   4.978   1.787
  293SOL    HW2 1779   5.239   4.937   1.831
  294SOL     OW 1780   6.270   5.542   6.466
  294SOL    HW1 1781   6.202   5.476   6.498
  294SOL    HW2 1782   6.233   5.594   6.390
  295SOL     OW 1783   3.502   1.673   4.607
  295SOL    HW1 1784   3.519   1.578   4.634
  295SOL    HW2 1785   3.411   1.701   4.639
  296SOL     OW 1786   6.006   1.951   2.262
  296SOL    HW1 1787   5.955   2.010   2.325
  296SOL    HW2 1788   6.000   1.856   2.294
  297SOL     OW 1789   2.957   4.978   2.778
  297SOL    HW1 1790   3.018   4.941   2.708
  297SOL    HW2 1791   2.898   5.048   2.737
  298SOL     OW 1792   3.181   5.992   0.556
  298SOL    HW1 1793   3.178   6.046   0.640
  298SOL    HW2 1794   3.088   5.971   0.527
  299SOL     OW 1795   3.997   3.069   6.497
  299SOL    HW1 1796   4.032   3.144   6.443
  299SOL    HW2 1797   3.942   3.009   6.439
  300SOL     OW 1798   5.185   0.624   2.000
  300SOL    HW1 1799   5.243   0.642   2.079
  300SOL    HW2 1800   5.091   0.651   2.020
  301SOL     OW 1801   5.798   3.124   0.490
  301SOL    HW1 1802   5.767   3.134   0.584
  301SOL    HW2 1803   5.762   3.038   0.452
  302SOL     OW 1804   0.025   0.704   3.771
  302SOL    HW1 1805   7.016   0.731   3.862
  302SOL    HW2 1806   0.059   0.784   3.723
  303SOL     OW 1807   6.670   6.761   2.280
  303SOL    HW1 1808   6.747   6.810   2.239
  303SOL    HW2 1809   6.703   6.702   2.353
  304SOL     OW 1810   1.455   6.621   5.574
  304SOL    HW1 1811   1.527   6.565   5.534
  304SOL    HW2 1812   1.367   6.599   5.531
  305SOL     OW 1813   1.260   3.294   6.871
  305SOL    HW1 1814   1.219   3.299   6.779
  305SOL    HW2 1815   1.285   3.199   6.891
  306SOL     OW 1816   1.755   0.210   3.666
  306SOL    HW1 1817   1.718   0.211   3.573
  306SOL    HW2 1818   1.680   0.196   3.731
  307SOL     OW 1819   4.980   5.767   0.600
  307SOL    HW1 1820   5.052   5.802   0.659
  307SOL    HW2 1821   4.925   5.843   0.565
  308SOL     OW 1822   5.668   3.631   4.436
  308SOL    HW1 1823   5.591   3.584   4.480
  308SOL    HW2 1824   5.753   3.583   4.459
  309SOL     OW 1825   2.191   5.766   0.005
  309SOL    HW1 1826   2.153   5.697   6.966
  309SOL    HW2 1827   2.258   5.822   6.978
  310SOL     OW 1828   5.448   6.734   5.286
  310SOL    HW1 1829   5.461   6.819   5.336
  310SOL    HW2 1830   5.357   6.697   5.304
  311SOL     OW 1831   4.366   4.923   2.751
  311SOL    HW1 1832   4.286   4.972   2.785
  311SOL    HW2 1833   4.354   4.825   2.766
  312SOL     OW 1834   4.026   1.264   4.750
  312SOL    HW1 1835   3.992   1.183   4.703
  312SOL    HW2 1836   4.097   1.237   4.815
  313SOL     OW 1837   3.035   3.674   2.346
  313SOL    HW1 1838   3.004   3.580   2.363
  313SOL    HW2 1839   2.993   3.707   2.262
  314SOL     OW 1840   2.783   5.048   6.645
  314SOL    HW1 1841   2.781   4.954   6.678
  314SOL    HW2 1842   2.854   5.058   6.576
  315SOL     OW 1843   0.993   3.179   3.854
  315SOL    HW1 1844   1.057   3.241   3.899
  315SOL    HW2 1845   1.015   3.084   3.878
  316SOL     OW 1846   2.893   1.205   4.421
  316SOL    HW1 1847   2.953   1.162   4.489
  316SOL    HW2 1848   2.911   1.165   4.331
  317SOL     OW 1849   6.902   1.444   0.772
  317SOL    HW1 1850   6.823   1.412   0.824
  317SOL    HW2 1851   6.893   1.418   0.676
  318SOL     OW 1852   0.801   5.518   6.598
  318SOL    HW1 1853   0.715   5.468   6.600
  318SOL    HW2 1854   0.789   5.607   6.644
  319SOL     OW 1855   6.409   1.333   3.573
  319SOL    HW1 1856   6.374   1.422   3.602
  319SOL    HW2 1857   6.342   1.288   3.513
  320SOL     OW 1858   6.709   2.286   1.354
  320SOL    HW1 1859   6.627   2.230   1.355
  320SOL    HW2 1860   6.732   2.313   1.448
  321SOL     OW 1861   3.739   1.820   0.037
  321SOL    HW1 1862   3.718   1.727   0.068
  321SOL    HW2 1863   3.791   1.868   0.108
  322SOL     OW 1864   3.464   2.914   4.204
  322SOL    HW1 1865   3.470   3.007   4.168
  322SOL    HW2 1866   3.393   2.910   4.274
  323SOL     OW 1867   0.842   3.010   6.626
  323SOL    HW1 1868   0.858   2.918   6.665
  323SOL    HW2 1869   0.804   3.069   6.697
  324SOL     OW 1870   2.618   1.197   4.758
  324SOL    HW1 1871   2.636   1.292   4.732
  324SOL    HW2 1872   2.616   1.190   4.858
  325SOL     OW 1873   0.615   2.834   1.760
  325SOL    HW1 1874   0.593   2.893   1.683
  325SOL    HW2 1875   0.532   2.820   1.815
  326SOL     OW 1876   1.016   5.209   6.529
  326SOL    HW1 1877   1.001   5.124   6.479
  326SOL    HW2 1878   1.069   5.190   6.612
  327SOL     OW 1879   1.491   4.577   3.320
  327SOL    HW1 1880   1.460   4.554   3.228
  327SOL    HW2 1881   1.589   4.599   3.317
  328SOL     OW 1882   1.294   5.945   1.651
  328SOL    HW1 1883   1.370   5.987   1.700
  328SOL    HW2 1884   1.250   5.877   1.709
  329SOL     OW 1885   3.781   3.351   4.875
  329SOL    HW1 1886   3.738   3.366   4.964
  329SOL    HW2 1887   3.857   3.416   4.864
  330SOL     OW 1888   3.795   6.745   1.351
  330SOL    HW1 1889   3.814   6.671   1.286
  330SOL    HW2 1890   3.718   6.718   1.409
  331SOL     OW 1891   3.346   5.512   0.397
  331SOL    HW1 1892   3.325   5.453   0.475
  331SOL    HW2 1893   3.304   5.602   0.412
  332SOL     OW 1894   4.539   1.741   5.076
  332SOL    HW1 1895   4.471   1.777   5.139
  332SOL    HW2 1896   4.520   1.774   4.984
  333SOL     OW 1897   2.994   0.459   6.121
  333SOL    HW1 1898   3.060   0.486   6.051
  333SOL    HW2 1899   2.913   0.517   6.114
  334SOL     OW 1900   3.382   0.351   1.685
  334SOL    HW1 1901   3.334   0.420   1.630
  334SOL    HW2 1902   3.429   0.396   1.761
  335SOL     OW 1903   4.021   0.002   5.553
  335SOL    HW1 1904   4.028   0.087   5.605
  335SOL    HW2 1905   4.081   0.006   5.473
  336SOL     OW 1906   1.782   0.781   3.437
  336SOL    HW1 1907   1.745   0.867   3.472
  336SOL    HW2 1908   1.768   0.709   3.504
  337SOL     OW 1909   0.367   2.798   0.132
  337SOL    HW1 1910   0.332   2.708   0.106
  337SOL    HW2 1911   0.415   2.791   0.220
  338SOL     OW 1912   2.863   2.505   1.436
  338SOL    HW1 1913   2.891   2.422   1.483
  338SOL    HW2 1914   2.850   2.578   1.503
  339SOL     OW 1915   3.440   6.176   3.984
  339SOL    HW1 1916   3.452   6.100   4.048
  339SOL    HW2 1917   3.405   6.141   3.897
  340SOL     OW 1918   4.909   4.261   5.243
  340SOL    HW1 1919   4.814   4.258   5.212
  340SOL    HW2 1920   4.920   4.205   5.325
  341SOL     OW 1921   6.547   0.523   4.844
  341SOL    HW1 1922   6.470   0.568   4.801
  341SOL    HW2 1923   6.520   0.491   4.935
  342SOL     OW 1924   6.107   3.791   0.201
  342SOL    HW1 1925   6.037   3.728   0.166
  342SOL    HW2 1926   6.102   3.877   0.150
  343SOL     OW 1927   1.690   5.426   0.548
  343SOL    HW1 1928   1.739   5.348   0.509
  343SOL    HW2 1929   1.691   5.419   0.647
  344SOL     OW 1930   1.436   4.110   1.907
  344SOL    HW1 1931   1.399   4.102   1.815
  344SOL    HW2 1932   1.445   4.019   1.947
  345SOL     OW 1933   4.147   1.650   3.204
  345SOL    HW1 1934   4.221   1.714   3.224
  345SOL    HW2 1935   4.144   1.633   3.105
  346SOL     OW 1936   2.063   0.846   2.862
  346SOL    HW1 1937   1.991   0.847   2.793
  346SOL    HW2 1938   2.095   0.752   2.874
  347SOL     OW 1939   2.943   5.735   6.287
  347SOL    HW1 1940   3.021   5.798   6.287
  347SOL    HW2 1941   2.972   5.645   6.255
  348SOL     OW 1942   5.401   4.108   2.204
  348SOL    HW1 1943   5.439   4.069   2.120
  348SOL    HW2 1944   5.325   4.052   2.236
  349SOL     OW 1945   6.764   5.424   1.047
  349SOL    HW1 1946   6.862   5.414   1.064
  349SOL    HW2 1947   6.733   5.354   0.983
  350SOL     OW 1948   3.267   3.673   0.967
  350SOL    HW1 1949   3.216   3.599   0.924
  350SOL    HW2 1950   3.218   3.704   1.049
  351SOL     OW 1951   1.763   2.996   1.183
  351SOL    HW1 1952   1.830   2.940   1.232
  351SOL    HW2 1953   1.699   3.036   1.248
  352SOL     OW 1954   2.862   0.808   4.890
  352SOL    HW1 1955   2.814   0.851   4.814
  352SOL    HW2 1956   2.960   0.810   4.873
  353SOL     OW 1957   2.232   0.077   0.970
  353SOL    HW1 1958   2.163   0.006   0.982
  353SOL    HW2 1959   2.238   0.102   0.873
  354SOL     OW 1960   3.559   2.783   0.974
  354SOL    HW1 1961   3.545   2.694   1.019
  354SOL    HW2 1962   3.471   2.827   0.958
  355SOL     OW 1963   0.983   3.506   2.643
  355SOL    HW1 1964   0.923   3.439   2.686
  355SOL    HW2 1965   0.939   3.541   2.560
  356SOL     OW 1966   2.950   0.221   5.988
  356SOL    HW1 1967   2.962   0.314   6.022
  356SOL    HW2 1968   3.031   0.167   6.009
  357SOL     OW 1969   6.579   6.284   5.541
  357SOL    HW1 1970   6.573   6.193   5.583
  357SOL    HW2 1971   6.487   6.322   5.529
  358SOL     OW 1972   4.154   6.702   0.366
  358SOL    HW1 1973   4.128   6.718   0.461
  358SOL    HW2 1974   4.081   6.735   0.306
  359SOL     OW 1975   1.774   2.603   2.201
  359SOL    HW1 1976   1.802   2.600   2.297
  359SOL    HW2 1977   1.844   2.649   2.147
  360SOL     OW 1978   0.846   5.189   6.318
  360SOL    HW1 1979   0.767   5.139   6.354
  360SOL    HW2 1980   0.903   5.219   6.394
  361SOL     OW 1981   6.077   5.707   3.222
  361SOL    HW1 1982   6.093   5.617   3.180
  361SOL    HW2 1983   6.148   5.771   3.194
  362SOL     OW 1984   3.936   3.902   1.445
  362SOL    HW1 1985   3.960   3.821   1.498
  362SOL    HW2 1986   3.853   3.884   1.392
  363SOL     OW 1987   5.353   4.316   3.410
  363SOL    HW1 1988   5.432   4.292   3.465
  363SOL    HW2 1989   5.380   4.324   3.314
  364SOL     OW 1990   6.563   5.401   6.400
  364SOL    HW1 1991   6.488   5.449   6.445
  364SOL    HW2 1992   6.608   5.340   6.466
  365SOL     OW 1993   6.212   6.276   2.437
  365SOL    HW1 1994   6.236   6.186   2.400
  365SOL    HW2 1995   6.234   6.279   2.534
  366SOL     OW 1996   6.117   0.786   6.051
  366SOL    HW1 1997   6.044   0.808   6.115
  366SOL    HW2 1998   6.167   0.706   6.083
  367SOL     OW 1999   5.117   2.973   0.994
  367SOL    HW1 2000   5.085   2.972   0.899
  367SOL    HW2 2001   5.155   3.062   1.016
  368SOL     OW 2002   0.252   3.983   4.734
  368SOL    HW1 2003   0.283   4.037   4.656
  368SOL    HW2 2004   0.332   3.947   4.782
  369SOL     OW 2005   6.546   5.380   2.204
  369SOL    HW1 2006   6.454   5.364   2.169
  369SOL    HW2 2007   6.611   5.379   2.128
  370SOL     OW 2008   2.772   1.162   5.822
  370SOL    HW1 2009   2.694   1.100   5.816
  370SOL    HW2 2010   2.759   1.239   5.759
  371SOL     OW 2011   2.422   3.625   6.062
  371SOL    HW1 2012   2.372   3.546   6.097
  371SOL    HW2 2013   2.373   3.665   5.985
  372SOL     OW 2014   0.854   6.428   6.067
  372SOL    HW1 2015   0.759   6.437   6.098
  372SOL    HW2 2016   0.879   6.508   6.013
  373SOL     OW 2017   6.707   6.786   4.463
  373SOL    HW1 2018   6.641   6.843   4.413
  373SOL    HW2 2019   6.790   6.777   4.408
  374SOL     OW 2020   2.557   1.599   3.318
  374SOL    HW1 2021   2.519   1.691   3.329
  374SOL    HW2 2022   2.648   1.595   3.361
  375SOL     OW 2023   1.103   4.207   3.920
  375SOL    HW1 2024   1.096   4.175   4.014
  375SOL    HW2 2025   1.017   4.251   3.893
  376SOL     OW 2026   2.550   1.588   4.927
  376SOL    HW1 2027   2.513   1.506   4.970
  376SOL    HW2 2028   2.639   1.609   4.967
  377SOL     OW 2029   1.158   1.779   1.285
  377SOL    HW1 2030   1.236   1.717   1.286
  377SOL    HW2 2031   1.182   1.864   1.238
  378SOL     OW 2032   3.593   2.080   5.712
  378SOL    HW1 2033   3.518   2.055   5.652
  378SOL    HW2 2034   3.588   2.178   5.733
  379SOL     OW 2035   5.926   4.010   0.963
  379SOL    HW1 2036   5.923   4.073   1.040
  379SOL    HW2 2037   5.849   4.029   0.902
  380SOL     OW 2038   2.796   1.535   1.404
  380SOL    HW1 2039   2.868   1.574   1.346
  380SOL    HW2 2040   2.733   1.481   1.347
  381SOL     OW 2041   1.450   3.886   2.724
  381SOL    HW1 2042   1.468   3.976   2.683
  381SOL    HW2 2043   1.520   3.867   2.793
  382SOL     OW 2044   5.738   6.539   6.269
  382SOL    HW1 2045   5.806   6.591   6.321
  382SOL    HW2 2046   5.665   6.601   6.239
  383SOL     OW 2047   4.668   3.403   5.829
  383SOL    HW1 2048   4.706   3.314   5.806
  383SOL    HW2 2049   4.734   3.454   5.884
  384SOL     OW 2050   6.786   5.680   4.723
  384SOL    HW1 2051   6.733   5.700   4.805
  384SOL    HW2 2052   6.789   5.761   4.664
  385SOL     OW 2053   4.103   5.780   4.893
  385SOL    HW1 2054   4.143   5.872   4.884
  385SOL    HW2 2055   4.003   5.788   4.903
  386SOL     OW 2056   2.383   6.222   5.436
  386SOL    HW1 2057   2.416   6.188   5.348
  386SOL    HW2 2058   2.458   6.222   5.502
  387SOL     OW 2059   1.019   6.765   3.647
  387SOL    HW1 2060   0.950   6.762   3.575
  387SOL    HW2 2061   1.022   6.678   3.695
  388SOL     OW 2062   1.523   1.590   4.253
  388SOL    HW1 2063   1.585   1.651   4.203
  388SOL    HW2 2064   1.567   1.501   4.264
  389SOL     OW 2065   3.654   4.671   0.914
  389SOL    HW1 2066   3.699   4.651   0.827
  389SOL    HW2 2067   3.686   4.607   0.984
  390SOL     OW 2068   3.488   1.572   0.291
  390SOL    HW1 2069   3.517   1.583   0.386
  390SOL    HW2 2070   3.569   1.553   0.234
  391SOL     OW 2071   2.455   3.861   5.521
  391SOL    HW1 2072   2.448   3.811   5.434
  391SOL    HW2 2073   2.533   3.826   5.573
  392SOL     OW 2074   2.177   4.310   0.926
  392SOL    HW1 2075   2.152   4.326   1.022
  392SOL    HW2 2076   2.137   4.224   0.895
  393SOL     OW 2077   1.159   4.739   6.493
  393SOL    HW1 2078   1.134   4.690   6.409
  393SOL    HW2 2079   1.195   4.674   6.560
  394SOL     OW 2080   0.042   2.537   0.510
  394SOL    HW1 2081   0.040   2.490   0.598
  394SOL    HW2 2082   0.062   2.634   0.524
  395SOL     OW 2083   4.549   4.915   3.210
  395SOL    HW1 2084   4.579   4.820   3.203
  395SOL    HW2 2085   4.521   4.934   3.305
  396SOL     OW 2086   2.861   3.294   2.099
  396SOL    HW1 2087   2.775   3.248   2.119
  396SOL    HW2 2088   2.848   3.359   2.025
  397SOL     OW 2089   5.627   1.442   5.905
  397SOL    HW1 2090   5.646   1.417   5.810
  397SOL    HW2 2091   5.551   1.507   5.908
  398SOL     OW 2092   1.063   6.983   3.837
  398SOL    HW1 2093   1.057   6.894   3.791
  398SOL    HW2 2094   1.044   6.971   3.935
  399SOL     OW 2095   5.136   6.649   3.878
  399SOL    HW1 2096   5.111   6.596   3.797
  399SOL    HW2 2097   5.119   6.746   3.861
  400SOL     OW 2098   6.090   6.507   5.417
  400SOL    HW1 2099   6.045   6.447   5.483
  400SOL    HW2 2100   6.145   6.452   5.354
  401SOL     OW 2101   5.063   0.193   6.529
  401SOL    HW1 2102   5.091   0.113   6.476
  401SOL    HW2 2103   5.136   0.217   6.594
  402SOL     OW 2104   6.331   0.608   3.466
  402SOL    HW1 2105   6.352   0.697   3.506
  402SOL    HW2 2106   6.415   0.554   3.461
  403SOL     OW 2107   3.602   1.199   4.922
  403SOL    HW1 2108   3.688   1.248   4.906
  403SOL    HW2 2109   3.544   1.253   4.983
  404SOL     OW 2110   1.623   4.417   3.740
  404SOL    HW1 2111   1.693   4.346   3.733
  404SOL    HW2 2112   1.593   4.424   3.835
  405SOL     OW 2113   2.022   3.194   3.170
  405SOL    HW1 2114   2.084   3.192   3.248
  405SOL    HW2 2115   2.073   3.219   3.087
  406SOL     OW 2116   0.502   4.557   4.835
  406SOL    HW1 2117   0.433   4.485   4.840
  406SOL    HW2 2118   0.510   4.589   4.741
  407SOL     OW 2119   1.053   1.607   5.370
  407SOL    HW1 2120   1.122   1.535   5.369
  407SOL    HW2 2121   1.069   1.670   5.294
  408SOL     OW 2122   2.919   2.251   3.013
  408SOL    HW1 2123   2.853   2.177   3.028
  408SOL    HW2 2124   2.872   2.329   2.973
  409SOL     OW 2125   6.151   3.610   2.071
  409SOL    HW1 2126   6.064   3.564   2.054
  409SOL    HW2 2127   6.207   3.607   1.988
  410SOL     OW 2128   0.953   1.596   0.952
  410SOL    HW1 2129   0.981   1.553   1.038
  410SOL    HW2 2130   1.008   1.678   0.937
  411SOL     OW 2131   6.816   0.871   1.174
  411SOL    HW1 2132   6.741   0.847   1.236
  411SOL    HW2 2133   6.903   0.860   1.222
  412SOL     OW 2134   3.588   5.532   3.076
  412SOL    HW1 2135   3.638   5.446   3.070
  412SOL    HW2 2136   3.491   5.515   3.057
  413SOL     OW 2137   5.962   4.130   2.010
  413SOL    HW1 2138   6.020   4.053   2.035
  413SOL    HW2 2139   5.912   4.109   1.926
  414SOL     OW 2140   3.884   5.853   3.210
  414SOL    HW1 2141   3.809   5.849   3.144
  414SOL    HW2 2142   3.883   5.941   3.256
  415SOL     OW 2143   0.044   0.242   0.079
  415SOL    HW1 2144   0.051   0.262   0.177
  415SOL    HW2 2145   6.981   0.193   0.061
  416SOL     OW 2146   5.065   5.930   5.060
  416SOL    HW1 2147   4.990   5.868   5.080
  416SOL    HW2 2148   5.046   5.979   4.974
  417SOL     OW 2149   2.196   6.669   5.634
  417SOL    HW1 2150   2.193   6.571   5.653
  417SOL    HW2 2151   2.251   6.715   5.704
  418SOL     OW 2152   3.288   6.575   6.509
  418SOL    HW1 2153   3.313   6.655   6.455
  418SOL    HW2 2154   3.344   6.571   6.592
  419SOL     OW 2155   1.460   6.689   2.846
  419SOL    HW1 2156   1.504   6.645   2.924
  419SOL    HW2 2157   1.499   6.653   2.761
  420SOL     OW 2158   5.829   1.344   6.793
  420SOL    HW1 2159   5.905   1.324   6.856
  420SOL    HW2 2160   5.850   1.428   6.742
  421SOL     OW 2161   5.867   3.992   4.990
  421SOL    HW1 2162   5.812   4.025   5.067
  421SOL    HW2 2163   5.947   4.051   4.978
  422SOL     OW 2164   5.234   3.603   1.502
  422SOL    HW1 2165   5.313   3.640   1.454
  422SOL    HW2 2166   5.159   3.587   1.437
  423SOL     OW 2167   0.996   2.293   6.686
  423SOL    HW1 2168   0.918   2.329   6.737
  423SOL    HW2 2169   1.058   2.368   6.661
  424SOL     OW 2170   1.817   5.228   2.088
  424SOL    HW1 2171   1.744   5.277   2.133
  424SOL    HW2 2172   1.778   5.159   2.026
  425SOL     OW 2173   4.893   1.832   3.933
  425SOL    HW1 2174   4.964   1.762   3.948
  425SOL    HW2 2175   4.826   1.797   3.867
  426SOL     OW 2176   2.678   1.838   4.552
  426SOL    HW1 2177   2.704   1.929   4.584
  426SOL    HW2 2178   2.760   1.785   4.532
  427SOL     OW 2179   6.415   6.772   3.976
  427SOL    HW1 2180   6.468   6.852   3.949
  427SOL    HW2 2181   6.477   6.699   4.006
  428SOL     OW 2182   3.518   0.183   3.417
  428SOL    HW1 2183   3.487   0.112   3.480
  428SOL    HW2 2184   3.611   0.163   3.387
  429SOL     OW 2185   0.704   4.791   3.330
  429SOL    HW1 2186   0.747   4.879   3.309
  429SOL    HW2 2187   0.607   4.795   3.305
  430SOL     OW 2188   1.165   6.308   4.326
  430SOL    HW1 2189   1.213   6.265   4.250
  430SOL    HW2 2190   1.197   6.269   4.412
  431SOL     OW 2191   3.044   0.332   1.567
  431SOL    HW1 2192   3.046   0.233   1.552
  431SOL    HW2 2193   3.021   0.351   1.662
  432SOL     OW 2194   6.806   2.186   1.125
  432SOL    HW1 2195   6.768   2.093   1.128
  432SOL    HW2 2196   6.774   2.238   1.204
  433SOL     OW 2197   2.055   6.341   6.095
  433SOL    HW1 2198   2.135   6.317   6.151
  433SOL    HW2 2199   2.085   6.365   6.003
  434SOL     OW 2200   4.276   5.758   3.489
  434SOL    HW1 2201   4.338   5.804   3.426
  434SOL    HW2 2202   4.218   5.694   3.439
  435SOL     OW 2203   3.967   2.036   6.132
  435SOL    HW1 2204   4.052   2.003   6.174
  435SOL    HW2 2205   3.950   2.130   6.162
  436SOL     OW 2206   2.915   5.486   1.937
  436SOL    HW1 2207   2.871   5.445   1.857
  436SOL    HW2 2208   3.015   5.480   1.927
  437SOL     OW 2209   0.849   0.802   6.731
  437SOL    HW1 2210   0.757   0.767   6.747
  437SOL    HW2 2211   0.859   0.890   6.778
  438SOL     OW 2212   1.609   3.687   4.072
  438SOL    HW1 2213   1.692   3.657   4.025
  438SOL    HW2 2214   1.583   3.777   4.040
  439SOL     OW 2215   5.794   6.122   2.679
  439SOL    HW1 2216   5.703   6.094   2.709
  439SOL    HW2 2217   5.857   6.120   2.756
  440SOL     OW 2218   2.970   1.999   5.580
  440SOL    HW1 2219   2.957   2.086   5.628
  440SOL    HW2 2220   2.903   1.932   5.612
  441SOL     OW 2221   0.026   3.690   3.050
  441SOL    HW1 2222   0.099   3.622   3.056
  441SOL    HW2 2223   0.046   3.753   2.976
  442SOL     OW 2224   4.201   5.695   5.477
  442SOL    HW1 2225   4.215   5.793   5.459
  442SOL    HW2 2226   4.161   5.652   5.396
  443SOL     OW 2227   5.452   4.109   4.477
  443SOL    HW1 2228   5.515   4.165   4.423
  443SOL    HW2 2229   5.490   4.017   4.486
  444SOL     OW 2230   5.026   6.738   5.891
  444SOL    HW1 2231   4.930   6.716   5.871
  444SOL    HW2 2232   5.055   6.686   5.972
  445SOL     OW 2233   1.881   6.082   3.388
  445SOL    HW1 2234   1.785   6.097   3.363
  445SOL    HW2 2235   1.929   6.169   3.387
  446SOL     OW 2236   4.200   5.368   2.839
  446SOL    HW1 2237   4.198   5.436   2.912
  446SOL    HW2 2238   4.200   5.414   2.750
  447SOL     OW 2239   6.177   4.000   5.293
  447SOL    HW1 2240   6.195   3.907   5.324
  447SOL    HW2 2241   6.166   4.060   5.373
  448SOL     OW 2242   2.434   0.882   2.926
  448SOL    HW1 2243   2.490   0.958   2.893
  448SOL    HW2 2244   2.338   0.912   2.934
  449SOL     OW 2245   2.979   1.144   4.149
  449SOL    HW1 2246   2.988   1.046   4.134
  449SOL    HW2 2247   3.061   1.178   4.195
  450SOL     OW 2248   1.799   4.519   3.238
  450SOL    HW1 2249   1.849   4.439   3.205
  450SOL    HW2 2250   1.844   4.555   3.320
  451SOL     OW 2251   1.703   2.002   4.340
  451SOL    HW1 2252   1.642   2.014   4.418
  451SOL    HW2 2253   1.795   1.982   4.373
  452SOL     OW 2254   4.565   6.453   1.242
  452SOL    HW1 2255   4.617   6.534   1.216
  452SOL    HW2 2256   4.627   6.385   1.281
  453SOL     OW 2257   3.480   0.231   6.838
  453SOL    HW1 2258   3.550   0.162   6.820
  453SOL    HW2 2259   3.514   0.321   6.812
  454SOL     OW 2260   6.929   3.404   6.676
  454SOL    HW1 2261   6.878   3.381   6.759
  454SOL    HW2 2262   6.989   3.328   6.651
  455SOL     OW 2263   5.223   2.368   4.708
  455SOL    HW1 2264   5.139   2.364   4.654
  455SOL    HW2 2265   5.223   2.295   4.776
  456SOL     OW 2266   0.738   0.478   4.761
  456SOL    HW1 2267   0.671   0.545   4.793
  456SOL    HW2 2268   0.691   0.403   4.714
  457SOL     OW 2269   1.778   4.508   4.255
  457SOL    HW1 2270   1.849   4.509   4.326
  457SOL    HW2 2271   1.775   4.598   4.211
  458SOL     OW 2272   2.878   6.959   3.117
  458SOL    HW1 2273   2.914   6.946   3.209
  458SOL    HW2 2274   2.923   0.014   3.073
  459SOL     OW 2275   1.553   0.061   5.871
  459SOL    HW1 2276   1.472   0.042   5.815
  459SOL    HW2 2277   1.566   0.160   5.878
  460SOL     OW 2278   1.418   0.017   4.833
  460SOL    HW1 2279   1.516   0.034   4.823
  460SOL    HW2 2280   1.366   0.095   4.799
  461SOL     OW 2281   6.803   4.866   5.911
  461SOL    HW1 2282   6.770   4.810   5.835
  461SOL    HW2 2283   6.801   4.812   5.995
  462SOL     OW 2284   3.901   3.326   6.056
  462SOL    HW1 2285   3.895   3.314   6.155
  462SOL    HW2 2286   3.855   3.411   6.030
  463SOL     OW 2287   0.111   0.184   3.732
  463SOL    HW1 2288   0.184   0.253   3.726
  463SOL    HW2 2289   0.097   0.159   3.828
  464SOL     OW 2290   2.353   0.610   5.816
  464SOL    HW1 2291   2.447   0.577   5.825
  464SOL    HW2 2292   2.325   0.653   5.902
  465SOL     OW 2293   0.458   2.319   0.150
  465SOL    HW1 2294   0.412   2.406   0.130
  465SOL    HW2 2295   0.396   2.261   0.202
  466SOL     OW 2296   2.628   6.530   4.139
  466SOL    HW1 2297   2.604   6.492   4.050
  466SOL    HW2 2298   2.659   6.457   4.200
  467SOL     OW 2299   1.498   1.505   2.350
  467SOL    HW1 2300   1.402   1.498   2.380
  467SOL    HW2 2301   1.532   1.596   2.369
  468SOL     OW 2302   3.560   5.332   5.058
  468SOL    HW1 2303   3.486   5.324   5.124
  468SOL    HW2 2304   3.571   5.245   5.009
  469SOL     OW 2305   2.908   3.438   6.020
  469SOL    HW1 2306   2.981   3.436   5.951
  469SOL    HW2 2307   2.824   3.401   5.981
  470SOL     OW 2308   4.189   5.997   1.114
  470SOL    HW1 2309   4.153   5.926   1.054
  470SOL    HW2 2310   4.236   6.067   1.059
  471SOL     OW 2311   2.460   2.597   4.106
  471SOL    HW1 2312   2.478   2.572   4.201
  471SOL    HW2 2313   2.403   2.680   4.104
  472SOL     OW 2314   6.047   4.818   6.795
  472SOL    HW1 2315   6.127   4.874   6.775
  472SOL    HW2 2316   6.013   4.840   6.887
  473SOL     OW 2317   1.204   1.553   2.278
  473SOL    HW1 2318   1.263   1.604   2.215
  473SOL    HW2 2319   1.132   1.508   2.226
  474SOL     OW 2320   5.260   5.375   4.742
  474SOL    HW1 2321   5.284   5.350   4.836
  474SOL    HW2 2322   5.217   5.297   4.697
  475SOL     OW 2323   6.309   2.654   0.445
  475SOL    HW1 2324   6.249   2.679   0.521
  475SOL    HW2 2325   6.256   2.656   0.360
  476SOL     OW 2326   6.990   3.809   1.856
  476SOL    HW1 2327   6.992   3.850   1.948
  476SOL    HW2 2328   6.997   3.881   1.787
  477SOL     OW 2329   2.857   5.947   3.318
  477SOL    HW1 2330   2.785   5.956   3.387
  477SOL    HW2 2331   2.826   5.987   3.232
  478SOL     OW 2332   4.155   5.926   3.082
  478SOL    HW1 2333   4.104   5.982   3.016
  478SOL    HW2 2334   4.092   5.894   3.153
  479SOL     OW 2335   3.852   2.988   5.130
  479SOL    HW1 2336   3.846   3.021   5.036
  479SOL    HW2 2337   3.912   3.048   5.183
  480SOL     OW 2338   3.125   0.625   1.008
  480SOL    HW1 2339   3.056   0.674   1.060
  480SOL    HW2 2340   3.080   0.570   0.937
  481SOL     OW 2341   0.728   6.885   1.798
  481SOL    HW1 2342   0.681   6.803   1.766
  481SOL    HW2 2343   0.784   6.861   1.878
  482SOL     OW 2344   4.962   4.862   2.073
  482SOL    HW1 2345   4.869   4.900   2.081
  482SOL    HW2 2346   4.956   4.765   2.049
  483SOL     OW 2347   6.851   2.465   2.776
  483SOL    HW1 2348   6.862   2.564   2.786
  483SOL    HW2 2349   6.829   2.425   2.865
  484SOL     OW 2350   1.448   3.956   4.639
  484SOL    HW1 2351   1.497   3.878   4.679
  484SOL    HW2 2352   1.439   3.942   4.540
  485SOL     OW 2353   4.867   4.584   2.518
  485SOL    HW1 2354   4.840   4.610   2.425
  485SOL    HW2 2355   4.917   4.660   2.560
  486SOL     OW 2356   5.675   1.739   6.848
  486SOL    HW1 2357   5.674   1.655   6.903
  486SOL    HW2 2358   5.629   1.812   6.897
  487SOL     OW 2359   0.479   0.764   3.301
  487SOL    HW1 2360   0.529   0.809   3.376
  487SOL    HW2 2361   0.482   0.665   3.313
  488SOL     OW 2362   0.795   6.959   2.274
  488SOL    HW1 2363   0.787   6.878   2.331
  488SOL    HW2 2364   0.890   6.987   2.266
  489SOL     OW 2365   5.781   6.066   5.833
  489SOL    HW1 2366   5.729   6.024   5.907
  489SOL    HW2 2367   5.865   6.106   5.869
  490SOL     OW 2368   2.222   6.117   3.836
  490SOL    HW1 2369   2.270   6.184   3.780
  490SOL    HW2 2370   2.267   6.028   3.828
  491SOL     OW 2371   1.316   3.217   1.181
  491SOL    HW1 2372   1.392   3.201   1.118
  491SOL    HW2 2373   1.334   3.171   1.268
  492SOL     OW 2374   1.379   1.141   5.597
  492SOL    HW1 2375   1.285   1.134   5.632
  492SOL    HW2 2376   1.434   1.193   5.663
  493SOL     OW 2377   3.131   6.862   5.651
  493SOL    HW1 2378   3.200   6.819   5.593
  493SOL    HW2 2379   3.056   6.896   5.594
  494SOL     OW 2380   1.498   6.773   6.607
  494SOL    HW1 2381   1.512   6.760   6.706
  494SOL    HW2 2382   1.400   6.778   6.588
  495SOL     OW 2383   3.473   5.948   4.158
  495SOL    HW1 2384   3.573   5.958   4.149
  495SOL    HW2 2385   3.444   5.863   4.115
  496SOL     OW 2386   6.337   2.866   1.840
  496SOL    HW1 2387   6.290   2.941   1.887
  496SOL    HW2 2388   6.384   2.902   1.759
  497SOL     OW 2389   3.263   1.265   4.726
  497SOL    HW1 2390   3.296   1.171   4.715
  497SOL    HW2 2391   3.239   1.302   4.636
  498SOL     OW 2392   0.685   4.625   2.608
  498SOL    HW1 2393   0.594   4.616   2.649
  498SOL    HW2 2394   0.711   4.539   2.564
  499SOL     OW 2395   1.391   5.405   4.362
  499SOL    HW1 2396   1.451   5.396   4.283
  499SOL    HW2 2397   1.326   5.479   4.346
  500SOL     OW 2398   5.841   2.363   6.916
  500SOL    HW1 2399   5.938   2.350   6.937
  500SOL    HW2 2400   5.812   2.454   6.944
  501SOL     OW 2401   4.076   6.711   0.653
  501SOL    HW1 2402   4.146   6.745   0.716
  501SOL    HW2 2403   3.990   6.759   0.669
  502SOL     OW 2404   0.851   4.662   6.037
  502SOL    HW1 2405   0.818   4.742   5.987
  502SOL    HW2 2406   0.944   4.640   6.007
  503SOL     OW 2407   1.509   4.829   6.102
  503SOL    HW1 2408   1.605   4.843   6.078
  503SOL    HW2 2409   1.465   4.918   6.118
  504SOL     OW 2410   1.155   5.688   2.220
  504SOL    HW1 2411   1.116   5.607   2.178
  504SOL    HW2 2412   1.244   5.708   2.179
  505SOL     OW 2413   4.133   6.694   4.820
  505SOL    HW1 2414   4.051   6.658   4.776
  505SOL    HW2 2415   4.109   6.733   4.909
  506SOL     OW 2416   2.926   6.234   2.555
  506SOL    HW1 2417   2.876   6.316   2.530
  506SOL    HW2 2418   3.021   6.257   2.574
  507SOL     OW 2419   3.062   6.283   3.117
  507SOL    HW1 2420   3.024   6.247   3.032
  507SOL    HW2 2421   2.988   6.305   3.180
  508SOL     OW 2422   0.122   3.275   1.800
  508SOL    HW1 2423   0.129   3.368   1.837
  508SOL    HW2 2424   0.055   3.223   1.853
  509SOL     OW 2425   3.674   1.239   1.193
  509SOL    HW1 2426   3.627   1.267   1.109
  509SOL    HW2 2427   3.722   1.153   1.178
  510SOL     OW 2428   6.811   4.317   6.260
  510SOL    HW1 2429   6.836   4.227   6.295
  510SOL    HW2 2430   6.835   4.324   6.163
  511SOL     OW 2431   0.894   2.045   6.743
  511SOL    HW1 2432   0.840   2.056   6.826
  511SOL    HW2 2433   0.941   2.130   6.721
  512SOL     OW 2434   6.398   2.486   6.747
  512SOL    HW1 2435   6.355   2.414   6.692
  512SOL    HW2 2436   6.398   2.459   6.843
  513SOL     OW 2437   5.116   6.996   3.163
  513SOL    HW1 2438   5.069   6.992   3.251
  513SOL    HW2 2439   5.201   0.026   3.173
  514SOL     OW 2440   6.819   0.720   4.431
  514SOL    HW1 2441   6.835   0.621   4.432
  514SOL    HW2 2442   6.772   0.748   4.514
  515SOL     OW 2443   1.983   0.853   0.398
  515SOL    HW1 2444   1.915   0.926   0.389
  515SOL    HW2 2445   2.041   0.851   0.317
  516SOL     OW 2446   2.808   4.846   1.868
  516SOL    HW1 2447   2.791   4.748   1.858
  516SOL    HW2 2448   2.724   4.892   1.898
  517SOL     OW 2449   3.291   4.754   1.748
  517SOL    HW1 2450   3.362   4.692   1.783
  517SOL    HW2 2451   3.301   4.763   1.649
  518SOL     OW 2452   2.357   2.217   3.197
  518SOL    HW1 2453   2.423   2.193   3.268
  518SOL    HW2 2454   2.336   2.315   3.202
  519SOL     OW 2455   0.284   6.651   3.313
  519SOL    HW1 2456   0.260   6.694   3.226
  519SOL    HW2 2457   0.271   6.717   3.387
  520SOL     OW 2458   6.056   3.719   6.460
  520SOL    HW1 2459   6.001   3.691   6.539
  520SOL    HW2 2460   6.135   3.660   6.452
  521SOL     OW 2461   5.782   5.781   5.667
  521SOL    HW1 2462   5.866   5.827   5.697
  521SOL    HW2 2463   5.774   5.788   5.568
  522SOL     OW 2464   4.091   3.636   3.205
  522SOL    HW1 2465   4.110   3.540   3.226
  522SOL    HW2 2466   4.078   3.686   3.291
  523SOL     OW 2467   0.326   5.923   1.324
  523SOL    HW1 2468   0.247   5.891   1.377
  523SOL    HW2 2469   0.307   6.015   1.290
  524SOL     OW 2470   1.550   2.450   2.829
  524SOL    HW1 2471   1.555   2.518   2.902
  524SOL    HW2 2472   1.527   2.361   2.868
  525SOL     OW 2473   2.133   4.444   5.645
  525SOL    HW1 2474   2.157   4.521   5.703
  525SOL    HW2 2475   2.106   4.477   5.555
  526SOL     OW 2476   3.419   6.755   3.967
  526SOL    HW1 2477   3.507   6.748   3.920
  526SOL    HW2 2478   3.368   6.669   3.957
  527SOL     OW 2479   6.810   2.791   0.671
  527SOL    HW1 2480   6.909   2.804   0.679
  527SOL    HW2 2481   6.766   2.820   0.756
  528SOL     OW 2482   1.797   2.506   3.620
  528SOL    HW1 2483   1.786   2.474   3.526
  528SOL    HW2 2484   1.731   2.580   3.638
  529SOL     OW 2485   1.588   6.512   4.996
  529SOL    HW1 2486   1.557   6.528   5.090
  529SOL    HW2 2487   1.644   6.590   4.966
  530SOL     OW 2488   4.152   3.623   2.934
  530SOL    HW1 2489   4.250   3.643   2.933
  530SOL    HW2 2490   4.114   3.647   3.023
  531SOL     OW 2491   1.027   1.205   3.031
  531SOL    HW1 2492   1.115   1.186   3.074
  531SOL    HW2 2493   1.011   1.304   3.029
  532SOL     OW 2494   1.248   2.824   0.378
  532SOL    HW1 2495   1.251   2.874   0.464
  532SOL    HW2 2496   1.156   2.830   0.339
  533SOL     OW 2497   4.209   6.979   3.375
  533SOL    HW1 2498   4.156   0.030   3.334
  533SOL    HW2 2499   4.151   6.928   3.440
  534SOL     OW 2500   5.542   5.843   2.890
  534SOL    HW1 2501   5.638   5.813   2.895
  534SOL    HW2 2502   5.486   5.781   2.944
  535SOL     OW 2503   6.711   4.153   3.397
  535SOL    HW1 2504   6.784   4.216   3.372
  535SOL    HW2 2505   6.639   4.202   3.445
  536SOL     OW 2506   6.681   4.968   2.776
  536SOL    HW1 2507   6.611   4.897   2.766
  536SOL    HW2 2508   6.650   5.051   2.729
  537SOL     OW 2509   3.035   6.772   4.783
  537SOL    HW1 2510   3.003   6.770   4.878
  537SOL    HW2 2511   3.034   6.866   4.749
  538SOL     OW 2512   0.512   4.696   3.970
  538SOL    HW1 2513   0.545   4.667   4.060
  538SOL    HW2 2514   0.504   4.795   3.967
  539SOL     OW 2515   2.219   4.748   1.844
  539SOL    HW1 2516   2.147   4.685   1.814
  539SOL    HW2 2517   2.307   4.719   1.807
  540SOL     OW 2518   1.237   1.440   2.917
  540SOL    HW1 2519   1.288   1.525   2.911
  540SOL    HW2 2520   1.225   1.414   3.013
  541SOL     OW 2521   5.418   5.509   3.988
  541SOL    HW1 2522   5.467   5.583   3.941
  541SOL    HW2 2523   5.333   5.545   4.027
  542SOL     OW 2524   4.557   5.920   6.819
  542SOL    HW1 2525   4.589   5.970   6.899
  542SOL    HW2 2526   4.508   5.837   6.849
  543SOL     OW 2527   6.015   3.947   3.957
  543SOL    HW1 2528   5.951   3.879   3.994
  543SOL    HW2 2529   6.050   4.004   4.031
  544SOL     OW 2530   0.949   4.958   6.916
  544SOL    HW1 2531   0.995   4.874   6.945
  544SOL    HW2 2532   1.015   5.016   6.867
  545SOL     OW 2533   3.559   0.686   1.134
  545SOL    HW1 2534   3.629   0.621   1.164
  545SOL    HW2 2535   3.493   0.699   1.208
  546SOL     OW 2536   1.046   3.912   1.099
  546SOL    HW1 2537   1.126   3.891   1.155
  546SOL    HW2 2538   0.965   3.914   1.158
  547SOL     OW 2539   3.736   2.229   0.854
  547SOL    HW1 2540   3.814   2.279   0.817
  547SOL    HW2 2541   3.748   2.131   0.838
  548SOL     OW 2542   3.248   3.419   1.607
  548SOL    HW1 2543   3.291   3.344   1.557
  548SOL    HW2 2544   3.173   3.384   1.661
  549SOL     OW 2545   5.560   2.633   2.115
  549SOL    HW1 2546   5.479   2.578   2.091
  549SOL    HW2 2547   5.637   2.605   2.058
  550SOL     OW 2548   1.319   5.588   3.481
  550SOL    HW1 2549   1.363   5.647   3.549
  550SOL    HW2 2550   1.220   5.593   3.492
  551SOL     OW 2551   0.313   0.034   1.984
  551SOL    HW1 2552   0.381   0.054   2.054
  551SOL    HW2 2553   0.358   0.013   1.898
  552SOL     OW 2554   6.008   4.232   6.969
  552SOL    HW1 2555   5.999   4.200   6.875
  552SOL    HW2 2556   5.921   4.269   7.000
  553SOL     OW 2557   2.558   6.698   4.361
  553SOL    HW1 2558   2.591   6.638   4.288
  553SOL    HW2 2559   2.632   6.758   4.390
  554SOL     OW 2560   5.812   0.128   0.005
  554SOL    HW1 2561   5.824   0.029   0.012
  554SOL    HW2 2562   5.714   0.149   0.008
  555SOL     OW 2563   3.569   4.955   4.786
  555SOL    HW1 2564   3.575   5.014   4.706
  555SOL    HW2 2565   3.638   4.882   4.780
  556SOL     OW 2566   5.155   1.991   3.896
  556SOL    HW1 2567   5.085   1.923   3.876
  556SOL    HW2 2568   5.173   2.046   3.814
  557SOL     OW 2569   6.683   5.561   0.650
  557SOL    HW1 2570   6.779   5.555   0.676
  557SOL    HW2 2571   6.659   5.655   0.628
  558SOL     OW 2572   3.345   3.355   3.361
  558SOL    HW1 2573   3.291   3.384   3.440
  558SOL    HW2 2574   3.329   3.258   3.342
  559SOL     OW 2575   6.960   5.665   6.008
  559SOL    HW1 2576   6.936   5.574   5.971
  559SOL    HW2 2577   6.987   5.656   6.103
  560SOL     OW 2578   6.589   3.783   3.707
  560SOL    HW1 2579   6.656   3.857   3.711
  560SOL    HW2 2580   6.531   3.786   3.788
  561SOL     OW 2581   0.526   2.425   1.222
  561SOL    HW1 2582   0.503   2.425   1.320
  561SOL    HW2 2583   0.605   2.366   1.206
  562SOL     OW 2584   4.295   0.092   6.335
  562SOL    HW1 2585   4.301   0.184   6.298
  562SOL    HW2 2586   4.211   0.048   6.304
  563SOL     OW 2587   2.950   0.362   3.838
  563SOL    HW1 2588   2.881   0.432   3.857
  563SOL    HW2 2589   3.016   0.360   3.913
  564SOL     OW 2590   1.012   2.904   0.224
  564SOL    HW1 2591   1.046   2.997   0.214
  564SOL    HW2 2592   0.922   2.905   0.267
  565SOL     OW 2593   3.706   3.889   4.606
  565SOL    HW1 2594   3.642   3.812   4.599
  565SOL    HW2 2595   3.677   3.949   4.681
  566SOL     OW 2596   0.416   4.279   3.336
  566SOL    HW1 2597   0.395   4.374   3.313
  566SOL    HW2 2598   0.428   4.227   3.251
  567SOL     OW 2599   2.713   2.753   1.705
  567SOL    HW1 2600   2.799   2.714   1.737
  567SOL    HW2 2601   2.729   2.807   1.622
  568SOL     OW 2602   4.948   0.126   6.853
  568SOL    HW1 2603   4.891   0.051   6.885
  568SOL    HW2 2604   5.026   0.089   6.802
  569SOL     OW 2605   1.227   3.056   7.021
  569SOL    HW1 2606   1.239   3.068   0.097
  569SOL    HW2 2607   1.276   2.973   6.992
  570SOL     OW 2608   3.799   6.993   6.283
  570SOL    HW1 2609   3.769   6.905   6.320
  570SOL    HW2 2610   3.725   0.012   6.231
  571SOL     OW 2611   3.098   4.913   2.548
  571SOL    HW1 2612   3.069   4.870   2.463
  571SOL    HW2 2613   3.196   4.933   2.545
  572SOL     OW 2614   2.848   4.836   5.656
  572SOL    HW1 2615   2.766   4.880   5.619
  572SOL    HW2 2616   2.863   4.749   5.609
  573SOL     OW 2617   5.347   0.679   5.922
  573SOL    HW1 2618   5.369   0.732   5.840
  573SOL    HW2 2619   5.382   0.727   6.003
  574SOL     OW 2620   3.475   1.447   4.768
  574SOL    HW1 2621   3.396   1.407   4.813
  574SOL    HW2 2622   3.549   1.380   4.764
  575SOL     OW 2623   5.133   3.770   1.699
  575SOL    HW1 2624   5.082   3.838   1.647
  575SOL    HW2 2625   5.183   3.710   1.636
  576SOL     OW 2626   1.489   2.197   2.934
  576SOL    HW1 2627   1.414   2.187   2.869
  576SOL    HW2 2628   1.561   2.130   2.913
  577SOL     OW 2629   1.068   1.393   2.705
  577SOL    HW1 2630   1.050   1.300   2.673
  577SOL    HW2 2631   1.110   1.390   2.795
  578SOL     OW 2632   6.590   5.204   4.740
  578SOL    HW1 2633   6.583   5.181   4.643
  578SOL    HW2 2634   6.568   5.300   4.753
  579SOL     OW 2635   1.863   3.595   4.012
  579SOL    HW1 2636   1.944   3.553   4.053
  579SOL    HW2 2637   1.890   3.674   3.957
  580SOL     OW 2638   4.766   4.957   5.433
  580SOL    HW1 2639   4.681   4.920   5.470
  580SOL    HW2 2640   4.834   4.885   5.425
  581SOL     OW 2641   1.495   2.254   1.888
  581SOL    HW1 2642   1.486   2.206   1.800
  581SOL    HW2 2643   1.586   2.295   1.894
  582SOL     OW 2644   4.734   5.870   2.325
  582SOL    HW1 2645   4.708   5.781   2.287
  582SOL    HW2 2646   4.834   5.878   2.324
  583SOL     OW 2647   2.661   5.950   5.125
  583SOL    HW1 2648   2.718   5.869   5.118
  583SOL    HW2 2649   2.630   5.977   5.034
  584SOL     OW 2650   2.514   5.647   6.626
  584SOL    HW1 2651   2.480   5.720   6.687
  584SOL    HW2 2652   2.436   5.600   6.585
  585SOL     OW 2653   4.509   1.463   6.420
  585SOL    HW1 2654   4.606   1.479   6.403
  585SOL    HW2 2655   4.498   1.406   6.501
  586SOL     OW 2656   3.361   0.269   6.159
  586SOL    HW1 2657   3.407   0.332   6.096
  586SOL    HW2 2658   3.295   0.318   6.214
  587SOL     OW 2659   4.661   2.201   3.764
  587SOL    HW1 2660   4.592   2.186   3.694
  587SOL    HW2 2661   4.678   2.116   3.814
  588SOL     OW 2662   2.564   5.273   1.178
  588SOL    HW1 2663   2.545   5.194   1.237
  588SOL    HW2 2664   2.662   5.293   1.180
  589SOL     OW 2665   3.608   4.652   1.547
  589SOL    HW1 2666   3.544   4.711   1.496
  589SOL    HW2 2667   3.572   4.638   1.639
  590SOL     OW 2668   5.364   2.854   2.019
  590SOL    HW1 2669   5.278   2.858   2.068
  590SOL    HW2 2670   5.436   2.818   2.080
  591SOL     OW 2671   3.532   5.715   3.618
  591SOL    HW1 2672   3.435   5.699   3.639
  591SOL    HW2 2673   3.551   5.685   3.524
  592SOL     OW 2674   3.892   0.951   1.203
  592SOL    HW1 2675   3.894   1.021   1.132
  592SOL    HW2 2676   3.976   0.957   1.257
  593SOL     OW 2677   4.004   2.183   4.318
  593SOL    HW1 2678   4.076   2.224   4.375
  593SOL    HW2 2679   3.919   2.180   4.370
  594SOL     OW 2680   6.697   1.315   0.325
  594SOL    HW1 2681   6.675   1.274   0.237
  594SOL    HW2 2682   6.687   1.414   0.320
  595SOL     OW 2683   5.331   0.935   3.683
  595SOL    HW1 2684   5.407   0.991   3.713
  595SOL    HW2 2685   5.255   0.944   3.747
  596SOL     OW 2686   0.635   5.457   3.586
  596SOL    HW1 2687   0.655   5.539   3.640
  596SOL    HW2 2688   0.536   5.451   3.569
  597SOL     OW 2689   1.989   0.170   0.177
  597SOL    HW1 2690   2.044   0.099   0.134
  597SOL    HW2 2691   2.038   0.257   0.172
  598SOL     OW 2692   3.734   3.694   5.246
  598SOL    HW1 2693   3.813   3.712   5.304
  598SOL    HW2 2694   3.658   3.754   5.273
  599SOL     OW 2695   2.660   6.413   2.234
  599SOL    HW1 2696   2.661   6.330   2.178
  599SOL    HW2 2697   2.614   6.486   2.184
  600SOL     OW 2698   5.969   1.514   6.633
  600SOL    HW1 2699   5.973   1.456   6.552
  600SOL    HW2 2700   6.009   1.603   6.613
  601SOL     OW 2701   1.111   0.475   4.570
  601SOL    HW1 2702   1.073   0.482   4.662
  601SOL    HW2 2703   1.210   0.485   4.574
  602SOL     OW 2704   1.242   1.123   6.304
  602SOL    HW1 2705   1.161   1.104   6.359
  602SOL    HW2 2706   1.310   1.171   6.360
  603SOL     OW 2707   2.845   2.515   5.401
  603SOL    HW1 2708   2.937   2.476   5.408
  603SOL    HW2 2709   2.848   2.611   5.429
  604SOL     OW 2710   1.298   2.104   1.438
  604SOL    HW1 2711   1.338   2.027   1.387
  604SOL    HW2 2712   1.226   2.071   1.499
  605SOL     OW 2713   6.840   5.290   0.169
  605SOL    HW1 2714   6.869   5.351   0.095
  605SOL    HW2 2715   6.825   5.344   0.252
  606SOL     OW 2716   5.114   6.565   6.677
  606SOL    HW1 2717   5.134   6.541   6.582
  606SOL    HW2 2718   5.092   6.482   6.729
  607SOL     OW 2719   6.061   5.353   4.807
  607SOL    HW1 2720   6.077   5.260   4.841
  607SOL    HW2 2721   6.066   5.418   4.883
  608SOL     OW 2722   3.688   6.469   6.714
  608SOL    HW1 2723   3.634   6.387   6.735
  608SOL    HW2 2724   3.778   6.461   6.758
  609SOL     OW 2725   3.856   3.147   2.598
  609SOL    HW1 2726   3.806   3.071   2.639
  609SOL    HW2 2727   3.909   3.194   2.669
  610SOL     OW 2728   5.726   3.924   2.156
  610SOL    HW1 2729   5.806   3.977   2.128
  610SOL    HW2 2730   5.647   3.951   2.102
  611SOL     OW 2731   4.099   6.943   2.026
  611SOL    HW1 2732   4.167   6.971   2.093
  611SOL    HW2 2733   4.145   6.915   1.942
  612SOL     OW 2734   3.983   6.454   4.704
  612SOL    HW1 2735   4.056   6.427   4.767
  612SOL    HW2 2736   3.926   6.374   4.683
  613SOL     OW 2737   4.766   6.164   5.252
  613SOL    HW1 2738   4.711   6.197   5.329
  613SOL    HW2 2739   4.816   6.082   5.279
  614SOL     OW 2740   5.126   5.647   0.043
  614SOL    HW1 2741   5.177   5.596   0.112
  614SOL    HW2 2742   5.070   5.717   0.088
  615SOL     OW 2743   6.947   2.153   2.082
  615SOL    HW1 2744   7.020   2.085   2.072
  615SOL    HW2 2745   6.963   2.208   2.163
  616SOL     OW 2746   0.831   3.228   3.543
  616SOL    HW1 2747   0.782   3.249   3.628
  616SOL    HW2 2748   0.921   3.190   3.565
  617SOL     OW 2749   0.555   4.517   6.281
  617SOL    HW1 2750   0.533   4.611   6.256
  617SOL    HW2 2751   0.611   4.516   6.364
  618SOL     OW 2752   6.589   2.337   0.511
  618SOL    HW1 2753   6.613   2.297   0.599
  618SOL    HW2 2754   6.593   2.437   0.519
  619SOL     OW 2755   4.040   0.989   0.264
  619SOL    HW1 2756   4.042   1.005   0.363
  619SOL    HW2 2757   4.054   1.075   0.216
  620SOL     OW 2758   3.827   2.443   1.476
  620SOL    HW1 2759   3.826   2.471   1.380
  620SOL    HW2 2760   3.878   2.357   1.486
  621SOL     OW 2761   2.242   6.682   0.147
  621SOL    HW1 2762   2.286   6.640   0.226
  621SOL    HW2 2763   2.307   6.687   0.071
  622SOL     OW 2764   1.120   0.326   6.452
  622SOL    HW1 2765   1.188   0.256   6.474
  622SOL    HW2 2766   1.067   0.299   6.372
  623SOL     OW 2767   0.680   5.546   5.351
  623SOL    HW1 2768   0.747   5.479   5.383
  623SOL    HW2 2769   0.714   5.638   5.367
  624SOL     OW 2770   0.203   2.622   0.829
  624SOL    HW1 2771   0.133   2.554   0.851
  624SOL    HW2 2772   0.203   2.693   0.899
  625SOL     OW 2773   1.794   1.804   1.504
  625SOL    HW1 2774   1.812   1.769   1.412
  625SOL    HW2 2775   1.866   1.774   1.566
  626SOL     OW 2776   2.052   6.311   3.418
  626SOL    HW1 2777   2.081   6.407   3.416
  626SOL    HW2 2778   2.123   6.255   3.459
  627SOL     OW 2779   5.349   6.484   0.029
  627SOL    HW1 2780   5.427   6.515   0.084
  627SOL    HW2 2781   5.329   6.551   6.980
  628SOL     OW 2782   6.196   5.708   6.146
  628SOL    HW1 2783   6.154   5.750   6.065
  628SOL    HW2 2784   6.130   5.709   6.221
  629SOL     OW 2785   6.562   6.331   0.439
  629SOL    HW1 2786   6.629   6.400   0.413
  629SOL    HW2 2787   6.558   6.259   0.369
  630SOL     OW 2788   6.632   1.849   2.434
  630SOL    HW1 2789   6.691   1.801   2.368
  630SOL    HW2 2790   6.669   1.939   2.453
  631SOL     OW 2791   3.288   6.620   5.267
  631SOL    HW1 2792   3.314   6.663   5.353
  631SOL    HW2 2793   3.296   6.521   5.275
  632SOL     OW 2794   2.640   1.249   0.803
  632SOL    HW1 2795   2.623   1.346   0.790
  632SOL    HW2 2796   2.654   1.205   0.715
  633SOL     OW 2797   4.741   4.184   0.260
  633SOL    HW1 2798   4.662   4.179   0.321
  633SOL    HW2 2799   4.812   4.242   0.300
  634SOL     OW 2800   4.618   4.889   1.195
  634SOL    HW1 2801   4.559   4.938   1.131
  634SOL    HW2 2802   4.588   4.906   1.288
  635SOL     OW 2803   4.685   5.141   0.945
  635SOL    HW1 2804   4.634   5.152   1.030
  635SOL    HW2 2805   4.623   5.113   0.872
  636SOL     OW 2806   4.251   5.508   6.668
  636SOL    HW1 2807   4.227   5.420   6.711
  636SOL    HW2 2808   4.178   5.574   6.686
  637SOL     OW 2809   6.875   4.020   2.802
  637SOL    HW1 2810   6.831   4.046   2.717
  637SOL    HW2 2811   6.814   3.959   2.854
  638SOL     OW 2812   5.378   2.143   3.140
  638SOL    HW1 2813   5.401   2.240   3.152
  638SOL    HW2 2814   5.380   2.120   3.043
  639SOL     OW 2815   4.874   3.618   2.739
  639SOL    HW1 2816   4.889   3.622   2.640
  639SOL    HW2 2817   4.960   3.634   2.787
  640SOL     OW 2818   0.314   5.005   4.227
  640SOL    HW1 2819   0.233   5.024   4.171
  640SOL    HW2 2820   0.386   5.070   4.204
  641SOL     OW 2821   6.648   5.946   4.833
  641SOL    HW1 2822   6.583   5.943   4.757
  641SOL    HW2 2823   6.602   5.980   4.915
  642SOL     OW 2824   0.437   3.266   4.707
  642SOL    HW1 2825   0.533   3.240   4.697
  642SOL    HW2 2826   0.402   3.300   4.620
  643SOL     OW 2827   4.927   5.475   4.906
  643SOL    HW1 2828   4.903   5.476   4.809
  643SOL    HW2 2829   4.926   5.381   4.940
  644SOL     OW 2830   1.241   5.658   4.357
  644SOL    HW1 2831   1.151   5.699   4.370
  644SOL    HW2 2832   1.308   5.730   4.341
  645SOL     OW 2833   4.854   1.634   4.316
  645SOL    HW1 2834   4.891   1.541   4.314
  645SOL    HW2 2835   4.916   1.696   4.267
  646SOL     OW 2836   3.191   1.445   4.523
  646SOL    HW1 2837   3.120   1.448   4.452
  646SOL    HW2 2838   3.178   1.521   4.586
  647SOL     OW 2839   5.818   2.108   5.035
  647SOL    HW1 2840   5.741   2.172   5.033
  647SOL    HW2 2841   5.846   2.093   5.129
  648SOL     OW 2842   0.312   3.884   4.096
  648SOL    HW1 2843   0.379   3.889   4.022
  648SOL    HW2 2844   0.326   3.798   4.146
  649SOL     OW 2845   3.280   3.826   0.718
  649SOL    HW1 2846   3.256   3.791   0.809
  649SOL    HW2 2847   3.214   3.793   0.651
  650SOL     OW 2848   6.179   4.606   0.845
  650SOL    HW1 2849   6.136   4.640   0.761
  650SOL    HW2 2850   6.217   4.515   0.829
  651SOL     OW 2851   6.668   6.499   5.973
  651SOL    HW1 2852   6.693   6.473   6.066
  651SOL    HW2 2853   6.582   6.550   5.974
  652SOL     OW 2854   5.435   6.228   3.431
  652SOL    HW1 2855   5.453   6.130   3.431
  652SOL    HW2 2856   5.337   6.245   3.426
  653SOL     OW 2857   3.007   6.071   4.852
  653SOL    HW1 2858   3.058   6.144   4.808
  653SOL    HW2 2859   2.928   6.109   4.900
  654SOL     OW 2860   0.174   4.053   6.032
  654SOL    HW1 2861   0.191   4.119   6.105
  654SOL    HW2 2862   0.185   3.960   6.067
  655SOL     OW 2863   0.634   6.218   1.941
  655SOL    HW1 2864   0.553   6.196   1.888
  655SOL    HW2 2865   0.697   6.140   1.942
  656SOL     OW 2866   1.981   5.617   1.920
  656SOL    HW1 2867   1.884   5.596   1.934
  656SOL    HW2 2868   2.030   5.533   1.896
  657SOL     OW 2869   1.554   2.291   1.490
  657SOL    HW1 2870   1.486   2.218   1.494
  657SOL    HW2 2871   1.557   2.328   1.397
  658SOL     OW 2872   3.018   3.577   6.260
  658SOL    HW1 2873   2.934   3.537   6.222
  658SOL    HW2 2874   3.027   3.671   6.228
  659SOL     OW 2875   2.538   5.994   5.853
  659SOL    HW1 2876   2.566   5.904   5.885
  659SOL    HW2 2877   2.557   6.063   5.923
  660SOL     OW 2878   5.513   4.306   2.370
  660SOL    HW1 2879   5.452   4.247   2.318
  660SOL    HW2 2880   5.607   4.292   2.339
  661SOL     OW 2881   4.053   5.568   3.068
  661SOL    HW1 2882   4.055   5.468   3.079
  661SOL    HW2 2883   4.085   5.612   3.152
  662SOL     OW 2884   4.149   0.474   5.609
  662SOL    HW1 2885   4.169   0.533   5.687
  662SOL    HW2 2886   4.155   0.527   5.524
  663SOL     OW 2887   2.492   3.943   6.170
  663SOL    HW1 2888   2.526   3.858   6.129
  663SOL    HW2 2889   2.492   4.016   6.101
  664SOL     OW 2890   6.952   5.340   6.261
  664SOL    HW1 2891   7.021   5.404   6.296
  664SOL    HW2 2892   6.976   5.247   6.289
  665SOL     OW 2893   5.388   5.209   1.875
  665SOL    HW1 2894   5.385   5.154   1.958
  665SOL    HW2 2895   5.295   5.227   1.844
  666SOL     OW 2896   5.288   1.711   2.554
  666SOL    HW1 2897   5.300   1.619   2.515
  666SOL    HW2 2898   5.196   1.744   2.532
  667SOL     OW 2899   1.190   4.776   3.182
  667SOL    HW1 2900   1.149   4.738   3.266
  667SOL    HW2 2901   1.237   4.703   3.133
  668SOL     OW 2902   5.442   6.620   5.913
  668SOL    HW1 2903   5.444   6.559   5.993
  668SOL    HW2 2904   5.379   6.583   5.845
  669SOL     OW 2905   4.089   0.386   2.778
  669SOL    HW1 2906   4.146   0.458   2.818
  669SOL    HW2 2907   4.098   0.388   2.679
  670SOL     OW 2908   3.148   2.581   1.331
  670SOL    HW1 2909   3.239   2.567   1.370
  670SOL    HW2 2910   3.156   2.601   1.233
  671SOL     OW 2911   1.507   6.322   0.420
  671SOL    HW1 2912   1.434   6.297   0.485
  671SOL    HW2 2913   1.485   6.285   0.330
  672SOL     OW 2914   0.596   5.639   2.286
  672SOL    HW1 2915   0.603   5.548   2.327
  672SOL    HW2 2916   0.567   5.704   2.356
  673SOL     OW 2917   6.732   6.651   1.481
  673SOL    HW1 2918   6.814   6.602   1.512
  673SOL    HW2 2919   6.757   6.745   1.456
  674SOL     OW 2920   1.235   1.551   5.033
  674SOL    HW1 2921   1.158   1.602   4.993
  674SOL    HW2 2922   1.320   1.602   5.018
  675SOL     OW 2923   0.659   0.932   3.064
  675SOL    HW1 2924   0.740   0.875   3.072
  675SOL    HW2 2925   0.686   1.027   3.048
  676SOL     OW 2926   3.276   6.195   2.332
  676SOL    HW1 2927   3.194   6.238   2.292
  676SOL    HW2 2928   3.338   6.267   2.364
  677SOL     OW 2929   5.712   2.008   0.738
  677SOL    HW1 2930   5.669   1.944   0.802
  677SOL    HW2 2931   5.754   1.958   0.663
  678SOL     OW 2932   2.179   0.162   5.496
  678SOL    HW1 2933   2.122   0.214   5.432
  678SOL    HW2 2934   2.123   0.132   5.573
  679SOL     OW 2935   4.621   1.989   3.285
  679SOL    HW1 2936   4.570   2.070   3.257
  679SOL    HW2 2937   4.562   1.908   3.276
  680SOL     OW 2938   5.492   5.567   5.903
  680SOL    HW1 2939   5.398   5.601   5.902
  680SOL    HW2 2940   5.524   5.561   5.997
  681SOL     OW 2941   5.613   4.615   1.978
  681SOL    HW1 2942   5.612   4.715   1.981
  681SOL    HW2 2943   5.611   4.585   1.883
  682SOL     OW 2944   6.744   1.523   1.051
  682SOL    HW1 2945   6.770   1.618   1.032
  682SOL    HW2 2946   6.654   1.521   1.093
  683SOL     OW 2947   5.086   3.420   0.464
  683SOL    HW1 2948   5.019   3.362   0.417
  683SOL    HW2 2949   5.063   3.426   0.561
  684SOL     OW 2950   6.897   1.240   0.127
  684SOL    HW1 2951   6.833   1.223   0.052
  684SOL    HW2 2952   6.869   1.187   0.207
  685SOL     OW 2953   3.652   1.228   3.469
  685SOL    HW1 2954   3.668   1.242   3.371
  685SOL    HW2 2955   3.569   1.277   3.496
  686SOL     OW 2956   4.973   3.193   3.894
  686SOL    HW1 2957   5.053   3.160   3.943
  686SOL    HW2 2958   4.938   3.121   3.834
  687SOL     OW 2959   0.262   2.109   4.317
  687SOL    HW1 2960   0.265   2.035   4.383
  687SOL    HW2 2961   0.167   2.134   4.299
  688SOL     OW 2962   0.317   1.449   0.040
  688SOL    HW1 2963   0.362   1.534   0.013
  688SOL    HW2 2964   0.385   1.386   0.077
  689SOL     OW 2965   0.394   4.984   6.682
  689SOL    HW1 2966   0.315   4.924   6.667
  689SOL    HW2 2967   0.437   5.006   6.595
  690SOL     OW 2968   0.652   4.136   2.529
  690SOL    HW1 2969   0.635   4.141   2.628
  690SOL    HW2 2970   0.565   4.132   2.481
  691SOL     OW 2971   2.362   0.175   0.495
  691SOL    HW1 2972   2.457   0.158   0.520
  691SOL    HW2 2973   2.348   0.154   0.399
  692SOL     OW 2974   3.601   0.532   3.957
  692SOL    HW1 2975   3.531   0.572   3.898
  692SOL    HW2 2976   3.558   0.488   4.036
  693SOL     OW 2977   5.436   0.548   3.768
  693SOL    HW1 2978   5.503   0.620   3.789
  693SOL    HW2 2979   5.452   0.470   3.828
  694SOL     OW 2980   4.236   6.233   3.046
  694SOL    HW1 2981   4.306   6.211   2.978
  694SOL    HW2 2982   4.272   6.216   3.138
  695SOL     OW 2983   4.196   6.823   4.077
  695SOL    HW1 2984   4.201   6.724   4.092
  695SOL    HW2 2985   4.222   6.871   4.161
  696SOL     OW 2986   4.709   4.869   2.659
  696SOL    HW1 2987   4.641   4.939   2.638
  696SOL    HW2 2988   4.664   4.780   2.667
  697SOL     OW 2989   1.928   3.893   3.596
  697SOL    HW1 2990   2.012   3.890   3.652
  697SOL    HW2 2991   1.953   3.908   3.501
  698SOL     OW 2992   4.942   6.740   0.777
  698SOL    HW1 2993   4.989   6.686   0.707
  698SOL    HW2 2994   4.942   6.836   0.751
  699SOL     OW 2995   2.297   3.442   6.313
  699SOL    HW1 2996   2.257   3.387   6.240
  699SOL    HW2 2997   2.240   3.522   6.329
  700SOL     OW 2998   2.753   0.458   2.358
  700SOL    HW1 2999   2.665   0.499   2.334
  700SOL    HW2 3000   2.779   0.392   2.287
  701SOL     OW 3001   6.338   3.859   6.206
  701SOL    HW1 3002   6.301   3.950   6.187
  701SOL    HW2 3003   6.275   3.789   6.172
  702SOL     OW 3004   1.565   5.938   4.709
  702SOL    HW1 3005   1.482   5.911   4.660
  702SOL    HW2 3006   1.629   5.862   4.712
  703SOL     OW 3007   3.704   3.773   6.782
  703SOL    HW1 3008   3.628   3.832   6.811
  703SOL    HW2 3009   3.677   3.720   6.702
  704SOL     OW 3010   1.580   2.468   0.434
  704SOL    HW1 3011   1.566   2.566   0.424
  704SOL    HW2 3012   1.498   2.426   0.473
  705SOL     OW 3013   6.351   5.392   2.735
  705SOL    HW1 3014   6.415   5.393   2.811
  705SOL    HW2 3015   6.369   5.471   2.675
  706SOL     OW 3016   4.596   2.101   4.853
  706SOL    HW1 3017   4.661   2.156   4.905
  706SOL    HW2 3018   4.543   2.159   4.792
  707SOL     OW 3019   4.541   5.052   2.481
  707SOL    HW1 3020   4.465   5.106   2.516
  707SOL    HW2 3021   4.581   5.097   2.402
  708SOL     OW 3022   3.850   0.349   2.191
  708SOL    HW1 3023   3.939   0.392   2.175
  708SOL    HW2 3024   3.853   0.253   2.164
  709SOL     OW 3025   0.387   6.069   0.908
  709SOL    HW1 3026   0.356   5.975   0.893
  709SOL    HW2 3027   0.487   6.073   0.899
  710SOL     OW 3028   3.822   2.566   1.233
  710SOL    HW1 3029   3.859   2.502   1.165
  710SOL    HW2 3030   3.727   2.587   1.210
  711SOL     OW 3031   6.938   2.940   5.763
  711SOL    HW1 3032   6.942   2.946   5.663
  711SOL    HW2 3033   7.009   2.998   5.803
  712SOL     OW 3034   4.149   2.456   1.553
  712SOL    HW1 3035   4.086   2.393   1.507
  712SOL    HW2 3036   4.124   2.550   1.530
  713SOL     OW 3037   4.221   2.438   5.708
  713SOL    HW1 3038   4.280   2.462   5.785
  713SOL    HW2 3039   4.277   2.418   5.628
  714SOL     OW 3040   0.004   4.720   3.522
  714SOL    HW1 3041   6.945   4.758   3.480
  714SOL    HW2 3042   0.049   4.658   3.457
  715SOL     OW 3043   5.068   5.711   6.483
  715SOL    HW1 3044   5.112   5.623   6.499
  715SOL    HW2 3045   5.136   5.784   6.484
  716SOL     OW 3046   0.827   0.727   1.870
  716SOL    HW1 3047   0.849   0.640   1.826
  716SOL    HW2 3048   0.891   0.797   1.838
  717SOL     OW 3049   6.763   4.137   4.189
  717SOL    HW1 3050   6.750   4.084   4.105
  717SOL    HW2 3051   6.772   4.234   4.167
  718SOL     OW 3052   4.385   3.177   6.142
  718SOL    HW1 3053   4.405   3.079   6.136
  718SOL    HW2 3054   4.286   3.191   6.145
  719SOL     OW 3055   6.483   0.987   2.734
  719SOL    HW1 3056   6.578   0.955   2.732
  719SOL    HW2 3057   6.443   0.977   2.643
  720SOL     OW 3058   2.105   0.450   6.098
  720SOL    HW1 3059   2.030   0.515   6.083
  720SOL    HW2 3060   2.072   0.372   6.150
  721SOL     OW 3061   2.560   1.615   2.792
  721SOL    HW1 3062   2.486   1.606   2.725
  721SOL    HW2 3063   2.530   1.577   2.879
  722SOL     OW 3064   2.874   0.444   5.474
  722SOL    HW1 3065   2.821   0.361   5.488
  722SOL    HW2 3066   2.817   0.514   5.431
  723SOL     OW 3067   1.539   4.369   3.493
  723SOL    HW1 3068   1.514   4.441   3.428
  723SOL    HW2 3069   1.563   4.410   3.581
  724SOL     OW 3070   1.477   2.533   3.925
  724SOL    HW1 3071   1.474   2.543   4.024
  724SOL    HW2 3072   1.383   2.528   3.889
  725SOL     OW 3073   2.380   5.645   1.350
  725SOL    HW1 3074   2.394   5.611   1.257
  725SOL    HW2 3075   2.345   5.571   1.408
  726SOL     OW 3076   3.514   4.739   1.275
  726SOL    HW1 3077   3.475   4.782   1.194
  726SOL    HW2 3078   3.586   4.797   1.313
  727SOL     OW 3079   6.296   4.717   5.896
  727SOL    HW1 3080   6.288   4.662   5.813
  727SOL    HW2 3081   6.348   4.667   5.965
  728SOL     OW 3082   6.617   3.129   4.006
  728SOL    HW1 3083   6.597   3.111   3.909
  728SOL    HW2 3084   6.539   3.175   4.048
  729SOL     OW 3085   0.430   1.836   1.760
  729SOL    HW1 3086   0.350   1.888   1.789
  729SOL    HW2 3087   0.501   1.842   1.830
  730SOL     OW 3088   5.771   0.205   4.320
  730SOL    HW1 3089   5.813   0.283   4.365
  730SOL    HW2 3090   5.671   0.215   4.321
  731SOL     OW 3091   4.712   4.781   6.386
  731SOL    HW1 3092   4.721   4.682   6.399
  731SOL    HW2 3093   4.767   4.828   6.455
  732SOL     OW 3094   5.490   3.047   1.566
  732SOL    HW1 3095   5.436   3.028   1.649
  732SOL    HW2 3096   5.534   2.963   1.535
  733SOL     OW 3097   5.194   6.889   4.829
  733SOL    HW1 3098   5.270   6.928   4.882
  733SOL    HW2 3099   5.221   6.799   4.794
  734SOL     OW 3100   6.204   4.958   3.011
  734SOL    HW1 3101   6.131   4.901   3.048
  734SOL    HW2 3102   6.172   5.004   2.928
  735SOL     OW 3103   4.566   1.644   0.293
  735SOL    HW1 3104   4.572   1.561   0.348
  735SOL    HW2 3105   4.475   1.683   0.300
  736SOL     OW 3106   0.027   1.865   3.613
  736SOL    HW1 3107   6.987   1.792   3.586
  736SOL    HW2 3108   0.118   1.847   3.575
  737SOL     OW 3109   5.362   1.734   4.824
  737SOL    HW1 3110   5.422   1.810   4.847
  737SOL    HW2 3111   5.301   1.761   4.750
  738SOL     OW 3112   2.530   3.703   1.107
  738SOL    HW1 3113   2.580   3.617   1.102
  738SOL    HW2 3114   2.441   3.688   1.150
  739SOL     OW 3115   4.621   1.213   3.984
  739SOL    HW1 3116   4.548   1.209   3.916
  739SOL    HW2 3117   4.628   1.306   4.020
  740SOL     OW 3118   6.444   1.439   1.433
  740SOL    HW1 3119   6.459   1.390   1.520
  740SOL    HW2 3120   6.503   1.520   1.430
  741SOL     OW 3121   1.503   0.591   3.516
  741SOL    HW1 3122   1.472   0.574   3.610
  741SOL    HW2 3123   1.599   0.568   3.508
  742SOL     OW 3124   2.695   6.541   1.507
  742SOL    HW1 3125   2.728   6.502   1.421
  742SOL    HW2 3126   2.729   6.635   1.516
  743SOL     OW 3127   1.001   4.908   3.537
  743SOL    HW1 3128   1.041   4.839   3.477
  743SOL    HW2 3129   1.007   4.877   3.632
  744SOL     OW 3130   5.470   0.334   1.079
  744SOL    HW1 3131   5.464   0.235   1.090
  744SOL    HW2 3132   5.512   0.374   1.161
  745SOL     OW 3133   1.227   5.147   4.379
  745SOL    HW1 3134   1.172   5.142   4.296
  745SOL    HW2 3135   1.281   5.231   4.378
  746SOL     OW 3136   6.608   3.930   6.942
  746SOL    HW1 3137   6.615   4.028   6.923
  746SOL    HW2 3138   6.694   3.885   6.919
  747SOL     OW 3139   3.729   6.479   4.377
  747SOL    HW1 3140   3.801   6.531   4.423
  747SOL    HW2 3141   3.719   6.390   4.422
  748SOL     OW 3142   4.248   4.796   1.998
  748SOL    HW1 3143   4.247   4.790   1.898
  748SOL    HW2 3144   4.171   4.851   2.029
  749SOL     OW 3145   5.638   3.889   4.530
  749SOL    HW1 3146   5.647   3.802   4.481
  749SOL    HW2 3147   5.711   3.895   4.599
  750SOL     OW 3148   2.385   2.116   1.246
  750SOL    HW1 3149   2.386   2.047   1.318
  750SOL    HW2 3150   2.314   2.184   1.266
  751SOL     OW 3151   3.985   1.545   7.005
  751SOL    HW1 3152   3.926   1.534   6.925
  751SOL    HW2 3153   4.071   1.495   6.990
  752SOL     OW 3154   3.365   1.096   1.803
  752SOL    HW1 3155   3.317   1.058   1.724
  752SOL    HW2 3156   3.327   1.058   1.887
  753SOL     OW 3157   1.507   3.517   5.773
  753SOL    HW1 3158   1.550   3.604   5.796
  753SOL    HW2 3159   1.456   3.527   5.687
  754SOL     OW 3160   4.707   1.978   5.365
  754SOL    HW1 3161   4.761   1.903   5.329
  754SOL    HW2 3162   4.610   1.963   5.344
  755SOL     OW 3163   1.881   4.875   5.007
  755SOL    HW1 3164   1.854   4.791   4.961
  755SOL    HW2 3165   1.880   4.860   5.106
  756SOL     OW 3166   2.998   6.226   6.729
  756SOL    HW1 3167   2.932   6.155   6.703
  756SOL    HW2 3168   2.948   6.307   6.758
  757SOL     OW 3169   0.259   0.215   4.046
  757SOL    HW1 3170   0.170   0.169   4.038
  757SOL    HW2 3171   0.322   0.176   3.979
  758SOL     OW 3172   2.987   0.577   3.051
  758SOL    HW1 3173   2.907   0.556   2.995
  758SOL    HW2 3174   2.958   0.606   3.142
  759SOL     OW 3175   0.374   2.499   1.921
  759SOL    HW1 3176   0.408   2.429   1.859
  759SOL    HW2 3177   0.324   2.456   1.996
  760SOL     OW 3178   6.261   6.833   4.214
  760SOL    HW1 3179   6.304   6.813   4.126
  760SOL    HW2 3180   6.198   6.910   4.204
  761SOL     OW 3181   5.605   3.981   6.200
  761SOL    HW1 3182   5.671   3.933   6.258
  761SOL    HW2 3183   5.604   3.939   6.109
  762SOL     OW 3184   2.427   6.738   4.860
  762SOL    HW1 3185   2.398   6.660   4.917
  762SOL    HW2 3186   2.410   6.717   4.764
  763SOL     OW 3187   4.356   5.280   6.404
  763SOL    HW1 3188   4.278   5.295   6.345
  763SOL    HW2 3189   4.343   5.329   6.490
  764SOL     OW 3190   5.788   0.821   5.197
  764SOL    HW1 3191   5.695   0.846   5.171
  764SOL    HW2 3192   5.786   0.773   5.285
  765SOL     OW 3193   1.548   5.554   1.578
  765SOL    HW1 3194   1.525   5.644   1.542
  765SOL    HW2 3195   1.490   5.534   1.657
  766SOL     OW 3196   2.450   2.330   6.280
  766SOL    HW1 3197   2.548   2.343   6.263
  766SOL    HW2 3198   2.404   2.419   6.280
  767SOL     OW 3199   6.609   5.923   3.001
  767SOL    HW1 3200   6.668   5.935   2.921
  767SOL    HW2 3201   6.624   5.999   3.064
  768SOL     OW 3202   2.549   6.111   2.556
  768SOL    HW1 3203   2.517   6.016   2.557
  768SOL    HW2 3204   2.649   6.112   2.549
  769SOL     OW 3205   2.653   1.260   5.570
  769SOL    HW1 3206   2.666   1.351   5.532
  769SOL    HW2 3207   2.690   1.191   5.508
  770SOL     OW 3208   1.717   4.644   3.007
  770SOL    HW1 3209   1.708   4.559   2.955
  770SOL    HW2 3210   1.743   4.622   3.101
  771SOL     OW 3211   1.053   4.848   2.657
  771SOL    HW1 3212   0.954   4.855   2.660
  771SOL    HW2 3213   1.093   4.935   2.687
  772SOL     OW 3214   5.644   4.698   6.768
  772SOL    HW1 3215   5.718   4.728   6.708
  772SOL    HW2 3216   5.683   4.651   6.848
  773SOL     OW 3217   0.231   4.704   4.004
  773SOL    HW1 3218   0.328   4.686   3.987
  773SOL    HW2 3219   0.176   4.653   3.939
  774SOL     OW 3220   1.886   1.411   1.181
  774SOL    HW1 3221   1.849   1.404   1.274
  774SOL    HW2 3222   1.824   1.366   1.117
  775SOL     OW 3223   1.863   2.283   3.773
  775SOL    HW1 3224   1.948   2.296   3.824
  775SOL    HW2 3225   1.832   2.370   3.736
  776SOL     OW 3226   0.902   0.456   5.445
  776SOL    HW1 3227   0.930   0.519   5.372
  776SOL    HW2 3228   0.984   0.423   5.493
  777SOL     OW 3229   1.728   4.478   1.855
  777SOL    HW1 3230   1.821   4.515   1.855
  777SOL    HW2 3231   1.728   4.390   1.807
  778SOL     OW 3232   2.120   1.430   2.197
  778SOL    HW1 3233   2.187   1.471   2.259
  778SOL    HW2 3234   2.154   1.341   2.165
  779SOL     OW 3235   6.798   2.726   2.850
  779SOL    HW1 3236   6.743   2.789   2.796
  779SOL    HW2 3237   6.833   2.773   2.932
  780SOL     OW 3238   0.659   2.967   3.970
  780SOL    HW1 3239   0.737   2.959   4.033
  780SOL    HW2 3240   0.574   2.961   4.022
  781SOL     OW 3241   5.665   6.859   0.233
  781SOL    HW1 3242   5.747   6.840   0.288
  781SOL    HW2 3243   5.635   6.952   0.250
  782SOL     OW 3244   1.579   3.663   6.178
  782SOL    HW1 3245   1.665   3.706   6.150
  782SOL    HW2 3246   1.597   3.593   6.247
  783SOL     OW 3247   5.329   4.804   2.057
  783SOL    HW1 3248   5.301   4.726   2.114
  783SOL    HW2 3249   5.319   4.779   1.960
  784SOL     OW 3250   4.467   5.109   0.754
  784SOL    HW1 3251   4.439   5.179   0.689
  784SOL    HW2 3252   4.527   5.043   0.709
  785SOL     OW 3253   0.830   2.028   3.529
  785SOL    HW1 3254   0.812   2.082   3.447
  785SOL    HW2 3255   0.752   2.034   3.591
  786SOL     OW 3256   0.636   0.280   3.266
  786SOL    HW1 3257   0.542   0.272   3.297
  786SOL    HW2 3258   0.645   0.359   3.206
  787SOL     OW 3259   1.380   0.510   6.967
  787SOL    HW1 3260   1.294   0.460   6.955
  787SOL    HW2 3261   1.365   0.606   6.944
  788SOL     OW 3262   3.942   1.407   0.325
  788SOL    HW1 3263   3.882   1.365   0.393
  788SOL    HW2 3264   4.001   1.474   0.369
  789SOL     OW 3265   3.993   4.418   1.319
  789SOL    HW1 3266   3.989   4.322   1.345
  789SOL    HW2 3267   3.902   4.459   1.327
  790SOL     OW 3268   1.778   1.685   3.072
  790SOL    HW1 3269   1.680   1.697   3.054
  790SOL    HW2 3270   1.830   1.754   3.022
  791SOL     OW 3271   1.556   5.602   4.605
  791SOL    HW1 3272   1.543   5.533   4.534
  791SOL    HW2 3273   1.507   5.574   4.687
  792SOL     OW 3274   0.372   1.139   1.315
  792SOL    HW1 3275   0.372   1.154   1.217
  792SOL    HW2 3276   0.314   1.207   1.360
  793SOL     OW 3277   5.251   4.843   3.792
  793SOL    HW1 3278   5.210   4.929   3.760
  793SOL    HW2 3279   5.219   4.768   3.735
  794SOL     OW 3280   3.087   3.838   6.144
  794SOL    HW1 3281   2.990   3.843   6.120
  794SOL    HW2 3282   3.137   3.797   6.068
  795SOL     OW 3283   3.696   6.837   4.563
  795SOL    HW1 3284   3.759   6.822   4.639
  795SOL    HW2 3285   3.605   6.805   4.589
  796SOL     OW 3286   0.868   2.499   5.765
  796SOL    HW1 3287   0.896   2.496   5.669
  796SOL    HW2 3288   0.881   2.591   5.802
  797SOL     OW 3289   5.685   2.128   1.070
  797SOL    HW1 3290   5.648   2.169   0.987
  797SOL    HW2 3291   5.618   2.064   1.108
  798SOL     OW 3292   3.339   6.597   1.780
  798SOL    HW1 3293   3.372   6.556   1.865
  798SOL    HW2 3294   3.310   6.691   1.797
  799SOL     OW 3295   0.461   0.223   6.526
  799SOL    HW1 3296   0.478   0.126   6.539
  799SOL    HW2 3297   0.511   0.275   6.596
  800SOL     OW 3298   5.358   1.401   2.579
  800SOL    HW1 3299   5.406   1.435   2.660
  800SOL    HW2 3300   5.399   1.315   2.549
  801SOL     OW 3301   2.206   4.427   4.471
  801SOL    HW1 3302   2.125   4.485   4.467
  801SOL    HW2 3303   2.179   4.331   4.469
  802SOL     OW 3304   3.156   1.506   0.812
  802SOL    HW1 3305   3.073   1.505   0.756
  802SOL    HW2 3306   3.235   1.524   0.754
  803SOL     OW 3307   1.077   0.150   6.251
  803SOL    HW1 3308   1.102   0.075   6.189
  803SOL    HW2 3309   1.032   0.222   6.199
  804SOL     OW 3310   5.872   6.419   0.116
  804SOL    HW1 3311   5.809   6.401   0.041
  804SOL    HW2 3312   5.943   6.482   0.086
  805SOL     OW 3313   2.966   0.757   3.835
  805SOL    HW1 3314   3.007   0.755   3.744
  805SOL    HW2 3315   2.867   0.773   3.826
  806SOL     OW 3316   5.339   1.148   4.483
  806SOL    HW1 3317   5.273   1.104   4.421
  806SOL    HW2 3318   5.373   1.232   4.440
  807SOL     OW 3319   0.957   0.877   5.027
  807SOL    HW1 3320   0.915   0.885   5.118
  807SOL    HW2 3321   0.974   0.968   4.989
  808SOL     OW 3322   4.032   4.073   6.281
  808SOL    HW1 3323   3.956   4.069   6.216
  808SOL    HW2 3324   4.023   3.999   6.347
  809SOL     OW 3325   0.649   5.070   1.600
  809SOL    HW1 3326   0.611   5.053   1.509
  809SOL    HW2 3327   0.585   5.125   1.653
  810SOL     OW 3328   3.394   4.311   0.979
  810SOL    HW1 3329   3.309   4.278   1.021
  810SOL    HW2 3330   3.463   4.238   0.983
  811SOL     OW 3331   5.130   6.189   5.453
  811SOL    HW1 3332   5.190   6.118   5.418
  811SOL    HW2 3333   5.038   6.176   5.416
  812SOL     OW 3334   6.915   0.567   2.685
  812SOL    HW1 3335   6.895   0.474   2.653
  812SOL    HW2 3336   6.842   0.597   2.746
  813SOL     OW 3337   4.098   6.562   4.168
  813SOL    HW1 3338   4.074   6.492   4.234
  813SOL    HW2 3339   4.018   6.620   4.150
  814SOL     OW 3340   5.922   6.076   3.107
  814SOL    HW1 3341   5.959   6.122   3.188
  814SOL    HW2 3342   5.825   6.059   3.120
  815SOL     OW 3343   6.932   3.569   3.528
  815SOL    HW1 3344   6.838   3.590   3.501
  815SOL    HW2 3345   6.946   3.596   3.623
  816SOL     OW 3346   6.245   5.845   0.441
  816SOL    HW1 3347   6.203   5.935   0.447
  816SOL    HW2 3348   6.225   5.792   0.523
  817SOL     OW 3349   1.829   5.587   1.624
  817SOL    HW1 3350   1.814   5.528   1.703
  817SOL    HW2 3351   1.763   5.563   1.552
  818SOL     OW 3352   6.054   2.286   3.068
  818SOL    HW1 3353   5.969   2.233   3.069
  818SOL    HW2 3354   6.051   2.355   3.140
  819SOL     OW 3355   5.966   3.044   2.193
  819SOL    HW1 3356   5.948   2.952   2.160
  819SOL    HW2 3357   6.063   3.053   2.215
  820SOL     OW 3358   3.404   2.105   5.005
  820SOL    HW1 3359   3.334   2.176   5.010
  820SOL    HW2 3360   3.431   2.079   5.098
  821SOL     OW 3361   6.857   4.121   0.253
  821SOL    HW1 3362   6.816   4.144   0.341
  821SOL    HW2 3363   6.957   4.125   0.261
  822SOL     OW 3364   0.715   3.448   3.345
  822SOL    HW1 3365   0.665   3.362   3.350
  822SOL    HW2 3366   0.662   3.521   3.389
  823SOL     OW 3367   5.388   3.997   6.379
  823SOL    HW1 3368   5.455   4.017   6.308
  823SOL    HW2 3369   5.351   3.905   6.365
  824SOL     OW 3370   4.905   1.461   6.143
  824SOL    HW1 3371   4.851   1.426   6.066
  824SOL    HW2 3372   5.002   1.442   6.128
  825SOL     OW 3373   0.291   4.811   1.315
  825SOL    HW1 3374   0.307   4.909   1.301
  825SOL    HW2 3375   0.295   4.764   1.227
  826SOL     OW 3376   4.060   2.205   5.783
  826SOL    HW1 3377   4.130   2.277   5.777
  826SOL    HW2 3378   3.982   2.239   5.836
  827SOL     OW 3379   2.818   4.595   5.471
  827SOL    HW1 3380   2.834   4.538   5.391
  827SOL    HW2 3381   2.733   4.567   5.516
  828SOL     OW 3382   5.126   6.112   6.388
  828SOL    HW1 3383   5.220   6.147   6.392
  828SOL    HW2 3384   5.078   6.134   6.473
  829SOL     OW 3385   3.953   3.807   2.421
  829SOL    HW1 3386   3.908   3.730   2.466
  829SOL    HW2 3387   3.884   3.870   2.388
  830SOL     OW 3388   5.922   4.939   6.365
  830SOL    HW1 3389   5.843   4.986   6.326
  830SOL    HW2 3390   6.006   4.987   6.340
  831SOL     OW 3391   5.965   0.480   6.719
  831SOL    HW1 3392   5.986   0.511   6.626
  831SOL    HW2 3393   6.049   0.478   6.774
  832SOL     OW 3394   4.146   0.908   3.020
  832SOL    HW1 3395   4.066   0.897   3.079
  832SOL    HW2 3396   4.126   0.871   2.929
  833SOL     OW 3397   1.606   3.500   6.617
  833SOL    HW1 3398   1.679   3.432   6.608
  833SOL    HW2 3399   1.610   3.541   6.708
  834SOL     OW 3400   4.331   4.110   0.890
  834SOL    HW1 3401   4.316   4.107   0.989
  834SOL    HW2 3402   4.382   4.028   0.862
  835SOL     OW 3403   3.243   0.164   5.505
  835SOL    HW1 3404   3.261   0.088   5.443
  835SOL    HW2 3405   3.230   0.129   5.598
  836SOL     OW 3406   3.551   6.938   5.235
  836SOL    HW1 3407   3.588   6.962   5.325
  836SOL    HW2 3408   3.614   6.875   5.189
  837SOL     OW 3409   6.186   0.017   1.043
  837SOL    HW1 3410   6.207   0.070   0.961
  837SOL    HW2 3411   6.122   6.967   1.019
  838SOL     OW 3412   2.152   0.796   4.400
  838SOL    HW1 3413   2.138   0.875   4.340
  838SOL    HW2 3414   2.161   0.827   4.495
  839SOL     OW 3415   1.099   1.661   1.936
  839SOL    HW1 3416   1.193   1.629   1.925
  839SOL    HW2 3417   1.056   1.612   2.012
  840SOL     OW 3418   6.365   5.707   6.700
  840SOL    HW1 3419   6.295   5.714   6.772
  840SOL    HW2 3420   6.321   5.683   6.613
  841SOL     OW 3421   3.060   5.506   6.154
  841SOL    HW1 3422   3.087   5.436   6.220
  841SOL    HW2 3423   3.142   5.549   6.116
  842SOL     OW 3424   3.700   0.377   4.690
  842SOL    HW1 3425   3.661   0.412   4.775
  842SOL    HW2 3426   3.795   0.406   4.681
  843SOL     OW 3427   1.092   1.291   1.186
  843SOL    HW1 3428   1.128   1.381   1.214
  843SOL    HW2 3429   1.133   1.220   1.243
  844SOL     OW 3430   5.709   0.050   0.534
  844SOL    HW1 3431   5.653   0.066   0.453
  844SOL    HW2 3432   5.669   6.999   0.588
  845SOL     OW 3433   4.742   4.200   4.114
  845SOL    HW1 3434   4.684   4.228   4.191
  845SOL    HW2 3435   4.779   4.108   4.132
  846SOL     OW 3436   2.183   1.088   5.798
  846SOL    HW1 3437   2.235   1.030   5.861
  846SOL    HW2 3438   2.151   1.169   5.847
  847SOL     OW 3439   1.566   3.697   0.936
  847SOL    HW1 3440   1.554   3.796   0.930
  847SOL    HW2 3441   1.497   3.659   0.998
  848SOL     OW 3442   0.023   6.842   5.979
  848SOL    HW1 3443   0.093   6.906   6.011
  848SOL    HW2 3444   6.956   6.887   5.984
  849SOL     OW 3445   6.181   3.685   6.012
  849SOL    HW1 3446   6.199   3.588   6.030
  849SOL    HW2 3447   6.261   3.726   5.967
  850SOL     OW 3448   4.642   1.546   4.041
  850SOL    HW1 3449   4.597   1.535   4.130
  850SOL    HW2 3450   4.585   1.602   3.982
  851SOL     OW 3451   6.833   2.845   1.434
  851SOL    HW1 3452   6.915   2.880   1.389
  851SOL    HW2 3453   6.808   2.906   1.510
  852SOL     OW 3454   1.462   3.891   0.117
  852SOL    HW1 3455   1.489   3.941   0.200
  852SOL    HW2 3456   1.364   3.875   0.118
  853SOL     OW 3457   0.938   4.792   1.071
  853SOL    HW1 3458   0.956   4.704   1.114
  853SOL    HW2 3459   1.013   4.815   1.009
  854SOL     OW 3460   5.438   5.357   0.793
  854SOL    HW1 3461   5.346   5.319   0.782
  854SOL    HW2 3462   5.504   5.283   0.806
  855SOL     OW 3463   7.000   0.002   1.609
  855SOL    HW1 3464   6.994   0.101   1.622
  855SOL    HW2 3465   0.044   6.986   1.672
  856SOL     OW 3466   1.416   1.988   6.356
  856SOL    HW1 3467   1.334   2.023   6.402
  856SOL    HW2 3468   1.417   2.018   6.261
  857SOL     OW 3469   6.057   4.975   1.677
  857SOL    HW1 3470   6.027   5.052   1.621
  857SOL    HW2 3471   6.153   4.987   1.702
  858SOL     OW 3472   3.356   4.012   1.201
  858SOL    HW1 3473   3.334   3.976   1.292
  858SOL    HW2 3474   3.412   3.946   1.151
  859SOL     OW 3475   5.628   0.218   4.615
  859SOL    HW1 3476   5.693   0.147   4.587
  859SOL    HW2 3477   5.627   0.291   4.547
  860SOL     OW 3478   6.392   2.465   0.729
  860SOL    HW1 3479   6.449   2.500   0.655
  860SOL    HW2 3480   6.310   2.423   0.692
  861SOL     OW 3481   2.525   5.445   3.843
  861SOL    HW1 3482   2.495   5.360   3.799
  861SOL    HW2 3483   2.447   5.507   3.851
  862SOL     OW 3484   1.074   3.709   4.115
  862SOL    HW1 3485   1.010   3.771   4.161
  862SOL    HW2 3486   1.026   3.626   4.086
  863SOL     OW 3487   5.961   1.249   7.010
  863SOL    HW1 3488   5.964   1.157   0.027
  863SOL    HW2 3489   5.930   1.314   0.057
  864SOL     OW 3490   4.050   5.761   4.227
  864SOL    HW1 3491   4.145   5.756   4.196
  864SOL    HW2 3492   4.017   5.669   4.248
  865SOL     OW 3493   1.630   6.417   5.854
  865SOL    HW1 3494   1.568   6.343   5.831
  865SOL    HW2 3495   1.579   6.503   5.862
  866SOL     OW 3496   2.178   1.721   1.359
  866SOL    HW1 3497   2.231   1.640   1.334
  866SOL    HW2 3498   2.081   1.697   1.362
  867SOL     OW 3499   5.400   3.872   0.289
  867SOL    HW1 3500   5.329   3.942   0.303
  867SOL    HW2 3501   5.361   3.796   0.237
  868SOL     OW 3502   6.449   1.302   0.467
  868SOL    HW1 3503   6.396   1.381   0.437
  868SOL    HW2 3504   6.526   1.288   0.405
  869SOL     OW 3505   0.403   4.304   2.768
  869SOL    HW1 3506   0.306   4.281   2.755
  869SOL    HW2 3507   0.453   4.222   2.797
  870SOL     OW 3508   3.945   3.409   0.042
  870SOL    HW1 3509   4.028   3.453   0.008
  870SOL    HW2 3510   3.866   3.465   0.020
  871SOL     OW 3511   5.152   2.088   2.657
  871SOL    HW1 3512   5.107   2.053   2.740
  871SOL    HW2 3513   5.217   2.160   2.682
  872SOL     OW 3514   5.385   3.590   3.900
  872SOL    HW1 3515   5.462   3.528   3.910
  872SOL    HW2 3516   5.332   3.591   3.985
  873SOL     OW 3517   6.110   6.380   4.925
  873SOL    HW1 3518   6.142   6.286   4.917
  873SOL    HW2 3519   6.010   6.382   4.925
  874SOL     OW 3520   0.853   3.622   5.795
  874SOL    HW1 3521   0.944   3.621   5.753
  874SOL    HW2 3522   0.819   3.716   5.798
  875SOL     OW 3523   5.325   4.190   0.720
  875SOL    HW1 3524   5.226   4.180   0.720
  875SOL    HW2 3525   5.365   4.134   0.647
  876SOL     OW 3526   1.169   4.408   2.083
  876SOL    HW1 3527   1.193   4.474   2.154
  876SOL    HW2 3528   1.213   4.433   1.997
  877SOL     OW 3529   3.786   4.906   5.718
  877SOL    HW1 3530   3.727   4.982   5.747
  877SOL    HW2 3531   3.770   4.827   5.778
  878SOL     OW 3532   3.729   5.499   4.919
  878SOL    HW1 3533   3.667   5.445   4.975
  878SOL    HW2 3534   3.784   5.438   4.862
  879SOL     OW 3535   3.428   1.927   1.085
  879SOL    HW1 3536   3.521   1.961   1.071
  879SOL    HW2 3537   3.400   1.872   1.007
  880SOL     OW 3538   2.943   3.686   4.479
  880SOL    HW1 3539   2.985   3.631   4.406
  880SOL    HW2 3540   2.849   3.656   4.494
  881SOL     OW 3541   5.958   3.529   5.667
  881SOL    HW1 3542   5.919   3.522   5.759
  881SOL    HW2 3543   5.922   3.456   5.610
  882SOL     OW 3544   0.877   2.715   4.552
  882SOL    HW1 3545   0.920   2.772   4.622
  882SOL    HW2 3546   0.942   2.696   4.479
  883SOL     OW 3547   3.573   0.537   0.672
  883SOL    HW1 3548   3.627   0.613   0.710
  883SOL    HW2 3549   3.635   0.469   0.632
  884SOL     OW 3550   6.937   4.529   0.247
  884SOL    HW1 3551   6.914   4.622   0.276
  884SOL    HW2 3552   0.010   4.510   0.270
  885SOL     OW 3553   4.318   6.552   5.560
  885SOL    HW1 3554   4.246   6.615   5.531
  885SOL    HW2 3555   4.292   6.459   5.538
  886SOL     OW 3556   4.438   1.092   1.191
  886SOL    HW1 3557   4.378   1.013   1.178
  886SOL    HW2 3558   4.504   1.095   1.116
  887SOL     OW 3559   3.952   5.598   3.580
  887SOL    HW1 3560   4.017   5.521   3.576
  887SOL    HW2 3561   3.859   5.564   3.565
  888SOL     OW 3562   0.274   6.653   2.801
  888SOL    HW1 3563   0.257   6.751   2.787
  888SOL    HW2 3564   0.199   6.613   2.853
  889SOL     OW 3565   7.004   1.025   6.248
  889SOL    HW1 3566   6.999   1.026   6.348
  889SOL    HW2 3567   6.990   1.117   6.213
  890SOL     OW 3568   2.258   4.854   2.090
  890SOL    HW1 3569   2.330   4.811   2.145
  890SOL    HW2 3570   2.258   4.813   1.999
  891SOL     OW 3571   6.921   3.827   0.485
  891SOL    HW1 3572   6.916   3.743   0.538
  891SOL    HW2 3573   6.855   3.823   0.410
  892SOL     OW 3574   3.362   3.600   5.238
  892SOL    HW1 3575   3.272   3.594   5.195
  892SOL    HW2 3576   3.406   3.685   5.209
  893SOL     OW 3577   1.438   0.382   2.894
  893SOL    HW1 3578   1.371   0.314   2.865
  893SOL    HW2 3579   1.397   0.442   2.962
  894SOL     OW 3580   1.038   2.775   3.041
  894SOL    HW1 3581   1.096   2.774   3.122
  894SOL    HW2 3582   1.041   2.866   3.000
  895SOL     OW 3583   1.270   5.046   3.553
  895SOL    HW1 3584   1.255   4.983   3.629
  895SOL    HW2 3585   1.195   5.111   3.547
  896SOL     OW 3586   6.273   5.733   1.408
  896SOL    HW1 3587   6.284   5.709   1.504
  896SOL    HW2 3588   6.193   5.686   1.370
  897SOL     OW 3589   4.351   0.387   6.687
  897SOL    HW1 3590   4.336   0.400   6.589
  897SOL    HW2 3591   4.441   0.346   6.701
  898SOL     OW 3592   3.744   5.668   2.227
  898SOL    HW1 3593   3.667   5.722   2.261
  898SOL    HW2 3594   3.743   5.669   2.127
  899SOL     OW 3595   0.294   5.695   0.286
  899SOL    HW1 3596   0.377   5.734   0.247
  899SOL    HW2 3597   0.314   5.606   0.327
  900SOL     OW 3598   4.712   6.069   6.629
  900SOL    HW1 3599   4.701   6.032   6.537
  900SOL    HW2 3600   4.693   5.998   6.696
  901SOL     OW 3601   0.991   0.895   4.360
  901SOL    HW1 3602   1.045   0.812   4.348
  901SOL    HW2 3603   0.904   0.872   4.405
  902SOL     OW 3604   1.348   2.579   0.968
  902SOL    HW1 3605   1.338   2.483   0.995
  902SOL    HW2 3606   1.407   2.585   0.888
  903SOL     OW 3607   0.170   3.083   6.725
  903SOL    HW1 3608   0.164   3.064   6.823
  903SOL    HW2 3609   0.186   3.180   6.710
  904SOL     OW 3610   2.240   2.753   2.528
  904SOL    HW1 3611   2.293   2.691   2.470
  904SOL    HW2 3612   2.265   2.738   2.624
  905SOL     OW 3613   4.948   4.470   6.256
  905SOL    HW1 3614   5.033   4.445   6.211
  905SOL    HW2 3615   4.878   4.488   6.187
  906SOL     OW 3616   0.885   2.646   6.397
  906SOL    HW1 3617   0.909   2.727   6.344
  906SOL    HW2 3618   0.847   2.576   6.337
  907SOL     OW 3619   5.477   2.728   1.784
  907SOL    HW1 3620   5.442   2.765   1.871
  907SOL    HW2 3621   5.400   2.715   1.721
  908SOL     OW 3622   2.355   4.845   2.767
  908SOL    HW1 3623   2.389   4.928   2.724
  908SOL    HW2 3624   2.294   4.870   2.842
  909SOL     OW 3625   3.277   5.897   2.319
  909SOL    HW1 3626   3.242   5.985   2.286
  909SOL    HW2 3627   3.271   5.894   2.419
  910SOL     OW 3628   3.162   0.881   0.863
  910SOL    HW1 3629   3.081   0.929   0.898
  910SOL    HW2 3630   3.175   0.796   0.915
  911SOL     OW 3631   0.500   5.755   6.835
  911SOL    HW1 3632   0.593   5.756   6.798
  911SOL    HW2 3633   0.435   5.734   6.761
  912SOL     OW 3634   4.614   0.454   3.403
  912SOL    HW1 3635   4.639   0.468   3.307
  912SOL    HW2 3636   4.672   0.511   3.462
  913SOL     OW 3637   2.293   0.664   3.930
  913SOL    HW1 3638   2.247   0.750   3.947
  913SOL    HW2 3639   2.243   0.612   3.861
  914SOL     OW 3640   2.710   6.035   5.373
  914SOL    HW1 3641   2.695   6.025   5.274
  914SOL    HW2 3642   2.788   6.095   5.389
  915SOL     OW 3643   6.974   3.340   0.682
  915SOL    HW1 3644   0.042   3.382   0.676
  915SOL    HW2 3645   6.982   3.249   0.721
  916SOL     OW 3646   2.165   3.036   2.703
  916SOL    HW1 3647   2.182   3.116   2.645
  916SOL    HW2 3648   2.225   2.961   2.675
  917SOL     OW 3649   6.056   0.696   2.468
  917SOL    HW1 3650   6.099   0.701   2.378
  917SOL    HW2 3651   6.064   0.784   2.514
  918SOL     OW 3652   3.335   7.003   1.036
  918SOL    HW1 3653   3.326   0.079   1.050
  918SOL    HW2 3654   3.256   6.969   0.985
  919SOL     OW 3655   6.748   6.687   3.282
  919SOL    HW1 3656   6.764   6.692   3.381
  919SOL    HW2 3657   6.666   6.632   3.265
  920SOL     OW 3658   2.628   5.043   2.197
  920SOL    HW1 3659   2.567   4.969   2.226
  920SOL    HW2 3660   2.575   5.112   2.146
  921SOL     OW 3661   3.937   4.880   2.928
  921SOL    HW1 3662   3.960   4.840   2.839
  921SOL    HW2 3663   4.010   4.942   2.955
  922SOL     OW 3664   3.298   3.611   4.861
  922SOL    HW1 3665   3.344   3.525   4.885
  922SOL    HW2 3666   3.358   3.688   4.884
  923SOL     OW 3667   2.628   4.213   5.693
  923SOL    HW1 3668   2.689   4.216   5.772
  923SOL    HW2 3669   2.533   4.206   5.724
  924SOL     OW 3670   6.080   2.754   3.097
  924SOL    HW1 3671   6.032   2.677   3.139
  924SOL    HW2 3672   6.154   2.719   3.039
  925SOL     OW 3673   6.887   2.227   6.620
  925SOL    HW1 3674   6.834   2.239   6.535
  925SOL    HW2 3675   6.827   2.192   6.692
  926SOL     OW 3676   6.353   1.357   0.926
  926SOL    HW1 3677   6.375   1.267   0.887
  926SOL    HW2 3678   6.322   1.418   0.854
  927SOL     OW 3679   5.613   4.112   2.907
  927SOL    HW1 3680   5.679   4.068   2.846
  927SOL    HW2 3681   5.633   4.084   3.001
  928SOL     OW 3682   1.183   6.553   0.346
  928SOL    HW1 3683   1.207   6.626   0.411
  928SOL    HW2 3684   1.214   6.465   0.382
  929SOL     OW 3685   0.255   0.055   0.786
  929SOL    HW1 3686   0.312   0.068   0.705
  929SOL    HW2 3687   0.160   0.041   0.759
  930SOL     OW 3688   5.453   5.906   4.106
  930SOL    HW1 3689   5.494   5.843   4.040
  930SOL    HW2 3690   5.354   5.892   4.109
  931SOL     OW 3691   5.838   1.652   4.351
  931SOL    HW1 3692   5.904   1.588   4.311
  931SOL    HW2 3693   5.857   1.663   4.448
  932SOL     OW 3694   3.027   0.033   3.507
  932SOL    HW1 3695   3.091   0.081   3.447
  932SOL    HW2 3696   3.003   0.091   3.584
  933SOL     OW 3697   1.850   5.679   3.641
  933SOL    HW1 3698   1.924   5.746   3.643
  933SOL    HW2 3699   1.787   5.701   3.567
  934SOL     OW 3700   1.428   0.317   6.237
  934SOL    HW1 3701   1.407   0.226   6.272
  934SOL    HW2 3702   1.344   0.367   6.219
  935SOL     OW 3703   4.893   4.031   3.837
  935SOL    HW1 3704   4.956   4.092   3.789
  935SOL    HW2 3705   4.873   3.952   3.778
  936SOL     OW 3706   0.753   0.551   6.319
  936SOL    HW1 3707   0.727   0.462   6.280
  936SOL    HW2 3708   0.718   0.624   6.261
  937SOL     OW 3709   5.477   1.703   5.296
  937SOL    HW1 3710   5.517   1.620   5.336
  937SOL    HW2 3711   5.391   1.680   5.250
  938SOL     OW 3712   6.675   5.266   6.185
  938SOL    HW1 3713   6.772   5.293   6.189
  938SOL    HW2 3714   6.629   5.298   6.268
  939SOL     OW 3715   6.585   6.703   5.024
  939SOL    HW1 3716   6.635   6.640   5.083
  939SOL    HW2 3717   6.629   6.708   4.935
  940SOL     OW 3718   1.462   3.771   1.799
  940SOL    HW1 3719   1.501   3.680   1.787
  940SOL    HW2 3720   1.370   3.773   1.760
  941SOL     OW 3721   5.155   1.110   6.173
  941SOL    HW1 3722   5.220   1.056   6.227
  941SOL    HW2 3723   5.096   1.162   6.234
  942SOL     OW 3724   5.141   6.577   2.796
  942SOL    HW1 3725   5.159   6.607   2.889
  942SOL    HW2 3726   5.211   6.615   2.735
  943SOL     OW 3727   2.000   4.021   3.914
  943SOL    HW1 3728   1.901   4.022   3.925
  943SOL    HW2 3729   2.030   3.927   3.897
  944SOL     OW 3730   0.396   4.939   6.371
  944SOL    HW1 3731   0.436   4.927   6.280
  944SOL    HW2 3732   0.296   4.937   6.364
  945SOL     OW 3733   6.666   3.811   5.842
  945SOL    HW1 3734   6.692   3.878   5.911
  945SOL    HW2 3735   6.727   3.819   5.763
  946SOL     OW 3736   5.177   3.200   5.919
  946SOL    HW1 3737   5.120   3.166   5.994
  946SOL    HW2 3738   5.213   3.290   5.942
  947SOL     OW 3739   3.790   2.971   3.618
  947SOL    HW1 3740   3.816   2.890   3.566
  947SOL    HW2 3741   3.829   3.052   3.573
  948SOL     OW 3742   3.498   0.814   2.767
  948SOL    HW1 3743   3.457   0.766   2.844
  948SOL    HW2 3744   3.515   0.910   2.792
  949SOL     OW 3745   0.945   6.070   6.353
  949SOL    HW1 3746   0.861   6.093   6.305
  949SOL    HW2 3747   1.009   6.028   6.288
  950SOL     OW 3748   5.139   5.691   1.981
  950SOL    HW1 3749   5.219   5.633   1.997
  950SOL    HW2 3750   5.106   5.728   2.068
  951SOL     OW 3751   1.923   0.791   4.004
  951SOL    HW1 3752   1.906   0.724   4.076
  951SOL    HW2 3753   2.015   0.829   4.016
  952SOL     OW 3754   4.812   2.007   3.023
  952SOL    HW1 3755   4.748   1.971   3.091
  952SOL    HW2 3756   4.794   1.963   2.934
  953SOL     OW 3757   5.438   4.747   3.979
  953SOL    HW1 3758   5.525   4.784   4.011
  953SOL    HW2 3759   5.409   4.795   3.897
  954SOL     OW 3760   3.683   5.574   1.461
  954SOL    HW1 3761   3.650   5.568   1.367
  954SOL    HW2 3762   3.612   5.541   1.524
  955SOL     OW 3763   0.531   3.416   2.375
  955SOL    HW1 3764   0.573   3.482   2.312
  955SOL    HW2 3765   0.548   3.324   2.341
  956SOL     OW 3766   6.599   0.754   2.511
  956SOL    HW1 3767   6.653   0.754   2.426
  956SOL    HW2 3768   6.656   0.784   2.587
  957SOL     OW 3769   6.127   3.145   4.592
  957SOL    HW1 3770   6.093   3.139   4.498
  957SOL    HW2 3771   6.188   3.224   4.600
  958SOL     OW 3772   4.021   1.941   1.737
  958SOL    HW1 3773   3.949   2.000   1.771
  958SOL    HW2 3774   4.095   1.935   1.804
  959SOL     OW 3775   4.347   6.154   2.804
  959SOL    HW1 3776   4.375   6.068   2.762
  959SOL    HW2 3777   4.269   6.192   2.755
  960SOL     OW 3778   0.635   6.566   2.218
  960SOL    HW1 3779   0.545   6.591   2.255
  960SOL    HW2 3780   0.641   6.467   2.209
  961SOL     OW 3781   4.421   6.496   3.392
  961SOL    HW1 3782   4.345   6.545   3.348
  961SOL    HW2 3783   4.454   6.424   3.331
  962SOL     OW 3784   0.448   1.782   5.508
  962SOL    HW1 3785   0.450   1.781   5.608
  962SOL    HW2 3786   0.369   1.835   5.477
  963SOL     OW 3787   5.882   1.375   6.320
  963SOL    HW1 3788   5.805   1.417   6.369
  963SOL    HW2 3789   5.942   1.446   6.284
  964SOL     OW 3790   5.807   4.434   0.000
  964SOL    HW1 3791   5.750   4.517   0.001
  964SOL    HW2 3792   5.748   4.354   0.003
  965SOL     OW 3793   5.393   2.268   1.577
  965SOL    HW1 3794   5.478   2.319   1.562
  965SOL    HW2 3795   5.315   2.331   1.568
  966SOL     OW 3796   5.877   1.862   2.708
  966SOL    HW1 3797   5.850   1.865   2.804
  966SOL    HW2 3798   5.900   1.955   2.677
  967SOL     OW 3799   2.634   4.587   1.147
  967SOL    HW1 3800   2.609   4.622   1.057
  967SOL    HW2 3801   2.552   4.554   1.194
  968SOL     OW 3802   3.465   0.378   2.106
  968SOL    HW1 3803   3.510   0.413   2.188
  968SOL    HW2 3804   3.366   0.376   2.121
  969SOL     OW 3805   2.541   5.746   5.976
  969SOL    HW1 3806   2.501   5.775   6.062
  969SOL    HW2 3807   2.496   5.663   5.944
  970SOL     OW 3808   5.351   0.969   6.301
  970SOL    HW1 3809   5.405   1.045   6.337
  970SOL    HW2 3810   5.318   0.913   6.377
  971SOL     OW 3811   0.129   2.572   3.114
  971SOL    HW1 3812   0.174   2.484   3.097
  971SOL    HW2 3813   0.162   2.640   3.048
  972SOL     OW 3814   5.725   2.845   1.940
  972SOL    HW1 3815   5.660   2.803   1.877
  972SOL    HW2 3816   5.724   2.944   1.927
  973SOL     OW 3817   0.294   5.240   6.793
  973SOL    HW1 3818   0.225   5.227   6.864
  973SOL    HW2 3819   0.348   5.157   6.783
  974SOL     OW 3820   5.207   5.928   2.450
  974SOL    HW1 3821   5.152   5.956   2.529
  974SOL    HW2 3822   5.286   5.989   2.442
  975SOL     OW 3823   1.801   0.285   6.394
  975SOL    HW1 3824   1.727   0.279   6.327
  975SOL    HW2 3825   1.763   0.286   6.486
  976SOL     OW 3826   6.954   3.593   2.452
  976SOL    HW1 3827   6.976   3.496   2.452
  976SOL    HW2 3828   6.940   3.624   2.546
  977SOL     OW 3829   0.850   6.755   2.019
  977SOL    HW1 3830   0.897   6.674   1.984
  977SOL    HW2 3831   0.780   6.727   2.085
  978SOL     OW 3832   5.101   3.033   5.686
  978SOL    HW1 3833   5.093   3.108   5.752
  978SOL    HW2 3834   5.188   2.985   5.700
  979SOL     OW 3835   0.404   2.028   0.460
  979SOL    HW1 3836   0.503   2.032   0.441
  979SOL    HW2 3837   0.389   2.018   0.558
  980SOL     OW 3838   4.316   2.348   3.598
  980SOL    HW1 3839   4.393   2.295   3.564
  980SOL    HW2 3840   4.297   2.323   3.693
  981SOL     OW 3841   0.405   1.885   4.705
  981SOL    HW1 3842   0.358   1.894   4.617
  981SOL    HW2 3843   0.495   1.843   4.691
  982SOL     OW 3844   2.076   1.727   4.735
  982SOL    HW1 3845   2.129   1.782   4.670
  982SOL    HW2 3846   2.069   1.775   4.822
  983SOL     OW 3847   6.119   3.183   4.075
  983SOL    HW1 3848   6.105   3.257   4.010
  983SOL    HW2 3849   6.054   3.110   4.057
  984SOL     OW 3850   2.808   2.067   4.644
  984SOL    HW1 3851   2.804   2.039   4.740
  984SOL    HW2 3852   2.803   2.167   4.638
  985SOL     OW 3853   6.296   3.498   5.073
  985SOL    HW1 3854   6.333   3.569   5.012
  985SOL    HW2 3855   6.367   3.469   5.137
  986SOL     OW 3856   5.573   4.810   1.293
  986SOL    HW1 3857   5.646   4.865   1.333
  986SOL    HW2 3858   5.590   4.800   1.195
  987SOL     OW 3859   4.673   0.152   2.572
  987SOL    HW1 3860   4.703   0.074   2.627
  987SOL    HW2 3861   4.731   0.231   2.593
  988SOL     OW 3862   3.392   3.550   1.806
  988SOL    HW1 3863   3.342   3.490   1.743
  988SOL    HW2 3864   3.405   3.503   1.894
  989SOL     OW 3865   6.308   1.355   6.362
  989SOL    HW1 3866   6.315   1.278   6.426
  989SOL    HW2 3867   6.238   1.336   6.294
  990SOL     OW 3868   4.327   0.901   2.239
  990SOL    HW1 3869   4.406   0.905   2.178
  990SOL    HW2 3870   4.278   0.989   2.237
  991SOL     OW 3871   0.963   3.944   4.894
  991SOL    HW1 3872   0.891   3.952   4.825
  991SOL    HW2 3873   0.993   4.036   4.921
  992SOL     OW 3874   0.235   3.427   1.264
  992SOL    HW1 3875   0.323   3.473   1.249
  992SOL    HW2 3876   0.212   3.431   1.361
  993SOL     OW 3877   0.306   4.848   0.855
  993SOL    HW1 3878   0.361   4.913   0.803
  993SOL    HW2 3879   0.315   4.757   0.814
  994SOL     OW 3880   4.174   5.113   1.154
  994SOL    HW1 3881   4.107   5.112   1.080
  994SOL    HW2 3882   4.189   5.206   1.185
  995SOL     OW 3883   3.478   2.877   5.472
  995SOL    HW1 3884   3.500   2.853   5.378
  995SOL    HW2 3885   3.553   2.929   5.512
  996SOL     OW 3886   3.638   5.100   4.560
  996SOL    HW1 3887   3.593   5.158   4.492
  996SOL    HW2 3888   3.733   5.085   4.533
  997SOL     OW 3889   1.135   0.165   3.673
  997SOL    HW1 3890   1.221   0.154   3.623
  997SOL    HW2 3891   1.129   0.096   3.746
  998SOL     OW 3892   5.182   0.437   4.961
  998SOL    HW1 3893   5.128   0.361   4.923
  998SOL    HW2 3894   5.214   0.494   4.886
  999SOL     OW 3895   5.319   4.452   2.867
  999SOL    HW1 3896   5.294   4.549   2.859
  999SOL    HW2 3897   5.350   4.418   2.778
 1000SOL     OW 3898   2.877   1.142   1.504
 1000SOL    HW1 3899   2.807   1.200   1.546
 1000SOL    HW2 3900   2.950   1.124   1.569
 1001SOL     OW 3901   5.190   5.527   1.046
 1001SOL    HW1 3902   5.237   5.615   1.044
 1001SOL    HW2 3903   5.178   5.493   0.953
 1002SOL     OW 3904   5.992   2.256   1.533
 1002SOL    HW1 3905   6.081   2.213   1.522
 1002SOL    HW2 3906   5.925   2.188   1.563
 1003SOL     OW 3907   1.651   6.224   2.293
 1003SOL    HW1 3908   1.593   6.304   2.309
 1003SOL    HW2 3909   1.595   6.150   2.255
 1004SOL     OW 3910   0.094   0.579   1.666
 1004SOL    HW1 3911   0.133   0.565   1.575
 1004SOL    HW2 3912   0.167   0.583   1.734
 1005SOL     OW 3913   2.113   3.173   4.162
 1005SOL    HW1 3914   2.016   3.175   4.189
 1005SOL    HW2 3915   2.119   3.179   4.062
 1006SOL     OW 3916   1.526   4.456   1.260
 1006SOL    HW1 3917   1.534   4.555   1.245
 1006SOL    HW2 3918   1.514   4.410   1.173
 1007SOL     OW 3919   4.351   0.302   4.853
 1007SOL    HW1 3920   4.420   0.349   4.908
 1007SOL    HW2 3921   4.260   0.326   4.886
 1008SOL     OW 3922   0.930   3.172   5.803
 1008SOL    HW1 3923   0.859   3.228   5.761
 1008SOL    HW2 3924   1.020   3.210   5.780
 1009SOL     OW 3925   0.569   4.815   5.329
 1009SOL    HW1 3926   0.496   4.747   5.340
 1009SOL    HW2 3927   0.656   4.776   5.360
 1010SOL     OW 3928   3.558   2.017   6.986
 1010SOL    HW1 3929   3.585   1.923   6.965
 1010SOL    HW2 3930   3.539   2.026   0.061
 1011SOL     OW 3931   1.747   5.197   2.462
 1011SOL    HW1 3932   1.762   5.248   2.377
 1011SOL    HW2 3933   1.653   5.163   2.464
 1012SOL     OW 3934   6.846   6.947   2.225
 1012SOL    HW1 3935   6.935   6.980   2.195
 1012SOL    HW2 3936   6.780   7.023   2.226
 1013SOL     OW 3937   1.331   1.404   5.948
 1013SOL    HW1 3938   1.325   1.466   6.026
 1013SOL    HW2 3939   1.309   1.453   5.864
 1014SOL     OW 3940   6.486   4.903   5.511
 1014SOL    HW1 3941   6.479   4.978   5.446
 1014SOL    HW2 3942   6.459   4.935   5.602
 1015SOL     OW 3943   2.613   6.836   6.027
 1015SOL    HW1 3944   2.675   6.912   6.046
 1015SOL    HW2 3945   2.621   6.809   5.931
 1016SOL     OW 3946   4.103   3.591   6.929
 1016SOL    HW1 3947   4.182   3.609   6.988
 1016SOL    HW2 3948   4.044   3.672   6.926
 1017SOL     OW 3949   4.074   2.724   1.509
 1017SOL    HW1 3950   4.064   2.679   1.420
 1017SOL    HW2 3951   3.984   2.757   1.540
 1018SOL     OW 3952   0.637   4.357   4.177
 1018SOL    HW1 3953   0.669   4.313   4.262
 1018SOL    HW2 3954   0.655   4.455   4.182
 1019SOL     OW 3955   7.002   6.651   1.125
 1019SOL    HW1 3956   0.056   6.691   1.074
 1019SOL    HW2 3957   6.982   6.560   1.090
 1020SOL     OW 3958   6.496   1.505   1.151
 1020SOL    HW1 3959   6.429   1.452   1.098
 1020SOL    HW2 3960   6.449   1.557   1.222
 1021SOL     OW 3961   5.500   0.226   1.467
 1021SOL    HW1 3962   5.538   0.224   1.559
 1021SOL    HW2 3963   5.432   0.299   1.461
 1022SOL     OW 3964   3.055   4.425   5.604
 1022SOL    HW1 3965   3.067   4.524   5.592
 1022SOL    HW2 3966   3.008   4.388   5.524
 1023SOL     OW 3967   0.386   0.424   2.992
 1023SOL    HW1 3968   0.468   0.436   2.935
 1023SOL    HW2 3969   0.313   0.484   2.959
 1024SOL     OW 3970   0.515   2.894   4.218
 1024SOL    HW1 3971   0.559   2.961   4.279
 1024SOL    HW2 3972   0.416   2.897   4.232
 1025SOL     OW 3973   3.588   3.723   1.619
 1025SOL    HW1 3974   3.615   3.631   1.646
 1025SOL    HW2 3975   3.595   3.784   1.699
 1026SOL     OW 3976   2.389   2.692   1.321
 1026SOL    HW1 3977   2.473   2.655   1.281
 1026SOL    HW2 3978   2.367   2.779   1.278
 1027SOL     OW 3979   3.228   6.286   1.806
 1027SOL    HW1 3980   3.292   6.313   1.878
 1027SOL    HW2 3981   3.135   6.290   1.841
 1028SOL     OW 3982   2.362   6.623   1.746
 1028SOL    HW1 3983   2.405   6.713   1.731
 1028SOL    HW2 3984   2.263   6.631   1.736
 1029SOL     OW 3985   1.686   0.285   6.152
 1029SOL    HW1 3986   1.705   0.367   6.099
 1029SOL    HW2 3987   1.591   0.287   6.185
 1030SOL     OW 3988   3.220   2.693   1.793
 1030SOL    HW1 3989   3.221   2.613   1.733
 1030SOL    HW2 3990   3.312   2.729   1.802
 1031SOL     OW 3991   4.728   4.276   1.421
 1031SOL    HW1 3992   4.745   4.369   1.390
 1031SOL    HW2 3993   4.701   4.277   1.517
 1032SOL     OW 3994   2.484   2.031   5.814
 1032SOL    HW1 3995   2.516   1.937   5.801
 1032SOL    HW2 3996   2.429   2.059   5.735
 1033SOL     OW 3997   1.388   6.370   1.939
 1033SOL    HW1 3998   1.353   6.276   1.938
 1033SOL    HW2 3999   1.320   6.430   1.982
 1034SOL     OW 4000   0.211   5.377   4.613
 1034SOL    HW1 4001   0.259   5.332   4.689
 1034SOL    HW2 4002   0.269   5.377   4.532
 1035SOL     OW 4003   0.285   1.523   5.264
 1035SOL    HW1 4004   0.360   1.489   5.321
 1035SOL    HW2 4005   0.301   1.619   5.243
 1036SOL     OW 4006   4.111   0.018   1.652
 1036SOL    HW1 4007   4.184   6.989   1.697
 1036SOL    HW2 4008   4.050   0.057   1.721
 1037SOL     OW 4009   1.586   1.150   1.845
 1037SOL    HW1 4010   1.531   1.148   1.928
 1037SOL    HW2 4011   1.584   1.059   1.802
 1038SOL     OW 4012   1.727   1.010   5.001
 1038SOL    HW1 4013   1.742   1.045   5.094
 1038SOL    HW2 4014   1.783   0.928   4.987
 1039SOL     OW 4015   3.628   3.835   4.249
 1039SOL    HW1 4016   3.721   3.821   4.284
 1039SOL    HW2 4017   3.597   3.927   4.272
 1040SOL     OW 4018   4.768   1.200   2.711
 1040SOL    HW1 4019   4.681   1.154   2.695
 1040SOL    HW2 4020   4.754   1.273   2.778
 1041SOL     OW 4021   0.433   6.554   3.723
 1041SOL    HW1 4022   0.354   6.574   3.781
 1041SOL    HW2 4023   0.460   6.636   3.674
 1042SOL     OW 4024   4.370   5.278   2.034
 1042SOL    HW1 4025   4.308   5.214   1.989
 1042SOL    HW2 4026   4.317   5.353   2.074
 1043SOL     OW 4027   2.998   2.220   4.359
 1043SOL    HW1 4028   3.074   2.216   4.295
 1043SOL    HW2 4029   2.984   2.129   4.400
 1044SOL     OW 4030   5.719   5.360   2.671
 1044SOL    HW1 4031   5.741   5.428   2.742
 1044SOL    HW2 4032   5.699   5.272   2.714
 1045SOL     OW 4033   4.078   0.206   3.018
 1045SOL    HW1 4034   4.052   0.296   2.983
 1045SOL    HW2 4035   4.031   0.135   2.966
 1046SOL     OW 4036   1.955   0.639   0.556
 1046SOL    HW1 4037   1.939   0.545   0.525
 1046SOL    HW2 4038   1.940   0.701   0.479
 1047SOL     OW 4039   1.765   0.149   4.184
 1047SOL    HW1 4040   1.698   0.222   4.171
 1047SOL    HW2 4041   1.791   0.111   4.095
 1048SOL     OW 4042   4.370   6.151   3.277
 1048SOL    HW1 4043   4.451   6.152   3.219
 1048SOL    HW2 4044   4.363   6.062   3.323
 1049SOL     OW 4045   6.547   6.567   4.041
 1049SOL    HW1 4046   6.542   6.536   4.136
 1049SOL    HW2 4047   6.494   6.506   3.982
 1050SOL     OW 4048   4.003   4.755   1.283
 1050SOL    HW1 4049   4.037   4.662   1.277
 1050SOL    HW2 4050   3.998   4.795   1.192
 1051SOL     OW 4051   1.058   5.743   0.274
 1051SOL    HW1 4052   1.105   5.681   0.210
 1051SOL    HW2 4053   1.053   5.700   0.364
 1052SOL     OW 4054   4.150   0.524   5.040
 1052SOL    HW1 4055   4.108   0.531   4.949
 1052SOL    HW2 4056   4.133   0.609   5.090
 1053SOL     OW 4057   5.944   4.739   2.862
 1053SOL    HW1 4058   5.966   4.762   2.767
 1053SOL    HW2 4059   5.860   4.684   2.864
 1054SOL     OW 4060   3.665   3.437   0.296
 1054SOL    HW1 4061   3.663   3.461   0.199
 1054SOL    HW2 4062   3.738   3.371   0.312
 1055SOL     OW 4063   3.706   6.255   4.861
 1055SOL    HW1 4064   3.726   6.171   4.912
 1055SOL    HW2 4065   3.694   6.331   4.924
 1056SOL     OW 4066   2.633   4.030   6.735
 1056SOL    HW1 4067   2.705   4.018   6.668
 1056SOL    HW2 4068   2.546   4.048   6.688
 1057SOL     OW 4069   2.852   3.394   1.431
 1057SOL    HW1 4070   2.915   3.341   1.375
 1057SOL    HW2 4071   2.769   3.341   1.448
 1058SOL     OW 4072   4.860   2.307   3.577
 1058SOL    HW1 4073   4.855   2.291   3.478
 1058SOL    HW2 4074   4.799   2.244   3.624
 1059SOL     OW 4075   2.791   0.628   2.017
 1059SOL    HW1 4076   2.803   0.558   2.087
 1059SOL    HW2 4077   2.832   0.714   2.047
 1060SOL     OW 4078   0.265   4.740   4.284
 1060SOL    HW1 4079   0.304   4.828   4.311
 1060SOL    HW2 4080   0.248   4.741   4.185
 1061SOL     OW 4081   6.695   3.391   0.733
 1061SOL    HW1 4082   6.662   3.374   0.826
 1061SOL    HW2 4083   6.789   3.358   0.724
 1062SOL     OW 4084   5.469   4.980   5.963
 1062SOL    HW1 4085   5.429   5.071   5.954
 1062SOL    HW2 4086   5.465   4.934   5.875
 1063SOL     OW 4087   1.303   5.224   1.277
 1063SOL    HW1 4088   1.366   5.287   1.321
 1063SOL    HW2 4089   1.217   5.271   1.256
 1064SOL     OW 4090   1.584   4.436   2.866
 1064SOL    HW1 4091   1.501   4.448   2.811
 1064SOL    HW2 4092   1.576   4.352   2.920
 1065SOL     OW 4093   3.855   0.693   3.804
 1065SOL    HW1 4094   3.800   0.709   3.723
 1065SOL    HW2 4095   3.948   0.727   3.788
 1066SOL     OW 4096   4.906   6.862   2.662
 1066SOL    HW1 4097   4.887   6.775   2.617
 1066SOL    HW2 4098   4.864   6.861   2.753
 1067SOL     OW 4099   0.938   3.240   0.908
 1067SOL    HW1 4100   0.991   3.266   0.989
 1067SOL    HW2 4101   0.984   3.167   0.859
 1068SOL     OW 4102   6.499   4.790   2.809
 1068SOL    HW1 4103   6.490   4.690   2.810
 1068SOL    HW2 4104   6.409   4.832   2.822
 1069SOL     OW 4105   4.342   5.430   1.062
 1069SOL    HW1 4106   4.433   5.472   1.058
 1069SOL    HW2 4107   4.311   5.409   0.970
 1070SOL     OW 4108   7.004   0.491   1.980
 1070SOL    HW1 4109   0.037   0.473   1.899
 1070SOL    HW2 4110   6.936   0.560   1.959
 1071SOL     OW 4111   1.357   0.999   4.403
 1071SOL    HW1 4112   1.432   0.933   4.392
 1071SOL    HW2 4113   1.290   0.986   4.330
 1072SOL     OW 4114   1.893   1.234   0.657
 1072SOL    HW1 4115   1.877   1.331   0.677
 1072SOL    HW2 4116   1.953   1.225   0.578
 1073SOL     OW 4117   4.534   0.239   2.868
 1073SOL    HW1 4118   4.611   0.259   2.807
 1073SOL    HW2 4119   4.480   0.164   2.829
 1074SOL     OW 4120   2.215   5.164   1.545
 1074SOL    HW1 4121   2.290   5.103   1.573
 1074SOL    HW2 4122   2.252   5.256   1.528
 1075SOL     OW 4123   5.378   0.908   3.416
 1075SOL    HW1 4124   5.473   0.935   3.402
 1075SOL    HW2 4125   5.352   0.924   3.511
 1076SOL     OW 4126   0.519   2.198   5.506
 1076SOL    HW1 4127   0.445   2.155   5.453
 1076SOL    HW2 4128   0.580   2.246   5.443
 1077SOL     OW 4129   5.546   6.836   1.004
 1077SOL    HW1 4130   5.625   6.874   1.052
 1077SOL    HW2 4131   5.520   6.750   1.047
 1078SOL     OW 4132   0.554   0.788   2.341
 1078SOL    HW1 4133   0.507   0.705   2.371
 1078SOL    HW2 4134   0.570   0.783   2.242
 1079SOL     OW 4135   1.712   6.940   2.652
 1079SOL    HW1 4136   1.638   6.957   2.717
 1079SOL    HW2 4137   1.685   6.867   2.590
 1080SOL     OW 4138   1.844   5.426   3.340
 1080SOL    HW1 4139   1.936   5.455   3.368
 1080SOL    HW2 4140   1.851   5.343   3.285
 1081SOL     OW 4141   0.048   5.071   5.654
 1081SOL    HW1 4142   7.022   5.114   5.577
 1081SOL    HW2 4143   0.002   5.094   5.739
 1082SOL     OW 4144   5.444   2.086   4.716
 1082SOL    HW1 4145   5.425   2.063   4.621
 1082SOL    HW2 4146   5.514   2.023   4.752
 1083SOL     OW 4147   4.592   4.229   0.713
 1083SOL    HW1 4148   4.638   4.316   0.695
 1083SOL    HW2 4149   4.541   4.201   0.632
 1084SOL     OW 4150   6.149   6.400   6.831
 1084SOL    HW1 4151   6.159   6.303   6.851
 1084SOL    HW2 4152   6.097   6.412   6.747
 1085SOL     OW 4153   1.928   3.623   4.735
 1085SOL    HW1 4154   1.979   3.580   4.660
 1085SOL    HW2 4155   1.932   3.723   4.725
 1086SOL     OW 4156   0.890   5.303   0.636
 1086SOL    HW1 4157   0.881   5.254   0.549
 1086SOL    HW2 4158   0.811   5.362   0.649
 1087SOL     OW 4159   5.854   2.447   5.314
 1087SOL    HW1 4160   5.851   2.358   5.360
 1087SOL    HW2 4161   5.915   2.508   5.365
 1088SOL     OW 4162   0.565   3.806   2.845
 1088SOL    HW1 4163   0.468   3.824   2.864
 1088SOL    HW2 4164   0.608   3.769   2.927
 1089SOL     OW 4165   1.002   5.910   4.411
 1089SOL    HW1 4166   1.006   5.994   4.464
 1089SOL    HW2 4167   1.001   5.831   4.473
 1090SOL     OW 4168   2.629   2.482   3.095
 1090SOL    HW1 4169   2.669   2.461   3.006
 1090SOL    HW2 4170   2.551   2.544   3.083
 1091SOL     OW 4171   2.811   2.340   4.558
 1091SOL    HW1 4172   2.847   2.409   4.621
 1091SOL    HW2 4173   2.869   2.335   4.476
 1092SOL     OW 4174   1.257   4.298   0.984
 1092SOL    HW1 4175   1.325   4.250   1.040
 1092SOL    HW2 4176   1.169   4.251   0.992
 1093SOL     OW 4177   1.752   1.346   1.784
 1093SOL    HW1 4178   1.689   1.276   1.817
 1093SOL    HW2 4179   1.811   1.308   1.713
 1094SOL     OW 4180   0.469   0.121   2.434
 1094SOL    HW1 4181   0.477   0.161   2.525
 1094SOL    HW2 4182   0.555   0.135   2.384
 1095SOL     OW 4183   0.886   2.885   6.264
 1095SOL    HW1 4184   0.889   2.913   6.168
 1095SOL    HW2 4185   0.834   2.953   6.317
 1096SOL     OW 4186   3.526   4.342   1.686
 1096SOL    HW1 4187   3.530   4.432   1.728
 1096SOL    HW2 4188   3.466   4.283   1.741
 1097SOL     OW 4189   2.421   4.410   4.272
 1097SOL    HW1 4190   2.367   4.423   4.355
 1097SOL    HW2 4191   2.364   4.370   4.201
 1098SOL     OW 4192   4.615   3.800   6.487
 1098SOL    HW1 4193   4.687   3.852   6.534
 1098SOL    HW2 4194   4.542   3.779   6.552
 1099SOL     OW 4195   3.368   0.710   5.829
 1099SOL    HW1 4196   3.316   0.795   5.821
 1099SOL    HW2 4197   3.381   0.670   5.739
 1100SOL     OW 4198   3.883   1.937   4.225
 1100SOL    HW1 4199   3.936   2.022   4.231
 1100SOL    HW2 4200   3.902   1.892   4.138
 1101SOL     OW 4201   5.549   2.984   6.190
 1101SOL    HW1 4202   5.634   3.018   6.229
 1101SOL    HW2 4203   5.559   2.888   6.165
 1102SOL     OW 4204   0.574   0.006   4.569
 1102SOL    HW1 4205   0.610   7.002   4.480
 1102SOL    HW2 4206   0.601   6.960   4.637
 1103SOL     OW 4207   4.059   1.657   0.240
 1103SOL    HW1 4208   4.033   1.603   0.160
 1103SOL    HW2 4209   4.008   1.743   0.241
 1104SOL     OW 4210   2.174   3.438   5.899
 1104SOL    HW1 4211   2.242   3.364   5.905
 1104SOL    HW2 4212   2.196   3.497   5.821
 1105SOL     OW 4213   6.219   4.028   4.756
 1105SOL    HW1 4214   6.238   4.107   4.814
 1105SOL    HW2 4215   6.177   3.956   4.810
 1106SOL     OW 4216   0.313   2.181   1.422
 1106SOL    HW1 4217   0.287   2.259   1.478
 1106SOL    HW2 4218   0.396   2.139   1.461
 1107SOL     OW 4219   0.735   0.614   0.021
 1107SOL    HW1 4220   0.770   0.533   0.067
 1107SOL    HW2 4221   0.755   0.696   0.075
 1108SOL     OW 4222   3.241   0.045   5.067
 1108SOL    HW1 4223   3.319   0.083   5.018
 1108SOL    HW2 4224   3.235   6.969   5.049
 1109SOL     OW 4225   4.693   1.133   4.231
 1109SOL    HW1 4226   4.661   1.163   4.141
 1109SOL    HW2 4227   4.642   1.051   4.259
 1110SOL     OW 4228   3.357   1.914   3.374
 1110SOL    HW1 4229   3.335   1.839   3.312
 1110SOL    HW2 4230   3.373   1.997   3.322
 1111SOL     OW 4231   4.761   5.415   6.322
 1111SOL    HW1 4232   4.856   5.407   6.294
 1111SOL    HW2 4233   4.757   5.463   6.410
 1112SOL     OW 4234   5.494   0.935   2.706
 1112SOL    HW1 4235   5.439   0.923   2.788
 1112SOL    HW2 4236   5.496   0.849   2.654
 1113SOL     OW 4237   6.044   4.546   1.789
 1113SOL    HW1 4238   5.987   4.595   1.724
 1113SOL    HW2 4239   5.985   4.495   1.852
 1114SOL     OW 4240   3.505   1.755   5.989
 1114SOL    HW1 4241   3.451   1.788   5.911
 1114SOL    HW2 4242   3.602   1.774   5.972
 1115SOL     OW 4243   4.045   3.079   5.945
 1115SOL    HW1 4244   3.975   3.148   5.965
 1115SOL    HW2 4245   4.118   3.121   5.892
 1116SOL     OW 4246   5.008   6.908   6.160
 1116SOL    HW1 4247   5.055   6.823   6.137
 1116SOL    HW2 4248   4.917   6.887   6.196
 1117SOL     OW 4249   2.307   2.426   2.023
 1117SOL    HW1 4250   2.294   2.490   2.099
 1117SOL    HW2 4251   2.404   2.404   2.015
 1118SOL     OW 4252   2.879   4.605   7.000
 1118SOL    HW1 4253   2.957   4.632   0.034
 1118SOL    HW2 4254   2.912   4.557   6.919
 1119SOL     OW 4255   4.258   4.738   1.726
 1119SOL    HW1 4256   4.353   4.760   1.747
 1119SOL    HW2 4257   4.250   4.716   1.629
 1120SOL     OW 4258   6.125   6.040   6.982
 1120SOL    HW1 4259   6.054   6.100   7.020
 1120SOL    HW2 4260   6.195   6.096   6.937
 1121SOL     OW 4261   6.092   4.343   4.425
 1121SOL    HW1 4262   6.175   4.288   4.432
 1121SOL    HW2 4263   6.019   4.299   4.477
 1122SOL     OW 4264   5.670   2.411   0.886
 1122SOL    HW1 4265   5.631   2.361   0.810
 1122SOL    HW2 4266   5.598   2.441   0.948
 1123SOL     OW 4267   5.151   1.998   3.543
 1123SOL    HW1 4268   5.099   1.917   3.514
 1123SOL    HW2 4269   5.248   1.976   3.544
 1124SOL     OW 4270   7.020   3.763   5.268
 1124SOL    HW1 4271   0.061   3.792   5.196
 1124SOL    HW2 4272   6.978   3.676   5.243
 1125SOL     OW 4273   2.441   2.227   3.762
 1125SOL    HW1 4274   2.507   2.155   3.782
 1125SOL    HW2 4275   2.472   2.314   3.801
 1126SOL     OW 4276   5.465   4.836   0.457
 1126SOL    HW1 4277   5.422   4.746   0.446
 1126SOL    HW2 4278   5.398   4.907   0.437
 1127SOL     OW 4279   5.184   5.538   4.518
 1127SOL    HW1 4280   5.215   5.526   4.612
 1127SOL    HW2 4281   5.176   5.636   4.497
 1128SOL     OW 4282   5.880   1.741   5.374
 1128SOL    HW1 4283   5.808   1.672   5.387
 1128SOL    HW2 4284   5.960   1.717   5.429
 1129SOL     OW 4285   1.429   0.056   0.631
 1129SOL    HW1 4286   1.350   0.043   0.571
 1129SOL    HW2 4287   1.510   0.018   0.587
 1130SOL     OW 4288   2.883   4.690   0.492
 1130SOL    HW1 4289   2.950   4.617   0.495
 1130SOL    HW2 4290   2.840   4.692   0.402
 1131SOL     OW 4291   1.240   5.777   5.888
 1131SOL    HW1 4292   1.298   5.698   5.873
 1131SOL    HW2 4293   1.144   5.749   5.890
 1132SOL     OW 4294   5.256   6.943   2.286
 1132SOL    HW1 4295   5.170   6.959   2.334
 1132SOL    HW2 4296   5.251   6.980   2.193
 1133SOL     OW 4297   0.813   1.064   0.678
 1133SOL    HW1 4298   0.763   1.151   0.671
 1133SOL    HW2 4299   0.892   1.076   0.738
 1134SOL     OW 4300   5.280   0.226   2.483
 1134SOL    HW1 4301   5.303   0.193   2.574
 1134SOL    HW2 4302   5.181   0.232   2.473
 1135SOL     OW 4303   2.198   0.232   3.303
 1135SOL    HW1 4304   2.215   0.324   3.268
 1135SOL    HW2 4305   2.160   0.174   3.230
 1136SOL     OW 4306   4.309   4.658   3.040
 1136SOL    HW1 4307   4.300   4.645   2.941
 1136SOL    HW2 4308   4.367   4.585   3.078
 1137SOL     OW 4309   1.133   6.814   0.187
 1137SOL    HW1 4310   1.057   6.805   0.250
 1137SOL    HW2 4311   1.213   6.768   0.225
 1138SOL     OW 4312   6.859   0.905   6.053
 1138SOL    HW1 4313   6.781   0.850   6.084
 1138SOL    HW2 4314   6.911   0.936   6.133
 1139SOL     OW 4315   3.241   4.848   2.198
 1139SOL    HW1 4316   3.179   4.830   2.122
 1139SOL    HW2 4317   3.332   4.813   2.177
 1140SOL     OW 4318   2.833   0.936   2.138
 1140SOL    HW1 4319   2.880   0.944   2.226
 1140SOL    HW2 4320   2.875   0.997   2.072
 1141SOL     OW 4321   0.578   6.533   6.830
 1141SOL    HW1 4322   0.601   6.446   6.786
 1141SOL    HW2 4323   0.524   6.589   6.767
 1142SOL     OW 4324   2.919   6.615   4.562
 1142SOL    HW1 4325   2.857   6.679   4.518
 1142SOL    HW2 4326   2.957   6.657   4.645
 1143SOL     OW 4327   2.207   3.009   3.315
 1143SOL    HW1 4328   2.275   2.978   3.381
 1143SOL    HW2 4329   2.116   2.977   3.341
 1144SOL     OW 4330   6.216   4.722   4.400
 1144SOL    HW1 4331   6.117   4.738   4.391
 1144SOL    HW2 4332   6.234   4.672   4.485
 1145SOL     OW 4333   6.654   4.196   1.684
 1145SOL    HW1 4334   6.747   4.173   1.714
 1145SOL    HW2 4335   6.659   4.246   1.597
 1146SOL     OW 4336   6.979   0.825   2.905
 1146SOL    HW1 4337   6.935   0.861   2.987
 1146SOL    HW2 4338   6.985   0.726   2.911
 1147SOL     OW 4339   2.584   5.820   1.387
 1147SOL    HW1 4340   2.613   5.832   1.482
 1147SOL    HW2 4341   2.498   5.768   1.385
 1148SOL     OW 4342   4.467   5.950   0.408
 1148SOL    HW1 4343   4.389   5.891   0.387
 1148SOL    HW2 4344   4.433   6.037   0.445
 1149SOL     OW 4345   6.297   3.424   2.710
 1149SOL    HW1 4346   6.245   3.450   2.792
 1149SOL    HW2 4347   6.232   3.399   2.637
 1150SOL     OW 4348   1.333   3.824   0.527
 1150SOL    HW1 4349   1.390   3.753   0.567
 1150SOL    HW2 4350   1.258   3.783   0.476
 1151SOL     OW 4351   4.995   4.478   6.813
 1151SOL    HW1 4352   5.004   4.394   6.759
 1151SOL    HW2 4353   4.935   4.460   6.891
 1152SOL     OW 4354   5.369   5.289   0.068
 1152SOL    HW1 4355   5.283   5.257   0.029
 1152SOL    HW2 4356   5.441   5.286   7.021
 1153SOL     OW 4357   0.882   0.466   1.796
 1153SOL    HW1 4358   0.960   0.502   1.746
 1153SOL    HW2 4359   0.813   0.433   1.732
 1154SOL     OW 4360   6.511   4.240   1.346
 1154SOL    HW1 4361   6.535   4.145   1.326
 1154SOL    HW2 4362   6.572   4.301   1.295
 1155SOL     OW 4363   2.344   4.779   5.852
 1155SOL    HW1 4364   2.418   4.777   5.919
 1155SOL    HW2 4365   2.265   4.729   5.887
 1156SOL     OW 4366   4.780   1.549   4.644
 1156SOL    HW1 4367   4.870   1.545   4.599
 1156SOL    HW2 4368   4.721   1.478   4.606
 1157SOL     OW 4369   4.947   1.974   5.960
 1157SOL    HW1 4370   4.914   1.880   5.970
 1157SOL    HW2 4371   4.869   2.037   5.965
 1158SOL     OW 4372   7.017   4.799   5.651
 1158SOL    HW1 4373   0.039   4.889   5.654
 1158SOL    HW2 4374   6.923   4.809   5.618
 1159SOL     OW 4375   6.623   6.655   3.733
 1159SOL    HW1 4376   6.571   6.730   3.775
 1159SOL    HW2 4377   6.625   6.577   3.796
 1160SOL     OW 4378   5.227   4.619   1.185
 1160SOL    HW1 4379   5.298   4.684   1.214
 1160SOL    HW2 4380   5.145   4.670   1.158
 1161SOL     OW 4381   6.002   6.222   5.890
 1161SOL    HW1 4382   6.016   6.274   5.974
 1161SOL    HW2 4383   6.076   6.242   5.826
 1162SOL     OW 4384   3.485   2.881   6.585
 1162SOL    HW1 4385   3.520   2.794   6.549
 1162SOL    HW2 4386   3.517   2.893   6.679
 1163SOL     OW 4387   6.852   4.009   1.440
 1163SOL    HW1 4388   6.937   3.957   1.428
 1163SOL    HW2 4389   6.783   3.950   1.483
 1164SOL     OW 4390   6.258   3.017   4.341
 1164SOL    HW1 4391   6.187   3.064   4.393
 1164SOL    HW2 4392   6.250   3.042   4.244
 1165SOL     OW 4393   3.616   4.932   3.740
 1165SOL    HW1 4394   3.703   4.972   3.770
 1165SOL    HW2 4395   3.552   4.929   3.817
 1166SOL     OW 4396   3.610   6.993   6.880
 1166SOL    HW1 4397   3.654   6.903   6.879
 1166SOL    HW2 4398   3.680   0.041   6.887
 1167SOL     OW 4399   4.640   6.016   0.026
 1167SOL    HW1 4400   4.725   5.995   7.001
 1167SOL    HW2 4401   4.648   6.105   0.071
 1168SOL     OW 4402   5.286   2.306   2.734
 1168SOL    HW1 4403   5.348   2.355   2.674
 1168SOL    HW2 4404   5.275   2.356   2.820
 1169SOL     OW 4405   4.450   2.884   6.117
 1169SOL    HW1 4406   4.410   2.806   6.070
 1169SOL    HW2 4407   4.455   2.865   6.215
 1170SOL     OW 4408   5.190   6.918   2.693
 1170SOL    HW1 4409   5.244   6.843   2.655
 1170SOL    HW2 4410   5.093   6.894   2.692
 1171SOL     OW 4411   2.331   6.754   0.549
 1171SOL    HW1 4412   2.244   6.802   0.555
 1171SOL    HW2 4413   2.397   6.796   0.611
 1172SOL     OW 4414   3.459   4.026   1.504
 1172SOL    HW1 4415   3.443   4.038   1.601
 1172SOL    HW2 4416   3.390   3.965   1.465
 1173SOL     OW 4417   3.038   0.817   0.107
 1173SOL    HW1 4418   3.116   0.788   0.162
 1173SOL    HW2 4419   3.068   0.836   0.014
 1174SOL     OW 4420   2.706   5.053   1.583
 1174SOL    HW1 4421   2.732   4.960   1.557
 1174SOL    HW2 4422   2.729   5.116   1.509
 1175SOL     OW 4423   4.651   4.619   6.805
 1175SOL    HW1 4424   4.661   4.530   6.760
 1175SOL    HW2 4425   4.587   4.676   6.753
 1176SOL     OW 4426   5.982   3.993   6.433
 1176SOL    HW1 4427   5.885   3.971   6.418
 1176SOL    HW2 4428   6.036   3.910   6.432
 1177SOL     OW 4429   0.452   3.445   5.116
 1177SOL    HW1 4430   0.522   3.515   5.133
 1177SOL    HW2 4431   0.495   3.355   5.114
 1178SOL     OW 4432   3.799   4.251   0.654
 1178SOL    HW1 4433   3.892   4.232   0.687
 1178SOL    HW2 4434   3.802   4.267   0.555
 1179SOL     OW 4435   2.318   6.155   0.952
 1179SOL    HW1 4436   2.224   6.123   0.964
 1179SOL    HW2 4437   2.317   6.253   0.929
 1180SOL     OW 4438   2.592   5.959   4.592
 1180SOL    HW1 4439   2.527   5.886   4.610
 1180SOL    HW2 4440   2.604   5.970   4.494
 1181SOL     OW 4441   0.157   4.150   6.290
 1181SOL    HW1 4442   0.192   4.080   6.352
 1181SOL    HW2 4443   0.223   4.225   6.283
 1182SOL     OW 4444   3.755   5.335   3.236
 1182SOL    HW1 4445   3.832   5.388   3.200
 1182SOL    HW2 4446   3.750   5.348   3.335
 1183SOL     OW 4447   2.963   4.856   1.644
 1183SOL    HW1 4448   3.053   4.819   1.669
 1183SOL    HW2 4449   2.916   4.888   1.726
 1184SOL     OW 4450   0.104   1.346   5.163
 1184SOL    HW1 4451   0.097   1.270   5.227
 1184SOL    HW2 4452   0.182   1.403   5.187
 1185SOL     OW 4453   1.205   0.889   0.624
 1185SOL    HW1 4454   1.117   0.923   0.593
 1185SOL    HW2 4455   1.255   0.851   0.546
 1186SOL     OW 4456   4.836   6.373   5.094
 1186SOL    HW1 4457   4.832   6.354   4.996
 1186SOL    HW2 4458   4.834   6.286   5.144
 1187SOL     OW 4459   5.176   0.133   4.973
 1187SOL    HW1 4460   5.264   0.129   4.926
 1187SOL    HW2 4461   5.188   0.107   5.069
 1188SOL     OW 4462   2.503   5.452   6.097
 1188SOL    HW1 4463   2.583   5.395   6.114
 1188SOL    HW2 4464   2.491   5.466   5.999
 1189SOL     OW 4465   6.468   1.993   1.714
 1189SOL    HW1 4466   6.493   2.046   1.795
 1189SOL    HW2 4467   6.551   1.966   1.664
 1190SOL     OW 4468   3.064   5.689   2.990
 1190SOL    HW1 4469   3.021   5.671   3.079
 1190SOL    HW2 4470   3.018   5.766   2.946
 1191SOL     OW 4471   4.371   6.047   4.367
 1191SOL    HW1 4472   4.301   6.076   4.301
 1191SOL    HW2 4473   4.456   6.027   4.319
 1192SOL     OW 4474   5.351   5.241   3.308
 1192SOL    HW1 4475   5.288   5.163   3.310
 1192SOL    HW2 4476   5.312   5.317   3.360
 1193SOL     OW 4477   6.886   2.185   5.616
 1193SOL    HW1 4478   6.806   2.125   5.607
 1193SOL    HW2 4479   6.941   2.180   5.533
 1194SOL     OW 4480   6.264   1.059   1.546
 1194SOL    HW1 4481   6.350   1.097   1.512
 1194SOL    HW2 4482   6.193   1.069   1.477
 1195SOL     OW 4483   0.201   3.823   0.480
 1195SOL    HW1 4484   0.210   3.724   0.480
 1195SOL    HW2 4485   0.104   3.848   0.485
 1196SOL     OW 4486   6.842   4.980   3.484
 1196SOL    HW1 4487   6.804   4.891   3.458
 1196SOL    HW2 4488   6.830   4.994   3.583
 1197SOL     OW 4489   4.580   6.327   4.065
 1197SOL    HW1 4490   4.569   6.426   4.059
 1197SOL    HW2 4491   4.510   6.282   4.010
 1198SOL     OW 4492   1.767   3.642   2.189
 1198SOL    HW1 4493   1.734   3.572   2.126
 1198SOL    HW2 4494   1.864   3.630   2.205
 1199SOL     OW 4495   3.487   3.776   2.520
 1199SOL    HW1 4496   3.433   3.771   2.436
 1199SOL    HW2 4497   3.456   3.705   2.584
 1200SOL     OW 4498   3.187   4.056   4.674
 1200SOL    HW1 4499   3.124   4.123   4.635
 1200SOL    HW2 4500   3.270   4.052   4.619
 1201SOL     OW 4501   0.441   1.434   4.200
 1201SOL    HW1 4502   0.455   1.373   4.279
 1201SOL    HW2 4503   0.354   1.412   4.156
 1202SOL     OW 4504   0.412   5.949   5.654
 1202SOL    HW1 4505   0.331   5.988   5.698
 1202SOL    HW2 4506   0.397   5.943   5.555
 1203SOL     OW 4507   0.741   5.206   0.898
 1203SOL    HW1 4508   0.647   5.212   0.866
 1203SOL    HW2 4509   0.802   5.185   0.821
 1204SOL     OW 4510   4.597   1.743   1.258
 1204SOL    HW1 4511   4.584   1.658   1.207
 1204SOL    HW2 4512   4.512   1.766   1.307
 1205SOL     OW 4513   4.129   3.938   0.704
 1205SOL    HW1 4514   4.051   3.878   0.687
 1205SOL    HW2 4515   4.210   3.900   0.659
 1206SOL     OW 4516   2.251   2.737   5.572
 1206SOL    HW1 4517   2.271   2.640   5.559
 1206SOL    HW2 4518   2.159   2.757   5.537
 1207SOL     OW 4519   1.067   0.469   1.060
 1207SOL    HW1 4520   1.105   0.399   1.000
 1207SOL    HW2 4521   1.130   0.546   1.067
 1208SOL     OW 4522   3.333   3.670   1.526
 1208SOL    HW1 4523   3.303   3.577   1.546
 1208SOL    HW2 4524   3.418   3.689   1.577
 1209SOL     OW 4525   4.828   0.527   4.018
 1209SOL    HW1 4526   4.743   0.564   3.982
 1209SOL    HW2 4527   4.841   0.560   4.112
 1210SOL     OW 4528   3.755   6.660   3.392
 1210SOL    HW1 4529   3.687   6.669   3.320
 1210SOL    HW2 4530   3.708   6.645   3.479
 1211SOL     OW 4531   1.267   2.789   3.217
 1211SOL    HW1 4532   1.330   2.722   3.256
 1211SOL    HW2 4533   1.314   2.840   3.145
 1212SOL     OW 4534   6.724   0.160   5.924
 1212SOL    HW1 4535   6.668   0.240   5.905
 1212SOL    HW2 4536   6.803   0.187   5.980
 1213SOL     OW 4537   5.945   2.700   1.312
 1213SOL    HW1 4538   6.019   2.692   1.246
 1213SOL    HW2 4539   5.889   2.617   1.309
 1214SOL     OW 4540   0.957   3.078   7.008
 1214SOL    HW1 4541   0.928   3.170   6.982
 1214SOL    HW2 4542   1.057   3.074   7.011
 1215SOL     OW 4543   0.780   5.020   3.189
 1215SOL    HW1 4544   0.790   5.017   3.090
 1215SOL    HW2 4545   0.858   5.070   3.229
 1216SOL     OW 4546   5.403   0.939   0.502
 1216SOL    HW1 4547   5.434   0.962   0.595
 1216SOL    HW2 4548   5.321   0.992   0.480
 1217SOL     OW 4549   2.804   4.319   1.072
 1217SOL    HW1 4550   2.748   4.244   1.105
 1217SOL    HW2 4551   2.831   4.378   1.148
 1218SOL     OW 4552   1.524   3.031   4.787
 1218SOL    HW1 4553   1.552   3.111   4.840
 1218SOL    HW2 4554   1.559   2.948   4.831
 1219SOL     OW 4555   6.154   6.018   1.852
 1219SOL    HW1 4556   6.098   6.096   1.825
 1219SOL    HW2 4557   6.250   6.037   1.832
 1220SOL     OW 4558   0.905   4.518   2.313
 1220SOL    HW1 4559   0.972   4.584   2.347
 1220SOL    HW2 4560   0.860   4.473   2.390
 1221SOL     OW 4561   4.003   3.659   6.480
 1221SOL    HW1 4562   4.088   3.683   6.433
 1221SOL    HW2 4563   4.024   3.597   6.556
 1222SOL     OW 4564   6.750   1.304   6.779
 1222SOL    HW1 4565   6.837   1.331   6.821
 1222SOL    HW2 4566   6.760   1.302   6.680
 1223SOL     OW 4567   4.058   1.367   0.684
 1223SOL    HW1 4568   4.023   1.443   0.630
 1223SOL    HW2 4569   4.158   1.369   0.683
 1224SOL     OW 4570   3.256   5.784   0.407
 1224SOL    HW1 4571   3.180   5.748   0.352
 1224SOL    HW2 4572   3.223   5.861   0.462
 1225SOL     OW 4573   3.174   3.064   6.782
 1225SOL    HW1 4574   3.234   3.044   6.859
 1225SOL    HW2 4575   3.198   3.154   6.744
 1226SOL     OW 4576   2.788   6.817   1.538
 1226SOL    HW1 4577   2.885   6.817   1.516
 1226SOL    HW2 4578   2.743   6.892   1.490
 1227SOL     OW 4579   5.203   4.547   5.863
 1227SOL    HW1 4580   5.211   4.545   5.764
 1227SOL    HW2 4581   5.185   4.641   5.893
 1228SOL     OW 4582   2.712   2.389   6.253
 1228SOL    HW1 4583   2.798   2.370   6.300
 1228SOL    HW2 4584   2.720   2.363   6.156
 1229SOL     OW 4585   3.179   5.882   6.259
 1229SOL    HW1 4586   3.256   5.823   6.282
 1229SOL    HW2 4587   3.178   5.961   6.321
 1230SOL     OW 4588   5.215   6.616   1.853
 1230SOL    HW1 4589   5.268   6.604   1.937
 1230SOL    HW2 4590   5.249   6.695   1.803
 1231SOL     OW 4591   1.856   2.014   5.628
 1231SOL    HW1 4592   1.826   1.942   5.691
 1231SOL    HW2 4593   1.810   2.100   5.651
 1232SOL     OW 4594   0.283   1.963   5.731
 1232SOL    HW1 4595   0.280   2.012   5.643
 1232SOL    HW2 4596   0.365   1.991   5.781
 1233SOL     OW 4597   0.890   4.918   5.250
 1233SOL    HW1 4598   0.891   4.830   5.297
 1233SOL    HW2 4599   0.895   4.903   5.151
 1234SOL     OW 4600   6.226   2.776   6.018
 1234SOL    HW1 4601   6.200   2.783   5.922
 1234SOL    HW2 4602   6.286   2.853   6.042
 1235SOL     OW 4603   6.242   5.563   3.014
 1235SOL    HW1 4604   6.329   5.611   3.009
 1235SOL    HW2 4605   6.199   5.562   2.923
 1236SOL     OW 4606   4.597   1.016   0.325
 1236SOL    HW1 4607   4.648   1.102   0.317
 1236SOL    HW2 4608   4.502   1.031   0.299
 1237SOL     OW 4609   2.100   4.641   5.847
 1237SOL    HW1 4610   2.007   4.678   5.844
 1237SOL    HW2 4611   2.109   4.579   5.925
 1238SOL     OW 4612   1.092   0.890   0.122
 1238SOL    HW1 4613   1.023   0.893   0.050
 1238SOL    HW2 4614   1.087   0.802   0.169
 1239SOL     OW 4615   6.955   6.746   6.625
 1239SOL    HW1 4616   0.010   6.803   6.652
 1239SOL    HW2 4617   6.988   6.657   6.595
 1240SOL     OW 4618   5.331   6.297   0.812
 1240SOL    HW1 4619   5.409   6.286   0.751
 1240SOL    HW2 4620   5.321   6.216   0.869
 1241SOL     OW 4621   5.226   3.809   4.065
 1241SOL    HW1 4622   5.289   3.815   4.143
 1241SOL    HW2 4623   5.133   3.796   4.099
 1242SOL     OW 4624   0.831   3.735   1.335
 1242SOL    HW1 4625   0.820   3.638   1.314
 1242SOL    HW2 4626   0.804   3.751   1.430
 1243SOL     OW 4627   0.430   0.174   5.108
 1243SOL    HW1 4628   0.412   0.228   5.025
 1243SOL    HW2 4629   0.426   0.077   5.086
 1244SOL     OW 4630   5.792   6.664   4.631
 1244SOL    HW1 4631   5.730   6.627   4.700
 1244SOL    HW2 4632   5.866   6.713   4.675
 1245SOL     OW 4633   5.740   4.326   0.634
 1245SOL    HW1 4634   5.840   4.323   0.640
 1245SOL    HW2 4635   5.710   4.421   0.626
 1246SOL     OW 4636   2.937   0.290   1.265
 1246SOL    HW1 4637   2.920   0.313   1.361
 1246SOL    HW2 4638   2.850   0.290   1.215
 1247SOL     OW 4639   0.706   6.708   6.332
 1247SOL    HW1 4640   0.746   6.746   6.415
 1247SOL    HW2 4641   0.662   6.781   6.280
 1248SOL     OW 4642   2.004   0.226   5.297
 1248SOL    HW1 4643   1.912   0.223   5.335
 1248SOL    HW2 4644   2.026   0.137   5.256
 1249SOL     OW 4645   6.324   2.068   2.490
 1249SOL    HW1 4646   6.404   2.105   2.537
 1249SOL    HW2 4647   6.348   1.980   2.450
 1250SOL     OW 4648   6.147   5.326   3.700
 1250SOL    HW1 4649   6.167   5.236   3.737
 1250SOL    HW2 4650   6.147   5.393   3.774
 1251SOL     OW 4651   2.458   0.627   3.419
 1251SOL    HW1 4652   2.525   0.652   3.350
 1251SOL    HW2 4653   2.505   0.590   3.500
 1252SOL     OW 4654   4.622   3.077   6.414
 1252SOL    HW1 4655   4.664   3.050   6.500
 1252SOL    HW2 4656   4.534   3.122   6.431
 1253SOL     OW 4657   2.635   6.190   2.059
 1253SOL    HW1 4658   2.632   6.198   1.960
 1253SOL    HW2 4659   2.694   6.114   2.085
 1254SOL     OW 4660   1.160   2.543   2.630
 1254SOL    HW1 4661   1.169   2.553   2.729
 1254SOL    HW2 4662   1.251   2.534   2.589
 1255SOL     OW 4663   5.537   1.228   6.052
 1255SOL    HW1 4664   5.568   1.314   6.011
 1255SOL    HW2 4665   5.467   1.247   6.121
 1256SOL     OW 4666   6.882   6.802   3.089
 1256SOL    HW1 4667   6.927   6.882   3.129
 1256SOL    HW2 4668   6.849   6.742   3.162
 1257SOL     OW 4669   6.552   5.972   5.269
 1257SOL    HW1 4670   6.640   5.937   5.301
 1257SOL    HW2 4671   6.484   5.898   5.272
 1258SOL     OW 4672   2.090   4.854   2.911
 1258SOL    HW1 4673   2.089   4.948   2.878
 1258SOL    HW2 4674   2.085   4.791   2.833
 1259SOL     OW 4675   3.843   0.804   4.058
 1259SOL    HW1 4676   3.813   0.732   4.122
 1259SOL    HW2 4677   3.835   0.770   3.964
 1260SOL     OW 4678   2.385   1.954   0.052
 1260SOL    HW1 4679   2.445   1.909   7.008
 1260SOL    HW2 4680   2.373   2.050   0.026
 1261SOL     OW 4681   0.019   6.182   6.917
 1261SOL    HW1 4682   0.005   6.148   6.824
 1261SOL    HW2 4683   0.092   6.250   6.918
 1262SOL     OW 4684   6.113   4.592   1.445
 1262SOL    HW1 4685   6.178   4.527   1.405
 1262SOL    HW2 4686   6.140   4.613   1.539
 1263SOL     OW 4687   7.010   2.473   1.569
 1263SOL    HW1 4688   7.021   2.555   1.625
 1263SOL    HW2 4689   6.965   2.497   1.483
 1264SOL     OW 4690   0.317   4.616   1.087
 1264SOL    HW1 4691   0.283   4.612   0.993
 1264SOL    HW2 4692   0.414   4.637   1.087
 1265SOL     OW 4693   5.482   5.349   4.527
 1265SOL    HW1 4694   5.389   5.326   4.558
 1265SOL    HW2 4695   5.534   5.387   4.604
 1266SOL     OW 4696   0.501   1.673   4.133
 1266SOL    HW1 4697   0.529   1.641   4.042
 1266SOL    HW2 4698   0.461   1.597   4.184
 1267SOL     OW 4699   4.777   0.098   1.134
 1267SOL    HW1 4700   4.849   0.110   1.202
 1267SOL    HW2 4701   4.695   0.064   1.179
 1268SOL     OW 4702   2.583   2.302   0.626
 1268SOL    HW1 4703   2.636   2.381   0.660
 1268SOL    HW2 4704   2.572   2.309   0.527
 1269SOL     OW 4705   5.753   4.089   5.260
 1269SOL    HW1 4706   5.718   4.055   5.348
 1269SOL    HW2 4707   5.802   4.175   5.275
 1270SOL     OW 4708   1.485   3.086   3.680
 1270SOL    HW1 4709   1.440   2.997   3.686
 1270SOL    HW2 4710   1.497   3.124   3.772
 1271SOL     OW 4711   2.572   2.129   3.313
 1271SOL    HW1 4712   2.624   2.082   3.241
 1271SOL    HW2 4713   2.623   2.210   3.343
 1272SOL     OW 4714   6.272   4.456   6.676
 1272SOL    HW1 4715   6.174   4.452   6.656
 1272SOL    HW2 4716   6.292   4.398   6.754
 1273SOL     OW 4717   0.555   2.845   6.946
 1273SOL    HW1 4718   0.461   2.850   6.980
 1273SOL    HW2 4719   0.616   2.891   7.011
 1274SOL     OW 4720   6.683   4.472   1.550
 1274SOL    HW1 4721   6.712   4.494   1.457
 1274SOL    HW2 4722   6.751   4.503   1.616
 1275SOL     OW 4723   3.478   1.471   4.374
 1275SOL    HW1 4724   3.544   1.544   4.355
 1275SOL    HW2 4725   3.399   1.509   4.420
 1276SOL     OW 4726   6.308   5.549   5.501
 1276SOL    HW1 4727   6.395   5.517   5.540
 1276SOL    HW2 4728   6.277   5.484   5.432
 1277SOL     OW 4729   1.509   5.550   5.908
 1277SOL    HW1 4730   1.542   5.477   5.848
 1277SOL    HW2 4731   1.577   5.569   5.979
 1278SOL     OW 4732   0.897   6.815   4.852
 1278SOL    HW1 4733   0.916   6.895   4.796
 1278SOL    HW2 4734   0.820   6.834   4.914
 1279SOL     OW 4735   2.174   4.925   0.350
 1279SOL    HW1 4736   2.197   5.015   0.314
 1279SOL    HW2 4737   2.252   4.864   0.340
 1280SOL     OW 4738   4.128   6.055   4.225
 1280SOL    HW1 4739   4.106   5.966   4.265
 1280SOL    HW2 4740   4.139   6.044   4.126
 1281SOL     OW 4741   2.157   6.649   3.107
 1281SOL    HW1 4742   2.146   6.581   3.034
 1281SOL    HW2 4743   2.085   6.636   3.175
 1282SOL     OW 4744   6.508   2.289   0.224
 1282SOL    HW1 4745   6.471   2.203   0.188
 1282SOL    HW2 4746   6.521   2.281   0.323
 1283SOL     OW 4747   6.802   3.423   5.336
 1283SOL    HW1 4748   6.759   3.471   5.412
 1283SOL    HW2 4749   6.742   3.351   5.303
 1284SOL     OW 4750   5.044   2.308   1.360
 1284SOL    HW1 4751   4.958   2.359   1.374
 1284SOL    HW2 4752   5.045   2.227   1.419
 1285SOL     OW 4753   4.372   1.916   5.856
 1285SOL    HW1 4754   4.275   1.893   5.854
 1285SOL    HW2 4755   4.415   1.885   5.771
 1286SOL     OW 4756   3.986   3.974   1.925
 1286SOL    HW1 4757   3.993   3.918   2.008
 1286SOL    HW2 4758   3.937   4.059   1.947
 1287SOL     OW 4759   5.684   4.911   4.922
 1287SOL    HW1 4760   5.659   5.001   4.886
 1287SOL    HW2 4761   5.661   4.906   5.019
 1288SOL     OW 4762   3.957   3.164   6.941
 1288SOL    HW1 4763   3.959   3.260   6.969
 1288SOL    HW2 4764   3.887   3.116   6.994
 1289SOL     OW 4765   6.570   6.930   1.314
 1289SOL    HW1 4766   6.476   6.915   1.283
 1289SOL    HW2 4767   6.630   6.863   1.272
 1290SOL     OW 4768   0.722   6.636   0.024
 1290SOL    HW1 4769   0.681   6.630   0.115
 1290SOL    HW2 4770   0.666   6.584   6.981
 1291SOL     OW 4771   0.705   4.275   4.431
 1291SOL    HW1 4772   0.659   4.187   4.416
 1291SOL    HW2 4773   0.778   4.263   4.499
 1292SOL     OW 4774   0.597   6.033   2.269
 1292SOL    HW1 4775   0.608   5.961   2.338
 1292SOL    HW2 4776   0.608   5.995   2.178
 1293SOL     OW 4777   1.466   2.110   0.146
 1293SOL    HW1 4778   1.552   2.094   0.097
 1293SOL    HW2 4779   1.451   2.037   0.212
 1294SOL     OW 4780   0.584   3.464   6.540
 1294SOL    HW1 4781   0.552   3.455   6.634
 1294SOL    HW2 4782   0.670   3.515   6.538
 1295SOL     OW 4783   0.414   3.892   1.440
 1295SOL    HW1 4784   0.500   3.918   1.486
 1295SOL    HW2 4785   0.407   3.939   1.352
 1296SOL     OW 4786   3.740   6.367   5.365
 1296SOL    HW1 4787   3.815   6.377   5.430
 1296SOL    HW2 4788   3.750   6.281   5.315
 1297SOL     OW 4789   6.777   0.298   1.691
 1297SOL    HW1 4790   6.758   0.257   1.602
 1297SOL    HW2 4791   6.812   0.391   1.678
 1298SOL     OW 4792   5.482   5.460   3.519
 1298SOL    HW1 4793   5.426   5.452   3.602
 1298SOL    HW2 4794   5.510   5.555   3.507
 1299SOL     OW 4795   2.139   3.241   3.478
 1299SOL    HW1 4796   2.058   3.200   3.519
 1299SOL    HW2 4797   2.190   3.172   3.426
 1300SOL     OW 4798   1.673   3.088   0.553
 1300SOL    HW1 4799   1.660   3.018   0.483
 1300SOL    HW2 4800   1.740   3.056   0.620
 1301SOL     OW 4801   0.213   6.732   1.021
 1301SOL    HW1 4802   0.304   6.693   1.036
 1301SOL    HW2 4803   0.215   6.829   1.042
 1302SOL     OW 4804   4.446   0.457   5.821
 1302SOL    HW1 4805   4.478   0.402   5.898
 1302SOL    HW2 4806   4.414   0.396   5.748
 1303SOL     OW 4807   3.730   2.221   1.624
 1303SOL    HW1 4808   3.685   2.261   1.704
 1303SOL    HW2 4809   3.750   2.125   1.641
 1304SOL     OW 4810   1.999   0.681   7.002
 1304SOL    HW1 4811   1.978   0.651   6.909
 1304SOL    HW2 4812   1.937   0.635   0.043
 1305SOL     OW 4813   5.272   3.480   0.966
 1305SOL    HW1 4814   5.351   3.477   1.027
 1305SOL    HW2 4815   5.303   3.494   0.872
 1306SOL     OW 4816   0.997   5.653   3.809
 1306SOL    HW1 4817   0.900   5.667   3.791
 1306SOL    HW2 4818   1.009   5.572   3.866
 1307SOL     OW 4819   1.732   4.049   3.975
 1307SOL    HW1 4820   1.740   4.128   4.036
 1307SOL    HW2 4821   1.636   4.022   3.968
 1308SOL     OW 4822   6.480   0.324   5.317
 1308SOL    HW1 4823   6.518   0.261   5.385
 1308SOL    HW2 4824   6.550   0.392   5.293
 1309SOL     OW 4825   5.805   4.909   5.399
 1309SOL    HW1 4826   5.790   5.005   5.376
 1309SOL    HW2 4827   5.892   4.900   5.448
 1310SOL     OW 4828   6.400   3.873   4.180
 1310SOL    HW1 4829   6.399   3.967   4.146
 1310SOL    HW2 4830   6.415   3.873   4.279
 1311SOL     OW 4831   0.580   5.766   5.827
 1311SOL    HW1 4832   0.518   5.784   5.750
 1311SOL    HW2 4833   0.598   5.852   5.875
 1312SOL     OW 4834   0.942   6.547   6.723
 1312SOL    HW1 4835   1.022   6.548   6.662
 1312SOL    HW2 4836   0.898   6.636   6.721
 1313SOL     OW 4837   0.413   4.884   2.901
 1313SOL    HW1 4838   0.381   4.883   2.807
 1313SOL    HW2 4839   0.473   4.805   2.917
 1314SOL     OW 4840   4.512   1.226   5.232
 1314SOL    HW1 4841   4.425   1.207   5.279
 1314SOL    HW2 4842   4.497   1.294   5.160
 1315SOL     OW 4843   0.252   1.607   2.857
 1315SOL    HW1 4844   0.166   1.579   2.899
 1315SOL    HW2 4845   0.269   1.551   2.776
 1316SOL     OW 4846   2.910   6.524   6.277
 1316SOL    HW1 4847   2.863   6.552   6.361
 1316SOL    HW2 4848   2.973   6.597   6.248
 1317SOL     OW 4849   2.177   4.393   5.992
 1317SOL    HW1 4850   2.138   4.363   6.080
 1317SOL    HW2 4851   2.127   4.351   5.917
 1318SOL     OW 4852   1.034   2.254   1.003
 1318SOL    HW1 4853   1.075   2.333   1.048
 1318SOL    HW2 4854   1.047   2.172   1.059
 1319SOL     OW 4855   6.491   6.528   0.056
 1319SOL    HW1 4856   6.412   6.538   0.117
 1319SOL    HW2 4857   6.568   6.581   0.092
 1320SOL     OW 4858   3.870   4.559   6.813
 1320SOL    HW1 4859   3.929   4.497   6.864
 1320SOL    HW2 4860   3.849   4.520   6.724
 1321SOL     OW 4861   5.818   2.308   6.230
 1321SOL    HW1 4862   5.774   2.218   6.226
 1321SOL    HW2 4863   5.866   2.319   6.317
 1322SOL     OW 4864   3.482   1.469   3.551
 1322SOL    HW1 4865   3.420   1.470   3.631
 1322SOL    HW2 4866   3.566   1.518   3.573
 1323SOL     OW 4867   4.000   0.201   6.091
 1323SOL    HW1 4868   4.018   0.114   6.139
 1323SOL    HW2 4869   3.938   0.185   6.015
 1324SOL     OW 4870   0.957   3.849   6.830
 1324SOL    HW1 4871   0.894   3.894   6.766
 1324SOL    HW2 4872   1.042   3.901   6.834
 1325SOL     OW 4873   2.493   6.780   4.004
 1325SOL    HW1 4874   2.573   6.723   4.019
 1325SOL    HW2 4875   2.410   6.723   4.009
 1326SOL     OW 4876   4.736   3.416   5.356
 1326SOL    HW1 4877   4.647   3.402   5.401
 1326SOL    HW2 4878   4.728   3.491   5.290
 1327SOL     OW 4879   1.003   6.212   1.362
 1327SOL    HW1 4880   0.947   6.249   1.435
 1327SOL    HW2 4881   1.089   6.177   1.399
 1328SOL     OW 4882   1.997   3.278   1.333
 1328SOL    HW1 4883   1.910   3.326   1.342
 1328SOL    HW2 4884   2.059   3.332   1.276
 1329SOL     OW 4885   0.604   2.450   2.278
 1329SOL    HW1 4886   0.549   2.466   2.197
 1329SOL    HW2 4887   0.670   2.525   2.289
 1330SOL     OW 4888   0.683   1.038   2.030
 1330SOL    HW1 4889   0.653   1.133   2.026
 1330SOL    HW2 4890   0.729   1.015   1.944
 1331SOL     OW 4891   4.934   3.356   2.898
 1331SOL    HW1 4892   4.940   3.422   2.822
 1331SOL    HW2 4893   4.868   3.285   2.875
 1332SOL     OW 4894   2.668   0.098   0.006
 1332SOL    HW1 4895   2.733   0.150   0.062
 1332SOL    HW2 4896   2.680   0.122   6.932
 1333SOL     OW 4897   3.650   3.299   3.863
 1333SOL    HW1 4898   3.736   3.249   3.858
 1333SOL    HW2 4899   3.668   3.392   3.894
 1334SOL     OW 4900   6.154   1.704   4.146
 1334SOL    HW1 4901   6.177   1.692   4.243
 1334SOL    HW2 4902   6.199   1.633   4.092
 1335SOL     OW 4903   2.341   1.980   2.021
 1335SOL    HW1 4904   2.253   2.025   2.034
 1335SOL    HW2 4905   2.332   1.907   1.953
 1336SOL     OW 4906   2.283   2.476   5.268
 1336SOL    HW1 4907   2.328   2.563   5.284
 1336SOL    HW2 4908   2.339   2.420   5.207
 1337SOL     OW 4909   1.758   1.396   3.898
 1337SOL    HW1 4910   1.707   1.353   3.972
 1337SOL    HW2 4911   1.771   1.330   3.823
 1338SOL     OW 4912   5.788   2.537   5.062
 1338SOL    HW1 4913   5.815   2.501   5.151
 1338SOL    HW2 4914   5.775   2.636   5.068
 1339SOL     OW 4915   6.334   1.976   6.435
 1339SOL    HW1 4916   6.259   1.921   6.399
 1339SOL    HW2 4917   6.378   1.927   6.511
 1340SOL     OW 4918   5.969   1.947   3.346
 1340SOL    HW1 4919   5.886   1.999   3.324
 1340SOL    HW2 4920   6.024   1.936   3.264
 1341SOL     OW 4921   5.510   6.984   6.734
 1341SOL    HW1 4922   5.550   6.915   6.794
 1341SOL    HW2 4923   5.547   0.051   6.757
 1342SOL     OW 4924   2.992   6.012   5.718
 1342SOL    HW1 4925   2.940   5.945   5.665
 1342SOL    HW2 4926   2.953   6.019   5.810
 1343SOL     OW 4927   5.587   5.744   2.227
 1343SOL    HW1 4928   5.603   5.646   2.216
 1343SOL    HW2 4929   5.496   5.759   2.266
 1344SOL     OW 4930   0.268   5.868   4.535
 1344SOL    HW1 4931   0.234   5.885   4.627
 1344SOL    HW2 4932   0.195   5.886   4.469
 1345SOL     OW 4933   1.125   6.654   3.257
 1345SOL    HW1 4934   1.142   6.693   3.166
 1345SOL    HW2 4935   1.204   6.598   3.284
 1346SOL     OW 4936   0.798   5.523   4.670
 1346SOL    HW1 4937   0.883   5.567   4.639
 1346SOL    HW2 4938   0.816   5.428   4.693
 1347SOL     OW 4939   0.465   6.743   6.009
 1347SOL    HW1 4940   0.522   6.824   5.996
 1347SOL    HW2 4941   0.524   6.662   6.015
 1348SOL     OW 4942   5.790   6.315   3.736
 1348SOL    HW1 4943   5.696   6.284   3.743
 1348SOL    HW2 4944   5.844   6.278   3.812
 1349SOL     OW 4945   4.610   2.596   5.492
 1349SOL    HW1 4946   4.543   2.670   5.497
 1349SOL    HW2 4947   4.701   2.632   5.512
 1350SOL     OW 4948   5.234   5.396   5.701
 1350SOL    HW1 4949   5.153   5.385   5.643
 1350SOL    HW2 4950   5.307   5.440   5.648
 1351SOL     OW 4951   5.304   1.733   2.858
 1351SOL    HW1 4952   5.333   1.827   2.839
 1351SOL    HW2 4953   5.215   1.734   2.903
 1352SOL     OW 4954   6.817   6.326   3.074
 1352SOL    HW1 4955   6.915   6.328   3.051
 1352SOL    HW2 4956   6.763   6.317   2.991
 1353SOL     OW 4957   0.097   2.451   0.206
 1353SOL    HW1 4958   0.041   2.375   0.174
 1353SOL    HW2 4959   0.095   2.454   0.306
 1354SOL     OW 4960   1.109   4.146   1.868
 1354SOL    HW1 4961   1.136   4.241   1.885
 1354SOL    HW2 4962   1.011   4.135   1.889
 1355SOL     OW 4963   5.707   2.664   4.083
 1355SOL    HW1 4964   5.713   2.764   4.086
 1355SOL    HW2 4965   5.756   2.625   4.161
 1356SOL     OW 4966   3.535   3.449   2.257
 1356SOL    HW1 4967   3.613   3.410   2.306
 1356SOL    HW2 4968   3.566   3.530   2.206
 1357SOL     OW 4969   0.663   3.632   6.083
 1357SOL    HW1 4970   0.603   3.610   6.160
 1357SOL    HW2 4971   0.700   3.547   6.045
 1358SOL     OW 4972   4.061   6.506   6.225
 1358SOL    HW1 4973   4.125   6.582   6.235
 1358SOL    HW2 4974   3.996   6.507   6.301
 1359SOL     OW 4975   6.028   4.853   2.603
 1359SOL    HW1 4976   6.110   4.875   2.550
 1359SOL    HW2 4977   5.963   4.928   2.596
 1360SOL     OW 4978   3.149   3.283   0.248
 1360SOL    HW1 4979   3.076   3.315   0.308
 1360SOL    HW2 4980   3.109   3.241   0.166
 1361SOL     OW 4981   6.504   4.963   5.791
 1361SOL    HW1 4982   6.476   4.938   5.883
 1361SOL    HW2 4983   6.488   5.060   5.776
 1362SOL     OW 4984   3.073   3.831   3.367
 1362SOL    HW1 4985   3.103   3.768   3.295
 1362SOL    HW2 4986   3.140   3.905   3.376
 1363SOL     OW 4987   6.818   5.199   2.930
 1363SOL    HW1 4988   6.836   5.272   2.864
 1363SOL    HW2 4989   6.761   5.129   2.887
 1364SOL     OW 4990   6.731   4.258   1.006
 1364SOL    HW1 4991   6.691   4.349   1.018
 1364SOL    HW2 4992   6.696   4.196   1.077
 1365SOL     OW 4993   0.811   4.043   6.234
 1365SOL    HW1 4994   0.727   4.024   6.183
 1365SOL    HW2 4995   0.802   4.129   6.284
 1366SOL     OW 4996   1.284   5.053   0.130
 1366SOL    HW1 4997   1.261   5.086   0.038
 1366SOL    HW2 4998   1.319   4.959   0.123
 1367SOL     OW 4999   1.398   0.412   3.303
 1367SOL    HW1 5000   1.478   0.385   3.249
 1367SOL    HW2 5001   1.427   0.474   3.376
 1368SOL     OW 5002   5.836   0.573   3.384
 1368SOL    HW1 5003   5.930   0.582   3.352
 1368SOL    HW2 5004   5.778   0.545   3.307
 1369SOL     OW 5005   2.468   6.825   1.580
 1369SOL    HW1 5006   2.374   6.859   1.578
 1369SOL    HW2 5007   2.531   6.902   1.591
 1370SOL     OW 5008   3.486   0.491   0.934
 1370SOL    HW1 5009   3.487   0.524   0.839
 1370SOL    HW2 5010   3.475   0.569   0.996
 1371SOL     OW 5011   6.070   2.119   4.367
 1371SOL    HW1 5012   6.102   2.086   4.456
 1371SOL    HW2 5013   6.145   2.160   4.317
 1372SOL     OW 5014   1.438   3.297   0.249
 1372SOL    HW1 5015   1.464   3.384   0.208
 1372SOL    HW2 5016   1.346   3.305   0.289
 1373SOL     OW 5017   5.522   3.129   0.060
 1373SOL    HW1 5018   5.575   3.113   7.000
 1373SOL    HW2 5019   5.497   3.041   0.101
 1374SOL     OW 5020   4.668   2.163   7.004
 1374SOL    HW1 5021   4.687   2.218   6.922
 1374SOL    HW2 5022   4.667   2.066   6.980
 1375SOL     OW 5023   0.226   3.434   6.268
 1375SOL    HW1 5024   0.272   3.521   6.284
 1375SOL    HW2 5025   0.280   3.360   6.308
 1376SOL     OW 5026   4.689   4.372   4.562
 1376SOL    HW1 5027   4.701   4.308   4.638
 1376SOL    HW2 5028   4.707   4.465   4.593
 1377SOL     OW 5029   6.679   3.952   6.092
 1377SOL    HW1 5030   6.770   3.990   6.112
 1377SOL    HW2 5031   6.610   4.022   6.108
 1378SOL     OW 5032   6.357   0.945   4.697
 1378SOL    HW1 5033   6.313   0.961   4.608
 1378SOL    HW2 5034   6.448   0.984   4.697
 1379SOL     OW 5035   3.133   6.866   2.561
 1379SOL    HW1 5036   3.045   6.818   2.556
 1379SOL    HW2 5037   3.203   6.802   2.594
 1380SOL     OW 5038   0.378   0.122   2.781
 1380SOL    HW1 5039   0.454   0.071   2.822
 1380SOL    HW2 5040   0.414   0.197   2.725
 1381SOL     OW 5041   5.656   1.995   6.971
 1381SOL    HW1 5042   5.683   2.059   6.899
 1381SOL    HW2 5043   5.559   1.973   6.962
 1382SOL     OW 5044   4.653   4.456   0.551
 1382SOL    HW1 5045   4.576   4.500   0.505
 1382SOL    HW2 5046   4.716   4.420   0.483
 1383SOL     OW 5047   1.000   0.157   1.048
 1383SOL    HW1 5048   1.046   0.072   1.071
 1383SOL    HW2 5049   0.968   0.202   1.131
 1384SOL     OW 5050   4.065   0.386   2.473
 1384SOL    HW1 5051   4.145   0.408   2.416
 1384SOL    HW2 5052   3.993   0.453   2.456
 1385SOL     OW 5053   1.212   3.432   3.278
 1385SOL    HW1 5054   1.180   3.509   3.224
 1385SOL    HW2 5055   1.269   3.372   3.221
 1386SOL     OW 5056   2.445   0.899   4.676
 1386SOL    HW1 5057   2.462   0.924   4.771
 1386SOL    HW2 5058   2.350   0.872   4.665
 1387SOL     OW 5059   3.988   6.189   2.963
 1387SOL    HW1 5060   3.973   6.229   2.873
 1387SOL    HW2 5061   4.081   6.212   2.995
 1388SOL     OW 5062   0.133   6.407   3.379
 1388SOL    HW1 5063   0.188   6.489   3.359
 1388SOL    HW2 5064   0.154   6.336   3.312
 1389SOL     OW 5065   0.360   0.874   4.145
 1389SOL    HW1 5066   0.302   0.937   4.094
 1389SOL    HW2 5067   0.322   0.860   4.237
 1390SOL     OW 5068   4.835   2.378   6.240
 1390SOL    HW1 5069   4.875   2.456   6.193
 1390SOL    HW2 5070   4.751   2.406   6.286
 1391SOL     OW 5071   6.373   0.724   5.375
 1391SOL    HW1 5072   6.429   0.698   5.296
 1391SOL    HW2 5073   6.356   0.822   5.373
 1392SOL     OW 5074   5.499   5.702   6.162
 1392SOL    HW1 5075   5.443   5.783   6.145
 1392SOL    HW2 5076   5.591   5.718   6.126
 1393SOL     OW 5077   6.007   3.790   6.204
 1393SOL    HW1 5078   6.022   3.744   6.291
 1393SOL    HW2 5079   6.062   3.746   6.133
 1394SOL     OW 5080   3.983   6.482   3.314
 1394SOL    HW1 5081   4.030   6.448   3.396
 1394SOL    HW2 5082   3.904   6.538   3.342
 1395SOL     OW 5083   1.425   4.114   3.531
 1395SOL    HW1 5084   1.495   4.044   3.546
 1395SOL    HW2 5085   1.469   4.203   3.519
 1396SOL     OW 5086   1.416   6.781   3.982
 1396SOL    HW1 5087   1.341   6.741   4.035
 1396SOL    HW2 5088   1.378   6.834   3.906
 1397SOL     OW 5089   0.339   6.014   4.162
 1397SOL    HW1 5090   0.243   5.984   4.158
 1397SOL    HW2 5091   0.371   6.034   4.069
 1398SOL     OW 5092   1.316   1.387   6.495
 1398SOL    HW1 5093   1.354   1.475   6.524
 1398SOL    HW2 5094   1.235   1.403   6.439
 1399SOL     OW 5095   4.421   0.104   0.100
 1399SOL    HW1 5096   4.521   0.101   0.110
 1399SOL    HW2 5097   4.394   0.052   0.019
 1400SOL     OW 5098   6.775   1.935   4.367
 1400SOL    HW1 5099   6.814   1.843   4.358
 1400SOL    HW2 5100   6.703   1.948   4.299
 1401SOL     OW 5101   6.445   6.449   4.743
 1401SOL    HW1 5102   6.500   6.484   4.667
 1401SOL    HW2 5103   6.394   6.368   4.714
 1402SOL     OW 5104   5.712   4.169   7.020
 1402SOL    HW1 5105   5.730   4.080   0.040
 1402SOL    HW2 5106   5.621   4.169   6.980
 1403SOL     OW 5107   2.216   2.250   0.963
 1403SOL    HW1 5108   2.237   2.293   1.051
 1403SOL    HW2 5109   2.292   2.191   0.936
 1404SOL     OW 5110   5.519   0.100   0.318
 1404SOL    HW1 5111   5.480   0.111   0.227
 1404SOL    HW2 5112   5.483   0.170   0.379
 1405SOL     OW 5113   2.693   3.402   0.172
 1405SOL    HW1 5114   2.639   3.465   0.228
 1405SOL    HW2 5115   2.704   3.315   0.221
 1406SOL     OW 5116   2.042   5.248   0.617
 1406SOL    HW1 5117   2.017   5.336   0.656
 1406SOL    HW2 5118   2.142   5.240   0.614
 1407SOL     OW 5119   1.791   3.841   3.292
 1407SOL    HW1 5120   1.785   3.743   3.274
 1407SOL    HW2 5121   1.703   3.875   3.324
 1408SOL     OW 5122   5.269   6.708   6.858
 1408SOL    HW1 5123   5.199   6.756   6.911
 1408SOL    HW2 5124   5.227   6.670   6.775
 1409SOL     OW 5125   6.832   1.038   4.849
 1409SOL    HW1 5126   6.921   1.006   4.883
 1409SOL    HW2 5127   6.808   0.989   4.766
 1410SOL     OW 5128   3.584   3.917   0.317
 1410SOL    HW1 5129   3.677   3.943   0.342
 1410SOL    HW2 5130   3.527   3.914   0.400
 1411SOL     OW 5131   3.741   6.280   6.270
 1411SOL    HW1 5132   3.708   6.337   6.345
 1411SOL    HW2 5133   3.828   6.238   6.296
 1412SOL     OW 5134   0.778   4.395   1.872
 1412SOL    HW1 5135   0.815   4.475   1.825
 1412SOL    HW2 5136   0.763   4.321   1.806
 1413SOL     OW 5137   1.664   1.725   4.482
 1413SOL    HW1 5138   1.743   1.664   4.477
 1413SOL    HW2 5139   1.624   1.735   4.391
 1414SOL     OW 5140   1.676   2.548   1.562
 1414SOL    HW1 5141   1.623   2.463   1.569
 1414SOL    HW2 5142   1.745   2.538   1.491
 1415SOL     OW 5143   3.061   1.767   4.094
 1415SOL    HW1 5144   3.158   1.749   4.074
 1415SOL    HW2 5145   3.024   1.830   4.026
 1416SOL     OW 5146   4.058   0.437   4.147
 1416SOL    HW1 5147   4.043   0.369   4.218
 1416SOL    HW2 5148   3.986   0.429   4.077
 1417SOL     OW 5149   3.565   2.839   6.201
 1417SOL    HW1 5150   3.602   2.884   6.120
 1417SOL    HW2 5151   3.465   2.837   6.195
 1418SOL     OW 5152   3.196   3.685   0.089
 1418SOL    HW1 5153   3.208   3.597   0.044
 1418SOL    HW2 5154   3.098   3.705   0.099
 1419SOL     OW 5155   2.018   5.531   4.174
 1419SOL    HW1 5156   2.014   5.458   4.241
 1419SOL    HW2 5157   2.017   5.492   4.082
 1420SOL     OW 5158   3.445   5.383   2.481
 1420SOL    HW1 5159   3.357   5.334   2.484
 1420SOL    HW2 5160   3.472   5.395   2.385
 1421SOL     OW 5161   1.549   4.148   4.359
 1421SOL    HW1 5162   1.638   4.114   4.330
 1421SOL    HW2 5163   1.559   4.231   4.412
 1422SOL     OW 5164   3.420   4.549   5.665
 1422SOL    HW1 5165   3.383   4.606   5.592
 1422SOL    HW2 5166   3.381   4.457   5.659
 1423SOL     OW 5167   3.627   1.394   5.165
 1423SOL    HW1 5168   3.619   1.468   5.232
 1423SOL    HW2 5169   3.625   1.432   5.073
 1424SOL     OW 5170   6.453   3.783   0.217
 1424SOL    HW1 5171   6.411   3.808   0.130
 1424SOL    HW2 5172   6.383   3.749   0.279
 1425SOL     OW 5173   2.325   5.711   5.128
 1425SOL    HW1 5174   2.425   5.702   5.124
 1425SOL    HW2 5175   2.301   5.807   5.144
 1426SOL     OW 5176   1.956   1.644   6.137
 1426SOL    HW1 5177   1.891   1.632   6.212
 1426SOL    HW2 5178   1.948   1.737   6.101
 1427SOL     OW 5179   0.268   0.429   3.746
 1427SOL    HW1 5180   0.271   0.493   3.669
 1427SOL    HW2 5181   0.239   0.477   3.828
 1428SOL     OW 5182   6.728   1.944   1.990
 1428SOL    HW1 5183   6.791   1.997   2.047
 1428SOL    HW2 5184   6.634   1.973   2.009
 1429SOL     OW 5185   5.692   1.524   6.997
 1429SOL    HW1 5186   5.611   1.479   0.012
 1429SOL    HW2 5187   5.727   1.470   6.921
 1430SOL     OW 5188   2.088   3.844   4.208
 1430SOL    HW1 5189   2.004   3.841   4.154
 1430SOL    HW2 5190   2.144   3.922   4.179
 1431SOL     OW 5191   2.586   2.452   6.534
 1431SOL    HW1 5192   2.519   2.418   6.467
 1431SOL    HW2 5193   2.537   2.498   6.608
 1432SOL     OW 5194   2.142   0.979   1.582
 1432SOL    HW1 5195   2.141   0.929   1.495
 1432SOL    HW2 5196   2.053   1.022   1.597
 1433SOL     OW 5197   3.608   6.445   4.131
 1433SOL    HW1 5198   3.643   6.353   4.112
 1433SOL    HW2 5199   3.662   6.486   4.206
 1434SOL     OW 5200   6.616   1.191   6.515
 1434SOL    HW1 5201   6.519   1.181   6.494
 1434SOL    HW2 5202   6.669   1.191   6.430
 1435SOL     OW 5203   6.767   0.935   3.859
 1435SOL    HW1 5204   6.846   0.878   3.880
 1435SOL    HW2 5205   6.683   0.885   3.880
 1436SOL     OW 5206   5.760   3.493   0.257
 1436SOL    HW1 5207   5.792   3.480   0.350
 1436SOL    HW2 5208   5.701   3.574   0.253
 1437SOL     OW 5209   3.192   0.583   5.428
 1437SOL    HW1 5210   3.168   0.649   5.357
 1437SOL    HW2 5211   3.287   0.596   5.455
 1438SOL     OW 5212   3.016   0.379   1.843
 1438SOL    HW1 5213   3.079   0.307   1.871
 1438SOL    HW2 5214   3.058   0.468   1.859
 1439SOL     OW 5215   0.720   5.276   1.186
 1439SOL    HW1 5216   0.752   5.273   1.091
 1439SOL    HW2 5217   0.774   5.343   1.238
 1440SOL     OW 5218   3.630   3.441   5.099
 1440SOL    HW1 5219   3.646   3.356   5.150
 1440SOL    HW2 5220   3.569   3.500   5.151
 1441SOL     OW 5221   6.178   3.662   4.179
 1441SOL    HW1 5222   6.262   3.611   4.198
 1441SOL    HW2 5223   6.171   3.739   4.242
 1442SOL     OW 5224   6.713   4.734   0.274
 1442SOL    HW1 5225   6.714   4.795   0.195
 1442SOL    HW2 5226   6.654   4.656   0.255
 1443SOL     OW 5227   1.133   2.330   4.472
 1443SOL    HW1 5228   1.179   2.247   4.441
 1443SOL    HW2 5229   1.147   2.403   4.405
 1444SOL     OW 5230   4.263   6.456   1.878
 1444SOL    HW1 5231   4.187   6.401   1.844
 1444SOL    HW2 5232   4.282   6.431   1.973
 1445SOL     OW 5233   0.280   2.641   2.599
 1445SOL    HW1 5234   0.357   2.704   2.614
 1445SOL    HW2 5235   0.307   2.572   2.533
 1446SOL     OW 5236   5.226   2.610   6.508
 1446SOL    HW1 5237   5.128   2.628   6.504
 1446SOL    HW2 5238   5.252   2.585   6.602
 1447SOL     OW 5239   6.448   7.008   4.779
 1447SOL    HW1 5240   6.530   6.985   4.832
 1447SOL    HW2 5241   6.416   6.926   4.731
 1448SOL     OW 5242   6.213   2.342   0.227
 1448SOL    HW1 5243   6.301   2.386   0.208
 1448SOL    HW2 5244   6.229   2.251   0.265
 1449SOL     OW 5245   6.177   0.118   6.848
 1449SOL    HW1 5246   6.165   0.167   6.934
 1449SOL    HW2 5247   6.097   0.132   6.790
 1450SOL     OW 5248   7.018   2.356   2.368
 1450SOL    HW1 5249   6.939   2.413   2.348
 1450SOL    HW2 5250   7.015   2.326   2.463
 1451SOL     OW 5251   3.204   0.413   2.084
 1451SOL    HW1 5252   3.218   0.508   2.114
 1451SOL    HW2 5253   3.146   0.365   2.150
 1452SOL     OW 5254   5.031   2.287   4.392
 1452SOL    HW1 5255   4.940   2.303   4.354
 1452SOL    HW2 5256   5.079   2.221   4.334
 1453SOL     OW 5257   6.412   3.933   5.135
 1453SOL    HW1 5258   6.431   4.014   5.080
 1453SOL    HW2 5259   6.333   3.951   5.194
 1454SOL     OW 5260   6.247   2.684   2.268
 1454SOL    HW1 5261   6.290   2.623   2.201
 1454SOL    HW2 5262   6.152   2.656   2.281
 1455SOL     OW 5263   1.818   0.549   1.805
 1455SOL    HW1 5264   1.747   0.497   1.757
 1455SOL    HW2 5265   1.853   0.622   1.746
 1456SOL     OW 5266   6.346   0.053   5.185
 1456SOL    HW1 5267   6.267   0.021   5.131
 1456SOL    HW2 5268   6.316   0.125   5.247
 1457SOL     OW 5269   1.422   0.155   1.497
 1457SOL    HW1 5270   1.380   0.068   1.526
 1457SOL    HW2 5271   1.393   0.228   1.559
 1458SOL     OW 5272   4.864   6.227   4.083
 1458SOL    HW1 5273   4.790   6.294   4.088
 1458SOL    HW2 5274   4.909   6.219   4.172
 1459SOL     OW 5275   3.194   4.568   6.282
 1459SOL    HW1 5276   3.291   4.546   6.293
 1459SOL    HW2 5277   3.151   4.577   6.372
 1460SOL     OW 5278   0.284   5.100   6.063
 1460SOL    HW1 5279   0.228   5.048   6.128
 1460SOL    HW2 5280   0.378   5.106   6.097
 1461SOL     OW 5281   0.420   4.769   3.337
 1461SOL    HW1 5282   0.392   4.801   3.427
 1461SOL    HW2 5283   0.371   4.819   3.266
 1462SOL     OW 5284   6.506   1.152   6.178
 1462SOL    HW1 5285   6.574   1.096   6.226
 1462SOL    HW2 5286   6.419   1.103   6.174
 1463SOL     OW 5287   0.252   5.877   6.317
 1463SOL    HW1 5288   0.209   5.920   6.238
 1463SOL    HW2 5289   0.298   5.793   6.289
 1464SOL     OW 5290   6.542   6.647   1.039
 1464SOL    HW1 5291   6.534   6.585   0.961
 1464SOL    HW2 5292   6.466   6.712   1.039
 1465SOL     OW 5293   1.557   1.793   2.623
 1465SOL    HW1 5294   1.472   1.816   2.575
 1465SOL    HW2 5295   1.626   1.765   2.556
 1466SOL     OW 5296   1.142   0.721   2.847
 1466SOL    HW1 5297   1.239   0.738   2.831
 1466SOL    HW2 5298   1.090   0.806   2.831
 1467SOL     OW 5299   2.108   1.354   1.811
 1467SOL    HW1 5300   2.202   1.354   1.844
 1467SOL    HW2 5301   2.061   1.435   1.846
 1468SOL     OW 5302   5.079   5.653   2.734
 1468SOL    HW1 5303   5.092   5.610   2.645
 1468SOL    HW2 5304   5.144   5.729   2.744
 1469SOL     OW 5305   1.032   0.463   2.428
 1469SOL    HW1 5306   1.123   0.497   2.451
 1469SOL    HW2 5307   1.037   0.365   2.409
 1470SOL     OW 5308   1.491   1.394   2.736
 1470SOL    HW1 5309   1.577   1.432   2.702
 1470SOL    HW2 5310   1.426   1.468   2.750
 1471SOL     OW 5311   0.412   0.772   0.662
 1471SOL    HW1 5312   0.486   0.812   0.717
 1471SOL    HW2 5313   0.355   0.715   0.721
 1472SOL     OW 5314   4.445   5.470   4.777
 1472SOL    HW1 5315   4.347   5.475   4.798
 1472SOL    HW2 5316   4.498   5.476   4.861
 1473SOL     OW 5317   5.824   5.975   4.052
 1473SOL    HW1 5318   5.813   6.044   3.980
 1473SOL    HW2 5319   5.792   5.887   4.019
 1474SOL     OW 5320   6.385   6.139   4.099
 1474SOL    HW1 5321   6.423   6.143   4.007
 1474SOL    HW2 5322   6.289   6.111   4.094
 1475SOL     OW 5323   6.425   0.293   1.414
 1475SOL    HW1 5324   6.443   0.372   1.356
 1475SOL    HW2 5325   6.351   0.239   1.375
 1476SOL     OW 5326   1.301   1.431   0.772
 1476SOL    HW1 5327   1.323   1.499   0.842
 1476SOL    HW2 5328   1.204   1.438   0.748
 1477SOL     OW 5329   2.502   0.371   6.492
 1477SOL    HW1 5330   2.504   0.470   6.505
 1477SOL    HW2 5331   2.407   0.340   6.489
 1478SOL     OW 5332   5.505   4.451   0.203
 1478SOL    HW1 5333   5.558   4.378   0.245
 1478SOL    HW2 5334   5.564   4.505   0.142
 1479SOL     OW 5335   1.555   3.529   0.108
 1479SOL    HW1 5336   1.604   3.507   0.024
 1479SOL    HW2 5337   1.606   3.599   0.158
 1480SOL     OW 5338   2.500   6.898   0.070
 1480SOL    HW1 5339   2.575   6.964   0.084
 1480SOL    HW2 5340   2.514   6.851   7.005
 1481SOL     OW 5341   6.790   2.253   4.939
 1481SOL    HW1 5342   6.734   2.178   4.973
 1481SOL    HW2 5343   6.742   2.340   4.953
 1482SOL     OW 5344   5.373   2.141   1.062
 1482SOL    HW1 5345   5.353   2.068   1.128
 1482SOL    HW2 5346   5.319   2.222   1.085
 1483SOL     OW 5347   6.741   2.583   6.255
 1483SOL    HW1 5348   6.720   2.497   6.208
 1483SOL    HW2 5349   6.706   2.660   6.201
 1484SOL     OW 5350   6.106   4.418   4.168
 1484SOL    HW1 5351   6.129   4.514   4.184
 1484SOL    HW2 5352   6.080   4.375   4.255
 1485SOL     OW 5353   3.993   2.001   2.606
 1485SOL    HW1 5354   4.085   2.035   2.585
 1485SOL    HW2 5355   3.981   1.910   2.565
 1486SOL     OW 5356   4.617   2.676   2.981
 1486SOL    HW1 5357   4.678   2.611   3.027
 1486SOL    HW2 5358   4.525   2.639   2.979
 1487SOL     OW 5359   6.745   2.513   6.762
 1487SOL    HW1 5360   6.671   2.551   6.818
 1487SOL    HW2 5361   6.734   2.544   6.667
 1488SOL     OW 5362   5.880   1.894   2.987
 1488SOL    HW1 5363   5.814   1.828   3.024
 1488SOL    HW2 5364   5.843   1.986   2.997
 1489SOL     OW 5365   4.071   5.157   4.064
 1489SOL    HW1 5366   4.104   5.251   4.056
 1489SOL    HW2 5367   3.971   5.157   4.074
 1490SOL     OW 5368   1.351   3.105   1.456
 1490SOL    HW1 5369   1.442   3.084   1.419
 1490SOL    HW2 5370   1.321   3.030   1.515
 1491SOL     OW 5371   6.086   3.611   3.906
 1491SOL    HW1 5372   6.107   3.637   4.000
 1491SOL    HW2 5373   6.121   3.681   3.844
 1492SOL     OW 5374   5.959   1.711   2.035
 1492SOL    HW1 5375   5.886   1.693   2.101
 1492SOL    HW2 5376   6.037   1.651   2.055
 1493SOL     OW 5377   5.103   0.297   4.454
 1493SOL    HW1 5378   5.129   0.221   4.514
 1493SOL    HW2 5379   5.093   0.380   4.508
 1494SOL     OW 5380   4.425   2.559   6.142
 1494SOL    HW1 5381   4.332   2.579   6.174
 1494SOL    HW2 5382   4.421   2.534   6.045
 1495SOL     OW 5383   0.622   3.102   4.394
 1495SOL    HW1 5384   0.718   3.091   4.421
 1495SOL    HW2 5385   0.563   3.067   4.466
 1496SOL     OW 5386   1.078   1.656   2.529
 1496SOL    HW1 5387   1.096   1.605   2.445
 1496SOL    HW2 5388   1.089   1.596   2.608
 1497SOL     OW 5389   0.686   3.627   2.643
 1497SOL    HW1 5390   0.670   3.534   2.676
 1497SOL    HW2 5391   0.640   3.693   2.703
 1498SOL     OW 5392   1.579   4.512   6.328
 1498SOL    HW1 5393   1.559   4.553   6.417
 1498SOL    HW2 5394   1.501   4.456   6.299
 1499SOL     OW 5395   1.337   3.507   5.550
 1499SOL    HW1 5396   1.306   3.532   5.459
 1499SOL    HW2 5397   1.258   3.502   5.612
 1500SOL     OW 5398   5.873   6.623   6.825
 1500SOL    HW1 5399   5.843   6.532   6.854
 1500SOL    HW2 5400   5.926   6.616   6.741
 1501SOL     OW 5401   4.488   1.628   6.917
 1501SOL    HW1 5402   4.570   1.685   6.907
 1501SOL    HW2 5403   4.413   1.685   6.951
 1502SOL     OW 5404   5.739   0.122   1.360
 1502SOL    HW1 5405   5.662   0.177   1.392
 1502SOL    HW2 5406   5.818   0.181   1.345
 1503SOL     OW 5407   2.706   1.435   1.966
 1503SOL    HW1 5408   2.695   1.533   1.979
 1503SOL    HW2 5409   2.784   1.417   1.906
 1504SOL     OW 5410   1.295   1.222   4.806
 1504SOL    HW1 5411   1.322   1.282   4.881
 1504SOL    HW2 5412   1.261   1.277   4.730
 1505SOL     OW 5413   5.852   0.748   6.608
 1505SOL    HW1 5414   5.849   0.826   6.546
 1505SOL    HW2 5415   5.887   0.777   6.698
 1506SOL     OW 5416   2.048   5.477   2.169
 1506SOL    HW1 5417   2.046   5.548   2.098
 1506SOL    HW2 5418   2.054   5.387   2.126
 1507SOL     OW 5419   1.116   2.199   5.615
 1507SOL    HW1 5420   1.072   2.110   5.606
 1507SOL    HW2 5421   1.214   2.190   5.597
 1508SOL     OW 5422   5.653   1.037   1.127
 1508SOL    HW1 5423   5.673   0.946   1.091
 1508SOL    HW2 5424   5.562   1.038   1.167
 1509SOL     OW 5425   4.129   2.471   6.795
 1509SOL    HW1 5426   4.039   2.483   6.753
 1509SOL    HW2 5427   4.196   2.526   6.746
 1510SOL     OW 5428   5.965   2.426   3.802
 1510SOL    HW1 5429   5.961   2.362   3.726
 1510SOL    HW2 5430   5.873   2.438   3.840
 1511SOL     OW 5431   2.928   2.661   0.917
 1511SOL    HW1 5432   2.925   2.604   1.000
 1511SOL    HW2 5433   2.847   2.719   0.914
 1512SOL     OW 5434   6.975   6.511   1.537
 1512SOL    HW1 5435   6.963   6.516   1.637
 1512SOL    HW2 5436   0.050   6.516   1.515
 1513SOL     OW 5437   4.185   0.519   3.874
 1513SOL    HW1 5438   4.176   0.580   3.795
 1513SOL    HW2 5439   4.251   0.447   3.852
 1514SOL     OW 5440   5.388   3.004   5.354
 1514SOL    HW1 5441   5.369   3.073   5.283
 1514SOL    HW2 5442   5.402   2.915   5.310
 1515SOL     OW 5443   6.458   3.455   5.519
 1515SOL    HW1 5444   6.374   3.488   5.562
 1515SOL    HW2 5445   6.530   3.524   5.528
 1516SOL     OW 5446   0.887   0.373   1.254
 1516SOL    HW1 5447   0.942   0.335   1.329
 1516SOL    HW2 5448   0.947   0.409   1.183
 1517SOL     OW 5449   4.398   5.869   3.281
 1517SOL    HW1 5450   4.357   5.897   3.194
 1517SOL    HW2 5451   4.486   5.826   3.264
 1518SOL     OW 5452   0.696   3.015   0.096
 1518SOL    HW1 5453   0.787   3.022   0.056
 1518SOL    HW2 5454   0.704   3.016   0.196
 1519SOL     OW 5455   6.858   4.598   1.729
 1519SOL    HW1 5456   6.913   4.679   1.748
 1519SOL    HW2 5457   6.838   4.550   1.815
 1520SOL     OW 5458   1.349   2.957   2.427
 1520SOL    HW1 5459   1.404   2.873   2.428
 1520SOL    HW2 5460   1.391   3.025   2.487
 1521SOL     OW 5461   2.758   3.714   6.899
 1521SOL    HW1 5462   2.670   3.747   6.935
 1521SOL    HW2 5463   2.822   3.790   6.893
 1522SOL     OW 5464   6.619   1.563   5.379
 1522SOL    HW1 5465   6.578   1.655   5.376
 1522SOL    HW2 5466   6.617   1.523   5.288
 1523SOL     OW 5467   5.071   4.084   0.257
 1523SOL    HW1 5468   5.075   4.122   0.165
 1523SOL    HW2 5469   4.985   4.034   0.269
 1524SOL     OW 5470   1.109   2.019   1.620
 1524SOL    HW1 5471   1.039   1.986   1.557
 1524SOL    HW2 5472   1.069   2.088   1.681
 1525SOL     OW 5473   5.598   2.222   6.509
 1525SOL    HW1 5474   5.533   2.161   6.553
 1525SOL    HW2 5475   5.614   2.191   6.415
 1526SOL     OW 5476   1.658   0.877   0.158
 1526SOL    HW1 5477   1.703   0.788   0.168
 1526SOL    HW2 5478   1.717   0.949   0.193
 1527SOL     OW 5479   3.813   0.574   5.412
 1527SOL    HW1 5480   3.879   0.637   5.453
 1527SOL    HW2 5481   3.809   0.490   5.466
 1528SOL     OW 5482   5.035   6.021   2.692
 1528SOL    HW1 5483   5.075   6.112   2.680
 1528SOL    HW2 5484   4.937   6.030   2.712
 1529SOL     OW 5485   4.019   1.241   0.129
 1529SOL    HW1 5486   4.110   1.272   0.104
 1529SOL    HW2 5487   3.974   1.310   0.186
 1530SOL     OW 5488   2.685   0.689   1.754
 1530SOL    HW1 5489   2.737   0.628   1.694
 1530SOL    HW2 5490   2.722   0.684   1.847
 1531SOL     OW 5491   6.025   1.448   4.984
 1531SOL    HW1 5492   6.046   1.372   4.922
 1531SOL    HW2 5493   6.099   1.460   5.049
 1532SOL     OW 5494   2.567   3.237   6.101
 1532SOL    HW1 5495   2.486   3.226   6.157
 1532SOL    HW2 5496   2.602   3.147   6.073
 1533SOL     OW 5497   0.259   3.348   6.630
 1533SOL    HW1 5498   0.325   3.410   6.673
 1533SOL    HW2 5499   0.280   3.338   6.533
 1534SOL     OW 5500   1.253   4.939   6.629
 1534SOL    HW1 5501   1.210   4.864   6.578
 1534SOL    HW2 5502   1.352   4.934   6.620
 1535SOL     OW 5503   5.220   6.305   4.109
 1535SOL    HW1 5504   5.225   6.362   4.192
 1535SOL    HW2 5505   5.125   6.280   4.092
 1536SOL     OW 5506   4.302   4.623   5.700
 1536SOL    HW1 5507   4.243   4.548   5.671
 1536SOL    HW2 5508   4.262   4.669   5.779
 1537SOL     OW 5509   4.231   5.444   2.577
 1537SOL    HW1 5510   4.318   5.459   2.530
 1537SOL    HW2 5511   4.156   5.466   2.515
 1538SOL     OW 5512   2.974   5.564   5.784
 1538SOL    HW1 5513   3.068   5.597   5.782
 1538SOL    HW2 5514   2.973   5.467   5.759
 1539SOL     OW 5515   4.247   4.422   1.364
 1539SOL    HW1 5516   4.295   4.409   1.277
 1539SOL    HW2 5517   4.149   4.435   1.346
 1540SOL     OW 5518   1.086   0.121   5.520
 1540SOL    HW1 5519   1.093   0.023   5.540
 1540SOL    HW2 5520   1.000   0.140   5.472
 1541SOL     OW 5521   3.394   3.220   1.512
 1541SOL    HW1 5522   3.454   3.196   1.588
 1541SOL    HW2 5523   3.340   3.140   1.485
 1542SOL     OW 5524   0.026   5.666   1.346
 1542SOL    HW1 5525   6.961   5.630   1.377
 1542SOL    HW2 5526   0.059   5.734   1.412
 1543SOL     OW 5527   2.993   3.426   4.316
 1543SOL    HW1 5528   2.990   3.387   4.225
 1543SOL    HW2 5529   2.999   3.353   4.384
 1544SOL     OW 5530   2.983   3.792   2.672
 1544SOL    HW1 5531   3.011   3.757   2.583
 1544SOL    HW2 5532   3.000   3.722   2.742
 1545SOL     OW 5533   5.328   0.868   4.814
 1545SOL    HW1 5534   5.281   0.953   4.839
 1545SOL    HW2 5535   5.417   0.865   4.860
 1546SOL     OW 5536   5.393   0.064   5.937
 1546SOL    HW1 5537   5.295   0.086   5.938
 1546SOL    HW2 5538   5.445   0.149   5.925
 1547SOL     OW 5539   2.805   4.724   2.748
 1547SOL    HW1 5540   2.777   4.684   2.835
 1547SOL    HW2 5541   2.870   4.797   2.765
 1548SOL     OW 5542   4.956   3.308   6.134
 1548SOL    HW1 5543   4.996   3.318   6.225
 1548SOL    HW2 5544   4.890   3.232   6.135
 1549SOL     OW 5545   5.200   1.367   2.140
 1549SOL    HW1 5546   5.180   1.335   2.233
 1549SOL    HW2 5547   5.286   1.418   2.141
 1550SOL     OW 5548   3.432   6.054   5.819
 1550SOL    HW1 5549   3.440   5.957   5.840
 1550SOL    HW2 5550   3.517   6.101   5.844
 1551SOL     OW 5551   2.134   3.304   0.548
 1551SOL    HW1 5552   2.100   3.234   0.484
 1551SOL    HW2 5553   2.057   3.355   0.585
 1552SOL     OW 5554   0.581   0.346   1.163
 1552SOL    HW1 5555   0.603   0.303   1.075
 1552SOL    HW2 5556   0.661   0.342   1.223
 1553SOL     OW 5557   6.422   2.010   6.187
 1553SOL    HW1 5558   6.433   1.925   6.136
 1553SOL    HW2 5559   6.409   1.989   6.284
 1554SOL     OW 5560   3.586   2.117   2.441
 1554SOL    HW1 5561   3.495   2.149   2.470
 1554SOL    HW2 5562   3.634   2.079   2.520
 1555SOL     OW 5563   4.768   2.554   5.867
 1555SOL    HW1 5564   4.726   2.632   5.821
 1555SOL    HW2 5565   4.757   2.564   5.966
 1556SOL     OW 5566   3.786   1.085   0.036
 1556SOL    HW1 5567   3.868   1.136   0.062
 1556SOL    HW2 5568   3.788   0.994   0.080
 1557SOL     OW 5569   3.005   1.678   0.453
 1557SOL    HW1 5570   3.065   1.622   0.396
 1557SOL    HW2 5571   3.057   1.757   0.487
 1558SOL     OW 5572   5.671   1.854   4.350
 1558SOL    HW1 5573   5.728   1.772   4.340
 1558SOL    HW2 5574   5.729   1.932   4.376
 1559SOL     OW 5575   0.604   2.699   0.755
 1559SOL    HW1 5576   0.627   2.629   0.823
 1559SOL    HW2 5577   0.603   2.789   0.798
 1560SOL     OW 5578   2.705   1.366   6.422
 1560SOL    HW1 5579   2.643   1.401   6.352
 1560SOL    HW2 5580   2.755   1.443   6.464
 1561SOL     OW 5581   5.279   5.692   3.272
 1561SOL    HW1 5582   5.345   5.620   3.248
 1561SOL    HW2 5583   5.196   5.681   3.217
 1562SOL     OW 5584   3.887   6.370   1.619
 1562SOL    HW1 5585   3.811   6.306   1.632
 1562SOL    HW2 5586   3.934   6.348   1.533
 1563SOL     OW 5587   2.508   1.763   5.714
 1563SOL    HW1 5588   2.515   1.736   5.618
 1563SOL    HW2 5589   2.443   1.702   5.761
 1564SOL     OW 5590   1.455   2.527   2.589
 1564SOL    HW1 5591   1.492   2.543   2.680
 1564SOL    HW2 5592   1.469   2.431   2.563
 1565SOL     OW 5593   4.222   5.256   4.388
 1565SOL    HW1 5594   4.244   5.248   4.291
 1565SOL    HW2 5595   4.303   5.233   4.442
 1566SOL     OW 5596   6.310   5.070   4.751
 1566SOL    HW1 5597   6.393   5.095   4.801
 1566SOL    HW2 5598   6.276   5.150   4.702
 1567SOL     OW 5599   6.650   5.686   0.366
 1567SOL    HW1 5600   6.654   5.739   0.451
 1567SOL    HW2 5601   6.554   5.668   0.342
 1568SOL     OW 5602   1.861   6.661   2.919
 1568SOL    HW1 5603   1.937   6.595   2.919
 1568SOL    HW2 5604   1.877   6.730   2.849
 1569SOL     OW 5605   3.497   6.423   3.368
 1569SOL    HW1 5606   3.583   6.408   3.318
 1569SOL    HW2 5607   3.431   6.353   3.342
 1570SOL     OW 5608   1.681   6.569   0.402
 1570SOL    HW1 5609   1.612   6.501   0.380
 1570SOL    HW2 5610   1.769   6.542   0.364
 1571SOL     OW 5611   6.735   2.218   3.285
 1571SOL    HW1 5612   6.653   2.264   3.319
 1571SOL    HW2 5613   6.716   2.120   3.276
 1572SOL     OW 5614   2.163   5.638   1.611
 1572SOL    HW1 5615   2.212   5.724   1.626
 1572SOL    HW2 5616   2.065   5.654   1.615
 1573SOL     OW 5617   6.156   5.298   1.941
 1573SOL    HW1 5618   6.128   5.341   1.855
 1573SOL    HW2 5619   6.078   5.251   1.982
 1574SOL     OW 5620   6.638   2.489   3.304
 1574SOL    HW1 5621   6.736   2.504   3.311
 1574SOL    HW2 5622   6.611   2.483   3.208
 1575SOL     OW 5623   2.539   1.213   1.948
 1575SOL    HW1 5624   2.452   1.261   1.951
 1575SOL    HW2 5625   2.613   1.277   1.967
 1576SOL     OW 5626   0.796   0.164   3.495
 1576SOL    HW1 5627   0.751   0.212   3.421
 1576SOL    HW2 5628   0.888   0.137   3.466
 1577SOL     OW 5629   2.046   0.802   5.566
 1577SOL    HW1 5630   2.022   0.803   5.663
 1577SOL    HW2 5631   2.054   0.895   5.532
 1578SOL     OW 5632   5.078   1.377   5.817
 1578SOL    HW1 5633   5.021   1.454   5.789
 1578SOL    HW2 5634   5.104   1.388   5.913
 1579SOL     OW 5635   6.875   1.671   2.409
 1579SOL    HW1 5636   6.922   1.747   2.363
 1579SOL    HW2 5637   6.896   1.673   2.507
 1580SOL     OW 5638   3.319   4.139   3.959
 1580SOL    HW1 5639   3.248   4.081   3.918
 1580SOL    HW2 5640   3.366   4.191   3.887
 1581SOL     OW 5641   6.669   4.712   5.696
 1581SOL    HW1 5642   6.623   4.648   5.634
 1581SOL    HW2 5643   6.604   4.783   5.723
 1582SOL     OW 5644   3.100   6.284   4.738
 1582SOL    HW1 5645   3.070   6.287   4.642
 1582SOL    HW2 5646   3.104   6.376   4.775
 1583SOL     OW 5647   0.358   5.709   3.559
 1583SOL    HW1 5648   0.269   5.750   3.575
 1583SOL    HW2 5649   0.427   5.756   3.613
 1584SOL     OW 5650   0.652   5.090   5.838
 1584SOL    HW1 5651   0.580   5.103   5.770
 1584SOL    HW2 5652   0.713   5.169   5.838
 1585SOL     OW 5653   4.291   2.290   2.563
 1585SOL    HW1 5654   4.318   2.283   2.659
 1585SOL    HW2 5655   4.259   2.200   2.530
 1586SOL     OW 5656   3.082   5.144   2.267
 1586SOL    HW1 5657   3.129   5.063   2.302
 1586SOL    HW2 5658   3.124   5.173   2.181
 1587SOL     OW 5659   2.668   5.627   5.239
 1587SOL    HW1 5660   2.707   5.668   5.156
 1587SOL    HW2 5661   2.696   5.531   5.245
 1588SOL     OW 5662   4.415   1.154   1.905
 1588SOL    HW1 5663   4.452   1.091   1.974
 1588SOL    HW2 5664   4.405   1.245   1.946
 1589SOL     OW 5665   0.257   3.342   2.460
 1589SOL    HW1 5666   0.268   3.242   2.466
 1589SOL    HW2 5667   0.342   3.383   2.429
 1590SOL     OW 5668   4.954   0.817   3.798
 1590SOL    HW1 5669   4.970   0.719   3.795
 1590SOL    HW2 5670   4.910   0.846   3.713
 1591SOL     OW 5671   6.890   6.197   1.262
 1591SOL    HW1 5672   6.925   6.158   1.177
 1591SOL    HW2 5673   6.877   6.295   1.251
 1592SOL     OW 5674   2.296   3.907   6.686
 1592SOL    HW1 5675   2.361   3.888   6.613
 1592SOL    HW2 5676   2.344   3.908   6.774
 1593SOL     OW 5677   0.748   6.952   5.283
 1593SOL    HW1 5678   0.786   0.010   5.329
 1593SOL    HW2 5679   0.799   6.871   5.311
 1594SOL     OW 5680   0.224   6.318   1.977
 1594SOL    HW1 5681   0.137   6.271   1.992
 1594SOL    HW2 5682   0.292   6.252   1.946
 1595SOL     OW 5683   0.917   5.065   1.186
 1595SOL    HW1 5684   0.930   4.993   1.118
 1595SOL    HW2 5685   0.821   5.093   1.188
 1596SOL     OW 5686   6.664   3.639   3.468
 1596SOL    HW1 5687   6.663   3.677   3.561
 1596SOL    HW2 5688   6.689   3.711   3.403
 1597SOL     OW 5689   1.621   6.105   0.925
 1597SOL    HW1 5690   1.536   6.055   0.913
 1597SOL    HW2 5691   1.672   6.106   0.838
 1598SOL     OW 5692   1.053   4.664   6.267
 1598SOL    HW1 5693   1.068   4.657   6.168
 1598SOL    HW2 5694   0.956   4.677   6.285
 1599SOL     OW 5695   5.371   5.380   4.982
 1599SOL    HW1 5696   5.446   5.437   5.017
 1599SOL    HW2 5697   5.362   5.298   5.039
 1600SOL     OW 5698   2.799   1.517   2.949
 1600SOL    HW1 5699   2.728   1.466   2.998
 1600SOL    HW2 5700   2.762   1.550   2.862
 1601SOL     OW 5701   6.773   0.177   3.943
 1601SOL    HW1 5702   6.811   0.223   4.023
 1601SOL    HW2 5703   6.676   0.156   3.959
 1602SOL     OW 5704   4.324   4.617   3.745
 1602SOL    HW1 5705   4.355   4.660   3.661
 1602SOL    HW2 5706   4.247   4.669   3.782
 1603SOL     OW 5707   2.968   5.397   2.775
 1603SOL    HW1 5708   2.898   5.454   2.732
 1603SOL    HW2 5709   2.925   5.336   2.841
 1604SOL     OW 5710   4.921   4.949   1.657
 1604SOL    HW1 5711   4.941   4.854   1.682
 1604SOL    HW2 5712   4.868   4.951   1.572
 1605SOL     OW 5713   6.731   5.429   2.011
 1605SOL    HW1 5714   6.764   5.523   2.005
 1605SOL    HW2 5715   6.700   5.399   1.921
 1606SOL     OW 5716   3.936   6.130   5.739
 1606SOL    HW1 5717   3.946   6.089   5.648
 1606SOL    HW2 5718   3.925   6.229   5.730
 1607SOL     OW 5719   4.013   6.957   0.412
 1607SOL    HW1 5720   3.984   0.009   0.353
 1607SOL    HW2 5721   3.940   6.936   0.478
 1608SOL     OW 5722   6.497   1.248   3.204
 1608SOL    HW1 5723   6.531   1.198   3.284
 1608SOL    HW2 5724   6.560   1.235   3.128
 1609SOL     OW 5725   3.559   6.889   0.305
 1609SOL    HW1 5726   3.557   6.936   0.217
 1609SOL    HW2 5727   3.573   6.956   0.378
 1610SOL     OW 5728   5.661   5.781   0.664
 1610SOL    HW1 5729   5.602   5.750   0.590
 1610SOL    HW2 5730   5.699   5.871   0.642
 1611SOL     OW 5731   2.581   3.153   0.301
 1611SOL    HW1 5732   2.579   3.066   0.349
 1611SOL    HW2 5733   2.489   3.193   0.299
 1612SOL     OW 5734   3.290   6.758   1.132
 1612SOL    HW1 5735   3.349   6.830   1.094
 1612SOL    HW2 5736   3.311   6.746   1.229
 1613SOL     OW 5737   1.706   5.606   2.297
 1613SOL    HW1 5738   1.799   5.570   2.292
 1613SOL    HW2 5739   1.705   5.685   2.358
 1614SOL     OW 5740   5.674   1.637   6.154
 1614SOL    HW1 5741   5.697   1.724   6.112
 1614SOL    HW2 5742   5.671   1.565   6.084
 1615SOL     OW 5743   6.176   5.790   0.081
 1615SOL    HW1 5744   6.124   5.802   0.165
 1615SOL    HW2 5745   6.169   5.873   0.025
 1616SOL     OW 5746   3.944   1.064   4.565
 1616SOL    HW1 5747   3.881   0.987   4.552
 1616SOL    HW2 5748   3.900   1.148   4.533
 1617SOL     OW 5749   5.472   6.242   3.097
 1617SOL    HW1 5750   5.482   6.329   3.146
 1617SOL    HW2 5751   5.530   6.173   3.141
 1618SOL     OW 5752   1.561   6.410   3.310
 1618SOL    HW1 5753   1.467   6.445   3.308
 1618SOL    HW2 5754   1.562   6.317   3.272
 1619SOL     OW 5755   0.353   4.617   0.694
 1619SOL    HW1 5756   0.330   4.599   0.598
 1619SOL    HW2 5757   0.291   4.564   0.753
 1620SOL     OW 5758   3.281   4.624   1.467
 1620SOL    HW1 5759   3.228   4.574   1.535
 1620SOL    HW2 5760   3.235   4.618   1.378
 1621SOL     OW 5761   6.048   0.501   1.084
 1621SOL    HW1 5762   6.070   0.476   0.990
 1621SOL    HW2 5763   6.113   0.456   1.146
 1622SOL     OW 5764   0.767   3.304   5.284
 1622SOL    HW1 5765   0.836   3.249   5.331
 1622SOL    HW2 5766   0.693   3.328   5.347
 1623SOL     OW 5767   0.762   3.013   4.786
 1623SOL    HW1 5768   0.755   2.990   4.883
 1623SOL    HW2 5769   0.673   3.000   4.742
 1624SOL     OW 5770   4.044   0.760   5.162
 1624SOL    HW1 5771   3.949   0.737   5.180
 1624SOL    HW2 5772   4.048   0.848   5.115
 1625SOL     OW 5773   1.437   4.830   0.115
 1625SOL    HW1 5774   1.441   4.750   0.054
 1625SOL    HW2 5775   1.528   4.851   0.149
 1626SOL     OW 5776   3.608   0.770   0.875
 1626SOL    HW1 5777   3.584   0.739   0.967
 1626SOL    HW2 5778   3.532   0.823   0.837
 1627SOL     OW 5779   5.822   3.017   3.761
 1627SOL    HW1 5780   5.808   3.116   3.770
 1627SOL    HW2 5781   5.809   2.991   3.665
 1628SOL     OW 5782   4.286   5.372   0.301
 1628SOL    HW1 5783   4.233   5.319   0.235
 1628SOL    HW2 5784   4.225   5.436   0.348
 1629SOL     OW 5785   2.505   0.966   3.654
 1629SOL    HW1 5786   2.428   0.929   3.603
 1629SOL    HW2 5787   2.581   0.900   3.651
 1630SOL     OW 5788   0.609   4.916   6.179
 1630SOL    HW1 5789   0.599   5.016   6.175
 1630SOL    HW2 5790   0.635   4.882   6.089
 1631SOL     OW 5791   0.770   2.856   0.339
 1631SOL    HW1 5792   0.764   2.808   0.252
 1631SOL    HW2 5793   0.800   2.792   0.410
 1632SOL     OW 5794   5.098   2.713   1.529
 1632SOL    HW1 5795   5.000   2.733   1.522
 1632SOL    HW2 5796   5.150   2.794   1.503
 1633SOL     OW 5797   4.897   3.870   4.679
 1633SOL    HW1 5798   4.979   3.924   4.658
 1633SOL    HW2 5799   4.856   3.837   4.595
 1634SOL     OW 5800   4.666   6.105   4.270
 1634SOL    HW1 5801   4.747   6.123   4.325
 1634SOL    HW2 5802   4.665   6.165   4.190
 1635SOL     OW 5803   0.829   5.065   0.104
 1635SOL    HW1 5804   0.745   5.098   0.061
 1635SOL    HW2 5805   0.888   5.023   0.035
 1636SOL     OW 5806   3.094   5.148   1.176
 1636SOL    HW1 5807   3.103   5.058   1.134
 1636SOL    HW2 5808   3.093   5.138   1.276
 1637SOL     OW 5809   0.073   0.580   3.429
 1637SOL    HW1 5810   0.030   0.614   3.345
 1637SOL    HW2 5811   0.017   0.605   3.508
 1638SOL     OW 5812   0.812   3.327   2.746
 1638SOL    HW1 5813   0.756   3.303   2.825
 1638SOL    HW2 5814   0.875   3.252   2.727
 1639SOL     OW 5815   5.594   5.170   1.353
 1639SOL    HW1 5816   5.527   5.196   1.423
 1639SOL    HW2 5817   5.670   5.122   1.396
 1640SOL     OW 5818   5.762   0.667   0.066
 1640SOL    HW1 5819   5.697   0.709   0.129
 1640SOL    HW2 5820   5.855   0.693   0.091
 1641SOL     OW 5821   5.459   1.920   3.264
 1641SOL    HW1 5822   5.412   1.837   3.235
 1641SOL    HW2 5823   5.427   1.997   3.209
 1642SOL     OW 5824   6.425   3.422   0.050
 1642SOL    HW1 5825   6.338   3.452   0.089
 1642SOL    HW2 5826   6.408   3.362   6.995
 1643SOL     OW 5827   2.905   4.786   3.972
 1643SOL    HW1 5828   2.870   4.714   3.912
 1643SOL    HW2 5829   2.853   4.786   4.057
 1644SOL     OW 5830   5.682   3.752   0.228
 1644SOL    HW1 5831   5.591   3.790   0.214
 1644SOL    HW2 5832   5.737   3.765   0.145
 1645SOL     OW 5833   2.212   5.455   6.174
 1645SOL    HW1 5834   2.311   5.456   6.162
 1645SOL    HW2 5835   2.189   5.485   6.267
 1646SOL     OW 5836   2.651   0.035   1.109
 1646SOL    HW1 5837   2.562   0.048   1.154
 1646SOL    HW2 5838   2.640   0.038   1.010
 1647SOL     OW 5839   6.073   2.783   4.097
 1647SOL    HW1 5840   6.067   2.718   4.172
 1647SOL    HW2 5841   6.104   2.737   4.014
 1648SOL     OW 5842   5.008   5.853   0.183
 1648SOL    HW1 5843   5.099   5.886   0.209
 1648SOL    HW2 5844   4.966   5.808   0.262
 1649SOL     OW 5845   3.455   1.805   3.895
 1649SOL    HW1 5846   3.511   1.728   3.865
 1649SOL    HW2 5847   3.401   1.778   3.974
 1650SOL     OW 5848   0.606   5.922   5.251
 1650SOL    HW1 5849   0.695   5.892   5.286
 1650SOL    HW2 5850   0.571   5.855   5.186
 1651SOL     OW 5851   0.234   2.149   2.069
 1651SOL    HW1 5852   0.298   2.108   2.135
 1651SOL    HW2 5853   0.234   2.248   2.080
 1652SOL     OW 5854   1.649   3.004   2.622
 1652SOL    HW1 5855   1.642   2.949   2.539
 1652SOL    HW2 5856   1.562   3.001   2.671
 1653SOL     OW 5857   0.679   6.634   0.300
 1653SOL    HW1 5858   0.597   6.584   0.327
 1653SOL    HW2 5859   0.759   6.575   0.310
 1654SOL     OW 5860   6.917   3.116   1.657
 1654SOL    HW1 5861   6.853   3.193   1.655
 1654SOL    HW2 5862   7.010   3.151   1.670
 1655SOL     OW 5863   0.661   2.431   4.413
 1655SOL    HW1 5864   0.712   2.414   4.497
 1655SOL    HW2 5865   0.567   2.400   4.424
 1656SOL     OW 5866   2.207   5.249   3.029
 1656SOL    HW1 5867   2.149   5.274   3.107
 1656SOL    HW2 5868   2.158   5.184   2.970
 1657SOL     OW 5869   5.859   0.932   4.209
 1657SOL    HW1 5870   5.868   0.907   4.113
 1657SOL    HW2 5871   5.919   0.875   4.264
 1658SOL     OW 5872   6.061   1.130   1.384
 1658SOL    HW1 5873   6.006   1.150   1.303
 1658SOL    HW2 5874   6.018   1.171   1.464
 1659SOL     OW 5875   2.970   0.554   0.239
 1659SOL    HW1 5876   3.034   0.614   0.191
 1659SOL    HW2 5877   2.885   0.547   0.187
 1660SOL     OW 5878   1.743   5.858   2.460
 1660SOL    HW1 5879   1.842   5.842   2.465
 1660SOL    HW2 5880   1.721   5.905   2.375
 1661SOL     OW 5881   2.081   6.596   1.736
 1661SOL    HW1 5882   2.094   6.499   1.758
 1661SOL    HW2 5883   2.040   6.604   1.646
 1662SOL     OW 5884   0.215   1.221   4.430
 1662SOL    HW1 5885   0.178   1.201   4.520
 1662SOL    HW2 5886   0.314   1.207   4.430
 1663SOL     OW 5887   4.538   5.411   3.417
 1663SOL    HW1 5888   4.479   5.427   3.496
 1663SOL    HW2 5889   4.485   5.418   3.333
 1664SOL     OW 5890   2.316   5.961   4.925
 1664SOL    HW1 5891   2.233   5.959   4.871
 1664SOL    HW2 5892   2.294   5.943   5.021
 1665SOL     OW 5893   6.472   3.225   2.628
 1665SOL    HW1 5894   6.439   3.180   2.545
 1665SOL    HW2 5895   6.401   3.285   2.663
 1666SOL     OW 5896   5.302   1.115   6.579
 1666SOL    HW1 5897   5.361   1.085   6.654
 1666SOL    HW2 5898   5.319   1.212   6.560
 1667SOL     OW 5899   0.303   6.701   1.319
 1667SOL    HW1 5900   0.209   6.729   1.299
 1667SOL    HW2 5901   0.325   6.618   1.269
 1668SOL     OW 5902   4.779   5.459   3.796
 1668SOL    HW1 5903   4.688   5.475   3.835
 1668SOL    HW2 5904   4.844   5.439   3.870
 1669SOL     OW 5905   6.925   4.585   5.932
 1669SOL    HW1 5906   6.894   4.508   5.876
 1669SOL    HW2 5907   0.000   4.600   5.916
 1670SOL     OW 5908   6.782   4.373   5.342
 1670SOL    HW1 5909   6.783   4.276   5.317
 1670SOL    HW2 5910   6.783   4.429   5.259
 1671SOL     OW 5911   5.466   1.542   3.454
 1671SOL    HW1 5912   5.507   1.561   3.543
 1671SOL    HW2 5913   5.496   1.610   3.388
 1672SOL     OW 5914   2.170   3.338   1.101
 1672SOL    HW1 5915   2.111   3.264   1.070
 1672SOL    HW2 5916   2.234   3.362   1.028
 1673SOL     OW 5917   1.455   1.707   4.953
 1673SOL    HW1 5918   1.483   1.640   4.885
 1673SOL    HW2 5919   1.433   1.794   4.908
 1674SOL     OW 5920   0.726   3.108   2.362
 1674SOL    HW1 5921   0.733   3.081   2.458
 1674SOL    HW2 5922   0.629   3.115   2.337
 1675SOL     OW 5923   4.662   6.953   6.780
 1675SOL    HW1 5924   4.656   6.871   6.837
 1675SOL    HW2 5925   4.671   6.926   6.684
 1676SOL     OW 5926   2.334   2.320   1.500
 1676SOL    HW1 5927   2.321   2.310   1.598
 1676SOL    HW2 5928   2.432   2.320   1.479
 1677SOL     OW 5929   3.671   3.637   3.862
 1677SOL    HW1 5930   3.739   3.706   3.838
 1677SOL    HW2 5931   3.641   3.650   3.956
 1678SOL     OW 5932   6.781   4.742   2.617
 1678SOL    HW1 5933   6.730   4.657   2.612
 1678SOL    HW2 5934   6.740   4.803   2.685
 1679SOL     OW 5935   2.593   1.434   4.563
 1679SOL    HW1 5936   2.500   1.472   4.568
 1679SOL    HW2 5937   2.598   1.369   4.487
 1680SOL     OW 5938   0.579   3.437   5.440
 1680SOL    HW1 5939   0.489   3.394   5.453
 1680SOL    HW2 5940   0.568   3.536   5.438
 1681SOL     OW 5941   0.573   5.163   6.979
 1681SOL    HW1 5942   0.641   5.202   6.916
 1681SOL    HW2 5943   0.551   5.070   6.950
 1682SOL     OW 5944   1.326   0.695   5.614
 1682SOL    HW1 5945   1.365   0.603   5.611
 1682SOL    HW2 5946   1.228   0.689   5.631
 1683SOL     OW 5947   5.831   5.695   2.595
 1683SOL    HW1 5948   5.867   5.621   2.540
 1683SOL    HW2 5949   5.789   5.764   2.536
 1684SOL     OW 5950   0.615   5.883   2.018
 1684SOL    HW1 5951   0.602   5.808   1.953
 1684SOL    HW2 5952   0.713   5.900   2.029
 1685SOL     OW 5953   1.375   1.187   5.327
 1685SOL    HW1 5954   1.464   1.149   5.302
 1685SOL    HW2 5955   1.364   1.181   5.427
 1686SOL     OW 5956   2.344   6.345   4.307
 1686SOL    HW1 5957   2.443   6.342   4.317
 1686SOL    HW2 5958   2.308   6.425   4.356
 1687SOL     OW 5959   1.484   2.747   1.467
 1687SOL    HW1 5960   1.458   2.716   1.376
 1687SOL    HW2 5961   1.535   2.675   1.514
 1688SOL     OW 5962   2.325   1.923   3.638
 1688SOL    HW1 5963   2.265   1.872   3.700
 1688SOL    HW2 5964   2.404   1.956   3.689
 1689SOL     OW 5965   6.187   0.541   2.810
 1689SOL    HW1 5966   6.265   0.556   2.750
 1689SOL    HW2 5967   6.176   0.619   2.872
 1690SOL     OW 5968   1.630   2.438   4.742
 1690SOL    HW1 5969   1.663   2.345   4.727
 1690SOL    HW2 5970   1.530   2.438   4.740
 1691SOL     OW 5971   5.360   3.028   3.733
 1691SOL    HW1 5972   5.375   2.931   3.715
 1691SOL    HW2 5973   5.358   3.044   3.832
 1692SOL     OW 5974   4.691   6.363   0.966
 1692SOL    HW1 5975   4.679   6.301   0.889
 1692SOL    HW2 5976   4.718   6.311   1.047
 1693SOL     OW 5977   6.677   2.339   3.054
 1693SOL    HW1 5978   6.729   2.304   3.132
 1693SOL    HW2 5979   6.616   2.267   3.020
 1694SOL     OW 5980   6.301   2.048   3.832
 1694SOL    HW1 5981   6.361   2.096   3.895
 1694SOL    HW2 5982   6.293   2.100   3.747
 1695SOL     OW 5983   4.121   0.806   6.351
 1695SOL    HW1 5984   4.049   0.874   6.362
 1695SOL    HW2 5985   4.139   0.761   6.438
 1696SOL     OW 5986   4.085   6.032   1.369
 1696SOL    HW1 5987   4.112   6.005   1.276
 1696SOL    HW2 5988   4.057   5.952   1.421
 1697SOL     OW 5989   6.853   1.270   0.548
 1697SOL    HW1 5990   6.884   1.175   0.550
 1697SOL    HW2 5991   6.795   1.284   0.467
 1698SOL     OW 5992   3.399   6.776   0.501
 1698SOL    HW1 5993   3.473   6.818   0.449
 1698SOL    HW2 5994   3.327   6.843   0.518
 1699SOL     OW 5995   2.599   1.349   6.702
 1699SOL    HW1 5996   2.612   1.365   6.604
 1699SOL    HW2 5997   2.547   1.265   6.716
 1700SOL     OW 5998   6.355   4.478   3.728
 1700SOL    HW1 5999   6.452   4.458   3.712
 1700SOL    HW2 6000   6.332   4.565   3.685
 1701SOL     OW 6001   5.647   5.451   6.286
 1701SOL    HW1 6002   5.570   5.514   6.282
 1701SOL    HW2 6003   5.634   5.377   6.220
 1702SOL     OW 6004   6.581   1.557   0.746
 1702SOL    HW1 6005   6.627   1.623   0.804
 1702SOL    HW2 6006   6.636   1.474   0.738
 1703SOL     OW 6007   3.464   1.925   0.513
 1703SOL    HW1 6008   3.422   1.990   0.448
 1703SOL    HW2 6009   3.561   1.913   0.490
 1704SOL     OW 6010   0.963   2.306   0.168
 1704SOL    HW1 6011   1.031   2.295   0.095
 1704SOL    HW2 6012   0.967   2.400   0.203
 1705SOL     OW 6013   3.144   2.167   1.917
 1705SOL    HW1 6014   3.078   2.241   1.907
 1705SOL    HW2 6015   3.112   2.087   1.868
 1706SOL     OW 6016   5.022   1.599   1.635
 1706SOL    HW1 6017   4.974   1.535   1.695
 1706SOL    HW2 6018   4.998   1.581   1.540
 1707SOL     OW 6019   4.151   1.621   2.904
 1707SOL    HW1 6020   4.226   1.671   2.861
 1707SOL    HW2 6021   4.179   1.526   2.920
 1708SOL     OW 6022   4.860   6.022   1.968
 1708SOL    HW1 6023   4.837   6.101   2.023
 1708SOL    HW2 6024   4.932   6.047   1.902
 1709SOL     OW 6025   3.344   6.692   2.613
 1709SOL    HW1 6026   3.384   6.605   2.642
 1709SOL    HW2 6027   3.418   6.755   2.587
 1710SOL     OW 6028   4.287   4.925   3.079
 1710SOL    HW1 6029   4.378   4.952   3.110
 1710SOL    HW2 6030   4.284   4.825   3.068
 1711SOL     OW 6031   1.755   4.905   4.460
 1711SOL    HW1 6032   1.745   4.985   4.400
 1711SOL    HW2 6033   1.852   4.888   4.477
 1712SOL     OW 6034   6.599   2.526   4.507
 1712SOL    HW1 6035   6.689   2.502   4.471
 1712SOL    HW2 6036   6.552   2.443   4.537
 1713SOL     OW 6037   4.757   2.551   2.111
 1713SOL    HW1 6038   4.729   2.589   2.022
 1713SOL    HW2 6039   4.710   2.601   2.184
 1714SOL     OW 6040   3.704   1.578   6.194
 1714SOL    HW1 6041   3.766   1.559   6.118
 1714SOL    HW2 6042   3.617   1.531   6.178
 1715SOL     OW 6043   2.250   6.138   3.487
 1715SOL    HW1 6044   2.346   6.165   3.498
 1715SOL    HW2 6045   2.245   6.065   3.418
 1716SOL     OW 6046   3.608   6.972   3.683
 1716SOL    HW1 6047   3.648   0.025   3.735
 1716SOL    HW2 6048   3.617   6.887   3.735
 1717SOL     OW 6049   3.446   5.924   4.954
 1717SOL    HW1 6050   3.470   5.866   4.877
 1717SOL    HW2 6051   3.369   5.983   4.929
 1718SOL     OW 6052   3.150   1.374   2.076
 1718SOL    HW1 6053   3.207   1.363   1.995
 1718SOL    HW2 6054   3.082   1.446   2.059
 1719SOL     OW 6055   1.858   2.996   0.749
 1719SOL    HW1 6056   1.936   3.057   0.732
 1719SOL    HW2 6057   1.887   2.921   0.809
 1720SOL     OW 6058   6.714   3.127   6.922
 1720SOL    HW1 6059   6.626   3.114   6.968
 1720SOL    HW2 6060   6.783   3.066   6.962
 1721SOL     OW 6061   1.945   6.561   1.453
 1721SOL    HW1 6062   1.972   6.473   1.491
 1721SOL    HW2 6063   1.929   6.551   1.355
 1722SOL     OW 6064   3.284   1.480   3.742
 1722SOL    HW1 6065   3.250   1.434   3.825
 1722SOL    HW2 6066   3.280   1.579   3.756
 1723SOL     OW 6067   5.691   2.180   6.768
 1723SOL    HW1 6068   5.664   2.228   6.685
 1723SOL    HW2 6069   5.756   2.236   6.820
 1724SOL     OW 6070   0.725   2.874   2.102
 1724SOL    HW1 6071   0.814   2.915   2.117
 1724SOL    HW2 6072   0.658   2.945   2.078
 1725SOL     OW 6073   1.604   5.159   6.175
 1725SOL    HW1 6074   1.513   5.168   6.136
 1725SOL    HW2 6075   1.665   5.116   6.109
 1726SOL     OW 6076   5.843   4.345   4.952
 1726SOL    HW1 6077   5.869   4.321   5.046
 1726SOL    HW2 6078   5.760   4.296   4.927
 1727SOL     OW 6079   4.105   3.257   3.981
 1727SOL    HW1 6080   4.052   3.195   3.923
 1727SOL    HW2 6081   4.101   3.349   3.943
 1728SOL     OW 6082   5.785   5.192   5.351
 1728SOL    HW1 6083   5.860   5.229   5.405
 1728SOL    HW2 6084   5.753   5.262   5.287
 1729SOL     OW 6085   2.207   3.909   2.878
 1729SOL    HW1 6086   2.266   3.978   2.836
 1729SOL    HW2 6087   2.146   3.871   2.808
 1730SOL     OW 6088   2.382   0.388   5.525
 1730SOL    HW1 6089   2.333   0.476   5.520
 1730SOL    HW2 6090   2.316   0.314   5.536
 1731SOL     OW 6091   0.493   4.057   3.762
 1731SOL    HW1 6092   0.473   4.141   3.712
 1731SOL    HW2 6093   0.531   4.080   3.852
 1732SOL     OW 6094   2.663   5.173   5.857
 1732SOL    HW1 6095   2.644   5.231   5.778
 1732SOL    HW2 6096   2.577   5.136   5.893
 1733SOL     OW 6097   1.795   4.048   1.080
 1733SOL    HW1 6098   1.867   3.989   1.116
 1733SOL    HW2 6099   1.808   4.063   0.982
 1734SOL     OW 6100   4.642   2.953   1.090
 1734SOL    HW1 6101   4.557   3.005   1.099
 1734SOL    HW2 6102   4.641   2.902   1.005
 1735SOL     OW 6103   4.459   5.621   6.563
 1735SOL    HW1 6104   4.442   5.649   6.469
 1735SOL    HW2 6105   4.380   5.570   6.597
 1736SOL     OW 6106   3.469   3.812   1.077
 1736SOL    HW1 6107   3.408   3.745   1.035
 1736SOL    HW2 6108   3.513   3.770   1.157
 1737SOL     OW 6109   4.561   0.306   4.606
 1737SOL    HW1 6110   4.469   0.268   4.603
 1737SOL    HW2 6111   4.567   0.373   4.680
 1738SOL     OW 6112   2.214   2.603   4.567
 1738SOL    HW1 6113   2.128   2.553   4.555
 1738SOL    HW2 6114   2.253   2.581   4.656
 1739SOL     OW 6115   6.683   2.043   5.074
 1739SOL    HW1 6116   6.745   1.972   5.107
 1739SOL    HW2 6117   6.603   2.001   5.032
 1740SOL     OW 6118   0.081   2.430   4.813
 1740SOL    HW1 6119   0.069   2.366   4.737
 1740SOL    HW2 6120   0.171   2.473   4.807
 1741SOL     OW 6121   2.582   0.415   4.562
 1741SOL    HW1 6122   2.554   0.338   4.620
 1741SOL    HW2 6123   2.598   0.383   4.469
 1742SOL     OW 6124   5.903   0.379   5.427
 1742SOL    HW1 6125   5.891   0.391   5.525
 1742SOL    HW2 6126   5.923   0.283   5.407
 1743SOL     OW 6127   0.702   1.797   2.236
 1743SOL    HW1 6128   0.651   1.791   2.150
 1743SOL    HW2 6129   0.729   1.892   2.252
 1744SOL     OW 6130   6.674   3.477   3.831
 1744SOL    HW1 6131   6.664   3.576   3.825
 1744SOL    HW2 6132   6.591   3.433   3.798
 1745SOL     OW 6133   5.359   5.705   2.407
 1745SOL    HW1 6134   5.303   5.783   2.436
 1745SOL    HW2 6135   5.398   5.661   2.488
 1746SOL     OW 6136   1.246   4.407   4.067
 1746SOL    HW1 6137   1.183   4.411   4.144
 1746SOL    HW2 6138   1.212   4.343   3.999
 1747SOL     OW 6139   4.498   1.483   2.982
 1747SOL    HW1 6140   4.527   1.450   3.072
 1747SOL    HW2 6141   4.419   1.429   2.951
 1748SOL     OW 6142   6.903   2.183   4.247
 1748SOL    HW1 6143   6.898   2.143   4.338
 1748SOL    HW2 6144   6.894   2.110   4.178
 1749SOL     OW 6145   2.350   6.756   5.826
 1749SOL    HW1 6146   2.315   6.849   5.814
 1749SOL    HW2 6147   2.450   6.756   5.813
 1750SOL     OW 6148   5.398   6.746   3.513
 1750SOL    HW1 6149   5.417   6.772   3.418
 1750SOL    HW2 6150   5.334   6.812   3.553
 1751SOL     OW 6151   4.851   1.984   4.514
 1751SOL    HW1 6152   4.798   2.060   4.551
 1751SOL    HW2 6153   4.788   1.911   4.485
 1752SOL     OW 6154   6.146   0.922   1.925
 1752SOL    HW1 6155   6.220   0.912   1.858
 1752SOL    HW2 6156   6.178   0.977   2.002
 1753SOL     OW 6157   6.559   0.754   1.586
 1753SOL    HW1 6158   6.465   0.766   1.620
 1753SOL    HW2 6159   6.622   0.755   1.663
 1754SOL     OW 6160   1.709   4.832   6.469
 1754SOL    HW1 6161   1.648   4.858   6.394
 1754SOL    HW2 6162   1.749   4.915   6.509
 1755SOL     OW 6163   0.054   5.245   0.312
 1755SOL    HW1 6164   0.131   5.233   0.251
 1755SOL    HW2 6165   6.995   5.269   0.259
 1756SOL     OW 6166   4.095   5.574   5.271
 1756SOL    HW1 6167   4.119   5.479   5.255
 1756SOL    HW2 6168   4.004   5.592   5.234
 1757SOL     OW 6169   3.206   5.256   4.859
 1757SOL    HW1 6170   3.197   5.308   4.943
 1757SOL    HW2 6171   3.227   5.319   4.783
 1758SOL     OW 6172   1.912   1.300   4.448
 1758SOL    HW1 6173   1.967   1.320   4.367
 1758SOL    HW2 6174   1.968   1.312   4.530
 1759SOL     OW 6175   2.840   6.263   5.485
 1759SOL    HW1 6176   2.764   6.243   5.547
 1759SOL    HW2 6177   2.849   6.362   5.475
 1760SOL     OW 6178   5.782   0.928   3.934
 1760SOL    HW1 6179   5.879   0.913   3.914
 1760SOL    HW2 6180   5.767   1.025   3.955
 1761SOL     OW 6181   0.306   1.273   1.902
 1761SOL    HW1 6182   0.350   1.307   1.819
 1761SOL    HW2 6183   0.344   1.183   1.925
 1762SOL     OW 6184   0.127   1.177   4.682
 1762SOL    HW1 6185   0.180   1.187   4.766
 1762SOL    HW2 6186   0.043   1.231   4.689
 1763SOL     OW 6187   0.580   4.628   4.223
 1763SOL    HW1 6188   0.658   4.682   4.255
 1763SOL    HW2 6189   0.499   4.653   4.276
 1764SOL     OW 6190   2.077   2.977   1.981
 1764SOL    HW1 6191   1.982   2.962   2.008
 1764SOL    HW2 6192   2.097   3.075   1.982
 1765SOL     OW 6193   3.494   0.723   1.745
 1765SOL    HW1 6194   3.401   0.761   1.752
 1765SOL    HW2 6195   3.503   0.647   1.808
 1766SOL     OW 6196   5.938   4.816   3.969
 1766SOL    HW1 6197   5.920   4.887   3.901
 1766SOL    HW2 6198   5.859   4.806   4.029
 1767SOL     OW 6199   0.817   4.153   3.646
 1767SOL    HW1 6200   0.778   4.062   3.662
 1767SOL    HW2 6201   0.752   4.209   3.596
 1768SOL     OW 6202   2.899   0.766   6.778
 1768SOL    HW1 6203   2.821   0.767   6.841
 1768SOL    HW2 6204   2.904   0.678   6.733
 1769SOL     OW 6205   5.581   1.236   6.703
 1769SOL    HW1 6206   5.671   1.274   6.723
 1769SOL    HW2 6207   5.584   1.186   6.617
 1770SOL     OW 6208   6.756   4.861   5.101
 1770SOL    HW1 6209   6.662   4.890   5.082
 1770SOL    HW2 6210   6.820   4.917   5.048
 1771SOL     OW 6211   1.433   5.011   0.571
 1771SOL    HW1 6212   1.510   5.016   0.508
 1771SOL    HW2 6213   1.414   4.915   0.593
 1772SOL     OW 6214   3.716   5.901   3.638
 1772SOL    HW1 6215   3.801   5.889   3.690
 1772SOL    HW2 6216   3.666   5.814   3.635
 1773SOL     OW 6217   2.570   2.458   5.970
 1773SOL    HW1 6218   2.540   2.443   5.876
 1773SOL    HW2 6219   2.539   2.548   6.001
 1774SOL     OW 6220   5.560   6.706   1.664
 1774SOL    HW1 6221   5.469   6.679   1.634
 1774SOL    HW2 6222   5.621   6.712   1.585
 1775SOL     OW 6223   1.684   5.460   6.263
 1775SOL    HW1 6224   1.707   5.383   6.203
 1775SOL    HW2 6225   1.588   5.453   6.291
 1776SOL     OW 6226   5.148   0.535   6.437
 1776SOL    HW1 6227   5.217   0.564   6.372
 1776SOL    HW2 6228   5.105   0.451   6.405
 1777SOL     OW 6229   2.591   6.795   6.862
 1777SOL    HW1 6230   2.669   6.773   6.921
 1777SOL    HW2 6231   2.621   6.853   6.787
 1778SOL     OW 6232   4.841   2.234   4.071
 1778SOL    HW1 6233   4.858   2.316   4.015
 1778SOL    HW2 6234   4.927   2.184   4.084
 1779SOL     OW 6235   5.340   0.989   5.549
 1779SOL    HW1 6236   5.299   1.046   5.620
 1779SOL    HW2 6237   5.268   0.941   5.499
 1780SOL     OW 6238   1.854   3.780   6.100
 1780SOL    HW1 6239   1.915   3.733   6.036
 1780SOL    HW2 6240   1.901   3.858   6.140
 1781SOL     OW 6241   5.499   6.342   4.728
 1781SOL    HW1 6242   5.514   6.279   4.804
 1781SOL    HW2 6243   5.539   6.304   4.644
 1782SOL     OW 6244   2.219   1.044   2.935
 1782SOL    HW1 6245   2.147   0.980   2.907
 1782SOL    HW2 6246   2.241   1.105   2.858
 1783SOL     OW 6247   3.204   3.361   6.715
 1783SOL    HW1 6248   3.160   3.377   6.627
 1783SOL    HW2 6249   3.293   3.407   6.718
 1784SOL     OW 6250   2.616   1.437   1.222
 1784SOL    HW1 6251   2.651   1.511   1.165
 1784SOL    HW2 6252   2.581   1.364   1.164
 1785SOL     OW 6253   5.922   6.641   3.918
 1785SOL    HW1 6254   5.969   6.561   3.954
 1785SOL    HW2 6255   5.829   6.616   3.890
 1786SOL     OW 6256   2.319   4.744   6.794
 1786SOL    HW1 6257   2.238   4.715   6.742
 1786SOL    HW2 6258   2.397   4.753   6.733
 1787SOL     OW 6259   2.759   1.911   6.199
 1787SOL    HW1 6260   2.710   1.887   6.115
 1787SOL    HW2 6261   2.773   2.010   6.202
 1788SOL     OW 6262   4.629   3.953   6.730
 1788SOL    HW1 6263   4.719   3.991   6.749
 1788SOL    HW2 6264   4.576   4.018   6.676
 1789SOL     OW 6265   6.002   2.928   1.612
 1789SOL    HW1 6266   5.971   2.893   1.524
 1789SOL    HW2 6267   5.963   2.872   1.686
 1790SOL     OW 6268   2.978   1.102   4.681
 1790SOL    HW1 6269   2.888   1.057   4.681
 1790SOL    HW2 6270   3.041   1.049   4.738
 1791SOL     OW 6271   6.304   1.654   3.496
 1791SOL    HW1 6272   6.374   1.591   3.462
 1791SOL    HW2 6273   6.270   1.710   3.421
 1792SOL     OW 6274   7.012   1.460   4.435
 1792SOL    HW1 6275   0.075   1.461   4.487
 1792SOL    HW2 6276   0.009   1.478   4.339
 1793SOL     OW 6277   6.606   2.005   4.175
 1793SOL    HW1 6278   6.618   2.018   4.076
 1793SOL    HW2 6279   6.509   1.992   4.196
 1794SOL     OW 6280   5.185   6.634   5.322
 1794SOL    HW1 6281   5.164   6.579   5.241
 1794SOL    HW2 6282   5.110   6.698   5.339
 1795SOL     OW 6283   6.961   5.039   2.099
 1795SOL    HW1 6284   6.923   4.951   2.068
 1795SOL    HW2 6285   6.895   5.084   2.159
 1796SOL     OW 6286   2.662   1.730   5.966
 1796SOL    HW1 6287   2.693   1.657   6.026
 1796SOL    HW2 6288   2.575   1.767   6.001
 1797SOL     OW 6289   1.116   6.832   5.661
 1797SOL    HW1 6290   1.128   6.738   5.690
 1797SOL    HW2 6291   1.159   6.846   5.571
 1798SOL     OW 6292   3.630   3.131   5.204
 1798SOL    HW1 6293   3.541   3.086   5.192
 1798SOL    HW2 6294   3.690   3.107   5.127
 1799SOL     OW 6295   4.770   2.939   6.623
 1799SOL    HW1 6296   4.865   2.913   6.639
 1799SOL    HW2 6297   4.733   2.983   6.704
 1800SOL     OW 6298   4.877   5.096   3.695
 1800SOL    HW1 6299   4.834   5.165   3.636
 1800SOL    HW2 6300   4.972   5.121   3.713
 1801SOL     OW 6301   0.729   1.499   2.219
 1801SOL    HW1 6302   0.738   1.598   2.222
 1801SOL    HW2 6303   0.712   1.464   2.311
 1802SOL     OW 6304   6.348   6.144   3.596
 1802SOL    HW1 6305   6.318   6.240   3.600
 1802SOL    HW2 6306   6.349   6.114   3.501
 1803SOL     OW 6307   0.344   0.354   1.999
 1803SOL    HW1 6308   0.314   0.330   2.091
 1803SOL    HW2 6309   0.440   0.327   1.987
 1804SOL     OW 6310   4.028   3.234   5.109
 1804SOL    HW1 6311   4.061   3.270   5.022
 1804SOL    HW2 6312   3.978   3.305   5.158
 1805SOL     OW 6313   0.299   5.377   5.943
 1805SOL    HW1 6314   0.277   5.282   5.965
 1805SOL    HW2 6315   0.378   5.379   5.882
 1806SOL     OW 6316   0.653   2.597   1.630
 1806SOL    HW1 6317   0.700   2.537   1.695
 1806SOL    HW2 6318   0.641   2.688   1.670
 1807SOL     OW 6319   6.178   2.496   6.429
 1807SOL    HW1 6320   6.157   2.504   6.331
 1807SOL    HW2 6321   6.262   2.546   6.449
 1808SOL     OW 6322   5.986   4.127   4.569
 1808SOL    HW1 6323   5.935   4.048   4.604
 1808SOL    HW2 6324   6.083   4.113   4.586
 1809SOL     OW 6325   3.107   2.093   5.374
 1809SOL    HW1 6326   3.042   2.052   5.439
 1809SOL    HW2 6327   3.125   2.188   5.400
 1810SOL     OW 6328   0.698   0.640   5.085
 1810SOL    HW1 6329   0.664   0.547   5.100
 1810SOL    HW2 6330   0.775   0.659   5.146
 1811SOL     OW 6331   5.527   4.655   2.251
 1811SOL    HW1 6332   5.484   4.569   2.223
 1811SOL    HW2 6333   5.554   4.707   2.169
 1812SOL     OW 6334   4.181   6.525   6.634
 1812SOL    HW1 6335   4.230   6.554   6.553
 1812SOL    HW2 6336   4.091   6.491   6.608
 1813SOL     OW 6337   5.417   5.206   2.444
 1813SOL    HW1 6338   5.345   5.247   2.500
 1813SOL    HW2 6339   5.429   5.110   2.471
 1814SOL     OW 6340   5.739   0.658   0.410
 1814SOL    HW1 6341   5.656   0.711   0.423
 1814SOL    HW2 6342   5.723   0.585   0.344
 1815SOL     OW 6343   6.318   0.206   2.957
 1815SOL    HW1 6344   6.287   0.166   3.043
 1815SOL    HW2 6345   6.268   0.291   2.940
 1816SOL     OW 6346   3.573   5.051   6.354
 1816SOL    HW1 6347   3.525   5.006   6.278
 1816SOL    HW2 6348   3.664   5.010   6.364
 1817SOL     OW 6349   3.376   0.809   3.155
 1817SOL    HW1 6350   3.343   0.858   3.075
 1817SOL    HW2 6351   3.383   0.711   3.134
 1818SOL     OW 6352   1.639   0.320   0.483
 1818SOL    HW1 6353   1.622   0.317   0.582
 1818SOL    HW2 6354   1.559   0.284   0.435
 1819SOL     OW 6355   1.604   5.342   2.212
 1819SOL    HW1 6356   1.616   5.439   2.233
 1819SOL    HW2 6357   1.522   5.307   2.258
 1820SOL     OW 6358   2.837   0.303   2.150
 1820SOL    HW1 6359   2.790   0.272   2.068
 1820SOL    HW2 6360   2.936   0.296   2.136
 1821SOL     OW 6361   2.550   0.987   2.081
 1821SOL    HW1 6362   2.646   0.974   2.107
 1821SOL    HW2 6363   2.542   1.066   2.020
 1822SOL     OW 6364   0.973   3.267   1.635
 1822SOL    HW1 6365   1.044   3.284   1.704
 1822SOL    HW2 6366   0.931   3.178   1.651
 1823SOL     OW 6367   2.752   6.080   3.102
 1823SOL    HW1 6368   2.683   6.023   3.058
 1823SOL    HW2 6369   2.806   6.127   3.032
 1824SOL     OW 6370   4.080   4.256   0.212
 1824SOL    HW1 6371   4.175   4.269   0.243
 1824SOL    HW2 6372   4.079   4.190   0.138
 1825SOL     OW 6373   0.916   3.053   4.444
 1825SOL    HW1 6374   0.912   3.121   4.517
 1825SOL    HW2 6375   1.007   3.011   4.443
 1826SOL     OW 6376   2.966   0.763   1.245
 1826SOL    HW1 6377   2.896   0.788   1.312
 1826SOL    HW2 6378   2.929   0.696   1.181
 1827SOL     OW 6379   5.552   5.498   1.037
 1827SOL    HW1 6380   5.496   5.465   1.112
 1827SOL    HW2 6381   5.532   5.445   0.954
 1828SOL     OW 6382   1.430   2.662   6.455
 1828SOL    HW1 6383   1.445   2.754   6.491
 1828SOL    HW2 6384   1.345   2.661   6.403
 1829SOL     OW 6385   3.380   6.764   3.270
 1829SOL    HW1 6386   3.456   6.699   3.275
 1829SOL    HW2 6387   3.295   6.718   3.295
 1830SOL     OW 6388   5.796   6.633   4.362
 1830SOL    HW1 6389   5.802   6.716   4.307
 1830SOL    HW2 6390   5.794   6.658   4.459
 1831SOL     OW 6391   4.920   6.168   3.044
 1831SOL    HW1 6392   4.960   6.255   3.074
 1831SOL    HW2 6393   4.986   6.094   3.058
 1832SOL     OW 6394   3.871   2.568   0.327
 1832SOL    HW1 6395   3.805   2.510   0.281
 1832SOL    HW2 6396   3.924   2.514   0.393
 1833SOL     OW 6397   5.257   0.640   1.347
 1833SOL    HW1 6398   5.160   0.620   1.357
 1833SOL    HW2 6399   5.272   0.696   1.266
 1834SOL     OW 6400   2.201   3.825   1.302
 1834SOL    HW1 6401   2.203   3.725   1.289
 1834SOL    HW2 6402   2.190   3.845   1.400
 1835SOL     OW 6403   1.014   4.435   1.628
 1835SOL    HW1 6404   1.074   4.355   1.633
 1835SOL    HW2 6405   0.930   4.411   1.579
 1836SOL     OW 6406   5.662   2.549   1.860
 1836SOL    HW1 6407   5.639   2.458   1.826
 1836SOL    HW2 6408   5.586   2.612   1.843
 1837SOL     OW 6409   1.477   6.981   6.118
 1837SOL    HW1 6410   1.510   0.007   6.037
 1837SOL    HW2 6411   1.496   6.884   6.109
 1838SOL     OW 6412   5.743   0.372   6.140
 1838SOL    HW1 6413   5.835   0.390   6.106
 1838SOL    HW2 6414   5.711   0.450   6.193
 1839SOL     OW 6415   6.201   0.781   5.776
 1839SOL    HW1 6416   6.155   0.855   5.726
 1839SOL    HW2 6417   6.210   0.807   5.872
 1840SOL     OW 6418   3.910   0.150   2.480
 1840SOL    HW1 6419   3.830   0.138   2.539
 1840SOL    HW2 6420   3.940   0.245   2.483
 1841SOL     OW 6421   1.986   0.483   2.971
 1841SOL    HW1 6422   2.077   0.444   2.956
 1841SOL    HW2 6423   1.947   0.512   2.884
 1842SOL     OW 6424   0.891   5.582   0.916
 1842SOL    HW1 6425   0.835   5.515   0.869
 1842SOL    HW2 6426   0.986   5.550   0.919
 1843SOL     OW 6427   5.359   0.431   4.186
 1843SOL    HW1 6428   5.418   0.476   4.253
 1843SOL    HW2 6429   5.406   0.428   4.098
 1844SOL     OW 6430   3.763   1.018   5.209
 1844SOL    HW1 6431   3.845   1.019   5.266
 1844SOL    HW2 6432   3.682   1.031   5.267
 1845SOL     OW 6433   2.822   6.798   4.146
 1845SOL    HW1 6434   2.738   6.811   4.200
 1845SOL    HW2 6435   2.890   6.866   4.174
 1846SOL     OW 6436   4.550   0.863   3.509
 1846SOL    HW1 6437   4.492   0.922   3.452
 1846SOL    HW2 6438   4.495   0.789   3.548
 1847SOL     OW 6439   1.463   0.049   5.590
 1847SOL    HW1 6440   1.369   0.058   5.624
 1847SOL    HW2 6441   1.461   0.041   5.490
 1848SOL     OW 6442   1.821   6.199   3.943
 1848SOL    HW1 6443   1.841   6.244   3.856
 1848SOL    HW2 6444   1.887   6.126   3.959
 1849SOL     OW 6445   4.320   2.422   1.156
 1849SOL    HW1 6446   4.239   2.365   1.168
 1849SOL    HW2 6447   4.403   2.368   1.172
 1850SOL     OW 6448   5.684   1.680   2.583
 1850SOL    HW1 6449   5.614   1.728   2.531
 1850SOL    HW2 6450   5.747   1.746   2.625
 1851SOL     OW 6451   1.454   3.781   6.893
 1851SOL    HW1 6452   1.432   3.827   6.980
 1851SOL    HW2 6453   1.402   3.696   6.887
 1852SOL     OW 6454   0.371   4.816   2.393
 1852SOL    HW1 6455   0.419   4.732   2.369
 1852SOL    HW2 6456   0.424   4.895   2.362
 1853SOL     OW 6457   6.868   2.603   3.187
 1853SOL    HW1 6458   6.863   2.702   3.178
 1853SOL    HW2 6459   6.958   2.571   3.158
 1854SOL     OW 6460   1.872   4.792   2.539
 1854SOL    HW1 6461   1.807   4.770   2.612
 1854SOL    HW2 6462   1.956   4.828   2.579
 1855SOL     OW 6463   5.082   3.139   5.446
 1855SOL    HW1 6464   5.084   3.098   5.537
 1855SOL    HW2 6465   5.107   3.071   5.378
 1856SOL     OW 6466   4.157   3.316   6.378
 1856SOL    HW1 6467   4.212   3.366   6.311
 1856SOL    HW2 6468   4.065   3.355   6.381
 1857SOL     OW 6469   4.445   1.306   0.326
 1857SOL    HW1 6470   4.508   1.278   0.399
 1857SOL    HW2 6471   4.399   1.226   0.289
 1858SOL     OW 6472   5.539   2.256   3.437
 1858SOL    HW1 6473   5.473   2.262   3.512
 1858SOL    HW2 6474   5.502   2.304   3.357
 1859SOL     OW 6475   4.836   1.844   3.660
 1859SOL    HW1 6476   4.874   1.756   3.634
 1859SOL    HW2 6477   4.863   1.914   3.594
 1860SOL     OW 6478   0.235   1.489   5.806
 1860SOL    HW1 6479   0.176   1.413   5.778
 1860SOL    HW2 6480   0.250   1.484   5.905
 1861SOL     OW 6481   4.551   0.783   3.177
 1861SOL    HW1 6482   4.601   0.860   3.136
 1861SOL    HW2 6483   4.604   0.699   3.165
 1862SOL     OW 6484   1.534   6.714   6.874
 1862SOL    HW1 6485   1.566   6.680   6.962
 1862SOL    HW2 6486   1.445   6.673   6.853
 1863SOL     OW 6487   6.697   2.940   1.694
 1863SOL    HW1 6488   6.615   2.950   1.638
 1863SOL    HW2 6489   6.757   3.018   1.679
 1864SOL     OW 6490   3.774   5.835   4.443
 1864SOL    HW1 6491   3.836   5.884   4.505
 1864SOL    HW2 6492   3.680   5.865   4.459
 1865SOL     OW 6493   3.402   1.047   1.353
 1865SOL    HW1 6494   3.502   1.046   1.352
 1865SOL    HW2 6495   3.368   1.016   1.264
 1866SOL     OW 6496   6.544   4.784   3.875
 1866SOL    HW1 6497   6.589   4.763   3.962
 1866SOL    HW2 6498   6.507   4.877   3.878
 1867SOL     OW 6499   2.288   3.287   1.632
 1867SOL    HW1 6500   2.234   3.339   1.566
 1867SOL    HW2 6501   2.326   3.350   1.700
 1868SOL     OW 6502   5.089   3.458   6.358
 1868SOL    HW1 6503   5.090   3.517   6.439
 1868SOL    HW2 6504   5.034   3.376   6.377
 1869SOL     OW 6505   6.244   3.433   4.569
 1869SOL    HW1 6506   6.260   3.465   4.476
 1869SOL    HW2 6507   6.321   3.462   4.627
 1870SOL     OW 6508   1.275   3.007   4.899
 1870SOL    HW1 6509   1.360   3.025   4.849
 1870SOL    HW2 6510   1.290   2.932   4.964
 1871SOL     OW 6511   5.901   6.776   0.403
 1871SOL    HW1 6512   5.932   6.683   0.421
 1871SOL    HW2 6513   5.937   6.837   0.474
 1872SOL     OW 6514   4.091   1.881   0.466
 1872SOL    HW1 6515   4.103   1.950   0.537
 1872SOL    HW2 6516   4.127   1.915   0.380
 1873SOL     OW 6517   6.585   0.641   5.585
 1873SOL    HW1 6518   6.614   0.667   5.492
 1873SOL    HW2 6519   6.485   0.645   5.591
 1874SOL     OW 6520   1.148   0.819   6.726
 1874SOL    HW1 6521   1.058   0.864   6.724
 1874SOL    HW2 6522   1.190   0.826   6.636
 1875SOL     OW 6523   6.522   6.474   0.809
 1875SOL    HW1 6524   6.436   6.427   0.789
 1875SOL    HW2 6525   6.595   6.406   0.823
 1876SOL     OW 6526   4.981   6.163   6.614
 1876SOL    HW1 6527   4.895   6.115   6.633
 1876SOL    HW2 6528   4.964   6.233   6.544
 1877SOL     OW 6529   0.914   1.567   3.337
 1877SOL    HW1 6530   0.863   1.523   3.411
 1877SOL    HW2 6531   1.008   1.582   3.367
 1878SOL     OW 6532   0.176   4.333   3.777
 1878SOL    HW1 6533   0.234   4.309   3.699
 1878SOL    HW2 6534   0.233   4.347   3.858
 1879SOL     OW 6535   2.630   5.791   3.676
 1879SOL    HW1 6536   2.585   5.849   3.744
 1879SOL    HW2 6537   2.568   5.775   3.600
 1880SOL     OW 6538   0.740   2.563   3.168
 1880SOL    HW1 6539   0.654   2.585   3.122
 1880SOL    HW2 6540   0.802   2.518   3.103
 1881SOL     OW 6541   1.174   1.607   3.512
 1881SOL    HW1 6542   1.145   1.618   3.607
 1881SOL    HW2 6543   1.219   1.519   3.501
 1882SOL     OW 6544   0.825   5.289   6.843
 1882SOL    HW1 6545   0.764   5.366   6.830
 1882SOL    HW2 6546   0.837   5.240   6.756
 1883SOL     OW 6547   0.919   3.528   3.587
 1883SOL    HW1 6548   0.877   3.437   3.580
 1883SOL    HW2 6549   0.885   3.586   3.513
 1884SOL     OW 6550   5.642   1.806   0.964
 1884SOL    HW1 6551   5.737   1.834   0.978
 1884SOL    HW2 6552   5.604   1.773   1.051
 1885SOL     OW 6553   0.150   2.109   0.727
 1885SOL    HW1 6554   0.211   2.188   0.733
 1885SOL    HW2 6555   0.084   2.111   0.801
 1886SOL     OW 6556   1.731   1.971   0.066
 1886SOL    HW1 6557   1.670   1.892   0.066
 1886SOL    HW2 6558   1.757   1.994   0.159
 1887SOL     OW 6559   0.516   4.171   5.850
 1887SOL    HW1 6560   0.542   4.076   5.830
 1887SOL    HW2 6561   0.432   4.172   5.905
 1888SOL     OW 6562   2.202   1.857   6.377
 1888SOL    HW1 6563   2.277   1.915   6.408
 1888SOL    HW2 6564   2.122   1.913   6.358
 1889SOL     OW 6565   4.405   3.571   6.677
 1889SOL    HW1 6566   4.397   3.506   6.601
 1889SOL    HW2 6567   4.315   3.609   6.698
 1890SOL     OW 6568   1.548   5.862   5.917
 1890SOL    HW1 6569   1.489   5.885   5.839
 1890SOL    HW2 6570   1.626   5.808   5.884
 1891SOL     OW 6571   5.374   3.509   4.204
 1891SOL    HW1 6572   5.463   3.466   4.221
 1891SOL    HW2 6573   5.306   3.437   4.188
 1892SOL     OW 6574   3.660   6.593   0.927
 1892SOL    HW1 6575   3.723   6.523   0.961
 1892SOL    HW2 6576   3.566   6.560   0.936
 1893SOL     OW 6577   3.809   2.157   4.990
 1893SOL    HW1 6578   3.778   2.193   5.078
 1893SOL    HW2 6579   3.733   2.156   4.925
 1894SOL     OW 6580   4.349   3.871   1.571
 1894SOL    HW1 6581   4.389   3.811   1.502
 1894SOL    HW2 6582   4.314   3.815   1.647
 1895SOL     OW 6583   5.885   0.601   2.773
 1895SOL    HW1 6584   5.970   0.618   2.823
 1895SOL    HW2 6585   5.875   0.669   2.700
 1896SOL     OW 6586   0.014   0.943   3.326
 1896SOL    HW1 6587   6.984   0.974   3.405
 1896SOL    HW2 6588   6.975   0.925   3.249
 1897SOL     OW 6589   0.021   5.371   3.243
 1897SOL    HW1 6590   0.023   5.290   3.302
 1897SOL    HW2 6591   6.951   5.388   3.212
 1898SOL     OW 6592   3.255   5.996   1.818
 1898SOL    HW1 6593   3.206   5.923   1.866
 1898SOL    HW2 6594   3.273   6.071   1.882
 1899SOL     OW 6595   1.188   2.585   2.892
 1899SOL    HW1 6596   1.256   2.533   2.944
 1899SOL    HW2 6597   1.135   2.642   2.955
 1900SOL     OW 6598   0.925   0.440   5.795
 1900SOL    HW1 6599   1.017   0.445   5.756
 1900SOL    HW2 6600   0.885   0.351   5.774
 1901SOL     OW 6601   2.363   1.516   1.304
 1901SOL    HW1 6602   2.296   1.465   1.251
 1901SOL    HW2 6603   2.453   1.475   1.292
 1902SOL     OW 6604   2.307   2.154   4.744
 1902SOL    HW1 6605   2.375   2.217   4.707
 1902SOL    HW2 6606   2.303   2.073   4.685
 1903SOL     OW 6607   0.069   3.932   3.688
 1903SOL    HW1 6608   0.115   3.976   3.765
 1903SOL    HW2 6609   0.096   3.976   3.602
 1904SOL     OW 6610   6.520   0.198   3.844
 1904SOL    HW1 6611   6.553   0.280   3.797
 1904SOL    HW2 6612   6.420   0.200   3.848
 1905SOL     OW 6613   0.634   1.986   3.976
 1905SOL    HW1 6614   0.708   2.048   4.002
 1905SOL    HW2 6615   0.622   1.917   4.047
 1906SOL     OW 6616   2.694   6.760   5.384
 1906SOL    HW1 6617   2.680   6.801   5.294
 1906SOL    HW2 6618   2.767   6.692   5.377
 1907SOL     OW 6619   3.133   6.663   3.342
 1907SOL    HW1 6620   3.107   6.593   3.407
 1907SOL    HW2 6621   3.140   6.623   3.250
 1908SOL     OW 6622   4.726   0.906   4.895
 1908SOL    HW1 6623   4.768   0.921   4.806
 1908SOL    HW2 6624   4.724   0.992   4.947
 1909SOL     OW 6625   1.871   3.885   2.938
 1909SOL    HW1 6626   1.960   3.847   2.963
 1909SOL    HW2 6627   1.807   3.876   3.014
 1910SOL     OW 6628   5.925   2.102   6.564
 1910SOL    HW1 6629   5.916   2.198   6.538
 1910SOL    HW2 6630   5.858   2.080   6.635
 1911SOL     OW 6631   5.725   1.996   5.794
 1911SOL    HW1 6632   5.691   2.087   5.769
 1911SOL    HW2 6633   5.651   1.929   5.787
 1912SOL     OW 6634   4.076   6.632   1.856
 1912SOL    HW1 6635   4.046   6.650   1.762
 1912SOL    HW2 6636   4.152   6.568   1.855
 1913SOL     OW 6637   1.659   6.433   5.539
 1913SOL    HW1 6638   1.695   6.345   5.509
 1913SOL    HW2 6639   1.689   6.451   5.633
 1914SOL     OW 6640   2.964   2.980   0.219
 1914SOL    HW1 6641   2.959   3.040   0.139
 1914SOL    HW2 6642   2.946   3.034   0.301
 1915SOL     OW 6643   3.769   1.236   5.593
 1915SOL    HW1 6644   3.706   1.180   5.647
 1915SOL    HW2 6645   3.820   1.178   5.530
 1916SOL     OW 6646   3.053   5.614   0.735
 1916SOL    HW1 6647   2.981   5.678   0.707
 1916SOL    HW2 6648   3.086   5.639   0.826
 1917SOL     OW 6649   3.808   2.989   4.550
 1917SOL    HW1 6650   3.785   2.952   4.460
 1917SOL    HW2 6651   3.895   3.038   4.545
 1918SOL     OW 6652   6.585   0.008   0.038
 1918SOL    HW1 6653   6.550   6.958   7.002
 1918SOL    HW2 6654   6.606   0.089   7.005
 1919SOL     OW 6655   1.692   6.806   2.395
 1919SOL    HW1 6656   1.778   6.853   2.376
 1919SOL    HW2 6657   1.620   6.843   2.336
 1920SOL     OW 6658   0.758   5.047   3.604
 1920SOL    HW1 6659   0.708   5.073   3.521
 1920SOL    HW2 6660   0.841   4.998   3.578
 1921SOL     OW 6661   1.177   4.130   0.046
 1921SOL    HW1 6662   1.250   4.197   0.057
 1921SOL    HW2 6663   1.200   4.066   6.995
 1922SOL     OW 6664   3.785   4.188   1.092
 1922SOL    HW1 6665   3.853   4.131   1.046
 1922SOL    HW2 6666   3.788   4.281   1.055
 1923SOL     OW 6667   3.363   0.460   6.930
 1923SOL    HW1 6668   3.326   0.450   6.838
 1923SOL    HW2 6669   3.347   0.376   6.981
 1924SOL     OW 6670   5.642   5.473   2.215
 1924SOL    HW1 6671   5.667   5.396   2.274
 1924SOL    HW2 6672   5.644   5.443   2.119
 1925SOL     OW 6673   2.997   3.742   2.073
 1925SOL    HW1 6674   2.933   3.788   2.012
 1925SOL    HW2 6675   3.024   3.654   2.033
 1926SOL     OW 6676   0.883   6.666   3.981
 1926SOL    HW1 6677   0.809   6.632   3.923
 1926SOL    HW2 6678   0.907   6.598   4.049
 1927SOL     OW 6679   3.615   5.321   6.403
 1927SOL    HW1 6680   3.710   5.338   6.427
 1927SOL    HW2 6681   3.600   5.222   6.394
 1928SOL     OW 6682   6.743   3.424   6.084
 1928SOL    HW1 6683   6.843   3.427   6.082
 1928SOL    HW2 6684   6.707   3.517   6.091
 1929SOL     OW 6685   0.897   6.262   1.128
 1929SOL    HW1 6686   0.859   6.187   1.075
 1929SOL    HW2 6687   0.933   6.227   1.215
 1930SOL     OW 6688   4.104   3.986   0.080
 1930SOL    HW1 6689   4.140   3.947   7.019
 1930SOL    HW2 6690   4.010   3.955   0.094
 1931SOL     OW 6691   0.142   3.140   3.475
 1931SOL    HW1 6692   0.049   3.140   3.511
 1931SOL    HW2 6693   0.207   3.121   3.549
 1932SOL     OW 6694   5.221   4.327   1.974
 1932SOL    HW1 6695   5.297   4.322   1.910
 1932SOL    HW2 6696   5.237   4.402   2.039
 1933SOL     OW 6697   3.403   4.132   0.272
 1933SOL    HW1 6698   3.310   4.097   0.284
 1933SOL    HW2 6699   3.467   4.055   0.266
 1934SOL     OW 6700   0.278   0.623   5.007
 1934SOL    HW1 6701   0.192   0.618   4.957
 1934SOL    HW2 6702   0.268   0.574   5.094
 1935SOL     OW 6703   3.356   0.708   4.887
 1935SOL    HW1 6704   3.294   0.648   4.838
 1935SOL    HW2 6705   3.432   0.733   4.827
 1936SOL     OW 6706   6.149   4.093   4.152
 1936SOL    HW1 6707   6.248   4.098   4.145
 1936SOL    HW2 6708   6.111   4.186   4.151
 1937SOL     OW 6709   4.704   6.620   0.852
 1937SOL    HW1 6710   4.703   6.551   0.924
 1937SOL    HW2 6711   4.798   6.638   0.825
 1938SOL     OW 6712   4.099   1.149   2.743
 1938SOL    HW1 6713   4.146   1.121   2.659
 1938SOL    HW2 6714   4.018   1.092   2.755
 1939SOL     OW 6715   0.246   6.537   4.780
 1939SOL    HW1 6716   0.287   6.611   4.726
 1939SOL    HW2 6717   0.286   6.536   4.871
 1940SOL     OW 6718   5.024   4.993   6.409
 1940SOL    HW1 6719   5.004   5.088   6.433
 1940SOL    HW2 6720   4.980   4.932   6.475
 1941SOL     OW 6721   0.347   4.038   2.957
 1941SOL    HW1 6722   0.281   4.112   2.969
 1941SOL    HW2 6723   0.403   4.029   3.039
 1942SOL     OW 6724   6.133   0.742   2.988
 1942SOL    HW1 6725   6.198   0.817   2.990
 1942SOL    HW2 6726   6.107   0.717   3.081
 1943SOL     OW 6727   2.392   6.534   2.389
 1943SOL    HW1 6728   2.441   6.616   2.417
 1943SOL    HW2 6729   2.418   6.458   2.449
 1944SOL     OW 6730   5.331   1.980   6.874
 1944SOL    HW1 6731   5.239   1.980   6.835
 1944SOL    HW2 6732   5.328   2.024   6.964
 1945SOL     OW 6733   4.036   5.877   2.151
 1945SOL    HW1 6734   4.022   5.861   2.249
 1945SOL    HW2 6735   3.955   5.922   2.113
 1946SOL     OW 6736   5.679   0.781   0.974
 1946SOL    HW1 6737   5.680   0.848   0.900
 1946SOL    HW2 6738   5.604   0.717   0.961
 1947SOL     OW 6739   4.757   6.572   3.904
 1947SOL    HW1 6740   4.663   6.596   3.879
 1947SOL    HW2 6741   4.769   6.580   4.003
 1948SOL     OW 6742   6.122   6.056   4.110
 1948SOL    HW1 6743   6.075   6.096   4.190
 1948SOL    HW2 6744   6.149   5.963   4.131
 1949SOL     OW 6745   4.078   4.336   5.926
 1949SOL    HW1 6746   4.000   4.312   5.869
 1949SOL    HW2 6747   4.093   4.264   5.994
 1950SOL     OW 6748   3.303   4.891   1.082
 1950SOL    HW1 6749   3.376   4.895   1.014
 1950SOL    HW2 6750   3.219   4.859   1.039
 1951SOL     OW 6751   6.132   3.849   0.909
 1951SOL    HW1 6752   6.048   3.897   0.934
 1951SOL    HW2 6753   6.159   3.873   0.816
 1952SOL     OW 6754   3.730   1.915   0.461
 1952SOL    HW1 6755   3.744   1.978   0.385
 1952SOL    HW2 6756   3.769   1.954   0.544
 1953SOL     OW 6757   6.506   3.062   0.050
 1953SOL    HW1 6758   6.410   3.083   0.030
 1953SOL    HW2 6759   6.537   3.119   0.127
 1954SOL     OW 6760   5.408   0.773   4.085
 1954SOL    HW1 6761   5.502   0.762   4.118
 1954SOL    HW2 6762   5.407   0.768   3.985
 1955SOL     OW 6763   1.103   1.092   2.672
 1955SOL    HW1 6764   1.200   1.110   2.690
 1955SOL    HW2 6765   1.068   1.029   2.742
 1956SOL     OW 6766   5.447   0.341   2.320
 1956SOL    HW1 6767   5.523   0.364   2.382
 1956SOL    HW2 6768   5.365   0.323   2.374
 1957SOL     OW 6769   6.358   5.797   5.221
 1957SOL    HW1 6770   6.435   5.735   5.235
 1957SOL    HW2 6771   6.302   5.800   5.304
 1958SOL     OW 6772   5.783   2.863   2.731
 1958SOL    HW1 6773   5.717   2.920   2.682
 1958SOL    HW2 6774   5.865   2.851   2.676
 1959SOL     OW 6775   0.309   1.422   6.077
 1959SOL    HW1 6776   0.335   1.499   6.135
 1959SOL    HW2 6777   0.392   1.374   6.046
 1960SOL     OW 6778   0.068   4.108   1.176
 1960SOL    HW1 6779   7.008   4.069   1.136
 1960SOL    HW2 6780   0.078   4.076   1.270
 1961SOL     OW 6781   5.785   4.822   4.378
 1961SOL    HW1 6782   5.843   4.751   4.340
 1961SOL    HW2 6783   5.750   4.793   4.468
 1962SOL     OW 6784   2.345   6.831   3.440
 1962SOL    HW1 6785   2.246   6.831   3.450
 1962SOL    HW2 6786   2.371   6.893   3.366
 1963SOL     OW 6787   0.910   1.147   1.429
 1963SOL    HW1 6788   0.894   1.072   1.365
 1963SOL    HW2 6789   0.823   1.181   1.465
 1964SOL     OW 6790   4.611   3.275   1.690
 1964SOL    HW1 6791   4.624   3.176   1.698
 1964SOL    HW2 6792   4.669   3.322   1.756
 1965SOL     OW 6793   1.149   3.396   3.923
 1965SOL    HW1 6794   1.093   3.468   3.964
 1965SOL    HW2 6795   1.242   3.431   3.909
 1966SOL     OW 6796   6.850   6.142   5.924
 1966SOL    HW1 6797   6.772   6.091   5.959
 1966SOL    HW2 6798   6.825   6.184   5.836
 1967SOL     OW 6799   4.774   2.453   4.736
 1967SOL    HW1 6800   4.708   2.399   4.684
 1967SOL    HW2 6801   4.848   2.482   4.676
 1968SOL     OW 6802   3.494   6.336   0.520
 1968SOL    HW1 6803   3.460   6.414   0.572
 1968SOL    HW2 6804   3.520   6.263   0.583
 1969SOL     OW 6805   0.599   2.012   1.961
 1969SOL    HW1 6806   0.583   2.067   2.043
 1969SOL    HW2 6807   0.691   1.972   1.966
 1970SOL     OW 6808   2.330   0.058   6.098
 1970SOL    HW1 6809   2.247   0.053   6.154
 1970SOL    HW2 6810   2.348   0.154   6.075
 1971SOL     OW 6811   0.278   0.518   6.103
 1971SOL    HW1 6812   0.206   0.552   6.164
 1971SOL    HW2 6813   0.238   0.494   6.015
 1972SOL     OW 6814   5.485   2.643   2.831
 1972SOL    HW1 6815   5.553   2.685   2.891
 1972SOL    HW2 6816   5.408   2.610   2.886
 1973SOL     OW 6817   2.625   3.170   0.637
 1973SOL    HW1 6818   2.671   3.257   0.617
 1973SOL    HW2 6819   2.536   3.189   0.680
 1974SOL     OW 6820   5.606   6.287   4.125
 1974SOL    HW1 6821   5.583   6.364   4.065
 1974SOL    HW2 6822   5.697   6.302   4.164
 1975SOL     OW 6823   2.557   1.505   3.057
 1975SOL    HW1 6824   2.480   1.444   3.040
 1975SOL    HW2 6825   2.561   1.527   3.154
 1976SOL     OW 6826   0.184   6.002   0.532
 1976SOL    HW1 6827   0.164   5.973   0.438
 1976SOL    HW2 6828   0.172   6.101   0.540
 1977SOL     OW 6829   1.082   3.053   3.613
 1977SOL    HW1 6830   1.101   3.017   3.704
 1977SOL    HW2 6831   1.147   3.126   3.591
 1978SOL     OW 6832   0.759   1.137   3.330
 1978SOL    HW1 6833   0.780   1.164   3.236
 1978SOL    HW2 6834   0.713   1.212   3.377
 1979SOL     OW 6835   6.372   4.373   5.497
 1979SOL    HW1 6836   6.453   4.315   5.504
 1979SOL    HW2 6837   6.356   4.396   5.401
 1980SOL     OW 6838   2.911   0.815   5.991
 1980SOL    HW1 6839   2.931   0.791   5.895
 1980SOL    HW2 6840   2.841   0.753   6.027
 1981SOL     OW 6841   6.351   2.418   2.642
 1981SOL    HW1 6842   6.301   2.369   2.713
 1981SOL    HW2 6843   6.317   2.390   2.552
 1982SOL     OW 6844   0.256   3.802   5.159
 1982SOL    HW1 6845   0.196   3.772   5.085
 1982SOL    HW2 6846   0.328   3.735   5.173
 1983SOL     OW 6847   0.593   1.344   2.854
 1983SOL    HW1 6848   0.543   1.311   2.774
 1983SOL    HW2 6849   0.529   1.365   2.928
 1984SOL     OW 6850   5.943   1.675   4.623
 1984SOL    HW1 6851   6.031   1.628   4.638
 1984SOL    HW2 6852   5.874   1.633   4.682
 1985SOL     OW 6853   1.070   6.895   2.748
 1985SOL    HW1 6854   1.096   6.945   2.830
 1985SOL    HW2 6855   0.987   6.841   2.766
 1986SOL     OW 6856   1.629   0.425   0.057
 1986SOL    HW1 6857   1.545   0.453   0.010
 1986SOL    HW2 6858   1.609   0.351   0.121
 1987SOL     OW 6859   0.912   2.866   0.934
 1987SOL    HW1 6860   0.932   2.780   0.887
 1987SOL    HW2 6861   0.825   2.858   0.984
 1988SOL     OW 6862   5.542   4.834   0.982
 1988SOL    HW1 6863   5.532   4.841   0.883
 1988SOL    HW2 6864   5.531   4.924   1.024
 1989SOL     OW 6865   2.253   6.527   4.478
 1989SOL    HW1 6866   2.321   6.573   4.534
 1989SOL    HW2 6867   2.179   6.590   4.457
 1990SOL     OW 6868   3.283   6.191   0.393
 1990SOL    HW1 6869   3.279   6.096   0.424
 1990SOL    HW2 6870   3.354   6.239   0.444
 1991SOL     OW 6871   4.459   4.847   6.585
 1991SOL    HW1 6872   4.553   4.874   6.566
 1991SOL    HW2 6873   4.398   4.893   6.520
 1992SOL     OW 6874   0.787   0.436   6.841
 1992SOL    HW1 6875   0.763   0.470   6.750
 1992SOL    HW2 6876   0.784   0.511   6.907
 1993SOL     OW 6877   3.676   3.199   4.664
 1993SOL    HW1 6878   3.738   3.126   4.635
 1993SOL    HW2 6879   3.716   3.246   4.743
 1994SOL     OW 6880   1.140   1.422   0.244
 1994SOL    HW1 6881   1.045   1.446   0.264
 1994SOL    HW2 6882   1.164   1.337   0.290
 1995SOL     OW 6883   5.842   2.360   2.386
 1995SOL    HW1 6884   5.822   2.370   2.288
 1995SOL    HW2 6885   5.835   2.449   2.430
 1996SOL     OW 6886   2.477   3.790   0.635
 1996SOL    HW1 6887   2.415   3.716   0.611
 1996SOL    HW2 6888   2.443   3.838   0.716
 1997SOL     OW 6889   4.369   0.734   4.792
 1997SOL    HW1 6890   4.311   0.684   4.727
 1997SOL    HW2 6891   4.428   0.797   4.741
 1998SOL     OW 6892   3.299   3.716   5.998
 1998SOL    HW1 6893   3.318   3.664   5.915
 1998SOL    HW2 6894   3.333   3.666   6.078
 1999SOL     OW 6895   3.657   6.452   1.401
 1999SOL    HW1 6896   3.684   6.361   1.432
 1999SOL    HW2 6897   3.598   6.494   1.470
 2000SOL     OW 6898   4.375   2.144   5.029
 2000SOL    HW1 6899   4.384   2.131   4.930
 2000SOL    HW2 6900   4.466   2.154   5.069
 2001SOL     OW 6901   3.416   1.379   1.969
 2001SOL    HW1 6902   3.427   1.358   2.066
 2001SOL    HW2 6903   3.482   1.325   1.915
 2002SOL     OW 6904   0.828   4.650   5.656
 2002SOL    HW1 6905   0.781   4.577   5.706
 2002SOL    HW2 6906   0.869   4.714   5.721
 2003SOL     OW 6907   5.835   6.651   3.523
 2003SOL    HW1 6908   5.751   6.659   3.577
 2003SOL    HW2 6909   5.873   6.742   3.506
 2004SOL     OW 6910   4.206   1.352   5.128
 2004SOL    HW1 6911   4.180   1.259   5.105
 2004SOL    HW2 6912   4.203   1.409   5.046
 2005SOL     OW 6913   1.154   4.457   6.946
 2005SOL    HW1 6914   1.240   4.424   6.985
 2005SOL    HW2 6915   1.078   4.426   7.002
 2006SOL     OW 6916   5.305   5.131   4.222
 2006SOL    HW1 6917   5.329   5.034   4.217
 2006SOL    HW2 6918   5.388   5.185   4.236
 2007SOL     OW 6919   4.426   5.008   1.018
 2007SOL    HW1 6920   4.448   5.041   0.926
 2007SOL    HW2 6921   4.356   5.066   1.059
 2008SOL     OW 6922   1.559   5.358   3.175
 2008SOL    HW1 6923   1.584   5.424   3.246
 2008SOL    HW2 6924   1.640   5.306   3.148
 2009SOL     OW 6925   5.989   0.112   1.754
 2009SOL    HW1 6926   6.008   0.045   1.826
 2009SOL    HW2 6927   5.952   0.067   1.674
 2010SOL     OW 6928   1.866   1.736   0.831
 2010SOL    HW1 6929   1.941   1.794   0.862
 2010SOL    HW2 6930   1.902   1.647   0.802
 2011SOL     OW 6931   6.613   1.464   5.091
 2011SOL    HW1 6932   6.581   1.464   4.996
 2011SOL    HW2 6933   6.704   1.423   5.096
 2012SOL     OW 6934   1.597   2.947   1.660
 2012SOL    HW1 6935   1.664   2.884   1.698
 2012SOL    HW2 6936   1.523   2.896   1.617
 2013SOL     OW 6937   6.185   1.251   3.386
 2013SOL    HW1 6938   6.200   1.201   3.300
 2013SOL    HW2 6939   6.162   1.346   3.365
 2014SOL     OW 6940   2.204   5.244   2.617
 2014SOL    HW1 6941   2.177   5.218   2.525
 2014SOL    HW2 6942   2.299   5.275   2.617
 2015SOL     OW 6943   2.452   1.427   0.415
 2015SOL    HW1 6944   2.352   1.418   0.409
 2015SOL    HW2 6945   2.489   1.450   0.325
 2016SOL     OW 6946   0.947   5.189   5.149
 2016SOL    HW1 6947   0.974   5.176   5.053
 2016SOL    HW2 6948   0.922   5.100   5.189
 2017SOL     OW 6949   2.380   6.866   4.314
 2017SOL    HW1 6950   2.336   6.843   4.228
 2017SOL    HW2 6951   2.435   6.789   4.346
 2018SOL     OW 6952   5.809   6.861   5.838
 2018SOL    HW1 6953   5.785   6.905   5.752
 2018SOL    HW2 6954   5.726   6.841   5.890
 2019SOL     OW 6955   4.695   2.317   2.280
 2019SOL    HW1 6956   4.684   2.377   2.201
 2019SOL    HW2 6957   4.792   2.304   2.299
 2020SOL     OW 6958   0.503   5.744   5.107
 2020SOL    HW1 6959   0.493   5.649   5.079
 2020SOL    HW2 6960   0.438   5.801   5.057
 2021SOL     OW 6961   2.222   5.569   3.031
 2021SOL    HW1 6962   2.175   5.568   3.119
 2021SOL    HW2 6963   2.212   5.479   2.987
 2022SOL     OW 6964   1.810   3.358   3.097
 2022SOL    HW1 6965   1.728   3.325   3.144
 2022SOL    HW2 6966   1.880   3.286   3.097
 2023SOL     OW 6967   6.385   0.716   6.341
 2023SOL    HW1 6968   6.361   0.648   6.410
 2023SOL    HW2 6969   6.393   0.672   6.251
 2024SOL     OW 6970   6.792   0.084   3.409
 2024SOL    HW1 6971   6.890   0.067   3.419
 2024SOL    HW2 6972   6.754   0.113   3.497
 2025SOL     OW 6973   2.521   2.419   2.379
 2025SOL    HW1 6974   2.461   2.345   2.410
 2025SOL    HW2 6975   2.605   2.380   2.341
 2026SOL     OW 6976   0.557   2.974   6.185
 2026SOL    HW1 6977   0.578   3.009   6.094
 2026SOL    HW2 6978   0.619   3.014   6.252
 2027SOL     OW 6979   0.895   0.911   0.480
 2027SOL    HW1 6980   0.852   0.931   0.568
 2027SOL    HW2 6981   0.892   0.992   0.422
 2028SOL     OW 6982   2.862   1.064   6.085
 2028SOL    HW1 6983   2.838   1.093   5.993
 2028SOL    HW2 6984   2.881   0.966   6.085
 2029SOL     OW 6985   6.216   0.776   0.956
 2029SOL    HW1 6986   6.170   0.832   1.025
 2029SOL    HW2 6987   6.251   0.692   0.999
 2030SOL     OW 6988   1.965   0.568   3.234
 2030SOL    HW1 6989   1.889   0.624   3.267
 2030SOL    HW2 6990   1.949   0.542   3.139
 2031SOL     OW 6991   6.044   6.264   2.013
 2031SOL    HW1 6992   6.127   6.227   2.054
 2031SOL    HW2 6993   6.038   6.362   2.031
 2032SOL     OW 6994   4.364   6.440   1.536
 2032SOL    HW1 6995   4.338   6.521   1.588
 2032SOL    HW2 6996   4.335   6.450   1.441
 2033SOL     OW 6997   3.559   4.105   0.031
 2033SOL    HW1 6998   3.478   4.150   0.067
 2033SOL    HW2 6999   3.539   4.066   6.964
 2034SOL     OW 7000   3.348   6.522   4.639
 2034SOL    HW1 7001   3.290   6.508   4.719
 2034SOL    HW2 7002   3.310   6.473   4.561
 2035SOL     OW 7003   6.829   0.694   1.968
 2035SOL    HW1 7004   6.761   0.702   2.040
 2035SOL    HW2 7005   6.860   0.785   1.941
 2036SOL     OW 7006   0.959   5.361   2.916
 2036SOL    HW1 7007   1.025   5.426   2.878
 2036SOL    HW2 7008   0.968   5.273   2.869
 2037SOL     OW 7009   0.650   2.720   5.568
 2037SOL    HW1 7010   0.603   2.680   5.646
 2037SOL    HW2 7011   0.582   2.749   5.500
 2038SOL     OW 7012   1.689   2.087   6.761
 2038SOL    HW1 7013   1.639   2.173   6.778
 2038SOL    HW2 7014   1.756   2.073   6.833
 2039SOL     OW 7015   0.884   5.384   3.496
 2039SOL    HW1 7016   0.893   5.402   3.398
 2039SOL    HW2 7017   0.788   5.391   3.523
 2040SOL     OW 7018   3.777   2.777   5.269
 2040SOL    HW1 7019   3.679   2.755   5.264
 2040SOL    HW2 7020   3.797   2.853   5.208
 2041SOL     OW 7021   0.015   5.771   5.604
 2041SOL    HW1 7022   0.063   5.765   5.691
 2041SOL    HW2 7023   0.073   5.734   5.531
 2042SOL     OW 7024   5.969   4.567   6.818
 2042SOL    HW1 7025   5.935   4.548   6.911
 2042SOL    HW2 7026   6.031   4.645   6.821
 2043SOL     OW 7027   6.319   4.131   2.915
 2043SOL    HW1 7028   6.310   4.194   2.838
 2043SOL    HW2 7029   6.234   4.078   2.926
 2044SOL     OW 7030   5.210   6.936   1.167
 2044SOL    HW1 7031   5.158   6.853   1.152
 2044SOL    HW2 7032   5.266   6.926   1.250
 2045SOL     OW 7033   3.189   4.914   3.941
 2045SOL    HW1 7034   3.160   5.009   3.937
 2045SOL    HW2 7035   3.110   4.854   3.926
 2046SOL     OW 7036   0.125   1.401   4.001
 2046SOL    HW1 7037   0.186   1.322   3.993
 2046SOL    HW2 7038   0.121   1.449   3.914
 2047SOL     OW 7039   5.536   2.291   0.266
 2047SOL    HW1 7040   5.592   2.354   0.321
 2047SOL    HW2 7041   5.493   2.224   0.326
 2048SOL     OW 7042   1.469   5.781   0.545
 2048SOL    HW1 7043   1.403   5.723   0.592
 2048SOL    HW2 7044   1.459   5.876   0.578
 2049SOL     OW 7045   4.931   1.728   6.497
 2049SOL    HW1 7046   4.872   1.803   6.465
 2049SOL    HW2 7047   4.894   1.641   6.465
 2050SOL     OW 7048   0.386   3.016   2.755
 2050SOL    HW1 7049   0.445   3.088   2.791
 2050SOL    HW2 7050   0.292   3.032   2.785
 2051SOL     OW 7051   1.097   6.052   0.768
 2051SOL    HW1 7052   1.066   6.144   0.790
 2051SOL    HW2 7053   1.060   6.024   0.679
 2052SOL     OW 7054   1.018   4.172   0.944
 2052SOL    HW1 7055   1.025   4.092   1.004
 2052SOL    HW2 7056   0.924   4.184   0.915
 2053SOL     OW 7057   5.578   6.874   4.765
 2053SOL    HW1 7058   5.530   6.857   4.850
 2053SOL    HW2 7059   5.590   6.788   4.715
 2054SOL     OW 7060   4.002   3.119   1.998
 2054SOL    HW1 7061   4.029   3.172   2.078
 2054SOL    HW2 7062   3.966   3.030   2.026
 2055SOL     OW 7063   6.411   3.372   3.814
 2055SOL    HW1 7064   6.351   3.303   3.773
 2055SOL    HW2 7065   6.430   3.348   3.909
 2056SOL     OW 7066   2.267   0.460   2.953
 2056SOL    HW1 7067   2.299   0.466   3.047
 2056SOL    HW2 7068   2.304   0.378   2.909
 2057SOL     OW 7069   5.517   3.291   3.738
 2057SOL    HW1 7070   5.514   3.345   3.654
 2057SOL    HW2 7071   5.425   3.286   3.778
 2058SOL     OW 7072   1.003   1.930   3.123
 2058SOL    HW1 7073   0.987   1.887   3.212
 2058SOL    HW2 7074   1.033   1.861   3.057
 2059SOL     OW 7075   2.944   6.115   5.987
 2059SOL    HW1 7076   3.040   6.091   5.999
 2059SOL    HW2 7077   2.887   6.050   6.038
 2060SOL     OW 7078   6.064   4.679   0.618
 2060SOL    HW1 7079   6.063   4.609   0.546
 2060SOL    HW2 7080   6.020   4.762   0.584
 2061SOL     OW 7081   0.260   1.778   3.477
 2061SOL    HW1 7082   0.295   1.716   3.547
 2061SOL    HW2 7083   0.327   1.850   3.460
 2062SOL     OW 7084   6.116   0.479   3.556
 2062SOL    HW1 7085   6.199   0.514   3.513
 2062SOL    HW2 7086   6.137   0.446   3.648
 2063SOL     OW 7087   1.727   6.949   6.356
 2063SOL    HW1 7088   1.651   6.995   6.403
 2063SOL    HW2 7089   1.763   7.009   6.285
 2064SOL     OW 7090   0.899   2.622   5.498
 2064SOL    HW1 7091   0.813   2.648   5.544
 2064SOL    HW2 7092   0.880   2.551   5.430
 2065SOL     OW 7093   6.616   2.522   4.915
 2065SOL    HW1 7094   6.608   2.604   4.859
 2065SOL    HW2 7095   6.533   2.467   4.907
 2066SOL     OW 7096   1.156   5.103   3.856
 2066SOL    HW1 7097   1.241   5.073   3.899
 2066SOL    HW2 7098   1.079   5.051   3.894
 2067SOL     OW 7099   6.679   5.666   0.972
 2067SOL    HW1 7100   6.706   5.581   1.016
 2067SOL    HW2 7101   6.616   5.647   0.896
 2068SOL     OW 7102   1.576   1.405   4.794
 2068SOL    HW1 7103   1.532   1.382   4.881
 2068SOL    HW2 7104   1.671   1.431   4.810
 2069SOL     OW 7105   0.751   3.257   3.043
 2069SOL    HW1 7106   0.714   3.173   3.083
 2069SOL    HW2 7107   0.847   3.268   3.069
 2070SOL     OW 7108   1.416   1.142   2.052
 2070SOL    HW1 7109   1.318   1.161   2.062
 2070SOL    HW2 7110   1.443   1.070   2.115
 2071SOL     OW 7111   5.881   5.744   5.428
 2071SOL    HW1 7112   5.867   5.839   5.400
 2071SOL    HW2 7113   5.816   5.685   5.382
 2072SOL     OW 7114   4.175   6.848   3.067
 2072SOL    HW1 7115   4.188   6.752   3.092
 2072SOL    HW2 7116   4.220   6.906   3.134
 2073SOL     OW 7117   3.655   6.920   4.281
 2073SOL    HW1 7118   3.657   6.887   4.375
 2073SOL    HW2 7119   3.562   6.945   4.256
 2074SOL     OW 7120   1.826   2.802   0.417
 2074SOL    HW1 7121   1.730   2.780   0.398
 2074SOL    HW2 7122   1.885   2.748   0.357
 2075SOL     OW 7123   5.571   3.255   1.423
 2075SOL    HW1 7124   5.542   3.186   1.490
 2075SOL    HW2 7125   5.539   3.345   1.451
 2076SOL     OW 7126   5.407   0.243   6.397
 2076SOL    HW1 7127   5.320   0.210   6.360
 2076SOL    HW2 7128   5.455   0.167   6.441
 2077SOL     OW 7129   5.454   2.668   2.570
 2077SOL    HW1 7130   5.441   2.676   2.669
 2077SOL    HW2 7131   5.386   2.723   2.523
 2078SOL     OW 7132   1.152   5.385   5.772
 2078SOL    HW1 7133   1.062   5.347   5.793
 2078SOL    HW2 7134   1.141   5.468   5.717
 2079SOL     OW 7135   5.384   2.460   4.022
 2079SOL    HW1 7136   5.308   2.416   4.071
 2079SOL    HW2 7137   5.466   2.403   4.030
 2080SOL     OW 7138   1.507   0.791   4.954
 2080SOL    HW1 7139   1.548   0.783   5.045
 2080SOL    HW2 7140   1.496   0.888   4.930
 2081SOL     OW 7141   1.401   5.139   4.015
 2081SOL    HW1 7142   1.396   5.238   4.021
 2081SOL    HW2 7143   1.494   5.111   3.991
 2082SOL     OW 7144   0.351   6.929   3.457
 2082SOL    HW1 7145   0.299   6.955   3.375
 2082SOL    HW2 7146   0.446   6.957   3.445
 2083SOL     OW 7147   6.265   4.914   6.394
 2083SOL    HW1 7148   6.311   5.002   6.385
 2083SOL    HW2 7149   6.302   4.850   6.326
 2084SOL     OW 7150   1.544   3.492   3.700
 2084SOL    HW1 7151   1.606   3.415   3.684
 2084SOL    HW2 7152   1.525   3.537   3.613
 2085SOL     OW 7153   4.384   0.353   0.261
 2085SOL    HW1 7154   4.417   0.297   0.185
 2085SOL    HW2 7155   4.454   0.359   0.332
 2086SOL     OW 7156   3.909   6.713   5.375
 2086SOL    HW1 7157   3.991   6.770   5.367
 2086SOL    HW2 7158   3.844   6.738   5.304
 2087SOL     OW 7159   5.017   0.067   1.311
 2087SOL    HW1 7160   5.088   0.017   1.262
 2087SOL    HW2 7161   5.022   0.046   1.409
 2088SOL     OW 7162   1.994   5.859   0.163
 2088SOL    HW1 7163   2.076   5.832   0.113
 2088SOL    HW2 7164   2.003   5.834   0.259
 2089SOL     OW 7165   5.186   2.353   6.005
 2089SOL    HW1 7166   5.123   2.363   5.928
 2089SOL    HW2 7167   5.167   2.424   6.073
 2090SOL     OW 7168   3.564   3.212   6.266
 2090SOL    HW1 7169   3.536   3.208   6.170
 2090SOL    HW2 7170   3.530   3.131   6.314
 2091SOL     OW 7171   0.007   5.283   0.728
 2091SOL    HW1 7172   0.032   5.256   0.821
 2091SOL    HW2 7173   0.086   5.271   0.668
 2092SOL     OW 7174   5.482   4.140   6.877
 2092SOL    HW1 7175   5.538   4.162   6.797
 2092SOL    HW2 7176   5.387   4.166   6.859
 2093SOL     OW 7177   2.800   2.226   1.358
 2093SOL    HW1 7178   2.728   2.221   1.427
 2093SOL    HW2 7179   2.846   2.137   1.351
 2094SOL     OW 7180   6.082   1.752   1.710
 2094SOL    HW1 7181   6.010   1.685   1.729
 2094SOL    HW2 7182   6.121   1.785   1.796
 2095SOL     OW 7183   5.410   6.886   4.991
 2095SOL    HW1 7184   5.400   6.958   5.060
 2095SOL    HW2 7185   5.415   6.797   5.037
 2096SOL     OW 7186   4.983   3.889   2.655
 2096SOL    HW1 7187   4.956   3.802   2.614
 2096SOL    HW2 7188   4.959   3.889   2.752
 2097SOL     OW 7189   2.752   2.999   6.691
 2097SOL    HW1 7190   2.787   2.985   6.599
 2097SOL    HW2 7191   2.807   3.068   6.738
 2098SOL     OW 7192   4.102   5.596   2.166
 2098SOL    HW1 7193   4.051   5.682   2.169
 2098SOL    HW2 7194   4.127   5.576   2.072
 2099SOL     OW 7195   2.712   2.931   6.200
 2099SOL    HW1 7196   2.725   2.959   6.105
 2099SOL    HW2 7197   2.705   2.832   6.205
 2100SOL     OW 7198   4.567   2.414   6.333
 2100SOL    HW1 7199   4.523   2.490   6.284
 2100SOL    HW2 7200   4.523   2.402   6.422
 2101SOL     OW 7201   1.182   6.683   2.548
 2101SOL    HW1 7202   1.279   6.682   2.571
 2101SOL    HW2 7203   1.132   6.740   2.613
 2102SOL     OW 7204   6.498   4.836   2.413
 2102SOL    HW1 7205   6.510   4.737   2.406
 2102SOL    HW2 7206   6.482   4.874   2.322
 2103SOL     OW 7207   4.034   4.517   5.515
 2103SOL    HW1 7208   4.067   4.424   5.528
 2103SOL    HW2 7209   3.942   4.515   5.477
 2104SOL     OW 7210   2.274   4.098   1.293
 2104SOL    HW1 7211   2.280   4.011   1.245
 2104SOL    HW2 7212   2.206   4.156   1.249
 2105SOL     OW 7213   4.953   5.963   5.331
 2105SOL    HW1 7214   5.035   5.965   5.273
 2105SOL    HW2 7215   4.954   5.879   5.386
 2106SOL     OW 7216   4.955   4.776   1.285
 2106SOL    HW1 7217   4.895   4.719   1.229
 2106SOL    HW2 7218   4.995   4.720   1.358
 2107SOL     OW 7219   5.083   2.525   5.370
 2107SOL    HW1 7220   5.127   2.603   5.414
 2107SOL    HW2 7221   5.120   2.440   5.408
 2108SOL     OW 7222   6.041   5.476   5.063
 2108SOL    HW1 7223   6.076   5.428   5.143
 2108SOL    HW2 7224   6.082   5.567   5.058
 2109SOL     OW 7225   4.353   5.918   2.393
 2109SOL    HW1 7226   4.271   5.952   2.349
 2109SOL    HW2 7227   4.330   5.878   2.482
 2110SOL     OW 7228   2.450   1.521   0.109
 2110SOL    HW1 7229   2.464   1.617   0.136
 2110SOL    HW2 7230   2.521   1.495   0.043
 2111SOL     OW 7231   1.430   2.328   6.620
 2111SOL    HW1 7232   1.367   2.285   6.684
 2111SOL    HW2 7233   1.495   2.385   6.669
 2112SOL     OW 7234   5.521   3.559   0.565
 2112SOL    HW1 7235   5.463   3.508   0.628
 2112SOL    HW2 7236   5.594   3.499   0.531
 2113SOL     OW 7237   2.383   1.992   5.546
 2113SOL    HW1 7238   2.399   1.898   5.516
 2113SOL    HW2 7239   2.305   2.030   5.496
 2114SOL     OW 7240   1.394   1.937   6.727
 2114SOL    HW1 7241   1.354   2.026   6.749
 2114SOL    HW2 7242   1.493   1.947   6.716
 2115SOL     OW 7243   1.916   3.390   2.405
 2115SOL    HW1 7244   1.969   3.339   2.338
 2115SOL    HW2 7245   1.827   3.346   2.418
 2116SOL     OW 7246   0.290   5.128   3.365
 2116SOL    HW1 7247   0.203   5.131   3.415
 2116SOL    HW2 7248   0.274   5.092   3.273
 2117SOL     OW 7249   6.912   5.188   1.655
 2117SOL    HW1 7250   6.983   5.157   1.718
 2117SOL    HW2 7251   6.854   5.256   1.701
 2118SOL     OW 7252   6.422   3.667   2.114
 2118SOL    HW1 7253   6.323   3.669   2.101
 2118SOL    HW2 7254   6.455   3.573   2.103
 2119SOL     OW 7255   1.403   6.558   0.997
 2119SOL    HW1 7256   1.371   6.465   0.983
 2119SOL    HW2 7257   1.364   6.594   1.082
 2120SOL     OW 7258   6.771   5.147   4.176
 2120SOL    HW1 7259   6.792   5.244   4.168
 2120SOL    HW2 7260   6.830   5.105   4.244
 2121SOL     OW 7261   1.786   4.338   5.901
 2121SOL    HW1 7262   1.715   4.304   5.840
 2121SOL    HW2 7263   1.876   4.320   5.862
 2122SOL     OW 7264   5.854   3.862   5.886
 2122SOL    HW1 7265   5.913   3.935   5.922
 2122SOL    HW2 7266   5.889   3.832   5.797
 2123SOL     OW 7267   6.831   6.114   2.443
 2123SOL    HW1 7268   6.902   6.152   2.384
 2123SOL    HW2 7269   6.823   6.016   2.427
 2124SOL     OW 7270   3.135   1.815   1.268
 2124SOL    HW1 7271   3.159   1.779   1.358
 2124SOL    HW2 7272   3.196   1.776   1.199
 2125SOL     OW 7273   2.118   0.858   1.977
 2125SOL    HW1 7274   2.207   0.864   1.933
 2125SOL    HW2 7275   2.058   0.929   1.942
 2126SOL     OW 7276   3.751   1.515   6.471
 2126SOL    HW1 7277   3.796   1.426   6.472
 2126SOL    HW2 7278   3.748   1.551   6.378
 2127SOL     OW 7279   0.423   3.514   4.820
 2127SOL    HW1 7280   0.430   3.500   4.919
 2127SOL    HW2 7281   0.441   3.428   4.772
 2128SOL     OW 7282   6.905   3.328   3.730
 2128SOL    HW1 7283   6.832   3.387   3.765
 2128SOL    HW2 7284   6.866   3.248   3.685
 2129SOL     OW 7285   4.543   3.334   5.574
 2129SOL    HW1 7286   4.605   3.385   5.633
 2129SOL    HW2 7287   4.549   3.237   5.595
 2130SOL     OW 7288   3.263   0.683   2.637
 2130SOL    HW1 7289   3.263   0.698   2.736
 2130SOL    HW2 7290   3.292   0.589   2.618
 2131SOL     OW 7291   5.443   1.233   0.793
 2131SOL    HW1 7292   5.385   1.301   0.749
 2131SOL    HW2 7293   5.398   1.144   0.790
 2132SOL     OW 7294   3.164   0.174   1.938
 2132SOL    HW1 7295   3.208   0.258   1.970
 2132SOL    HW2 7296   3.233   0.108   1.910
 2133SOL     OW 7297   3.334   3.070   0.716
 2133SOL    HW1 7298   3.284   3.129   0.781
 2133SOL    HW2 7299   3.294   3.080   0.625
 2134SOL     OW 7300   6.773   1.157   6.083
 2134SOL    HW1 7301   6.816   1.073   6.051
 2134SOL    HW2 7302   6.679   1.162   6.048
 2135SOL     OW 7303   1.376   3.381   4.845
 2135SOL    HW1 7304   1.432   3.443   4.901
 2135SOL    HW2 7305   1.404   3.389   4.749
 2136SOL     OW 7306   1.504   3.639   3.457
 2136SOL    HW1 7307   1.443   3.704   3.504
 2136SOL    HW2 7308   1.471   3.624   3.364
 2137SOL     OW 7309   3.033   5.562   4.936
 2137SOL    HW1 7310   3.131   5.544   4.940
 2137SOL    HW2 7311   2.988   5.489   4.884
 2138SOL     OW 7312   6.448   0.565   2.658
 2138SOL    HW1 7313   6.509   0.579   2.736
 2138SOL    HW2 7314   6.468   0.632   2.587
 2139SOL     OW 7315   3.675   0.699   3.608
 2139SOL    HW1 7316   3.597   0.640   3.632
 2139SOL    HW2 7317   3.660   0.738   3.518
 2140SOL     OW 7318   3.902   6.618   3.789
 2140SOL    HW1 7319   3.954   6.535   3.811
 2140SOL    HW2 7320   3.963   6.684   3.745
 2141SOL     OW 7321   7.021   3.447   2.133
 2141SOL    HW1 7322   0.029   3.525   2.187
 2141SOL    HW2 7323   0.050   3.443   2.048
 2142SOL     OW 7324   2.211   1.915   3.013
 2142SOL    HW1 7325   2.248   1.856   3.084
 2142SOL    HW2 7326   2.281   1.980   2.983
 2143SOL     OW 7327   2.782   4.695   1.515
 2143SOL    HW1 7328   2.757   4.739   1.428
 2143SOL    HW2 7329   2.831   4.761   1.572
 2144SOL     OW 7330   1.328   5.315   3.793
 2144SOL    HW1 7331   1.260   5.242   3.790
 2144SOL    HW2 7332   1.287   5.400   3.758
 2145SOL     OW 7333   4.520   5.914   3.957
 2145SOL    HW1 7334   4.498   5.984   3.890
 2145SOL    HW2 7335   4.619   5.899   3.958
 2146SOL     OW 7336   2.559   3.646   1.508
 2146SOL    HW1 7337   2.655   3.657   1.480
 2146SOL    HW2 7338   2.528   3.729   1.553
 2147SOL     OW 7339   6.367   1.747   6.056
 2147SOL    HW1 7340   6.312   1.675   6.098
 2147SOL    HW2 7341   6.344   1.755   5.959
 2148SOL     OW 7342   6.251   3.206   5.228
 2148SOL    HW1 7343   6.171   3.253   5.190
 2148SOL    HW2 7344   6.269   3.123   5.175
 2149SOL     OW 7345   3.435   1.973   1.374
 2149SOL    HW1 7346   3.442   1.942   1.280
 2149SOL    HW2 7347   3.470   1.902   1.435
 2150SOL     OW 7348   2.503   2.198   1.938
 2150SOL    HW1 7349   2.464   2.116   1.979
 2150SOL    HW2 7350   2.447   2.226   1.861
 2151SOL     OW 7351   1.151   0.380   5.621
 2151SOL    HW1 7352   1.219   0.378   5.695
 2151SOL    HW2 7353   1.158   0.296   5.567
 2152SOL     OW 7354   3.650   5.966   1.857
 2152SOL    HW1 7355   3.615   6.056   1.834
 2152SOL    HW2 7356   3.646   5.906   1.777
 2153SOL     OW 7357   3.844   1.006   2.747
 2153SOL    HW1 7358   3.837   0.916   2.789
 2153SOL    HW2 7359   3.843   0.996   2.647
 2154SOL     OW 7360   5.065   0.772   4.998
 2154SOL    HW1 7361   5.134   0.707   5.027
 2154SOL    HW2 7362   5.109   0.858   4.971
 2155SOL     OW 7363   2.669   6.027   0.416
 2155SOL    HW1 7364   2.627   5.964   0.350
 2155SOL    HW2 7365   2.606   6.102   0.437
 2156SOL     OW 7366   1.647   1.664   5.172
 2156SOL    HW1 7367   1.734   1.615   5.161
 2156SOL    HW2 7368   1.618   1.701   5.083
 2157SOL     OW 7369   5.708   0.753   3.586
 2157SOL    HW1 7370   5.695   0.851   3.571
 2157SOL    HW2 7371   5.727   0.708   3.499
 2158SOL     OW 7372   3.762   5.927   1.185
 2158SOL    HW1 7373   3.723   5.952   1.274
 2158SOL    HW2 7374   3.692   5.884   1.128
 2159SOL     OW 7375   1.036   6.369   5.329
 2159SOL    HW1 7376   0.944   6.353   5.363
 2159SOL    HW2 7377   1.080   6.282   5.307
 2160SOL     OW 7378   4.283   4.044   0.299
 2160SOL    HW1 7379   4.203   4.024   0.241
 2160SOL    HW2 7380   4.343   3.964   0.302
 2161SOL     OW 7381   5.634   5.128   2.804
 2161SOL    HW1 7382   5.650   5.145   2.902
 2161SOL    HW2 7383   5.536   5.114   2.788
 2162SOL     OW 7384   1.987   1.084   1.872
 2162SOL    HW1 7385   2.022   1.171   1.839
 2162SOL    HW2 7386   1.890   1.093   1.897
 2163SOL     OW 7387   1.488   4.512   5.718
 2163SOL    HW1 7388   1.506   4.566   5.636
 2163SOL    HW2 7389   1.551   4.434   5.722
 2164SOL     OW 7390   1.510   2.724   0.331
 2164SOL    HW1 7391   1.429   2.777   0.357
 2164SOL    HW2 7392   1.541   2.752   0.240
 2165SOL     OW 7393   0.246   1.871   2.772
 2165SOL    HW1 7394   0.323   1.907   2.720
 2165SOL    HW2 7395   0.271   1.784   2.815
 2166SOL     OW 7396   1.589   2.462   5.432
 2166SOL    HW1 7397   1.668   2.459   5.370
 2166SOL    HW2 7398   1.523   2.529   5.398
 2167SOL     OW 7399   1.937   1.794   3.321
 2167SOL    HW1 7400   1.881   1.791   3.239
 2167SOL    HW2 7401   2.030   1.823   3.297
 2168SOL     OW 7402   0.867   2.216   4.003
 2168SOL    HW1 7403   0.937   2.146   3.993
 2168SOL    HW2 7404   0.857   2.240   4.099
 2169SOL     OW 7405   5.443   1.113   6.955
 2169SOL    HW1 7406   5.499   1.160   6.887
 2169SOL    HW2 7407   5.477   1.020   6.969
 2170SOL     OW 7408   6.595   4.473   5.848
 2170SOL    HW1 7409   6.536   4.490   5.927
 2170SOL    HW2 7410   6.634   4.559   5.817
 2171SOL     OW 7411   0.460   5.358   1.383
 2171SOL    HW1 7412   0.482   5.263   1.364
 2171SOL    HW2 7413   0.487   5.415   1.305
 2172SOL     OW 7414   1.952   2.395   0.357
 2172SOL    HW1 7415   1.957   2.482   0.405
 2172SOL    HW2 7416   1.950   2.320   0.423
 2173SOL     OW 7417   3.553   0.773   5.274
 2173SOL    HW1 7418   3.572   0.696   5.335
 2173SOL    HW2 7419   3.549   0.857   5.328
 2174SOL     OW 7420   5.512   6.256   5.477
 2174SOL    HW1 7421   5.417   6.287   5.467
 2174SOL    HW2 7422   5.572   6.335   5.484
 2175SOL     OW 7423   2.215   2.971   4.291
 2175SOL    HW1 7424   2.183   3.048   4.237
 2175SOL    HW2 7425   2.145   2.946   4.358
 2176SOL     OW 7426   6.661   2.179   0.724
 2176SOL    HW1 7427   6.716   2.112   0.675
 2176SOL    HW2 7428   6.595   2.132   0.782
 2177SOL     OW 7429   6.905   2.065   3.740
 2177SOL    HW1 7430   6.885   2.133   3.670
 2177SOL    HW2 7431   6.962   1.993   3.700
 2178SOL     OW 7432   1.947   2.264   0.915
 2178SOL    HW1 7433   1.891   2.249   0.997
 2178SOL    HW2 7434   2.042   2.244   0.935
 2179SOL     OW 7435   1.992   5.185   4.727
 2179SOL    HW1 7436   2.030   5.147   4.642
 2179SOL    HW2 7437   2.001   5.285   4.725
 2180SOL     OW 7438   1.824   2.334   1.415
 2180SOL    HW1 7439   1.869   2.304   1.500
 2180SOL    HW2 7440   1.725   2.323   1.424
 2181SOL     OW 7441   4.748   5.104   4.452
 2181SOL    HW1 7442   4.698   5.182   4.490
 2181SOL    HW2 7443   4.694   5.021   4.466
 2182SOL     OW 7444   1.490   3.911   3.941
 2182SOL    HW1 7445   1.441   3.937   3.858
 2182SOL    HW2 7446   1.427   3.907   4.018
 2183SOL     OW 7447   2.838   3.905   5.755
 2183SOL    HW1 7448   2.911   3.837   5.762
 2183SOL    HW2 7449   2.860   3.970   5.682
 2184SOL     OW 7450   3.999   1.860   6.428
 2184SOL    HW1 7451   4.009   1.787   6.360
 2184SOL    HW2 7452   3.902   1.876   6.446
 2185SOL     OW 7453   0.366   1.163   1.026
 2185SOL    HW1 7454   0.288   1.224   1.040
 2185SOL    HW2 7455   0.333   1.073   0.997
 2186SOL     OW 7456   0.430   6.161   1.763
 2186SOL    HW1 7457   0.417   6.062   1.764
 2186SOL    HW2 7458   0.356   6.204   1.711
 2187SOL     OW 7459   6.616   0.029   2.766
 2187SOL    HW1 7460   6.596   0.104   2.828
 2187SOL    HW2 7461   6.703   7.010   2.790
 2188SOL     OW 7462   6.930   6.397   4.940
 2188SOL    HW1 7463   6.913   6.363   4.847
 2188SOL    HW2 7464   7.008   6.459   4.939
 2189SOL     OW 7465   1.606   6.751   0.579
 2189SOL    HW1 7466   1.656   6.836   0.559
 2189SOL    HW2 7467   1.636   6.680   0.515
 2190SOL     OW 7468   0.154   3.517   1.913
 2190SOL    HW1 7469   0.225   3.588   1.908
 2190SOL    HW2 7470   0.064   3.560   1.908
 2191SOL     OW 7471   3.193   1.987   6.489
 2191SOL    HW1 7472   3.224   2.052   6.420
 2191SOL    HW2 7473   3.273   1.940   6.528
 2192SOL     OW 7474   4.602   0.969   2.368
 2192SOL    HW1 7475   4.601   1.049   2.308
 2192SOL    HW2 7476   4.578   0.998   2.462
 2193SOL     OW 7477   5.722   5.501   6.615
 2193SOL    HW1 7478   5.663   5.421   6.607
 2193SOL    HW2 7479   5.731   5.545   6.525
 2194SOL     OW 7480   2.874   4.159   5.597
 2194SOL    HW1 7481   2.913   4.231   5.540
 2194SOL    HW2 7482   2.775   4.169   5.601
 2195SOL     OW 7483   0.098   0.629   4.778
 2195SOL    HW1 7484   0.025   0.682   4.734
 2195SOL    HW2 7485   0.187   0.658   4.741
 2196SOL     OW 7486   3.032   6.732   5.296
 2196SOL    HW1 7487   3.039   6.829   5.319
 2196SOL    HW2 7488   3.121   6.698   5.266
 2197SOL     OW 7489   3.456   3.940   0.553
 2197SOL    HW1 7490   3.389   3.915   0.622
 2197SOL    HW2 7491   3.481   4.036   0.564
 2198SOL     OW 7492   5.528   1.355   0.127
 2198SOL    HW1 7493   5.462   1.290   0.088
 2198SOL    HW2 7494   5.521   1.353   0.226
 2199SOL     OW 7495   4.852   0.873   3.550
 2199SOL    HW1 7496   4.780   0.940   3.568
 2199SOL    HW2 7497   4.812   0.793   3.504
 2200SOL     OW 7498   2.792   1.458   5.416
 2200SOL    HW1 7499   2.749   1.548   5.426
 2200SOL    HW2 7500   2.889   1.464   5.440
 2201SOL     OW 7501   6.454   2.832   3.280
 2201SOL    HW1 7502   6.425   2.752   3.332
 2201SOL    HW2 7503   6.433   2.819   3.184
 2202SOL     OW 7504   2.885   5.732   2.063
 2202SOL    HW1 7505   2.788   5.745   2.083
 2202SOL    HW2 7506   2.896   5.669   1.987
 2203SOL     OW 7507   1.665   2.030   1.203
 2203SOL    HW1 7508   1.708   1.947   1.166
 2203SOL    HW2 7509   1.732   2.104   1.205
 2204SOL     OW 7510   3.767   1.213   1.498
 2204SOL    HW1 7511   3.744   1.256   1.411
 2204SOL    HW2 7512   3.847   1.154   1.487
 2205SOL     OW 7513   0.532   0.161   6.275
 2205SOL    HW1 7514   0.454   0.171   6.214
 2205SOL    HW2 7515   0.505   0.186   6.368
 2206SOL     OW 7516   3.391   4.766   6.372
 2206SOL    HW1 7517   3.439   4.689   6.329
 2206SOL    HW2 7518   3.365   4.832   6.302
 2207SOL     OW 7519   2.810   4.770   6.388
 2207SOL    HW1 7520   2.863   4.827   6.450
 2207SOL    HW2 7521   2.850   4.774   6.297
 2208SOL     OW 7522   1.577   6.229   2.820
 2208SOL    HW1 7523   1.646   6.157   2.816
 2208SOL    HW2 7524   1.621   6.318   2.836
 2209SOL     OW 7525   1.249   6.170   5.311
 2209SOL    HW1 7526   1.312   6.140   5.382
 2209SOL    HW2 7527   1.300   6.209   5.235
 2210SOL     OW 7528   6.653   4.639   4.418
 2210SOL    HW1 7529   6.639   4.728   4.463
 2210SOL    HW2 7530   6.611   4.567   4.472
 2211SOL     OW 7531   5.562   0.426   0.733
 2211SOL    HW1 7532   5.653   0.411   0.694
 2211SOL    HW2 7533   5.571   0.473   0.821
 2212SOL     OW 7534   1.806   5.882   7.003
 2212SOL    HW1 7535   1.871   5.868   0.055
 2212SOL    HW2 7536   1.814   5.976   6.970
 2213SOL     OW 7537   3.467   2.303   5.544
 2213SOL    HW1 7538   3.545   2.325   5.602
 2213SOL    HW2 7539   3.382   2.327   5.592
 2214SOL     OW 7540   3.357   3.029   5.077
 2214SOL    HW1 7541   3.397   3.020   4.985
 2214SOL    HW2 7542   3.258   3.036   5.069
 2215SOL     OW 7543   6.198   1.140   0.410
 2215SOL    HW1 7544   6.197   1.151   0.311
 2215SOL    HW2 7545   6.277   1.188   0.448
 2216SOL     OW 7546   1.726   0.511   6.029
 2216SOL    HW1 7547   1.673   0.573   6.087
 2216SOL    HW2 7548   1.786   0.564   5.969
 2217SOL     OW 7549   4.290   6.981   1.452
 2217SOL    HW1 7550   4.235   6.941   1.379
 2217SOL    HW2 7551   4.231   0.009   1.515
 2218SOL     OW 7552   0.203   6.110   0.088
 2218SOL    HW1 7553   0.139   6.104   0.012
 2218SOL    HW2 7554   0.152   6.121   0.173
 2219SOL     OW 7555   5.386   1.879   1.712
 2219SOL    HW1 7556   5.376   1.934   1.795
 2219SOL    HW2 7557   5.463   1.817   1.722
 2220SOL     OW 7558   1.759   0.310   4.715
 2220SOL    HW1 7559   1.747   0.271   4.806
 2220SOL    HW2 7560   1.757   0.410   4.722
 2221SOL     OW 7561   6.064   1.153   5.340
 2221SOL    HW1 7562   6.046   1.080   5.274
 2221SOL    HW2 7563   6.139   1.210   5.306
 2222SOL     OW 7564   4.958   0.599   0.436
 2222SOL    HW1 7565   4.978   0.617   0.340
 2222SOL    HW2 7566   5.010   0.663   0.493
 2223SOL     OW 7567   5.812   1.190   5.114
 2223SOL    HW1 7568   5.789   1.207   5.018
 2223SOL    HW2 7569   5.892   1.129   5.118
 2224SOL     OW 7570   0.820   3.697   0.272
 2224SOL    HW1 7571   0.801   3.725   0.366
 2224SOL    HW2 7572   0.795   3.601   0.260
 2225SOL     OW 7573   6.421   6.586   2.990
 2225SOL    HW1 7574   6.393   6.508   3.046
 2225SOL    HW2 7575   6.521   6.591   2.987
 2226SOL     OW 7576   3.524   4.891   0.887
 2226SOL    HW1 7577   3.593   4.821   0.904
 2226SOL    HW2 7578   3.556   4.953   0.815
 2227SOL     OW 7579   5.400   3.418   6.916
 2227SOL    HW1 7580   5.383   3.323   6.893
 2227SOL    HW2 7581   5.390   3.432   7.014
 2228SOL     OW 7582   3.103   4.768   0.954
 2228SOL    HW1 7583   3.012   4.794   0.924
 2228SOL    HW2 7584   3.131   4.684   0.907
 2229SOL     OW 7585   4.534   2.473   4.536
 2229SOL    HW1 7586   4.487   2.446   4.620
 2229SOL    HW2 7587   4.572   2.564   4.548
 2230SOL     OW 7588   5.853   5.670   6.945
 2230SOL    HW1 7589   5.882   5.592   7.001
 2230SOL    HW2 7590   5.754   5.667   6.933
 2231SOL     OW 7591   0.164   0.699   2.195
 2231SOL    HW1 7592   0.167   0.657   2.104
 2231SOL    HW2 7593   0.082   0.670   2.243
 2232SOL     OW 7594   0.681   2.843   5.001
 2232SOL    HW1 7595   0.739   2.881   5.073
 2232SOL    HW2 7596   0.696   2.745   4.993
 2233SOL     OW 7597   2.162   3.583   0.133
 2233SOL    HW1 7598   2.143   3.504   0.074
 2233SOL    HW2 7599   2.129   3.666   0.090
 2234SOL     OW 7600   4.052   1.656   1.684
 2234SOL    HW1 7601   3.986   1.613   1.623
 2234SOL    HW2 7602   4.021   1.749   1.705
 2235SOL     OW 7603   2.793   0.027   1.382
 2235SOL    HW1 7604   2.892   0.034   1.394
 2235SOL    HW2 7605   2.767   0.062   1.292
 2236SOL     OW 7606   1.844   4.755   6.017
 2236SOL    HW1 7607   1.789   4.780   5.937
 2236SOL    HW2 7608   1.825   4.661   6.044
 2237SOL     OW 7609   5.873   5.103   4.367
 2237SOL    HW1 7610   5.826   5.191   4.378
 2237SOL    HW2 7611   5.819   5.031   4.408
 2238SOL     OW 7612   5.367   4.786   1.453
 2238SOL    HW1 7613   5.294   4.854   1.447
 2238SOL    HW2 7614   5.432   4.801   1.379
 2239SOL     OW 7615   4.108   4.857   3.404
 2239SOL    HW1 7616   4.024   4.841   3.455
 2239SOL    HW2 7617   4.113   4.795   3.326
 2240SOL     OW 7618   5.096   5.541   3.856
 2240SOL    HW1 7619   5.054   5.483   3.925
 2240SOL    HW2 7620   5.067   5.636   3.870
 2241SOL     OW 7621   0.435   6.225   3.388
 2241SOL    HW1 7622   0.499   6.149   3.389
 2241SOL    HW2 7623   0.482   6.308   3.357
 2242SOL     OW 7624   5.066   2.462   2.921
 2242SOL    HW1 7625   5.027   2.541   2.873
 2242SOL    HW2 7626   5.007   2.382   2.908
 2243SOL     OW 7627   1.509   6.699   6.113
 2243SOL    HW1 7628   1.484   6.642   6.035
 2243SOL    HW2 7629   1.605   6.682   6.137
 2244SOL     OW 7630   1.773   6.870   1.932
 2244SOL    HW1 7631   1.730   6.789   1.972
 2244SOL    HW2 7632   1.706   6.921   1.878
 2245SOL     OW 7633   0.410   1.866   1.086
 2245SOL    HW1 7634   0.391   1.948   1.032
 2245SOL    HW2 7635   0.507   1.844   1.081
 2246SOL     OW 7636   0.883   2.180   5.031
 2246SOL    HW1 7637   0.908   2.115   5.103
 2246SOL    HW2 7638   0.786   2.169   5.008
 2247SOL     OW 7639   3.299   3.186   4.374
 2247SOL    HW1 7640   3.394   3.212   4.391
 2247SOL    HW2 7641   3.288   3.088   4.389
 2248SOL     OW 7642   4.847   4.122   5.544
 2248SOL    HW1 7643   4.921   4.061   5.515
 2248SOL    HW2 7644   4.882   4.191   5.607
 2249SOL     OW 7645   6.295   6.194   2.939
 2249SOL    HW1 7646   6.295   6.262   3.013
 2249SOL    HW2 7647   6.287   6.240   2.851
 2250SOL     OW 7648   4.465   3.819   6.252
 2250SOL    HW1 7649   4.519   3.789   6.331
 2250SOL    HW2 7650   4.456   3.919   6.253
 2251SOL     OW 7651   5.128   0.836   7.022
 2251SOL    HW1 7652   5.196   0.797   6.959
 2251SOL    HW2 7653   5.159   0.824   0.093
 2252SOL     OW 7654   4.901   3.129   2.707
 2252SOL    HW1 7655   4.845   3.090   2.780
 2252SOL    HW2 7656   4.890   3.075   2.624
 2253SOL     OW 7657   1.148   3.516   6.636
 2253SOL    HW1 7658   1.127   3.545   6.542
 2253SOL    HW2 7659   1.160   3.416   6.637
 2254SOL     OW 7660   3.929   2.966   5.559
 2254SOL    HW1 7661   3.913   2.909   5.478
 2254SOL    HW2 7662   4.019   3.008   5.553
 2255SOL     OW 7663   4.434   2.684   6.483
 2255SOL    HW1 7664   4.428   2.587   6.507
 2255SOL    HW2 7665   4.470   2.736   6.560
 2256SOL     OW 7666   5.662   5.830   1.474
 2256SOL    HW1 7667   5.587   5.859   1.533
 2256SOL    HW2 7668   5.737   5.895   1.479
 2257SOL     OW 7669   0.223   2.353   3.875
 2257SOL    HW1 7670   0.170   2.389   3.952
 2257SOL    HW2 7671   0.320   2.373   3.889
 2258SOL     OW 7672   0.835   5.283   5.805
 2258SOL    HW1 7673   0.872   5.215   5.742
 2258SOL    HW2 7674   0.870   5.265   5.897
 2259SOL     OW 7675   5.400   3.579   6.707
 2259SOL    HW1 7676   5.385   3.510   6.778
 2259SOL    HW2 7677   5.454   3.654   6.745
 2260SOL     OW 7678   6.171   3.976   2.334
 2260SOL    HW1 7679   6.137   4.057   2.383
 2260SOL    HW2 7680   6.271   3.978   2.332
 2261SOL     OW 7681   6.493   6.370   6.761
 2261SOL    HW1 7682   6.564   6.419   6.810
 2261SOL    HW2 7683   6.449   6.305   6.822
 2262SOL     OW 7684   5.774   1.434   2.613
 2262SOL    HW1 7685   5.759   1.523   2.568
 2262SOL    HW2 7686   5.701   1.371   2.586
 2263SOL     OW 7687   3.553   5.625   6.684
 2263SOL    HW1 7688   3.528   5.558   6.615
 2263SOL    HW2 7689   3.621   5.688   6.647
 2264SOL     OW 7690   2.782   4.192   0.216
 2264SOL    HW1 7691   2.852   4.132   0.255
 2264SOL    HW2 7692   2.799   4.286   0.244
 2265SOL     OW 7693   0.720   1.199   4.688
 2265SOL    HW1 7694   0.662   1.119   4.669
 2265SOL    HW2 7695   0.746   1.198   4.785
 2266SOL     OW 7696   5.582   1.886   0.446
 2266SOL    HW1 7697   5.568   1.857   0.351
 2266SOL    HW2 7698   5.524   1.831   0.506
 2267SOL     OW 7699   5.104   2.686   4.973
 2267SOL    HW1 7700   5.070   2.725   4.888
 2267SOL    HW2 7701   5.204   2.679   4.970
 2268SOL     OW 7702   6.359   3.537   6.712
 2268SOL    HW1 7703   6.313   3.548   6.624
 2268SOL    HW2 7704   6.430   3.607   6.721
 2269SOL     OW 7705   5.761   5.526   4.983
 2269SOL    HW1 7706   5.760   5.625   5.000
 2269SOL    HW2 7707   5.856   5.494   4.980
 2270SOL     OW 7708   2.983   2.473   6.256
 2270SOL    HW1 7709   3.038   2.413   6.198
 2270SOL    HW2 7710   2.956   2.554   6.204
 2271SOL     OW 7711   5.898   3.967   0.579
 2271SOL    HW1 7712   5.833   4.015   0.639
 2271SOL    HW2 7713   5.874   3.870   0.576
 2272SOL     OW 7714   6.414   2.443   6.015
 2272SOL    HW1 7715   6.497   2.498   6.011
 2272SOL    HW2 7716   6.433   2.351   5.982
 2273SOL     OW 7717   1.771   0.621   2.070
 2273SOL    HW1 7718   1.771   0.620   1.970
 2273SOL    HW2 7719   1.860   0.592   2.104
 2274SOL     OW 7720   0.010   2.599   6.800
 2274SOL    HW1 7721   6.934   2.592   6.806
 2274SOL    HW2 7722   0.044   2.534   6.732
 2275SOL     OW 7723   5.780   0.441   4.463
 2275SOL    HW1 7724   5.726   0.525   4.463
 2275SOL    HW2 7725   5.823   0.429   4.552
 2276SOL     OW 7726   2.325   5.086   0.918
 2276SOL    HW1 7727   2.352   5.056   0.827
 2276SOL    HW2 7728   2.403   5.126   0.965
 2277SOL     OW 7729   4.186   3.566   5.069
 2277SOL    HW1 7730   4.190   3.579   5.168
 2277SOL    HW2 7731   4.269   3.520   5.038
 2278SOL     OW 7732   6.576   4.724   4.130
 2278SOL    HW1 7733   6.479   4.744   4.146
 2278SOL    HW2 7734   6.615   4.681   4.211
 2279SOL     OW 7735   5.246   6.197   4.846
 2279SOL    HW1 7736   5.252   6.285   4.799
 2279SOL    HW2 7737   5.339   6.160   4.859
 2280SOL     OW 7738   6.833   0.046   4.279
 2280SOL    HW1 7739   6.830   7.008   4.199
 2280SOL    HW2 7740   6.742   0.052   4.319
 2281SOL     OW 7741   3.419   1.708   2.079
 2281SOL    HW1 7742   3.496   1.766   2.051
 2281SOL    HW2 7743   3.379   1.665   1.998
 2282SOL     OW 7744   4.996   0.253   4.811
 2282SOL    HW1 7745   5.046   0.173   4.844
 2282SOL    HW2 7746   4.963   0.235   4.718
 2283SOL     OW 7747   0.470   4.510   2.011
 2283SOL    HW1 7748   0.436   4.421   1.980
 2283SOL    HW2 7749   0.562   4.499   2.048
 2284SOL     OW 7750   1.754   2.121   6.223
 2284SOL    HW1 7751   1.802   2.205   6.249
 2284SOL    HW2 7752   1.690   2.095   6.296
 2285SOL     OW 7753   2.416   2.138   0.777
 2285SOL    HW1 7754   2.474   2.202   0.727
 2285SOL    HW2 7755   2.453   2.124   0.869
 2286SOL     OW 7756   6.871   0.431   4.151
 2286SOL    HW1 7757   6.968   0.407   4.139
 2286SOL    HW2 7758   6.842   0.491   4.076
 2287SOL     OW 7759   1.404   1.278   3.202
 2287SOL    HW1 7760   1.461   1.301   3.124
 2287SOL    HW2 7761   1.319   1.235   3.170
 2288SOL     OW 7762   6.147   5.097   4.378
 2288SOL    HW1 7763   6.134   5.105   4.477
 2288SOL    HW2 7764   6.058   5.102   4.332
 2289SOL     OW 7765   0.500   4.773   2.080
 2289SOL    HW1 7766   0.461   4.685   2.053
 2289SOL    HW2 7767   0.531   4.769   2.175
 2290SOL     OW 7768   1.284   4.471   1.811
 2290SOL    HW1 7769   1.365   4.501   1.760
 2290SOL    HW2 7770   1.228   4.549   1.834
 2291SOL     OW 7771   2.768   2.272   6.686
 2291SOL    HW1 7772   2.830   2.216   6.632
 2291SOL    HW2 7773   2.719   2.336   6.626
 2292SOL     OW 7774   5.990   2.054   4.845
 2292SOL    HW1 7775   5.924   2.076   4.916
 2292SOL    HW2 7776   6.003   2.134   4.786
 2293SOL     OW 7777   5.355   6.967   1.438
 2293SOL    HW1 7778   5.418   6.890   1.437
 2293SOL    HW2 7779   5.405   0.029   1.458
 2294SOL     OW 7780   3.087   1.027   6.477
 2294SOL    HW1 7781   3.096   0.935   6.438
 2294SOL    HW2 7782   2.998   1.035   6.521
 2295SOL     OW 7783   0.594   1.898   2.911
 2295SOL    HW1 7784   0.531   1.820   2.919
 2295SOL    HW2 7785   0.615   1.933   3.002
 2296SOL     OW 7786   3.782   5.741   1.662
 2296SOL    HW1 7787   3.754   5.692   1.580
 2296SOL    HW2 7788   3.875   5.776   1.650
 2297SOL     OW 7789   4.739   4.747   5.727
 2297SOL    HW1 7790   4.766   4.663   5.681
 2297SOL    HW2 7791   4.791   4.757   5.811
 2298SOL     OW 7792   4.188   3.316   1.844
 2298SOL    HW1 7793   4.097   3.280   1.864
 2298SOL    HW2 7794   4.201   3.402   1.894
 2299SOL     OW 7795   4.608   5.240   5.100
 2299SOL    HW1 7796   4.576   5.213   5.191
 2299SOL    HW2 7797   4.554   5.193   5.030
 2300SOL     OW 7798   2.361   6.155   1.860
 2300SOL    HW1 7799   2.392   6.067   1.824
 2300SOL    HW2 7800   2.364   6.153   1.960
 2301SOL     OW 7801   3.419   2.990   2.584
 2301SOL    HW1 7802   3.519   2.998   2.590
 2301SOL    HW2 7803   3.384   2.957   2.672
 2302SOL     OW 7804   3.582   6.891   0.985
 2302SOL    HW1 7805   3.495   6.939   0.995
 2302SOL    HW2 7806   3.565   6.797   0.955
 2303SOL     OW 7807   2.379   3.556   6.557
 2303SOL    HW1 7808   2.425   3.498   6.624
 2303SOL    HW2 7809   2.346   3.500   6.481
 2304SOL     OW 7810   4.920   6.884   3.587
 2304SOL    HW1 7811   4.920   6.813   3.516
 2304SOL    HW2 7812   4.846   6.865   3.653
 2305SOL     OW 7813   2.299   0.133   2.417
 2305SOL    HW1 7814   2.214   0.103   2.459
 2305SOL    HW2 7815   2.374   0.123   2.483
 2306SOL     OW 7816   2.705   5.129   1.845
 2306SOL    HW1 7817   2.706   5.098   1.750
 2306SOL    HW2 7818   2.623   5.095   1.890
 2307SOL     OW 7819   6.678   3.866   3.311
 2307SOL    HW1 7820   6.578   3.864   3.305
 2307SOL    HW2 7821   6.708   3.960   3.328
 2308SOL     OW 7822   1.478   5.243   1.503
 2308SOL    HW1 7823   1.394   5.214   1.549
 2308SOL    HW2 7824   1.506   5.333   1.537
 2309SOL     OW 7825   1.644   0.896   6.368
 2309SOL    HW1 7826   1.603   0.969   6.312
 2309SOL    HW2 7827   1.740   0.918   6.386
 2310SOL     OW 7828   5.324   6.444   0.399
 2310SOL    HW1 7829   5.341   6.542   0.410
 2310SOL    HW2 7830   5.239   6.420   0.447
 2311SOL     OW 7831   1.868   6.495   1.195
 2311SOL    HW1 7832   1.845   6.398   1.194
 2311SOL    HW2 7833   1.787   6.549   1.175
 2312SOL     OW 7834   4.273   6.340   2.532
 2312SOL    HW1 7835   4.196   6.393   2.495
 2312SOL    HW2 7836   4.359   6.375   2.494
 2313SOL     OW 7837   6.085   6.209   1.301
 2313SOL    HW1 7838   6.141   6.261   1.238
 2313SOL    HW2 7839   6.100   6.111   1.286
 2314SOL     OW 7840   5.640   6.957   3.941
 2314SOL    HW1 7841   5.650   0.012   3.878
 2314SOL    HW2 7842   5.552   6.964   3.988
 2315SOL     OW 7843   4.777   3.277   6.647
 2315SOL    HW1 7844   4.851   3.331   6.687
 2315SOL    HW2 7845   4.694   3.289   6.701
 2316SOL     OW 7846   3.659   1.161   4.190
 2316SOL    HW1 7847   3.573   1.202   4.158
 2316SOL    HW2 7848   3.639   1.078   4.241
 2317SOL     OW 7849   0.689   6.561   3.116
 2317SOL    HW1 7850   0.652   6.569   3.024
 2317SOL    HW2 7851   0.614   6.557   3.182
 2318SOL     OW 7852   1.884   2.877   4.340
 2318SOL    HW1 7853   1.821   2.954   4.353
 2318SOL    HW2 7854   1.961   2.886   4.403
 2319SOL     OW 7855   2.302   4.702   4.095
 2319SOL    HW1 7856   2.262   4.706   4.003
 2319SOL    HW2 7857   2.228   4.704   4.163
 2320SOL     OW 7858   1.254   2.214   4.714
 2320SOL    HW1 7859   1.198   2.134   4.690
 2320SOL    HW2 7860   1.194   2.291   4.735
 2321SOL     OW 7861   2.257   0.243   6.895
 2321SOL    HW1 7862   2.253   0.285   6.985
 2321SOL    HW2 7863   2.218   0.306   6.827
 2322SOL     OW 7864   2.867   1.484   4.406
 2322SOL    HW1 7865   2.852   1.519   4.498
 2322SOL    HW2 7866   2.886   1.386   4.410
 2323SOL     OW 7867   2.732   5.381   1.735
 2323SOL    HW1 7868   2.818   5.371   1.685
 2323SOL    HW2 7869   2.701   5.291   1.767
 2324SOL     OW 7870   6.657   6.707   1.738
 2324SOL    HW1 7871   6.665   6.684   1.641
 2324SOL    HW2 7872   6.645   6.806   1.748
 2325SOL     OW 7873   1.313   4.972   2.025
 2325SOL    HW1 7874   1.373   5.012   1.956
 2325SOL    HW2 7875   1.218   4.998   2.007
 2326SOL     OW 7876   3.190   6.127   5.536
 2326SOL    HW1 7877   3.116   6.075   5.577
 2326SOL    HW2 7878   3.278   6.092   5.568
 2327SOL     OW 7879   6.915   3.040   4.218
 2327SOL    HW1 7880   6.920   3.138   4.197
 2327SOL    HW2 7881   6.919   2.988   4.133
 2328SOL     OW 7882   3.326   2.186   2.492
 2328SOL    HW1 7883   3.272   2.161   2.411
 2328SOL    HW2 7884   3.267   2.188   2.572
 2329SOL     OW 7885   1.605   3.640   5.196
 2329SOL    HW1 7886   1.553   3.682   5.270
 2329SOL    HW2 7887   1.645   3.554   5.227
 2330SOL     OW 7888   1.101   3.994   1.629
 2330SOL    HW1 7889   1.086   4.041   1.542
 2330SOL    HW2 7890   1.102   4.061   1.703
 2331SOL     OW 7891   5.939   4.628   1.193
 2331SOL    HW1 7892   5.948   4.574   1.276
 2331SOL    HW2 7893   5.889   4.576   1.124
 2332SOL     OW 7894   5.000   1.730   4.814
 2332SOL    HW1 7895   5.068   1.725   4.888
 2332SOL    HW2 7896   4.924   1.789   4.843
 2333SOL     OW 7897   0.619   5.236   2.923
 2333SOL    HW1 7898   0.651   5.142   2.938
 2333SOL    HW2 7899   0.529   5.233   2.880
 2334SOL     OW 7900   2.517   6.849   0.342
 2334SOL    HW1 7901   2.480   6.855   0.249
 2334SOL    HW2 7902   2.443   6.833   0.407
 2335SOL     OW 7903   5.868   1.225   2.904
 2335SOL    HW1 7904   5.786   1.277   2.928
 2335SOL    HW2 7905   5.849   1.127   2.913
 2336SOL     OW 7906   4.440   2.197   4.647
 2336SOL    HW1 7907   4.431   2.138   4.566
 2336SOL    HW2 7908   4.353   2.242   4.664
 2337SOL     OW 7909   4.347   0.972   3.257
 2337SOL    HW1 7910   4.250   0.950   3.259
 2337SOL    HW2 7911   4.398   0.898   3.214
 2338SOL     OW 7912   1.256   1.854   6.109
 2338SOL    HW1 7913   1.226   1.759   6.118
 2338SOL    HW2 7914   1.177   1.915   6.115
 2339SOL     OW 7915   4.032   3.791   4.972
 2339SOL    HW1 7916   4.044   3.784   4.873
 2339SOL    HW2 7917   4.074   3.712   5.016
 2340SOL     OW 7918   5.364   4.588   6.971
 2340SOL    HW1 7919   5.343   4.546   6.883
 2340SOL    HW2 7920   5.368   4.688   6.959
 2341SOL     OW 7921   5.374   3.971   1.111
 2341SOL    HW1 7922   5.289   3.935   1.150
 2341SOL    HW2 7923   5.423   4.022   1.182
 2342SOL     OW 7924   0.303   6.493   5.051
 2342SOL    HW1 7925   0.256   6.408   5.076
 2342SOL    HW2 7926   0.312   6.551   5.132
 2343SOL     OW 7927   2.110   6.147   2.637
 2343SOL    HW1 7928   2.024   6.128   2.589
 2343SOL    HW2 7929   2.151   6.062   2.669
 2344SOL     OW 7930   1.480   1.182   1.131
 2344SOL    HW1 7931   1.423   1.202   1.211
 2344SOL    HW2 7932   1.546   1.111   1.154
 2345SOL     OW 7933   3.402   5.417   5.767
 2345SOL    HW1 7934   3.428   5.387   5.859
 2345SOL    HW2 7935   3.481   5.460   5.723
 2346SOL     OW 7936   4.615   2.618   4.861
 2346SOL    HW1 7937   4.682   2.554   4.823
 2346SOL    HW2 7938   4.582   2.678   4.788
 2347SOL     OW 7939   2.546   3.445   1.713
 2347SOL    HW1 7940   2.556   3.516   1.644
 2347SOL    HW2 7941   2.467   3.466   1.771
 2348SOL     OW 7942   3.566   6.256   3.161
 2348SOL    HW1 7943   3.582   6.162   3.191
 2348SOL    HW2 7944   3.653   6.303   3.151
 2349SOL     OW 7945   0.488   4.722   5.737
 2349SOL    HW1 7946   0.490   4.684   5.645
 2349SOL    HW2 7947   0.407   4.779   5.748
 2350SOL     OW 7948   5.168   0.015   6.337
 2350SOL    HW1 7949   5.254   6.988   6.334
 2350SOL    HW2 7950   5.099   6.989   6.282
 2351SOL     OW 7951   3.386   4.960   2.458
 2351SOL    HW1 7952   3.412   5.052   2.430
 2351SOL    HW2 7953   3.431   4.893   2.398
 2352SOL     OW 7954   1.156   3.902   1.997
 2352SOL    HW1 7955   1.142   3.828   1.932
 2352SOL    HW2 7956   1.137   3.990   1.951
 2353SOL     OW 7957   3.105   4.647   5.276
 2353SOL    HW1 7958   3.023   4.594   5.252
 2353SOL    HW2 7959   3.142   4.691   5.193
 2354SOL     OW 7960   3.024   1.733   6.184
 2354SOL    HW1 7961   2.936   1.686   6.177
 2354SOL    HW2 7962   3.008   1.829   6.207
 2355SOL     OW 7963   1.362   5.422   6.770
 2355SOL    HW1 7964   1.421   5.486   6.820
 2355SOL    HW2 7965   1.274   5.466   6.752
 2356SOL     OW 7966   2.382   3.931   0.345
 2356SOL    HW1 7967   2.428   4.007   0.299
 2356SOL    HW2 7968   2.417   3.844   0.310
 2357SOL     OW 7969   4.343   5.404   3.652
 2357SOL    HW1 7970   4.262   5.353   3.625
 2357SOL    HW2 7971   4.374   5.372   3.742
 2358SOL     OW 7972   2.901   5.469   5.481
 2358SOL    HW1 7973   2.937   5.466   5.388
 2358SOL    HW2 7974   2.933   5.388   5.531
 2359SOL     OW 7975   7.005   0.689   5.923
 2359SOL    HW1 7976   6.990   0.748   5.844
 2359SOL    HW2 7977   6.965   0.732   6.004
 2360SOL     OW 7978   5.006   6.375   5.695
 2360SOL    HW1 7979   5.053   6.287   5.702
 2360SOL    HW2 7980   4.974   6.403   5.786
 2361SOL     OW 7981   2.662   0.729   5.534
 2361SOL    HW1 7982   2.745   0.776   5.562
 2361SOL    HW2 7983   2.582   0.783   5.558
 2362SOL     OW 7984   2.662   0.603   5.300
 2362SOL    HW1 7985   2.732   0.647   5.245
 2362SOL    HW2 7986   2.644   0.657   5.382
 2363SOL     OW 7987   3.977   2.468   5.602
 2363SOL    HW1 7988   4.041   2.405   5.646
 2363SOL    HW2 7989   4.008   2.562   5.617
 2364SOL     OW 7990   0.489   2.578   3.031
 2364SOL    HW1 7991   0.429   2.502   3.056
 2364SOL    HW2 7992   0.434   2.660   3.017
 2365SOL     OW 7993   6.259   2.509   5.810
 2365SOL    HW1 7994   6.319   2.511   5.890
 2365SOL    HW2 7995   6.303   2.558   5.735
 2366SOL     OW 7996   1.671   4.801   5.803
 2366SOL    HW1 7997   1.673   4.743   5.721
 2366SOL    HW2 7998   1.579   4.837   5.816
 2367SOL     OW 7999   3.846   3.778   0.165
 2367SOL    HW1 8000   3.806   3.860   0.123
 2367SOL    HW2 8001   3.777   3.735   0.224
 2368SOL     OW 8002   5.080   0.231   3.468
 2368SOL    HW1 8003   5.122   0.227   3.558
 2368SOL    HW2 8004   5.082   0.326   3.435
 2369SOL     OW 8005   1.718   2.674   5.171
 2369SOL    HW1 8006   1.781   2.615   5.222
 2369SOL    HW2 8007   1.764   2.759   5.147
 2370SOL     OW 8008   4.913   3.989   6.758
 2370SOL    HW1 8009   4.926   3.992   6.658
 2370SOL    HW2 8010   4.929   4.081   6.795
 2371SOL     OW 8011   1.137   6.308   1.760
 2371SOL    HW1 8012   1.228   6.281   1.727
 2371SOL    HW2 8013   1.078   6.228   1.766
 2372SOL     OW 8014   0.577   2.066   1.473
 2372SOL    HW1 8015   0.567   1.967   1.487
 2372SOL    HW2 8016   0.615   2.108   1.555
 2373SOL     OW 8017   6.839   0.012   0.132
 2373SOL    HW1 8018   6.756   0.012   0.077
 2373SOL    HW2 8019   6.817   7.013   0.227
 2374SOL     OW 8020   6.025   0.787   4.351
 2374SOL    HW1 8021   6.068   0.702   4.320
 2374SOL    HW2 8022   6.005   0.781   4.449
 2375SOL     OW 8023   2.118   6.722   4.704
 2375SOL    HW1 8024   2.062   6.642   4.727
 2375SOL    HW2 8025   2.090   6.800   4.761
 2376SOL     OW 8026   5.818   2.099   4.044
 2376SOL    HW1 8027   5.855   2.046   4.121
 2376SOL    HW2 8028   5.854   2.062   3.958
 2377SOL     OW 8029   3.594   4.114   2.732
 2377SOL    HW1 8030   3.578   4.152   2.824
 2377SOL    HW2 8031   3.617   4.017   2.740
 2378SOL     OW 8032   5.121   2.528   6.963
 2378SOL    HW1 8033   5.173   2.455   6.918
 2378SOL    HW2 8034   5.044   2.555   6.905
 2379SOL     OW 8035   6.746   1.661   6.636
 2379SOL    HW1 8036   6.723   1.640   6.731
 2379SOL    HW2 8037   6.814   1.735   6.634
 2380SOL     OW 8038   7.005   6.633   5.603
 2380SOL    HW1 8039   6.973   6.553   5.653
 2380SOL    HW2 8040   0.006   6.706   5.668
 2381SOL     OW 8041   2.172   4.086   4.114
 2381SOL    HW1 8042   2.229   4.166   4.093
 2381SOL    HW2 8043   2.107   4.070   4.040
 2382SOL     OW 8044   2.443   5.357   3.144
 2382SOL    HW1 8045   2.353   5.323   3.114
 2382SOL    HW2 8046   2.462   5.322   3.236
 2383SOL     OW 8047   5.518   5.862   6.999
 2383SOL    HW1 8048   5.446   5.920   6.961
 2383SOL    HW2 8049   5.560   5.808   6.926
 2384SOL     OW 8050   6.942   6.696   2.020
 2384SOL    HW1 8051   6.976   6.720   2.111
 2384SOL    HW2 8052   6.910   6.779   1.973
 2385SOL     OW 8053   6.126   6.794   1.647
 2385SOL    HW1 8054   6.151   6.736   1.724
 2385SOL    HW2 8055   6.107   6.736   1.567
 2386SOL     OW 8056   5.225   4.404   4.533
 2386SOL    HW1 8057   5.264   4.313   4.551
 2386SOL    HW2 8058   5.231   4.424   4.435
 2387SOL     OW 8059   0.484   1.914   3.399
 2387SOL    HW1 8060   0.531   1.838   3.354
 2387SOL    HW2 8061   0.538   1.998   3.387
 2388SOL     OW 8062   1.342   1.662   3.900
 2388SOL    HW1 8063   1.334   1.563   3.910
 2388SOL    HW2 8064   1.287   1.692   3.822
 2389SOL     OW 8065   5.754   3.517   3.646
 2389SOL    HW1 8066   5.701   3.586   3.695
 2389SOL    HW2 8067   5.774   3.441   3.707
 2390SOL     OW 8068   3.233   3.551   4.221
 2390SOL    HW1 8069   3.175   3.527   4.298
 2390SOL    HW2 8070   3.325   3.514   4.235
 2391SOL     OW 8071   4.445   4.157   5.793
 2391SOL    HW1 8072   4.503   4.085   5.832
 2391SOL    HW2 8073   4.452   4.240   5.849
 2392SOL     OW 8074   3.495   6.685   5.070
 2392SOL    HW1 8075   3.459   6.740   4.995
 2392SOL    HW2 8076   3.422   6.662   5.134
 2393SOL     OW 8077   4.273   4.929   0.669
 2393SOL    HW1 8078   4.288   4.974   0.580
 2393SOL    HW2 8079   4.337   4.966   0.736
 2394SOL     OW 8080   1.695   2.945   4.555
 2394SOL    HW1 8081   1.603   2.975   4.581
 2394SOL    HW2 8082   1.701   2.845   4.563
 2395SOL     OW 8083   6.149   2.702   0.169
 2395SOL    HW1 8084   6.130   2.655   0.082
 2395SOL    HW2 8085   6.131   2.799   0.158
 2396SOL     OW 8086   4.074   5.530   0.399
 2396SOL    HW1 8087   4.007   5.589   0.352
 2396SOL    HW2 8088   4.068   5.545   0.498
 2397SOL     OW 8089   0.416   3.919   0.314
 2397SOL    HW1 8090   0.325   3.922   0.354
 2397SOL    HW2 8091   0.478   3.869   0.374
 2398SOL     OW 8092   3.335   4.326   6.073
 2398SOL    HW1 8093   3.346   4.420   6.043
 2398SOL    HW2 8094   3.237   4.307   6.087
 2399SOL     OW 8095   4.952   1.081   2.509
 2399SOL    HW1 8096   4.893   1.117   2.581
 2399SOL    HW2 8097   4.929   0.985   2.491
 2400SOL     OW 8098   4.339   5.011   0.415
 2400SOL    HW1 8099   4.318   4.920   0.378
 2400SOL    HW2 8100   4.399   5.060   0.351
 2401SOL     OW 8101   4.172   0.732   6.617
 2401SOL    HW1 8102   4.132   0.772   6.699
 2401SOL    HW2 8103   4.175   0.632   6.626
 2402SOL     OW 8104   0.886   2.019   4.657
 2402SOL    HW1 8105   0.981   1.990   4.644
 2402SOL    HW2 8106   0.853   1.984   4.745
 2403SOL     OW 8107   2.810   2.669   0.058
 2403SOL    HW1 8108   2.817   2.580   0.014
 2403SOL    HW2 8109   2.769   2.735   7.017
 2404SOL     OW 8110   5.846   1.054   1.863
 2404SOL    HW1 8111   5.944   1.054   1.882
 2404SOL    HW2 8112   5.827   0.996   1.784
 2405SOL     OW 8113   3.290   3.652   3.501
 2405SOL    HW1 8114   3.261   3.562   3.534
 2405SOL    HW2 8115   3.319   3.645   3.406
 2406SOL     OW 8116   1.586   6.582   3.818
 2406SOL    HW1 8117   1.526   6.503   3.804
 2406SOL    HW2 8118   1.545   6.643   3.885
 2407SOL     OW 8119   4.932   2.656   2.765
 2407SOL    HW1 8120   4.922   2.655   2.665
 2407SOL    HW2 8121   4.842   2.639   2.807
 2408SOL     OW 8122   3.003   4.789   2.331
 2408SOL    HW1 8123   3.080   4.791   2.268
 2408SOL    HW2 8124   2.971   4.695   2.343
 2409SOL     OW 8125   1.735   2.712   1.799
 2409SOL    HW1 8126   1.650   2.689   1.846
 2409SOL    HW2 8127   1.748   2.650   1.722
 2410SOL     OW 8128   4.972   2.697   6.416
 2410SOL    HW1 8129   5.012   2.789   6.418
 2410SOL    HW2 8130   4.876   2.704   6.390
 2411SOL     OW 8131   4.599   5.540   5.420
 2411SOL    HW1 8132   4.614   5.451   5.377
 2411SOL    HW2 8133   4.599   5.612   5.351
 2412SOL     OW 8134   3.216   4.385   6.817
 2412SOL    HW1 8135   3.244   4.329   6.895
 2412SOL    HW2 8136   3.222   4.482   6.842
 2413SOL     OW 8137   6.395   2.410   6.995
 2413SOL    HW1 8138   6.494   2.397   6.997
 2413SOL    HW2 8139   6.353   2.349   0.040
 2414SOL     OW 8140   5.764   4.329   2.245
 2414SOL    HW1 8141   5.719   4.303   2.160
 2414SOL    HW2 8142   5.798   4.247   2.291
 2415SOL     OW 8143   0.982   6.776   1.138
 2415SOL    HW1 8144   0.986   6.798   1.041
 2415SOL    HW2 8145   0.914   6.703   1.153
 2416SOL     OW 8146   3.048   2.042   5.097
 2416SOL    HW1 8147   3.063   2.058   5.194
 2416SOL    HW2 8148   3.105   2.104   5.043
 2417SOL     OW 8149   4.286   2.863   6.335
 2417SOL    HW1 8150   4.296   2.942   6.396
 2417SOL    HW2 8151   4.293   2.779   6.389
 2418SOL     OW 8152   2.870   3.641   3.399
 2418SOL    HW1 8153   2.932   3.716   3.379
 2418SOL    HW2 8154   2.884   3.610   3.494
 2419SOL     OW 8155   0.674   6.592   3.508
 2419SOL    HW1 8156   0.640   6.671   3.560
 2419SOL    HW2 8157   0.774   6.599   3.499
 2420SOL     OW 8158   3.487   1.273   2.235
 2420SOL    HW1 8159   3.516   1.346   2.298
 2420SOL    HW2 8160   3.453   1.195   2.288
 2421SOL     OW 8161   2.510   1.151   5.156
 2421SOL    HW1 8162   2.607   1.164   5.175
 2421SOL    HW2 8163   2.465   1.109   5.235
 2422SOL     OW 8164   5.566   0.569   2.035
 2422SOL    HW1 8165   5.513   0.606   1.959
 2422SOL    HW2 8166   5.538   0.474   2.052
 2423SOL     OW 8167   1.686   5.683   3.871
 2423SOL    HW1 8168   1.726   5.742   3.941
 2423SOL    HW2 8169   1.751   5.672   3.795
 2424SOL     OW 8170   5.740   6.104   6.155
 2424SOL    HW1 8171   5.734   6.189   6.103
 2424SOL    HW2 8172   5.681   6.035   6.113
 2425SOL     OW 8173   6.166   0.079   4.152
 2425SOL    HW1 8174   6.199   0.146   4.218
 2425SOL    HW2 8175   6.090   0.118   4.100
 2426SOL     OW 8176   0.848   4.575   3.728
 2426SOL    HW1 8177   0.900   4.654   3.760
 2426SOL    HW2 8178   0.860   4.564   3.629
 2427SOL     OW 8179   5.962   5.114   6.736
 2427SOL    HW1 8180   5.926   5.038   6.790
 2427SOL    HW2 8181   5.977   5.193   6.795
 2428SOL     OW 8182   0.024   0.091   3.483
 2428SOL    HW1 8183   0.040   7.019   3.457
 2428SOL    HW2 8184   0.067   0.110   3.571
 2429SOL     OW 8185   6.510   6.077   4.448
 2429SOL    HW1 8186   6.603   6.070   4.413
 2429SOL    HW2 8187   6.448   6.102   4.373
 2430SOL     OW 8188   6.345   2.474   1.519
 2430SOL    HW1 8189   6.327   2.528   1.601
 2430SOL    HW2 8190   6.444   2.464   1.506
 2431SOL     OW 8191   3.648   0.184   1.933
 2431SOL    HW1 8192   3.601   0.242   2.000
 2431SOL    HW2 8193   3.702   0.115   1.980
 2432SOL     OW 8194   3.384   6.635   2.944
 2432SOL    HW1 8195   3.358   6.675   2.856
 2432SOL    HW2 8196   3.474   6.593   2.937
 2433SOL     OW 8197   3.384   6.507   0.984
 2433SOL    HW1 8198   3.357   6.554   1.068
 2433SOL    HW2 8199   3.401   6.411   1.003
 2434SOL     OW 8200   4.090   1.450   3.451
 2434SOL    HW1 8201   4.093   1.516   3.376
 2434SOL    HW2 8202   4.176   1.398   3.454
 2435SOL     OW 8203   4.777   5.641   5.608
 2435SOL    HW1 8204   4.713   5.597   5.546
 2435SOL    HW2 8205   4.741   5.639   5.702
 2436SOL     OW 8206   1.551   6.889   1.200
 2436SOL    HW1 8207   1.567   6.907   1.103
 2436SOL    HW2 8208   1.453   6.877   1.217
 2437SOL     OW 8209   3.617   5.901   0.911
 2437SOL    HW1 8210   3.566   5.839   0.970
 2437SOL    HW2 8211   3.553   5.954   0.856
 2438SOL     OW 8212   3.944   1.549   5.469
 2438SOL    HW1 8213   3.901   1.542   5.558
 2438SOL    HW2 8214   3.985   1.640   5.459
 2439SOL     OW 8215   1.371   4.366   0.040
 2439SOL    HW1 8216   1.429   4.309   7.003
 2439SOL    HW2 8217   1.420   4.449   0.064
 2440SOL     OW 8218   3.634   6.459   5.020
 2440SOL    HW1 8219   3.569   6.392   5.056
 2440SOL    HW2 8220   3.588   6.547   5.008
 2441SOL     OW 8221   6.276   0.448   0.552
 2441SOL    HW1 8222   6.215   0.439   0.631
 2441SOL    HW2 8223   6.340   0.371   0.551
 2442SOL     OW 8224   6.569   5.919   4.093
 2442SOL    HW1 8225   6.504   5.968   4.151
 2442SOL    HW2 8226   6.556   5.946   3.997
 2443SOL     OW 8227   3.415   6.778   6.304
 2443SOL    HW1 8228   3.507   6.778   6.344
 2443SOL    HW2 8229   3.370   6.865   6.322
 2444SOL     OW 8230   3.832   4.366   6.193
 2444SOL    HW1 8231   3.789   4.371   6.283
 2444SOL    HW2 8232   3.806   4.280   6.148
 2445SOL     OW 8233   6.756   0.931   2.230
 2445SOL    HW1 8234   6.845   0.975   2.231
 2445SOL    HW2 8235   6.768   0.831   2.229
 2446SOL     OW 8236   0.488   3.321   4.319
 2446SOL    HW1 8237   0.389   3.336   4.306
 2446SOL    HW2 8238   0.502   3.232   4.362
 2447SOL     OW 8239   2.561   1.224   1.074
 2447SOL    HW1 8240   2.466   1.196   1.082
 2447SOL    HW2 8241   2.580   1.254   0.981
 2448SOL     OW 8242   0.460   0.609   4.798
 2448SOL    HW1 8243   0.399   0.612   4.877
 2448SOL    HW2 8244   0.497   0.701   4.782
 2449SOL     OW 8245   0.395   4.090   2.426
 2449SOL    HW1 8246   0.388   4.018   2.357
 2449SOL    HW2 8247   0.330   4.163   2.406
 2450SOL     OW 8248   2.847   4.773   4.244
 2450SOL    HW1 8249   2.771   4.711   4.261
 2450SOL    HW2 8250   2.819   4.867   4.262
 2451SOL     OW 8251   0.396   0.013   3.890
 2451SOL    HW1 8252   0.461   0.071   3.842
 2451SOL    HW2 8253   0.339   6.987   3.823
 2452SOL     OW 8254   2.683   2.392   3.371
 2452SOL    HW1 8255   2.686   2.428   3.278
 2452SOL    HW2 8256   2.757   2.326   3.383
 2453SOL     OW 8257   0.223   3.484   0.754
 2453SOL    HW1 8258   0.176   3.572   0.766
 2453SOL    HW2 8259   0.306   3.498   0.700
 2454SOL     OW 8260   3.335   0.860   0.013
 2454SOL    HW1 8261   3.324   0.941   6.978
 2454SOL    HW2 8262   3.423   0.864   0.060
 2455SOL     OW 8263   5.200   0.065   0.778
 2455SOL    HW1 8264   5.119   0.095   0.829
 2455SOL    HW2 8265   5.280   0.115   0.812
 2456SOL     OW 8266   5.565   0.862   6.891
 2456SOL    HW1 8267   5.650   0.827   6.930
 2456SOL    HW2 8268   5.580   0.889   6.796
 2457SOL     OW 8269   6.234   6.115   6.681
 2457SOL    HW1 8270   6.306   6.047   6.693
 2457SOL    HW2 8271   6.159   6.076   6.628
 2458SOL     OW 8272   2.292   5.874   4.148
 2458SOL    HW1 8273   2.272   5.786   4.192
 2458SOL    HW2 8274   2.302   5.944   4.218
 2459SOL     OW 8275   2.805   6.381   0.201
 2459SOL    HW1 8276   2.802   6.356   0.298
 2459SOL    HW2 8277   2.865   6.317   0.152
 2460SOL     OW 8278   1.789   1.408   1.441
 2460SOL    HW1 8279   1.690   1.417   1.450
 2460SOL    HW2 8280   1.826   1.366   1.524
 2461SOL     OW 8281   4.023   0.131   3.300
 2461SOL    HW1 8282   4.001   0.228   3.303
 2461SOL    HW2 8283   3.966   0.086   3.231
 2462SOL     OW 8284   2.668   5.260   0.030
 2462SOL    HW1 8285   2.583   5.245   7.003
 2462SOL    HW2 8286   2.725   5.325   7.003
 2463SOL     OW 8287   6.570   2.763   4.062
 2463SOL    HW1 8288   6.612   2.823   3.993
 2463SOL    HW2 8289   6.516   2.692   4.017
 2464SOL     OW 8290   1.702   4.200   1.780
 2464SOL    HW1 8291   1.761   4.122   1.799
 2464SOL    HW2 8292   1.608   4.179   1.809
 2465SOL     OW 8293   0.593   0.036   1.601
 2465SOL    HW1 8294   0.547   6.996   1.538
 2465SOL    HW2 8295   0.646   7.005   1.667
 2466SOL     OW 8296   3.326   1.587   1.837
 2466SOL    HW1 8297   3.353   1.507   1.890
 2466SOL    HW2 8298   3.265   1.559   1.763
 2467SOL     OW 8299   5.661   1.677   5.029
 2467SOL    HW1 8300   5.588   1.674   5.098
 2467SOL    HW2 8301   5.749   1.689   5.074
 2468SOL     OW 8302   5.862   6.092   2.402
 2468SOL    HW1 8303   5.893   6.174   2.353
 2468SOL    HW2 8304   5.828   6.118   2.492
 2469SOL     OW 8305   3.759   4.503   5.379
 2469SOL    HW1 8306   3.673   4.469   5.340
 2469SOL    HW2 8307   3.756   4.603   5.384
 2470SOL     OW 8308   3.758   4.700   5.895
 2470SOL    HW1 8309   3.832   4.693   5.962
 2470SOL    HW2 8310   3.759   4.620   5.835
 2471SOL     OW 8311   2.526   6.433   1.214
 2471SOL    HW1 8312   2.516   6.520   1.262
 2471SOL    HW2 8313   2.481   6.439   1.125
 2472SOL     OW 8314   4.258   1.708   3.552
 2472SOL    HW1 8315   4.180   1.690   3.612
 2472SOL    HW2 8316   4.342   1.677   3.596
 2473SOL     OW 8317   2.114   4.022   5.188
 2473SOL    HW1 8318   2.142   3.969   5.268
 2473SOL    HW2 8319   2.189   4.025   5.121
 2474SOL     OW 8320   0.603   5.639   0.479
 2474SOL    HW1 8321   0.650   5.639   0.391
 2474SOL    HW2 8322   0.574   5.732   0.502
 2475SOL     OW 8323   4.991   1.579   1.175
 2475SOL    HW1 8324   4.957   1.606   1.085
 2475SOL    HW2 8325   4.927   1.611   1.245
 2476SOL     OW 8326   0.955   2.694   3.816
 2476SOL    HW1 8327   0.916   2.602   3.809
 2476SOL    HW2 8328   0.891   2.760   3.777
 2477SOL     OW 8329   5.538   0.670   2.619
 2477SOL    HW1 8330   5.613   0.693   2.557
 2477SOL    HW2 8331   5.564   0.591   2.675
 2478SOL     OW 8332   5.367   0.612   2.246
 2478SOL    HW1 8333   5.466   0.623   2.234
 2478SOL    HW2 8334   5.343   0.515   2.242
 2479SOL     OW 8335   1.808   3.656   1.221
 2479SOL    HW1 8336   1.854   3.574   1.189
 2479SOL    HW2 8337   1.741   3.631   1.292
 2480SOL     OW 8338   5.816   4.461   0.995
 2480SOL    HW1 8339   5.716   4.454   0.989
 2480SOL    HW2 8340   5.849   4.520   0.921
 2481SOL     OW 8341   2.714   6.660   0.663
 2481SOL    HW1 8342   2.790   6.651   0.727
 2481SOL    HW2 8343   2.748   6.696   0.576
 2482SOL     OW 8344   4.880   2.718   5.537
 2482SOL    HW1 8345   4.879   2.794   5.472
 2482SOL    HW2 8346   4.902   2.633   5.489
 2483SOL     OW 8347   2.263   1.246   6.594
 2483SOL    HW1 8348   2.240   1.339   6.622
 2483SOL    HW2 8349   2.227   1.227   6.503
 2484SOL     OW 8350   2.198   0.673   0.427
 2484SOL    HW1 8351   2.114   0.646   0.476
 2484SOL    HW2 8352   2.239   0.751   0.473
 2485SOL     OW 8353   4.744   4.610   2.267
 2485SOL    HW1 8354   4.664   4.667   2.250
 2485SOL    HW2 8355   4.714   4.516   2.286
 2486SOL     OW 8356   3.303   5.428   3.022
 2486SOL    HW1 8357   3.230   5.395   2.961
 2486SOL    HW2 8358   3.275   5.414   3.117
 2487SOL     OW 8359   3.938   5.141   6.841
 2487SOL    HW1 8360   3.884   5.212   6.795
 2487SOL    HW2 8361   3.914   5.051   6.802
 2488SOL     OW 8362   2.219   4.166   2.552
 2488SOL    HW1 8363   2.237   4.167   2.651
 2488SOL    HW2 8364   2.182   4.076   2.526
 2489SOL     OW 8365   2.427   5.780   3.486
 2489SOL    HW1 8366   2.349   5.793   3.547
 2489SOL    HW2 8367   2.400   5.799   3.391
 2490SOL     OW 8368   6.412   5.718   1.079
 2490SOL    HW1 8369   6.421   5.809   1.118
 2490SOL    HW2 8370   6.502   5.674   1.076
 2491SOL     OW 8371   2.650   6.209   1.781
 2491SOL    HW1 8372   2.586   6.248   1.715
 2491SOL    HW2 8373   2.744   6.229   1.752
 2492SOL     OW 8374   4.486   3.350   0.021
 2492SOL    HW1 8375   4.477   3.386   0.114
 2492SOL    HW2 8376   4.580   3.323   0.005
 2493SOL     OW 8377   5.553   6.903   2.995
 2493SOL    HW1 8378   5.526   6.959   2.916
 2493SOL    HW2 8379   5.516   6.810   2.984
 2494SOL     OW 8380   5.863   3.491   2.711
 2494SOL    HW1 8381   5.788   3.539   2.667
 2494SOL    HW2 8382   5.935   3.473   2.644
 2495SOL     OW 8383   4.815   6.994   4.618
 2495SOL    HW1 8384   4.847   0.065   4.608
 2495SOL    HW2 8385   4.788   6.958   4.529
 2496SOL     OW 8386   0.783   4.785   6.376
 2496SOL    HW1 8387   0.747   4.737   6.456
 2496SOL    HW2 8388   0.707   4.807   6.314
 2497SOL     OW 8389   0.120   0.914   0.723
 2497SOL    HW1 8390   0.219   0.918   0.714
 2497SOL    HW2 8391   0.095   0.866   0.807
 2498SOL     OW 8392   2.865   2.146   3.397
 2498SOL    HW1 8393   2.875   2.178   3.491
 2498SOL    HW2 8394   2.858   2.046   3.396
 2499SOL     OW 8395   5.413   1.592   4.539
 2499SOL    HW1 8396   5.435   1.573   4.635
 2499SOL    HW2 8397   5.475   1.661   4.503
 2500SOL     OW 8398   4.294   3.307   5.839
 2500SOL    HW1 8399   4.351   3.233   5.805
 2500SOL    HW2 8400   4.351   3.386   5.861
 2501SOL     OW 8401   6.978   6.088   6.649
 2501SOL    HW1 8402   0.021   6.013   6.638
 2501SOL    HW2 8403   6.950   6.121   6.559
 2502SOL     OW 8404   2.692   6.373   3.169
 2502SOL    HW1 8405   2.693   6.280   3.134
 2502SOL    HW2 8406   2.772   6.388   3.227
 2503SOL     OW 8407   3.566   5.801   6.147
 2503SOL    HW1 8408   3.598   5.714   6.110
 2503SOL    HW2 8409   3.642   5.864   6.155
 2504SOL     OW 8410   3.501   5.595   5.300
 2504SOL    HW1 8411   3.563   5.517   5.311
 2504SOL    HW2 8412   3.523   5.665   5.367
 2505SOL     OW 8413   1.564   6.289   4.058
 2505SOL    HW1 8414   1.585   6.385   4.074
 2505SOL    HW2 8415   1.642   6.244   4.016
 2506SOL     OW 8416   6.363   3.021   6.181
 2506SOL    HW1 8417   6.279   3.029   6.236
 2506SOL    HW2 8418   6.439   2.997   6.241
 2507SOL     OW 8419   0.172   4.145   0.315
 2507SOL    HW1 8420   0.164   4.098   0.227
 2507SOL    HW2 8421   0.189   4.243   0.298
 2508SOL     OW 8422   2.696   1.674   2.368
 2508SOL    HW1 8423   2.734   1.765   2.351
 2508SOL    HW2 8424   2.752   1.605   2.323
 2509SOL     OW 8425   5.579   2.915   3.093
 2509SOL    HW1 8426   5.674   2.905   3.066
 2509SOL    HW2 8427   5.525   2.948   3.015
 2510SOL     OW 8428   3.433   4.436   1.256
 2510SOL    HW1 8429   3.421   4.445   1.157
 2510SOL    HW2 8430   3.434   4.526   1.298
 2511SOL     OW 8431   2.359   2.406   4.378
 2511SOL    HW1 8432   2.442   2.461   4.373
 2511SOL    HW2 8433   2.287   2.459   4.422
 2512SOL     OW 8434   5.196   5.275   5.383
 2512SOL    HW1 8435   5.121   5.302   5.443
 2512SOL    HW2 8436   5.165   5.276   5.288
 2513SOL     OW 8437   1.202   2.918   5.645
 2513SOL    HW1 8438   1.153   2.990   5.596
 2513SOL    HW2 8439   1.208   2.836   5.587
 2514SOL     OW 8440   6.775   3.725   4.373
 2514SOL    HW1 8441   6.701   3.791   4.357
 2514SOL    HW2 8442   6.816   3.742   4.463
 2515SOL     OW 8443   1.149   6.617   0.877
 2515SOL    HW1 8444   1.236   6.580   0.912
 2515SOL    HW2 8445   1.121   6.564   0.797
 2516SOL     OW 8446   6.074   6.386   3.218
 2516SOL    HW1 8447   6.079   6.430   3.129
 2516SOL    HW2 8448   5.992   6.416   3.266
 2517SOL     OW 8449   1.503   5.397   5.482
 2517SOL    HW1 8450   1.586   5.362   5.526
 2517SOL    HW2 8451   1.508   5.381   5.384
 2518SOL     OW 8452   2.271   2.865   0.400
 2518SOL    HW1 8453   2.268   2.850   0.301
 2518SOL    HW2 8454   2.330   2.796   0.442
 2519SOL     OW 8455   4.923   5.597   4.227
 2519SOL    HW1 8456   4.910   5.525   4.296
 2519SOL    HW2 8457   4.836   5.617   4.183
 2520SOL     OW 8458   1.218   3.118   0.882
 2520SOL    HW1 8459   1.244   3.053   0.954
 2520SOL    HW2 8460   1.263   3.092   0.797
 2521SOL     OW 8461   1.225   6.489   5.486
 2521SOL    HW1 8462   1.175   6.437   5.418
 2521SOL    HW2 8463   1.265   6.427   5.554
 2522SOL     OW 8464   0.947   3.021   6.023
 2522SOL    HW1 8465   0.932   3.077   5.941
 2522SOL    HW2 8466   1.044   3.001   6.032
 2523SOL     OW 8467   0.565   3.273   0.661
 2523SOL    HW1 8468   0.613   3.268   0.749
 2523SOL    HW2 8469   0.530   3.366   0.648
 2524SOL     OW 8470   0.534   5.799   4.062
 2524SOL    HW1 8471   0.459   5.803   4.128
 2524SOL    HW2 8472   0.610   5.747   4.100
 2525SOL     OW 8473   1.387   2.518   4.814
 2525SOL    HW1 8474   1.404   2.457   4.892
 2525SOL    HW2 8475   1.292   2.511   4.786
 2526SOL     OW 8476   1.294   3.761   5.830
 2526SOL    HW1 8477   1.379   3.799   5.795
 2526SOL    HW2 8478   1.308   3.730   5.924
 2527SOL     OW 8479   4.749   0.230   4.943
 2527SOL    HW1 8480   4.846   0.242   4.924
 2527SOL    HW2 8481   4.709   0.167   4.876
 2528SOL     OW 8482   6.219   4.189   1.112
 2528SOL    HW1 8483   6.256   4.208   1.202
 2528SOL    HW2 8484   6.121   4.208   1.111
 2529SOL     OW 8485   5.787   5.727   6.113
 2529SOL    HW1 8486   5.811   5.810   6.162
 2529SOL    HW2 8487   5.866   5.695   6.060
 2530SOL     OW 8488   1.221   5.830   4.925
 2530SOL    HW1 8489   1.246   5.893   4.999
 2530SOL    HW2 8490   1.141   5.866   4.876
 2531SOL     OW 8491   5.419   5.809   4.509
 2531SOL    HW1 8492   5.324   5.843   4.507
 2531SOL    HW2 8493   5.430   5.739   4.438
 2532SOL     OW 8494   0.751   5.881   0.650
 2532SOL    HW1 8495   0.674   5.906   0.592
 2532SOL    HW2 8496   0.717   5.854   0.740
 2533SOL     OW 8497   4.942   6.459   3.724
 2533SOL    HW1 8498   4.978   6.387   3.783
 2533SOL    HW2 8499   4.888   6.523   3.779
 2534SOL     OW 8500   1.952   6.967   3.722
 2534SOL    HW1 8501   1.897   6.940   3.643
 2534SOL    HW2 8502   1.986   0.038   3.708
 2535SOL     OW 8503   2.573   2.623   6.770
 2535SOL    HW1 8504   2.560   2.714   6.810
 2535SOL    HW2 8505   2.648   2.626   6.704
 2536SOL     OW 8506   0.583   1.582   3.437
 2536SOL    HW1 8507   0.652   1.550   3.503
 2536SOL    HW2 8508   0.621   1.576   3.345
 2537SOL     OW 8509   5.278   6.018   0.188
 2537SOL    HW1 8510   5.318   6.084   0.251
 2537SOL    HW2 8511   5.325   5.930   0.198
 2538SOL     OW 8512   1.460   4.345   4.629
 2538SOL    HW1 8513   1.374   4.323   4.677
 2538SOL    HW2 8514   1.532   4.285   4.663
 2539SOL     OW 8515   4.073   0.219   5.688
 2539SOL    HW1 8516   4.109   0.312   5.680
 2539SOL    HW2 8517   4.137   0.163   5.740
 2540SOL     OW 8518   4.728   0.741   0.859
 2540SOL    HW1 8519   4.732   0.704   0.766
 2540SOL    HW2 8520   4.744   0.840   0.857
 2541SOL     OW 8521   1.591   0.334   5.842
 2541SOL    HW1 8522   1.657   0.315   5.770
 2541SOL    HW2 8523   1.611   0.423   5.883
 2542SOL     OW 8524   3.871   1.617   5.078
 2542SOL    HW1 8525   3.857   1.706   5.035
 2542SOL    HW2 8526   3.798   1.599   5.144
 2543SOL     OW 8527   1.867   0.860   2.666
 2543SOL    HW1 8528   1.857   0.958   2.683
 2543SOL    HW2 8529   1.907   0.846   2.575
 2544SOL     OW 8530   0.271   4.927   2.656
 2544SOL    HW1 8531   0.176   4.897   2.669
 2544SOL    HW2 8532   0.315   4.872   2.585
 2545SOL     OW 8533   1.415   0.805   1.569
 2545SOL    HW1 8534   1.405   0.707   1.551
 2545SOL    HW2 8535   1.379   0.857   1.492
 2546SOL     OW 8536   5.942   3.434   1.537
 2546SOL    HW1 8537   6.035   3.419   1.568
 2546SOL    HW2 8538   5.893   3.492   1.602
 2547SOL     OW 8539   5.158   5.456   6.751
 2547SOL    HW1 8540   5.077   5.484   6.802
 2547SOL    HW2 8541   5.237   5.509   6.783
 2548SOL     OW 8542   2.284   0.782   5.178
 2548SOL    HW1 8543   2.238   0.826   5.101
 2548SOL    HW2 8544   2.289   0.683   5.163
 2549SOL     OW 8545   2.098   2.023   1.818
 2549SOL    HW1 8546   2.193   1.996   1.802
 2549SOL    HW2 8547   2.074   2.004   1.913
 2550SOL     OW 8548   6.219   0.740   6.700
 2550SOL    HW1 8549   6.243   0.677   6.626
 2550SOL    HW2 8550   6.185   0.687   6.778
 2551SOL     OW 8551   3.433   5.419   6.960
 2551SOL    HW1 8552   3.337   5.436   6.940
 2551SOL    HW2 8553   3.472   5.499   7.006
 2552SOL     OW 8554   1.821   5.483   5.899
 2552SOL    HW1 8555   1.767   5.416   5.848
 2552SOL    HW2 8556   1.906   5.441   5.930
 2553SOL     OW 8557   2.908   3.245   6.763
 2553SOL    HW1 8558   2.852   3.288   6.692
 2553SOL    HW2 8559   3.005   3.257   6.742
 2554SOL     OW 8560   1.558   5.634   6.660
 2554SOL    HW1 8561   1.571   5.633   6.759
 2554SOL    HW2 8562   1.645   5.611   6.615
 2555SOL     OW 8563   6.441   6.257   6.529
 2555SOL    HW1 8564   6.485   6.313   6.599
 2555SOL    HW2 8565   6.351   6.228   6.562
 2556SOL     OW 8566   4.079   6.305   1.088
 2556SOL    HW1 8567   4.111   6.388   1.133
 2556SOL    HW2 8568   4.040   6.243   1.156
 2557SOL     OW 8569   2.397   1.573   6.428
 2557SOL    HW1 8570   2.339   1.526   6.494
 2557SOL    HW2 8571   2.417   1.666   6.460
 2558SOL     OW 8572   3.977   3.860   5.361
 2558SOL    HW1 8573   3.965   3.894   5.268
 2558SOL    HW2 8574   4.071   3.880   5.391
 2559SOL     OW 8575   6.383   3.276   4.090
 2559SOL    HW1 8576   6.385   3.316   4.182
 2559SOL    HW2 8577   6.300   3.222   4.079
 2560SOL     OW 8578   4.867   3.659   3.953
 2560SOL    HW1 8579   4.812   3.604   3.890
 2560SOL    HW2 8580   4.951   3.689   3.908
 2561SOL     OW 8581   3.407   0.633   3.781
 2561SOL    HW1 8582   3.327   0.606   3.835
 2561SOL    HW2 8583   3.389   0.721   3.737
 2562SOL     OW 8584   2.543   5.416   2.908
 2562SOL    HW1 8585   2.617   5.481   2.927
 2562SOL    HW2 8586   2.483   5.410   2.988
 2563SOL     OW 8587   4.128   1.505   6.615
 2563SOL    HW1 8588   4.143   1.604   6.615
 2563SOL    HW2 8589   4.138   1.470   6.521
 2564SOL     OW 8590   1.108   6.294   6.419
 2564SOL    HW1 8591   1.046   6.224   6.382
 2564SOL    HW2 8592   1.189   6.249   6.457
 2565SOL     OW 8593   0.525   0.466   0.860
 2565SOL    HW1 8594   0.428   0.484   0.848
 2565SOL    HW2 8595   0.546   0.372   0.832
 2566SOL     OW 8596   1.269   6.740   0.520
 2566SOL    HW1 8597   1.320   6.785   0.447
 2566SOL    HW2 8598   1.327   6.730   0.601
 2567SOL     OW 8599   0.953   1.245   1.972
 2567SOL    HW1 8600   0.905   1.194   1.900
 2567SOL    HW2 8601   1.036   1.196   1.997
 2568SOL     OW 8602   2.923   0.523   0.509
 2568SOL    HW1 8603   2.834   0.564   0.528
 2568SOL    HW2 8604   2.942   0.528   0.411
 2569SOL     OW 8605   2.100   1.385   2.555
 2569SOL    HW1 8606   2.053   1.298   2.544
 2569SOL    HW2 8607   2.034   1.454   2.587
 2570SOL     OW 8608   5.442   6.709   6.476
 2570SOL    HW1 8609   5.502   6.704   6.396
 2570SOL    HW2 8610   5.410   6.803   6.488
 2571SOL     OW 8611   3.056   3.251   4.530
 2571SOL    HW1 8612   3.084   3.299   4.614
 2571SOL    HW2 8613   3.129   3.189   4.502
 2572SOL     OW 8614   1.608   6.618   1.200
 2572SOL    HW1 8615   1.587   6.716   1.198
 2572SOL    HW2 8616   1.563   6.573   1.123
 2573SOL     OW 8617   6.176   1.456   1.871
 2573SOL    HW1 8618   6.172   1.367   1.827
 2573SOL    HW2 8619   6.271   1.485   1.880
 2574SOL     OW 8620   6.613   3.292   0.198
 2574SOL    HW1 8621   6.683   3.354   0.232
 2574SOL    HW2 8622   6.544   3.344   0.148
 2575SOL     OW 8623   4.956   4.176   1.304
 2575SOL    HW1 8624   4.944   4.097   1.244
 2575SOL    HW2 8625   4.868   4.200   1.346
 2576SOL     OW 8626   3.985   6.791   3.484
 2576SOL    HW1 8627   3.985   6.819   3.580
 2576SOL    HW2 8628   3.896   6.752   3.461
 2577SOL     OW 8629   4.308   0.652   3.152
 2577SOL    HW1 8630   4.394   0.693   3.181
 2577SOL    HW2 8631   4.319   0.553   3.143
 2578SOL     OW 8632   4.396   3.078   5.756
 2578SOL    HW1 8633   4.464   3.076   5.829
 2578SOL    HW2 8634   4.396   2.990   5.708
 2579SOL     OW 8635   1.176   1.350   4.593
 2579SOL    HW1 8636   1.174   1.320   4.497
 2579SOL    HW2 8637   1.251   1.414   4.606
 2580SOL     OW 8638   1.139   3.000   6.348
 2580SOL    HW1 8639   1.162   2.976   6.442
 2580SOL    HW2 8640   1.050   2.961   6.324
 2581SOL     OW 8641   6.047   4.809   1.928
 2581SOL    HW1 8642   6.041   4.876   1.855
 2581SOL    HW2 8643   6.039   4.717   1.890
 2582SOL     OW 8644   1.464   4.763   2.663
 2582SOL    HW1 8645   1.437   4.847   2.616
 2582SOL    HW2 8646   1.383   4.708   2.681
 2583SOL     OW 8647   1.333   1.175   1.399
 2583SOL    HW1 8648   1.324   1.077   1.379
 2583SOL    HW2 8649   1.286   1.196   1.484
 2584SOL     OW 8650   3.508   5.675   0.055
 2584SOL    HW1 8651   3.474   5.755   0.005
 2584SOL    HW2 8652   3.598   5.649   0.020
 2585SOL     OW 8653   3.232   0.614   0.108
 2585SOL    HW1 8654   3.270   0.700   0.073
 2585SOL    HW2 8655   3.261   0.539   0.048
 2586SOL     OW 8656   4.763   1.977   4.110
 2586SOL    HW1 8657   4.777   2.067   4.068
 2586SOL    HW2 8658   4.796   1.906   4.047
 2587SOL     OW 8659   6.806   1.650   4.424
 2587SOL    HW1 8660   6.741   1.612   4.359
 2587SOL    HW2 8661   6.877   1.583   4.444
 2588SOL     OW 8662   4.745   0.068   0.582
 2588SOL    HW1 8663   4.660   0.015   0.576
 2588SOL    HW2 8664   4.821   0.007   0.605
 2589SOL     OW 8665   0.290   6.597   5.813
 2589SOL    HW1 8666   0.344   6.657   5.873
 2589SOL    HW2 8667   0.195   6.597   5.842
 2590SOL     OW 8668   3.702   6.475   2.379
 2590SOL    HW1 8669   3.616   6.427   2.393
 2590SOL    HW2 8670   3.721   6.482   2.281
 2591SOL     OW 8671   6.098   5.998   2.623
 2591SOL    HW1 8672   6.075   6.047   2.539
 2591SOL    HW2 8673   6.027   6.014   2.692
 2592SOL     OW 8674   2.391   0.080   1.193
 2592SOL    HW1 8675   2.334   0.113   1.118
 2592SOL    HW2 8676   2.377   0.138   1.274
 2593SOL     OW 8677   3.352   6.655   2.059
 2593SOL    HW1 8678   3.255   6.680   2.066
 2593SOL    HW2 8679   3.408   6.736   2.077
 2594SOL     OW 8680   0.316   6.373   5.937
 2594SOL    HW1 8681   0.292   6.447   5.874
 2594SOL    HW2 8682   0.288   6.398   6.029
 2595SOL     OW 8683   6.176   1.925   5.596
 2595SOL    HW1 8684   6.142   1.998   5.656
 2595SOL    HW2 8685   6.179   1.959   5.501
 2596SOL     OW 8686   3.930   2.241   1.829
 2596SOL    HW1 8687   3.964   2.238   1.923
 2596SOL    HW2 8688   3.833   2.267   1.831
 2597SOL     OW 8689   2.116   3.866   0.485
 2597SOL    HW1 8690   2.192   3.847   0.422
 2597SOL    HW2 8691   2.142   3.942   0.545
 2598SOL     OW 8692   6.499   1.491   4.745
 2598SOL    HW1 8693   6.571   1.422   4.753
 2598SOL    HW2 8694   6.417   1.449   4.706
 2599SOL     OW 8695   2.958   0.254   0.844
 2599SOL    HW1 8696   2.966   0.174   0.903
 2599SOL    HW2 8697   2.983   0.228   0.750
 2600SOL     OW 8698   4.927   3.653   4.873
 2600SOL    HW1 8699   4.888   3.723   4.814
 2600SOL    HW2 8700   4.858   3.622   4.939
 2601SOL     OW 8701   3.187   1.609   6.844
 2601SOL    HW1 8702   3.147   1.658   6.767
 2601SOL    HW2 8703   3.204   1.672   6.920
 2602SOL     OW 8704   6.723   5.076   3.748
 2602SOL    HW1 8705   6.755   5.017   3.821
 2602SOL    HW2 8706   6.627   5.099   3.763
 2603SOL     OW 8707   2.068   2.457   1.342
 2603SOL    HW1 8708   2.139   2.442   1.410
 2603SOL    HW2 8709   1.985   2.407   1.368
 2604SOL     OW 8710   5.067   1.162   2.838
 2604SOL    HW1 8711   4.995   1.146   2.771
 2604SOL    HW2 8712   5.088   1.077   2.886
 2605SOL     OW 8713   3.074   5.168   3.454
 2605SOL    HW1 8714   3.124   5.082   3.446
 2605SOL    HW2 8715   3.119   5.227   3.520
 2606SOL     OW 8716   0.115   4.810   0.662
 2606SOL    HW1 8717   0.022   4.774   0.671
 2606SOL    HW2 8718   0.132   4.877   0.734
 2607SOL     OW 8719   0.655   1.437   5.852
 2607SOL    HW1 8720   0.597   1.374   5.903
 2607SOL    HW2 8721   0.598   1.496   5.795
 2608SOL     OW 8722   3.696   5.692   2.654
 2608SOL    HW1 8723   3.602   5.685   2.621
 2608SOL    HW2 8724   3.699   5.672   2.752
 2609SOL     OW 8725   0.499   2.434   1.484
 2609SOL    HW1 8726   0.578   2.496   1.488
 2609SOL    HW2 8727   0.415   2.486   1.501
 2610SOL     OW 8728   6.922   4.762   4.648
 2610SOL    HW1 8729   6.868   4.845   4.659
 2610SOL    HW2 8730   6.964   4.761   4.557
 2611SOL     OW 8731   5.453   6.722   1.361
 2611SOL    HW1 8732   5.393   6.686   1.432
 2611SOL    HW2 8733   5.443   6.666   1.278
 2612SOL     OW 8734   0.053   6.911   5.669
 2612SOL    HW1 8735   7.008   6.969   5.715
 2612SOL    HW2 8736   0.046   6.924   5.570
 2613SOL     OW 8737   2.943   6.640   1.296
 2613SOL    HW1 8738   3.021   6.618   1.237
 2613SOL    HW2 8739   2.881   6.562   1.301
 2614SOL     OW 8740   6.823   0.040   6.422
 2614SOL    HW1 8741   6.791   6.977   6.462
 2614SOL    HW2 8742   6.915   0.060   6.456
 2615SOL     OW 8743   6.100   3.818   2.722
 2615SOL    HW1 8744   6.067   3.858   2.637
 2615SOL    HW2 8745   6.077   3.878   2.798
 2616SOL     OW 8746   3.833   3.397   3.580
 2616SOL    HW1 8747   3.898   3.456   3.626
 2616SOL    HW2 8748   3.740   3.418   3.612
 2617SOL     OW 8749   3.801   6.314   0.982
 2617SOL    HW1 8750   3.798   6.287   0.885
 2617SOL    HW2 8751   3.895   6.324   1.011
 2618SOL     OW 8752   0.366   6.547   4.036
 2618SOL    HW1 8753   0.386   6.596   4.121
 2618SOL    HW2 8754   0.270   6.559   4.012
 2619SOL     OW 8755   2.907   1.460   3.193
 2619SOL    HW1 8756   2.876   1.480   3.100
 2619SOL    HW2 8757   3.007   1.468   3.197
 2620SOL     OW 8758   0.950   6.476   3.043
 2620SOL    HW1 8759   0.962   6.411   3.118
 2620SOL    HW2 8760   0.855   6.508   3.042
 2621SOL     OW 8761   2.013   5.559   2.649
 2621SOL    HW1 8762   2.046   5.472   2.612
 2621SOL    HW2 8763   1.921   5.547   2.685
 2622SOL     OW 8764   2.747   1.849   6.781
 2622SOL    HW1 8765   2.780   1.871   6.689
 2622SOL    HW2 8766   2.791   1.765   6.812
 2623SOL     OW 8767   3.503   2.106   4.567
 2623SOL    HW1 8768   3.495   2.049   4.486
 2623SOL    HW2 8769   3.425   2.092   4.627
 2624SOL     OW 8770   6.859   3.059   4.955
 2624SOL    HW1 8771   6.895   3.097   5.040
 2624SOL    HW2 8772   6.762   3.080   4.948
 2625SOL     OW 8773   2.760   2.670   6.301
 2625SOL    HW1 8774   2.731   2.576   6.282
 2625SOL    HW2 8775   2.724   2.700   6.389
 2626SOL     OW 8776   0.535   0.430   5.129
 2626SOL    HW1 8777   0.482   0.449   5.047
 2626SOL    HW2 8778   0.533   0.331   5.147
 2627SOL     OW 8779   0.428   0.291   4.870
 2627SOL    HW1 8780   0.333   0.288   4.840
 2627SOL    HW2 8781   0.488   0.288   4.790
 2628SOL     OW 8782   2.572   5.051   6.447
 2628SOL    HW1 8783   2.611   5.054   6.355
 2628SOL    HW2 8784   2.634   5.098   6.510
 2629SOL     OW 8785   3.344   4.134   1.793
 2629SOL    HW1 8786   3.359   4.083   1.878
 2629SOL    HW2 8787   3.251   4.118   1.760
 2630SOL     OW 8788   2.789   1.593   3.446
 2630SOL    HW1 8789   2.789   1.569   3.543
 2630SOL    HW2 8790   2.866   1.549   3.400
 2631SOL     OW 8791   4.811   0.224   4.213
 2631SOL    HW1 8792   4.893   0.265   4.174
 2631SOL    HW2 8793   4.769   0.289   4.277
 2632SOL     OW 8794   3.113   1.731   6.605
 2632SOL    HW1 8795   3.050   1.670   6.557
 2632SOL    HW2 8796   3.122   1.817   6.554
 2633SOL     OW 8797   6.321   1.731   5.742
 2633SOL    HW1 8798   6.417   1.757   5.756
 2633SOL    HW2 8799   6.275   1.799   5.686
 2634SOL     OW 8800   1.993   4.153   2.848
 2634SOL    HW1 8801   1.921   4.190   2.790
 2634SOL    HW2 8802   1.970   4.058   2.872
 2635SOL     OW 8803   5.551   6.142   5.240
 2635SOL    HW1 8804   5.538   6.205   5.317
 2635SOL    HW2 8805   5.628   6.081   5.260
 2636SOL     OW 8806   4.548   0.400   5.068
 2636SOL    HW1 8807   4.602   0.436   5.143
 2636SOL    HW2 8808   4.608   0.358   5.000
 2637SOL     OW 8809   5.810   1.771   3.580
 2637SOL    HW1 8810   5.800   1.706   3.655
 2637SOL    HW2 8811   5.901   1.814   3.584
 2638SOL     OW 8812   0.085   0.177   2.804
 2638SOL    HW1 8813   0.184   0.192   2.800
 2638SOL    HW2 8814   0.051   0.156   2.713
 2639SOL     OW 8815   1.290   0.057   1.776
 2639SOL    HW1 8816   1.246   6.998   1.740
 2639SOL    HW2 8817   1.361   0.030   1.841
 2640SOL     OW 8818   7.001   6.134   4.581
 2640SOL    HW1 8819   0.034   6.079   4.642
 2640SOL    HW2 8820   6.947   6.199   4.635
 2641SOL     OW 8821   4.908   3.218   2.015
 2641SOL    HW1 8822   4.836   3.153   2.041
 2641SOL    HW2 8823   4.878   3.271   1.936
 2642SOL     OW 8824   4.502   6.755   4.166
 2642SOL    HW1 8825   4.591   6.740   4.210
 2642SOL    HW2 8826   4.449   6.821   4.219
 2643SOL     OW 8827   1.168   4.375   2.542
 2643SOL    HW1 8828   1.172   4.283   2.502
 2643SOL    HW2 8829   1.089   4.380   2.604
 2644SOL     OW 8830   6.443   5.220   5.823
 2644SOL    HW1 8831   6.427   5.259   5.914
 2644SOL    HW2 8832   6.525   5.262   5.783
 2645SOL     OW 8833   4.528   5.509   3.922
 2645SOL    HW1 8834   4.457   5.565   3.881
 2645SOL    HW2 8835   4.505   5.412   3.910
 2646SOL     OW 8836   5.762   0.298   6.465
 2646SOL    HW1 8837   5.747   0.247   6.380
 2646SOL    HW2 8838   5.856   0.331   6.468
 2647SOL     OW 8839   6.144   0.473   1.999
 2647SOL    HW1 8840   6.099   0.430   1.921
 2647SOL    HW2 8841   6.217   0.533   1.966
 2648SOL     OW 8842   0.039   0.333   3.305
 2648SOL    HW1 8843   0.034   0.260   3.374
 2648SOL    HW2 8844   0.055   0.421   3.350
 2649SOL     OW 8845   5.685   3.397   6.367
 2649SOL    HW1 8846   5.627   3.377   6.287
 2649SOL    HW2 8847   5.695   3.314   6.422
 2650SOL     OW 8848   0.805   3.722   4.210
 2650SOL    HW1 8849   0.799   3.624   4.226
 2650SOL    HW2 8850   0.742   3.748   4.136
 2651SOL     OW 8851   0.360   2.235   6.879
 2651SOL    HW1 8852   0.378   2.214   6.975
 2651SOL    HW2 8853   0.291   2.307   6.873
 2652SOL     OW 8854   2.923   3.664   3.872
 2652SOL    HW1 8855   3.000   3.679   3.934
 2652SOL    HW2 8856   2.938   3.715   3.787
 2653SOL     OW 8857   4.947   0.230   5.766
 2653SOL    HW1 8858   4.898   0.222   5.680
 2653SOL    HW2 8859   4.928   0.319   5.807
 2654SOL     OW 8860   5.026   4.958   1.034
 2654SOL    HW1 8861   5.068   5.040   1.072
 2654SOL    HW2 8862   5.005   4.894   1.108
 2655SOL     OW 8863   5.123   4.848   4.271
 2655SOL    HW1 8864   5.116   4.820   4.175
 2655SOL    HW2 8865   5.219   4.858   4.296
 2656SOL     OW 8866   3.846   4.922   4.116
 2656SOL    HW1 8867   3.752   4.917   4.149
 2656SOL    HW2 8868   3.906   4.873   4.180
 2657SOL     OW 8869   2.380   4.351   6.229
 2657SOL    HW1 8870   2.312   4.381   6.295
 2657SOL    HW2 8871   2.472   4.366   6.267
 2658SOL     OW 8872   5.072   4.359   0.531
 2658SOL    HW1 8873   5.066   4.272   0.580
 2658SOL    HW2 8874   5.069   4.435   0.596
 2659SOL     OW 8875   6.187   2.965   5.070
 2659SOL    HW1 8876   6.172   3.018   4.987
 2659SOL    HW2 8877   6.113   2.898   5.080
 2660SOL     OW 8878   0.214   1.633   1.058
 2660SOL    HW1 8879   0.274   1.688   1.116
 2660SOL    HW2 8880   0.217   1.668   0.964
 2661SOL     OW 8881   2.322   6.423   1.019
 2661SOL    HW1 8882   2.270   6.481   1.082
 2661SOL    HW2 8883   2.347   6.476   0.938
 2662SOL     OW 8884   4.254   0.132   5.341
 2662SOL    HW1 8885   4.231   0.229   5.336
 2662SOL    HW2 8886   4.338   0.115   5.289
 2663SOL     OW 8887   2.650   4.114   1.151
 2663SOL    HW1 8888   2.562   4.161   1.147
 2663SOL    HW2 8889   2.656   4.048   1.076
 2664SOL     OW 8890   4.028   3.510   4.845
 2664SOL    HW1 8891   4.040   3.584   4.779
 2664SOL    HW2 8892   4.070   3.537   4.932
 2665SOL     OW 8893   2.552   2.585   5.257
 2665SOL    HW1 8894   2.497   2.669   5.266
 2665SOL    HW2 8895   2.603   2.570   5.342
 2666SOL     OW 8896   4.955   3.912   1.853
 2666SOL    HW1 8897   5.032   3.856   1.822
 2666SOL    HW2 8898   4.988   3.987   1.910
 2667SOL     OW 8899   1.602   6.111   4.288
 2667SOL    HW1 8900   1.577   6.192   4.235
 2667SOL    HW2 8901   1.690   6.076   4.255
 2668SOL     OW 8902   6.024   3.357   3.872
 2668SOL    HW1 8903   6.051   3.453   3.876
 2668SOL    HW2 8904   5.925   3.350   3.863
 2669SOL     OW 8905   3.088   4.900   5.033
 2669SOL    HW1 8906   3.002   4.912   4.983
 2669SOL    HW2 8907   3.164   4.892   4.969
 2670SOL     OW 8908   5.418   2.072   6.646
 2670SOL    HW1 8909   5.340   2.122   6.610
 2670SOL    HW2 8910   5.393   2.029   6.733
 2671SOL     OW 8911   3.509   5.263   6.725
 2671SOL    HW1 8912   3.535   5.167   6.720
 2671SOL    HW2 8913   3.497   5.290   6.821
 2672SOL     OW 8914   0.094   4.958   0.389
 2672SOL    HW1 8915   0.115   4.926   0.481
 2672SOL    HW2 8916   0.096   5.058   0.386
 2673SOL     OW 8917   6.510   1.751   3.919
 2673SOL    HW1 8918   6.457   1.814   3.976
 2673SOL    HW2 8919   6.537   1.796   3.834
 2674SOL     OW 8920   1.679   4.011   3.582
 2674SOL    HW1 8921   1.763   3.961   3.561
 2674SOL    HW2 8922   1.699   4.085   3.646
 2675SOL     OW 8923   6.362   4.939   4.464
 2675SOL    HW1 8924   6.323   4.849   4.447
 2675SOL    HW2 8925   6.309   4.985   4.535
 2676SOL     OW 8926   4.775   1.584   1.970
 2676SOL    HW1 8927   4.809   1.674   1.942
 2676SOL    HW2 8928   4.699   1.596   2.033
 2677SOL     OW 8929   3.214   4.239   0.025
 2677SOL    HW1 8930   3.140   4.274   0.082
 2677SOL    HW2 8931   3.232   4.144   0.049
 2678SOL     OW 8932   6.704   4.452   1.202
 2678SOL    HW1 8933   6.801   4.442   1.223
 2678SOL    HW2 8934   6.670   4.539   1.239
 2679SOL     OW 8935   3.452   5.564   0.798
 2679SOL    HW1 8936   3.368   5.556   0.853
 2679SOL    HW2 8937   3.515   5.491   0.825
 2680SOL     OW 8938   0.812   1.632   0.509
 2680SOL    HW1 8939   0.713   1.625   0.518
 2680SOL    HW2 8940   0.843   1.723   0.537
 2681SOL     OW 8941   1.659   2.273   4.216
 2681SOL    HW1 8942   1.639   2.175   4.226
 2681SOL    HW2 8943   1.704   2.306   4.299
 2682SOL     OW 8944   5.406   3.682   2.883
 2682SOL    HW1 8945   5.450   3.599   2.917
 2682SOL    HW2 8946   5.377   3.738   2.961
 2683SOL     OW 8947   2.424   3.638   0.215
 2683SOL    HW1 8948   2.448   3.594   0.302
 2683SOL    HW2 8949   2.332   3.610   0.187
 2684SOL     OW 8950   4.570   6.061   1.311
 2684SOL    HW1 8951   4.494   6.107   1.356
 2684SOL    HW2 8952   4.595   5.980   1.364
 2685SOL     OW 8953   6.472   5.964   6.725
 2685SOL    HW1 8954   6.571   5.975   6.722
 2685SOL    HW2 8955   6.450   5.867   6.730
 2686SOL     OW 8956   1.586   1.679   5.436
 2686SOL    HW1 8957   1.525   1.602   5.453
 2686SOL    HW2 8958   1.600   1.690   5.337
 2687SOL     OW 8959   4.392   4.582   2.503
 2687SOL    HW1 8960   4.368   4.511   2.436
 2687SOL    HW2 8961   4.491   4.597   2.501
 2688SOL     OW 8962   4.749   5.310   0.014
 2688SOL    HW1 8963   4.748   5.369   0.095
 2688SOL    HW2 8964   4.792   5.223   0.038
 2689SOL     OW 8965   1.929   3.058   3.463
 2689SOL    HW1 8966   1.880   3.039   3.378
 2689SOL    HW2 8967   1.864   3.094   3.530
 2690SOL     OW 8968   3.159   3.750   4.046
 2690SOL    HW1 8969   3.170   3.673   4.108
 2690SOL    HW2 8970   3.111   3.824   4.093
 2691SOL     OW 8971   0.780   5.493   2.119
 2691SOL    HW1 8972   0.735   5.407   2.140
 2691SOL    HW2 8973   0.730   5.568   2.163
 2692SOL     OW 8974   3.664   4.854   3.256
 2692SOL    HW1 8975   3.740   4.794   3.229
 2692SOL    HW2 8976   3.630   4.902   3.175
 2693SOL     OW 8977   1.576   4.215   3.020
 2693SOL    HW1 8978   1.598   4.206   3.117
 2693SOL    HW2 8979   1.622   4.143   2.968
 2694SOL     OW 8980   4.349   6.620   2.904
 2694SOL    HW1 8981   4.409   6.582   2.834
 2694SOL    HW2 8982   4.404   6.661   2.977
 2695SOL     OW 8983   4.986   0.786   2.772
 2695SOL    HW1 8984   4.953   0.770   2.865
 2695SOL    HW2 8985   4.908   0.805   2.712
 2696SOL     OW 8986   3.861   3.418   5.266
 2696SOL    HW1 8987   3.805   3.470   5.202
 2696SOL    HW2 8988   3.889   3.477   5.341
 2697SOL     OW 8989   3.234   1.317   2.999
 2697SOL    HW1 8990   3.256   1.291   3.093
 2697SOL    HW2 8991   3.167   1.254   2.960
 2698SOL     OW 8992   2.000   5.972   0.523
 2698SOL    HW1 8993   1.997   5.873   0.511
 2698SOL    HW2 8994   1.908   6.010   0.508
 2699SOL     OW 8995   3.212   6.361   0.161
 2699SOL    HW1 8996   3.185   6.442   0.213
 2699SOL    HW2 8997   3.268   6.301   0.219
 2700SOL     OW 8998   2.094   4.011   0.985
 2700SOL    HW1 8999   2.073   3.939   1.051
 2700SOL    HW2 9000   2.017   4.023   0.923
 2701SOL     OW 9001   3.835   0.549   6.723
 2701SOL    HW1 9002   3.807   0.624   6.663
 2701SOL    HW2 9003   3.918   0.507   6.688
 2702SOL     OW 9004   0.805   2.876   3.705
 2702SOL    HW1 9005   0.777   2.954   3.761
 2702SOL    HW2 9006   0.841   2.909   3.617
 2703SOL     OW 9007   2.044   0.876   2.460
 2703SOL    HW1 9008   2.068   0.779   2.468
 2703SOL    HW2 9009   2.041   0.902   2.363
 2704SOL     OW 9010   0.161   6.197   0.965
 2704SOL    HW1 9011   0.085   6.133   0.976
 2704SOL    HW2 9012   0.247   6.147   0.959
 2705SOL     OW 9013   1.252   4.957   4.161
 2705SOL    HW1 9014   1.303   5.029   4.114
 2705SOL    HW2 9015   1.311   4.912   4.228
 2706SOL     OW 9016   0.164   0.635   1.404
 2706SOL    HW1 9017   0.244   0.585   1.372
 2706SOL    HW2 9018   0.149   0.715   1.346
 2707SOL     OW 9019   2.128   0.894   5.002
 2707SOL    HW1 9020   2.057   0.827   4.981
 2707SOL    HW2 9021   2.115   0.975   4.945
 2708SOL     OW 9022   0.931   1.879   0.568
 2708SOL    HW1 9023   0.917   1.935   0.487
 2708SOL    HW2 9024   0.934   1.938   0.649
 2709SOL     OW 9025   5.589   6.426   0.315
 2709SOL    HW1 9026   5.623   6.492   0.248
 2709SOL    HW2 9027   5.502   6.459   0.353
 2710SOL     OW 9028   0.596   3.137   3.451
 2710SOL    HW1 9029   0.636   3.052   3.417
 2710SOL    HW2 9030   0.670   3.202   3.471
 2711SOL     OW 9031   2.280   1.192   3.477
 2711SOL    HW1 9032   2.296   1.182   3.575
 2711SOL    HW2 9033   2.340   1.263   3.441
 2712SOL     OW 9034   3.247   4.887   0.718
 2712SOL    HW1 9035   3.333   4.888   0.769
 2712SOL    HW2 9036   3.194   4.806   0.744
 2713SOL     OW 9037   2.419   2.055   4.988
 2713SOL    HW1 9038   2.366   2.077   4.906
 2713SOL    HW2 9039   2.416   1.956   5.004
 2714SOL     OW 9040   4.630   2.350   0.601
 2714SOL    HW1 9041   4.728   2.352   0.617
 2714SOL    HW2 9042   4.593   2.262   0.630
 2715SOL     OW 9043   5.106   0.979   0.447
 2715SOL    HW1 9044   5.125   1.076   0.436
 2715SOL    HW2 9045   5.007   0.963   0.443
 2716SOL     OW 9046   5.346   4.875   3.043
 2716SOL    HW1 9047   5.328   4.945   2.973
 2716SOL    HW2 9048   5.423   4.818   3.014
 2717SOL     OW 9049   2.506   4.866   1.927
 2717SOL    HW1 9050   2.538   4.799   1.994
 2717SOL    HW2 9051   2.498   4.822   1.837
 2718SOL     OW 9052   1.660   3.393   5.966
 2718SOL    HW1 9053   1.591   3.436   5.907
 2718SOL    HW2 9054   1.749   3.399   5.922
 2719SOL     OW 9055   6.550   5.657   1.372
 2719SOL    HW1 9056   6.465   5.705   1.351
 2719SOL    HW2 9057   6.625   5.700   1.322
 2720SOL     OW 9058   2.188   6.239   2.370
 2720SOL    HW1 9059   2.177   6.185   2.454
 2720SOL    HW2 9060   2.114   6.216   2.306
 2721SOL     OW 9061   3.045   0.678   4.283
 2721SOL    HW1 9062   2.959   0.626   4.288
 2721SOL    HW2 9063   3.114   0.635   4.341
 2722SOL     OW 9064   6.741   5.778   1.784
 2722SOL    HW1 9065   6.656   5.757   1.834
 2722SOL    HW2 9066   6.816   5.789   1.849
 2723SOL     OW 9067   0.853   6.507   5.583
 2723SOL    HW1 9068   0.821   6.425   5.631
 2723SOL    HW2 9069   0.788   6.582   5.599
 2724SOL     OW 9070   2.330   7.018   6.536
 2724SOL    HW1 9071   2.248   6.971   6.505
 2724SOL    HW2 9072   2.331   7.022   6.636
 2725SOL     OW 9073   6.328   4.833   4.162
 2725SOL    HW1 9074   6.265   4.796   4.094
 2725SOL    HW2 9075   6.306   4.795   4.252
 2726SOL     OW 9076   0.072   3.664   1.214
 2726SOL    HW1 9077   0.150   3.621   1.167
 2726SOL    HW2 9078   7.012   3.612   1.195
 2727SOL     OW 9079   0.381   5.238   3.790
 2727SOL    HW1 9080   0.283   5.237   3.814
 2727SOL    HW2 9081   0.411   5.332   3.775
 2728SOL     OW 9082   3.894   6.910   5.861
 2728SOL    HW1 9083   3.964   6.882   5.927
 2728SOL    HW2 9084   3.888   6.842   5.788
 2729SOL     OW 9085   6.424   5.339   1.451
 2729SOL    HW1 9086   6.435   5.336   1.550
 2729SOL    HW2 9087   6.514   5.339   1.408
 2730SOL     OW 9088   1.962   5.117   1.641
 2730SOL    HW1 9089   1.971   5.118   1.740
 2730SOL    HW2 9090   2.046   5.149   1.598
 2731SOL     OW 9091   4.170   3.580   1.991
 2731SOL    HW1 9092   4.070   3.571   1.992
 2731SOL    HW2 9093   4.198   3.645   2.061
 2732SOL     OW 9094   5.150   3.089   2.382
 2732SOL    HW1 9095   5.181   3.134   2.299
 2732SOL    HW2 9096   5.146   3.155   2.457
 2733SOL     OW 9097   7.001   6.932   5.329
 2733SOL    HW1 9098   0.014   6.839   5.340
 2733SOL    HW2 9099   0.051   6.991   5.294
 2734SOL     OW 9100   2.223   5.909   1.664
 2734SOL    HW1 9101   2.224   5.979   1.592
 2734SOL    HW2 9102   2.316   5.894   1.696
 2735SOL     OW 9103   1.067   2.811   2.644
 2735SOL    HW1 9104   1.101   2.718   2.633
 2735SOL    HW2 9105   1.066   2.857   2.555
 2736SOL     OW 9106   3.987   6.895   4.430
 2736SOL    HW1 9107   4.046   6.815   4.421
 2736SOL    HW2 9108   3.892   6.865   4.437
 2737SOL     OW 9109   3.769   3.810   5.865
 2737SOL    HW1 9110   3.710   3.756   5.925
 2737SOL    HW2 9111   3.721   3.893   5.836
 2738SOL     OW 9112   5.645   5.105   4.057
 2738SOL    HW1 9113   5.636   5.154   4.143
 2738SOL    HW2 9114   5.718   5.146   4.003
 2739SOL     OW 9115   6.792   5.287   0.630
 2739SOL    HW1 9116   6.885   5.284   0.666
 2739SOL    HW2 9117   6.727   5.292   0.706
 2740SOL     OW 9118   6.324   3.460   2.322
 2740SOL    HW1 9119   6.273   3.522   2.263
 2740SOL    HW2 9120   6.265   3.433   2.399
 2741SOL     OW 9121   6.366   0.999   5.421
 2741SOL    HW1 9122   6.282   1.008   5.473
 2741SOL    HW2 9123   6.413   1.087   5.418
 2742SOL     OW 9124   2.063   4.872   6.904
 2742SOL    HW1 9125   2.123   4.792   6.917
 2742SOL    HW2 9126   2.072   4.904   6.809
 2743SOL     OW 9127   6.886   5.382   2.557
 2743SOL    HW1 9128   6.977   5.359   2.524
 2743SOL    HW2 9129   6.891   5.411   2.653
 2744SOL     OW 9130   4.743   1.710   0.108
 2744SOL    HW1 9131   4.819   1.713   0.173
 2744SOL    HW2 9132   4.658   1.689   0.157
 2745SOL     OW 9133   0.774   6.767   6.768
 2745SOL    HW1 9134   0.697   6.717   6.808
 2745SOL    HW2 9135   0.839   6.790   6.840
 2746SOL     OW 9136   2.211   2.117   3.465
 2746SOL    HW1 9137   2.259   2.205   3.460
 2746SOL    HW2 9138   2.267   2.052   3.518
 2747SOL     OW 9139   5.867   3.594   5.966
 2747SOL    HW1 9140   5.798   3.552   5.906
 2747SOL    HW2 9141   5.870   3.692   5.950
 2748SOL     OW 9142   4.327   2.076   0.883
 2748SOL    HW1 9143   4.352   1.982   0.864
 2748SOL    HW2 9144   4.405   2.125   0.923
 2749SOL     OW 9145   6.301   4.680   3.564
 2749SOL    HW1 9146   6.261   4.771   3.565
 2749SOL    HW2 9147   6.261   4.626   3.490
 2750SOL     OW 9148   1.034   5.014   1.429
 2750SOL    HW1 9149   1.004   5.049   1.340
 2750SOL    HW2 9150   1.064   4.919   1.420
 2751SOL     OW 9151   0.469   6.355   0.585
 2751SOL    HW1 9152   0.404   6.322   0.654
 2751SOL    HW2 9153   0.532   6.420   0.626
 2752SOL     OW 9154   4.800   4.576   5.042
 2752SOL    HW1 9155   4.751   4.493   5.071
 2752SOL    HW2 9156   4.896   4.554   5.026
 2753SOL     OW 9157   1.135   6.579   5.772
 2753SOL    HW1 9158   1.038   6.562   5.753
 2753SOL    HW2 9159   1.191   6.519   5.715
 2754SOL     OW 9160   6.389   0.846   3.588
 2754SOL    HW1 9161   6.291   0.860   3.571
 2754SOL    HW2 9162   6.419   0.910   3.658
 2755SOL     OW 9163   2.592   6.691   3.577
 2755SOL    HW1 9164   2.528   6.758   3.539
 2755SOL    HW2 9165   2.629   6.726   3.663
 2756SOL     OW 9166   5.796   4.443   5.500
 2756SOL    HW1 9167   5.717   4.464   5.559
 2756SOL    HW2 9168   5.872   4.503   5.525
 2757SOL     OW 9169   2.241   1.616   6.189
 2757SOL    HW1 9170   2.146   1.645   6.184
 2757SOL    HW2 9171   2.270   1.612   6.285
 2758SOL     OW 9172   5.213   6.301   3.235
 2758SOL    HW1 9173   5.205   6.395   3.268
 2758SOL    HW2 9174   5.306   6.285   3.203
 2759SOL     OW 9175   4.318   5.800   5.784
 2759SOL    HW1 9176   4.406   5.752   5.783
 2759SOL    HW2 9177   4.301   5.840   5.694
 2760SOL     OW 9178   0.263   5.497   2.733
 2760SOL    HW1 9179   0.202   5.465   2.805
 2760SOL    HW2 9180   0.241   5.591   2.709
 2761SOL     OW 9181   2.125   4.085   4.616
 2761SOL    HW1 9182   2.169   4.104   4.528
 2761SOL    HW2 9183   2.170   4.137   4.688
 2762SOL     OW 9184   1.905   1.908   6.638
 2762SOL    HW1 9185   1.869   1.992   6.597
 2762SOL    HW2 9186   2.005   1.913   6.642
 2763SOL     OW 9187   4.932   2.035   4.868
 2763SOL    HW1 9188   4.880   2.117   4.890
 2763SOL    HW2 9189   4.948   2.031   4.769
 2764SOL     OW 9190   0.079   0.012   2.133
 2764SOL    HW1 9191   0.060   0.098   2.180
 2764SOL    HW2 9192   0.165   0.020   2.082
 2765SOL     OW 9193   6.447   0.116   0.872
 2765SOL    HW1 9194   6.364   0.151   0.828
 2765SOL    HW2 9195   6.517   0.100   0.803
 2766SOL     OW 9196   4.202   2.232   6.904
 2766SOL    HW1 9197   4.150   2.307   6.862
 2766SOL    HW2 9198   4.251   2.182   6.832
 2767SOL     OW 9199   6.583   5.378   6.719
 2767SOL    HW1 9200   6.498   5.328   6.735
 2767SOL    HW2 9201   6.584   5.461   6.773
 2768SOL     OW 9202   4.328   0.614   1.345
 2768SOL    HW1 9203   4.402   0.634   1.408
 2768SOL    HW2 9204   4.313   0.692   1.284
 2769SOL     OW 9205   2.733   3.993   6.329
 2769SOL    HW1 9206   2.635   3.973   6.332
 2769SOL    HW2 9207   2.780   3.925   6.274
 2770SOL     OW 9208   4.649   5.640   5.178
 2770SOL    HW1 9209   4.626   5.728   5.138
 2770SOL    HW2 9210   4.634   5.568   5.110
 2771SOL     OW 9211   5.458   0.931   4.593
 2771SOL    HW1 9212   5.415   1.020   4.582
 2771SOL    HW2 9213   5.391   0.866   4.628
 2772SOL     OW 9214   3.191   1.010   1.542
 2772SOL    HW1 9215   3.105   1.018   1.491
 2772SOL    HW2 9216   3.268   1.018   1.479
 2773SOL     OW 9217   6.826   2.939   3.963
 2773SOL    HW1 9218   6.748   2.993   3.997
 2773SOL    HW2 9219   6.799   2.894   3.877
 2774SOL     OW 9220   5.171   3.327   3.005
 2774SOL    HW1 9221   5.082   3.317   2.961
 2774SOL    HW2 9222   5.187   3.423   3.028
 2775SOL     OW 9223   6.628   3.369   4.456
 2775SOL    HW1 9224   6.615   3.426   4.375
 2775SOL    HW2 9225   6.549   3.309   4.466
 2776SOL     OW 9226   5.051   4.213   5.891
 2776SOL    HW1 9227   4.999   4.271   5.829
 2776SOL    HW2 9228   5.008   4.123   5.897
 2777SOL     OW 9229   2.526   2.117   1.035
 2777SOL    HW1 9230   2.596   2.188   1.039
 2777SOL    HW2 9231   2.478   2.113   1.123
 2778SOL     OW 9232   0.667   5.953   6.483
 2778SOL    HW1 9233   0.706   5.873   6.439
 2778SOL    HW2 9234   0.681   6.034   6.425
 2779SOL     OW 9235   5.594   6.631   1.924
 2779SOL    HW1 9236   5.589   6.671   1.833
 2779SOL    HW2 9237   5.538   6.686   1.987
 2780SOL     OW 9238   0.165   0.276   5.941
 2780SOL    HW1 9239   0.096   0.340   5.975
 2780SOL    HW2 9240   0.122   0.212   5.877
 2781SOL     OW 9241   6.057   0.598   3.224
 2781SOL    HW1 9242   6.045   0.514   3.171
 2781SOL    HW2 9243   6.155   0.618   3.234
 2782SOL     OW 9244   4.469   1.384   4.676
 2782SOL    HW1 9245   4.428   1.455   4.732
 2782SOL    HW2 9246   4.444   1.294   4.712
 2783SOL     OW 9247   6.716   4.110   2.111
 2783SOL    HW1 9248   6.644   4.138   2.047
 2783SOL    HW2 9249   6.767   4.191   2.140
 2784SOL     OW 9250   3.325   1.516   2.253
 2784SOL    HW1 9251   3.344   1.589   2.188
 2784SOL    HW2 9252   3.278   1.441   2.206
 2785SOL     OW 9253   4.957   2.438   0.561
 2785SOL    HW1 9254   5.056   2.445   0.571
 2785SOL    HW2 9255   4.913   2.494   0.632
 2786SOL     OW 9256   6.560   6.778   2.005
 2786SOL    HW1 9257   6.626   6.722   1.955
 2786SOL    HW2 9258   6.545   6.738   2.096
 2787SOL     OW 9259   5.908   6.604   5.799
 2787SOL    HW1 9260   5.841   6.529   5.800
 2787SOL    HW2 9261   5.861   6.691   5.810
 2788SOL     OW 9262   2.554   6.427   5.799
 2788SOL    HW1 9263   2.470   6.479   5.784
 2788SOL    HW2 9264   2.631   6.490   5.813
 2789SOL     OW 9265   1.913   1.740   3.735
 2789SOL    HW1 9266   1.905   1.796   3.652
 2789SOL    HW2 9267   1.839   1.763   3.798
 2790SOL     OW 9268   3.679   5.184   1.098
 2790SOL    HW1 9269   3.774   5.175   1.127
 2790SOL    HW2 9270   3.618   5.147   1.169
 2791SOL     OW 9271   0.760   3.866   2.132
 2791SOL    HW1 9272   0.779   3.930   2.206
 2791SOL    HW2 9273   0.799   3.900   2.046
 2792SOL     OW 9274   2.960   0.737   4.604
 2792SOL    HW1 9275   2.975   0.811   4.538
 2792SOL    HW2 9276   2.863   0.714   4.607
 2793SOL     OW 9277   5.153   3.511   1.805
 2793SOL    HW1 9278   5.180   3.510   1.901
 2793SOL    HW2 9279   5.146   3.605   1.772
 2794SOL     OW 9280   6.944   2.212   5.876
 2794SOL    HW1 9281   7.017   2.145   5.890
 2794SOL    HW2 9282   6.897   2.193   5.789
 2795SOL     OW 9283   0.697   4.219   1.237
 2795SOL    HW1 9284   0.742   4.274   1.308
 2795SOL    HW2 9285   0.598   4.217   1.256
 2796SOL     OW 9286   6.990   6.072   3.667
 2796SOL    HW1 9287   6.986   6.148   3.602
 2796SOL    HW2 9288   0.045   6.083   3.728
 2797SOL     OW 9289   5.159   5.035   5.711
 2797SOL    HW1 9290   5.235   5.046   5.647
 2797SOL    HW2 9291   5.112   5.123   5.721
 2798SOL     OW 9292   6.570   5.702   2.799
 2798SOL    HW1 9293   6.538   5.714   2.705
 2798SOL    HW2 9294   6.497   5.726   2.862
 2799SOL     OW 9295   5.716   5.934   6.375
 2799SOL    HW1 9296   5.735   6.021   6.331
 2799SOL    HW2 9297   5.726   5.944   6.474
 2800SOL     OW 9298   5.777   6.143   5.584
 2800SOL    HW1 9299   5.760   6.102   5.673
 2800SOL    HW2 9300   5.690   6.163   5.539
 2801SOL     OW 9301   0.485   5.638   6.069
 2801SOL    HW1 9302   0.525   5.719   6.112
 2801SOL    HW2 9303   0.457   5.661   5.975
 2802SOL     OW 9304   5.702   6.635   5.269
 2802SOL    HW1 9305   5.607   6.660   5.286
 2802SOL    HW2 9306   5.758   6.718   5.262
 2803SOL     OW 9307   4.024   5.178   6.096
 2803SOL    HW1 9308   4.088   5.213   6.028
 2803SOL    HW2 9309   3.934   5.221   6.082
 2804SOL     OW 9310   0.754   3.722   4.974
 2804SOL    HW1 9311   0.760   3.698   4.877
 2804SOL    HW2 9312   0.846   3.735   5.010
 2805SOL     OW 9313   5.794   3.335   3.212
 2805SOL    HW1 9314   5.776   3.298   3.303
 2805SOL    HW2 9315   5.893   3.350   3.202
 2806SOL     OW 9316   2.211   4.068   6.018
 2806SOL    HW1 9317   2.164   4.129   5.955
 2806SOL    HW2 9318   2.310   4.077   6.005
 2807SOL     OW 9319   4.291   0.195   3.185
 2807SOL    HW1 9320   4.349   0.120   3.152
 2807SOL    HW2 9321   4.200   0.188   3.144
 2808SOL     OW 9322   6.662   5.184   0.862
 2808SOL    HW1 9323   6.708   5.118   0.921
 2808SOL    HW2 9324   6.564   5.182   0.882
 2809SOL     OW 9325   5.004   2.373   1.847
 2809SOL    HW1 9326   5.059   2.416   1.775
 2809SOL    HW2 9327   5.018   2.423   1.933
 2810SOL     OW 9328   2.468   5.881   2.640
 2810SOL    HW1 9329   2.490   5.788   2.670
 2810SOL    HW2 9330   2.371   5.898   2.652
 2811SOL     OW 9331   1.064   1.728   2.960
 2811SOL    HW1 9332   1.117   1.759   2.881
 2811SOL    HW2 9333   0.968   1.721   2.934
 2812SOL     OW 9334   6.066   3.460   0.507
 2812SOL    HW1 9335   6.094   3.437   0.601
 2812SOL    HW2 9336   5.970   3.488   0.507
 2813SOL     OW 9337   0.621   1.824   6.880
 2813SOL    HW1 9338   0.698   1.874   6.921
 2813SOL    HW2 9339   0.603   1.861   6.789
 2814SOL     OW 9340   3.412   4.068   5.666
 2814SOL    HW1 9341   3.478   4.050   5.738
 2814SOL    HW2 9342   3.342   3.996   5.666
 2815SOL     OW 9343   6.424   5.124   6.524
 2815SOL    HW1 9344   6.397   5.140   6.619
 2815SOL    HW2 9345   6.524   5.130   6.516
 2816SOL     OW 9346   6.250   6.394   4.206
 2816SOL    HW1 9347   6.342   6.359   4.189
 2816SOL    HW2 9348   6.189   6.317   4.226
 2817SOL     OW 9349   3.227   0.701   2.903
 2817SOL    HW1 9350   3.138   0.674   2.939
 2817SOL    HW2 9351   3.237   0.800   2.905
 2818SOL     OW 9352   0.002   1.290   2.371
 2818SOL    HW1 9353   0.008   1.371   2.311
 2818SOL    HW2 9354   0.007   1.319   2.466
 2819SOL     OW 9355   1.498   0.437   1.870
 2819SOL    HW1 9356   1.542   0.526   1.878
 2819SOL    HW2 9357   1.469   0.406   1.961
 2820SOL     OW 9358   1.510   2.006   2.255
 2820SOL    HW1 9359   1.486   2.102   2.240
 2820SOL    HW2 9360   1.571   1.975   2.182
 2821SOL     OW 9361   3.097   5.052   6.021
 2821SOL    HW1 9362   3.062   4.975   6.074
 2821SOL    HW2 9363   3.023   5.091   5.966
 2822SOL     OW 9364   4.344   2.082   0.460
 2822SOL    HW1 9365   4.378   2.173   0.438
 2822SOL    HW2 9366   4.287   2.086   0.542
 2823SOL     OW 9367   6.036   0.714   0.082
 2823SOL    HW1 9368   6.052   0.691   0.178
 2823SOL    HW2 9369   6.111   0.677   0.027
 2824SOL     OW 9370   2.276   1.807   5.299
 2824SOL    HW1 9371   2.187   1.844   5.276
 2824SOL    HW2 9372   2.334   1.806   5.217
 2825SOL     OW 9373   5.518   6.942   5.435
 2825SOL    HW1 9374   5.452   6.994   5.490
 2825SOL    HW2 9375   5.599   6.924   5.490
 2826SOL     OW 9376   4.013   2.700   6.435
 2826SOL    HW1 9377   3.922   2.742   6.427
 2826SOL    HW2 9378   4.055   2.727   6.521
 2827SOL     OW 9379   0.267   0.587   6.705
 2827SOL    HW1 9380   0.273   0.608   6.803
 2827SOL    HW2 9381   0.271   0.488   6.693
 2828SOL     OW 9382   2.047   3.010   0.456
 2828SOL    HW1 9383   1.967   2.950   0.458
 2828SOL    HW2 9384   2.125   2.961   0.418
 2829SOL     OW 9385   3.313   3.064   3.587
 2829SOL    HW1 9386   3.384   2.995   3.601
 2829SOL    HW2 9387   3.282   3.060   3.492
 2830SOL     OW 9388   3.474   4.225   5.476
 2830SOL    HW1 9389   3.451   4.172   5.558
 2830SOL    HW2 9390   3.530   4.170   5.414
 2831SOL     OW 9391   1.375   2.941   2.744
 2831SOL    HW1 9392   1.346   3.035   2.724
 2831SOL    HW2 9393   1.303   2.877   2.716
 2832SOL     OW 9394   0.744   2.830   1.405
 2832SOL    HW1 9395   0.732   2.730   1.399
 2832SOL    HW2 9396   0.841   2.852   1.394
 2833SOL     OW 9397   2.685   1.697   2.030
 2833SOL    HW1 9398   2.625   1.707   2.109
 2833SOL    HW2 9399   2.654   1.757   1.957
 2834SOL     OW 9400   4.195   6.422   4.492
 2834SOL    HW1 9401   4.127   6.372   4.439
 2834SOL    HW2 9402   4.158   6.444   4.582
 2835SOL     OW 9403   0.642   6.756   0.671
 2835SOL    HW1 9404   0.672   6.844   0.634
 2835SOL    HW2 9405   0.549   6.737   0.642
 2836SOL     OW 9406   1.413   6.340   1.388
 2836SOL    HW1 9407   1.317   6.347   1.361
 2836SOL    HW2 9408   1.453   6.432   1.395
 2837SOL     OW 9409   5.480   4.662   2.522
 2837SOL    HW1 9410   5.490   4.677   2.424
 2837SOL    HW2 9411   5.570   4.660   2.565
 2838SOL     OW 9412   4.752   3.811   0.810
 2838SOL    HW1 9413   4.748   3.711   0.809
 2838SOL    HW2 9414   4.841   3.840   0.846
 2839SOL     OW 9415   0.082   2.807   2.526
 2839SOL    HW1 9416   0.144   2.738   2.562
 2839SOL    HW2 9417   0.014   2.764   2.467
 2840SOL     OW 9418   1.521   5.995   2.177
 2840SOL    HW1 9419   1.462   5.988   2.258
 2840SOL    HW2 9420   1.464   5.995   2.094
 2841SOL     OW 9421   6.303   2.290   6.572
 2841SOL    HW1 9422   6.365   2.230   6.520
 2841SOL    HW2 9423   6.262   2.357   6.511
 2842SOL     OW 9424   0.842   5.308   4.834
 2842SOL    HW1 9425   0.923   5.250   4.845
 2842SOL    HW2 9426   0.774   5.282   4.903
 2843SOL     OW 9427   2.395   1.668   2.184
 2843SOL    HW1 9428   2.332   1.706   2.252
 2843SOL    HW2 9429   2.363   1.691   2.092
 2844SOL     OW 9430   6.217   5.372   0.927
 2844SOL    HW1 9431   6.209   5.432   1.007
 2844SOL    HW2 9432   6.181   5.420   0.847
 2845SOL     OW 9433   5.376   3.363   2.730
 2845SOL    HW1 9434   5.408   3.388   2.821
 2845SOL    HW2 9435   5.326   3.277   2.734
 2846SOL     OW 9436   3.758   0.324   0.582
 2846SOL    HW1 9437   3.790   0.298   0.672
 2846SOL    HW2 9438   3.733   0.242   0.530
 2847SOL     OW 9439   5.198   3.905   3.218
 2847SOL    HW1 9440   5.207   3.856   3.305
 2847SOL    HW2 9441   5.102   3.907   3.192
 2848SOL     OW 9442   2.584   2.886   5.756
 2848SOL    HW1 9443   2.487   2.864   5.766
 2848SOL    HW2 9444   2.639   2.803   5.768
 2849SOL     OW 9445   3.216   0.771   1.682
 2849SOL    HW1 9446   3.233   0.694   1.620
 2849SOL    HW2 9447   3.226   0.856   1.631
 2850SOL     OW 9448   2.121   0.075   3.068
 2850SOL    HW1 9449   2.186   0.002   3.047
 2850SOL    HW2 9450   2.099   0.125   2.985
 2851SOL     OW 9451   4.572   3.026   6.825
 2851SOL    HW1 9452   4.631   3.083   6.882
 2851SOL    HW2 9453   4.501   3.082   6.784
 2852SOL     OW 9454   6.328   4.368   6.409
 2852SOL    HW1 9455   6.304   4.412   6.496
 2852SOL    HW2 9456   6.427   4.359   6.402
 2853SOL     OW 9457   1.005   2.612   0.046
 2853SOL    HW1 9458   1.035   2.706   0.037
 2853SOL    HW2 9459   1.085   2.552   0.052
 2854SOL     OW 9460   3.715   0.561   5.745
 2854SOL    HW1 9461   3.800   0.536   5.792
 2854SOL    HW2 9462   3.683   0.483   5.691
 2855SOL     OW 9463   1.666   2.538   5.707
 2855SOL    HW1 9464   1.577   2.555   5.751
 2855SOL    HW2 9465   1.651   2.513   5.611
 2856SOL     OW 9466   1.306   2.955   4.140
 2856SOL    HW1 9467   1.342   3.047   4.159
 2856SOL    HW2 9468   1.274   2.952   4.045
 2857SOL     OW 9469   0.226   2.544   1.466
 2857SOL    HW1 9470   0.230   2.643   1.451
 2857SOL    HW2 9471   0.134   2.518   1.496
 2858SOL     OW 9472   5.348   5.525   2.034
 2858SOL    HW1 9473   5.432   5.476   2.014
 2858SOL    HW2 9474   5.326   5.516   2.131
 2859SOL     OW 9475   6.058   6.617   0.020
 2859SOL    HW1 9476   6.142   6.578   7.005
 2859SOL    HW2 9477   5.994   6.636   6.968
 2860SOL     OW 9478   2.397   0.675   2.607
 2860SOL    HW1 9479   2.369   0.615   2.532
 2860SOL    HW2 9480   2.493   0.659   2.630
 2861SOL     OW 9481   3.604   5.511   5.610
 2861SOL    HW1 9482   3.603   5.608   5.586
 2861SOL    HW2 9483   3.698   5.476   5.602
 2862SOL     OW 9484   4.264   2.095   2.156
 2862SOL    HW1 9485   4.202   2.148   2.214
 2862SOL    HW2 9486   4.333   2.155   2.117
 2863SOL     OW 9487   4.796   1.517   6.394
 2863SOL    HW1 9488   4.845   1.478   6.472
 2863SOL    HW2 9489   4.845   1.496   6.309
 2864SOL     OW 9490   4.740   2.406   0.964
 2864SOL    HW1 9491   4.837   2.427   0.957
 2864SOL    HW2 9492   4.695   2.425   0.876
 2865SOL     OW 9493   4.200   6.650   3.271
 2865SOL    HW1 9494   4.158   6.726   3.321
 2865SOL    HW2 9495   4.128   6.586   3.243
 2866SOL     OW 9496   5.905   4.152   0.309
 2866SOL    HW1 9497   5.820   4.202   0.322
 2866SOL    HW2 9498   5.919   4.091   0.387
 2867SOL     OW 9499   6.039   6.129   2.862
 2867SOL    HW1 9500   6.000   6.109   2.952
 2867SOL    HW2 9501   6.129   6.171   2.873
 2868SOL     OW 9502   1.114   1.088   5.300
 2868SOL    HW1 9503   1.212   1.107   5.301
 2868SOL    HW2 9504   1.065   1.168   5.335
 2869SOL     OW 9505   6.174   1.036   3.570
 2869SOL    HW1 9506   6.170   1.093   3.488
 2869SOL    HW2 9507   6.105   1.068   3.635
 2870SOL     OW 9508   0.669   1.493   6.310
 2870SOL    HW1 9509   0.679   1.516   6.407
 2870SOL    HW2 9510   0.614   1.410   6.300
 2871SOL     OW 9511   6.017   0.614   0.329
 2871SOL    HW1 9512   5.918   0.626   0.341
 2871SOL    HW2 9513   6.065   0.676   0.392
 2872SOL     OW 9514   2.548   1.845   0.920
 2872SOL    HW1 9515   2.585   1.865   0.829
 2872SOL    HW2 9516   2.545   1.930   0.973
 2873SOL     OW 9517   6.962   6.874   2.566
 2873SOL    HW1 9518   6.939   6.917   2.653
 2873SOL    HW2 9519   6.881   6.831   2.527
 2874SOL     OW 9520   4.027   6.309   2.699
 2874SOL    HW1 9521   3.976   6.353   2.625
 2874SOL    HW2 9522   4.086   6.376   2.744
 2875SOL     OW 9523   4.509   6.954   2.136
 2875SOL    HW1 9524   4.529   6.932   2.041
 2875SOL    HW2 9525   4.424   7.006   2.142
 2876SOL     OW 9526   1.680   0.343   2.742
 2876SOL    HW1 9527   1.714   0.436   2.752
 2876SOL    HW2 9528   1.581   0.341   2.756
 2877SOL     OW 9529   2.249   0.945   6.035
 2877SOL    HW1 9530   2.282   0.851   6.022
 2877SOL    HW2 9531   2.319   0.999   6.081
 2878SOL     OW 9532   3.144   3.550   5.090
 2878SOL    HW1 9533   3.074   3.621   5.079
 2878SOL    HW2 9534   3.194   3.539   5.004
 2879SOL     OW 9535   5.664   5.557   5.409
 2879SOL    HW1 9536   5.679   5.486   5.340
 2879SOL    HW2 9537   5.573   5.597   5.396
 2880SOL     OW 9538   0.328   1.091   3.519
 2880SOL    HW1 9539   0.243   1.121   3.562
 2880SOL    HW2 9540   0.373   1.024   3.579
 2881SOL     OW 9541   3.400   5.825   6.874
 2881SOL    HW1 9542   3.465   5.776   6.817
 2881SOL    HW2 9543   3.308   5.789   6.859
 2882SOL     OW 9544   6.654   5.388   1.312
 2882SOL    HW1 9545   6.688   5.398   1.219
 2882SOL    HW2 9546   6.639   5.479   1.352
 2883SOL     OW 9547   5.832   0.122   3.378
 2883SOL    HW1 9548   5.780   0.096   3.459
 2883SOL    HW2 9549   5.771   0.159   3.308
 2884SOL     OW 9550   0.459   6.096   2.531
 2884SOL    HW1 9551   0.419   6.184   2.555
 2884SOL    HW2 9552   0.545   6.084   2.581
 2885SOL     OW 9553   1.727   2.172   4.678
 2885SOL    HW1 9554   1.826   2.162   4.665
 2885SOL    HW2 9555   1.679   2.122   4.606
 2886SOL     OW 9556   2.037   3.964   6.218
 2886SOL    HW1 9557   2.084   4.003   6.138
 2886SOL    HW2 9558   2.105   3.942   6.289
 2887SOL     OW 9559   0.291   6.139   4.937
 2887SOL    HW1 9560   0.235   6.195   4.999
 2887SOL    HW2 9561   0.383   6.129   4.975
 2888SOL     OW 9562   0.245   4.533   0.007
 2888SOL    HW1 9563   0.273   4.437   7.020
 2888SOL    HW2 9564   0.179   4.556   6.958
 2889SOL     OW 9565   3.083   6.463   2.595
 2889SOL    HW1 9566   3.127   6.516   2.667
 2889SOL    HW2 9567   3.125   6.485   2.506
 2890SOL     OW 9568   1.686   6.124   0.634
 2890SOL    HW1 9569   1.709   6.043   0.581
 2890SOL    HW2 9570   1.721   6.205   0.587
 2891SOL     OW 9571   0.904   3.556   3.211
 2891SOL    HW1 9572   0.834   3.507   3.262
 2891SOL    HW2 9573   0.962   3.607   3.274
 2892SOL     OW 9574   6.149   3.144   1.531
 2892SOL    HW1 9575   6.076   3.109   1.590
 2892SOL    HW2 9576   6.174   3.073   1.464
 2893SOL     OW 9577   0.980   4.993   4.036
 2893SOL    HW1 9578   1.075   4.979   4.063
 2893SOL    HW2 9579   0.933   5.049   4.105
 2894SOL     OW 9580   1.560   3.583   1.343
 2894SOL    HW1 9581   1.607   3.577   1.431
 2894SOL    HW2 9582   1.465   3.610   1.358
 2895SOL     OW 9583   4.778   0.686   6.245
 2895SOL    HW1 9584   4.841   0.613   6.218
 2895SOL    HW2 9585   4.755   0.675   6.342
 2896SOL     OW 9586   4.102   0.305   5.180
 2896SOL    HW1 9587   4.119   0.392   5.135
 2896SOL    HW2 9588   4.058   0.242   5.116
 2897SOL     OW 9589   4.065   4.741   2.246
 2897SOL    HW1 9590   4.014   4.656   2.251
 2897SOL    HW2 9591   4.105   4.761   2.335
 2898SOL     OW 9592   4.440   4.544   4.191
 2898SOL    HW1 9593   4.502   4.601   4.245
 2898SOL    HW2 9594   4.346   4.559   4.220
 2899SOL     OW 9595   6.840   1.931   0.253
 2899SOL    HW1 9596   6.852   1.856   0.188
 2899SOL    HW2 9597   6.929   1.957   0.292
 2900SOL     OW 9598   3.842   4.448   6.572
 2900SOL    HW1 9599   3.915   4.382   6.591
 2900SOL    HW2 9600   3.769   4.403   6.521
 2901SOL     OW 9601   2.016   4.910   3.343
 2901SOL    HW1 9602   2.108   4.945   3.360
 2901SOL    HW2 9603   2.023   4.823   3.294
 2902SOL     OW 9604   6.624   5.162   3.313
 2902SOL    HW1 9605   6.556   5.164   3.239
 2902SOL    HW2 9606   6.611   5.081   3.369
 2903SOL     OW 9607   4.169   6.367   0.443
 2903SOL    HW1 9608   4.074   6.367   0.476
 2903SOL    HW2 9609   4.179   6.436   0.371
 2904SOL     OW 9610   3.154   5.094   5.228
 2904SOL    HW1 9611   3.064   5.095   5.273
 2904SOL    HW2 9612   3.154   5.026   5.154
 2905SOL     OW 9613   1.263   3.921   4.088
 2905SOL    HW1 9614   1.200   3.845   4.103
 2905SOL    HW2 9615   1.224   4.005   4.125
 2906SOL     OW 9616   5.252   5.878   2.781
 2906SOL    HW1 9617   5.327   5.938   2.809
 2906SOL    HW2 9618   5.182   5.932   2.734
 2907SOL     OW 9619   0.597   1.621   3.863
 2907SOL    HW1 9620   0.565   1.546   3.805
 2907SOL    HW2 9621   0.574   1.708   3.820
 2908SOL     OW 9622   5.156   6.564   3.320
 2908SOL    HW1 9623   5.184   6.629   3.250
 2908SOL    HW2 9624   5.155   6.609   3.409
 2909SOL     OW 9625   2.273   5.576   3.867
 2909SOL    HW1 9626   2.293   5.621   3.955
 2909SOL    HW2 9627   2.186   5.528   3.874
 2910SOL     OW 9628   6.193   0.372   3.798
 2910SOL    HW1 9629   6.192   0.430   3.879
 2910SOL    HW2 9630   6.162   0.280   3.821
 2911SOL     OW 9631   1.647   5.043   3.856
 2911SOL    HW1 9632   1.621   4.975   3.788
 2911SOL    HW2 9633   1.614   5.133   3.828
 2912SOL     OW 9634   6.311   6.555   0.282
 2912SOL    HW1 9635   6.397   6.580   0.326
 2912SOL    HW2 9636   6.304   6.455   0.276
 2913SOL     OW 9637   3.366   5.175   2.037
 2913SOL    HW1 9638   3.345   5.251   2.098
 2913SOL    HW2 9639   3.283   5.120   2.022
 2914SOL     OW 9640   5.841   6.048   0.547
 2914SOL    HW1 9641   5.939   6.061   0.531
 2914SOL    HW2 9642   5.789   6.087   0.470
 2915SOL     OW 9643   2.870   1.860   3.397
 2915SOL    HW1 9644   2.821   1.777   3.423
 2915SOL    HW2 9645   2.915   1.845   3.309
 2916SOL     OW 9646   0.941   5.477   0.299
 2916SOL    HW1 9647   0.969   5.516   0.387
 2916SOL    HW2 9648   1.016   5.422   0.262
 2917SOL     OW 9649   2.919   0.449   4.509
 2917SOL    HW1 9650   2.917   0.480   4.604
 2917SOL    HW2 9651   3.013   0.452   4.475
 2918SOL     OW 9652   6.155   4.196   5.526
 2918SOL    HW1 9653   6.236   4.254   5.531
 2918SOL    HW2 9654   6.175   4.108   5.569
 2919SOL     OW 9655   6.511   0.748   3.087
 2919SOL    HW1 9656   6.539   0.800   3.167
 2919SOL    HW2 9657   6.479   0.658   3.115
 2920SOL     OW 9658   3.341   0.123   1.474
 2920SOL    HW1 9659   3.356   0.196   1.540
 2920SOL    HW2 9660   3.389   0.144   1.389
 2921SOL     OW 9661   0.406   0.242   5.475
 2921SOL    HW1 9662   0.485   0.289   5.513
 2921SOL    HW2 9663   0.436   0.168   5.415
 2922SOL     OW 9664   4.334   6.152   1.448
 2922SOL    HW1 9665   4.246   6.103   1.450
 2922SOL    HW2 9666   4.320   6.246   1.480
 2923SOL     OW 9667   6.819   5.418   4.529
 2923SOL    HW1 9668   6.797   5.453   4.438
 2923SOL    HW2 9669   6.808   5.491   4.597
 2924SOL     OW 9670   0.033   2.283   5.145
 2924SOL    HW1 9671   7.020   2.268   5.053
 2924SOL    HW2 9672   0.013   2.376   5.175
 2925SOL     OW 9673   5.915   2.159   0.863
 2925SOL    HW1 9674   5.834   2.114   0.827
 2925SOL    HW2 9675   5.947   2.227   0.798
 2926SOL     OW 9676   5.428   1.900   6.216
 2926SOL    HW1 9677   5.356   1.912   6.147
 2926SOL    HW2 9678   5.509   1.860   6.172
 2927SOL     OW 9679   1.984   3.841   1.146
 2927SOL    HW1 9680   2.055   3.818   1.212
 2927SOL    HW2 9681   1.914   3.770   1.145
 2928SOL     OW 9682   6.953   0.770   0.113
 2928SOL    HW1 9683   6.925   0.688   0.163
 2928SOL    HW2 9684   6.901   0.777   0.028
 2929SOL     OW 9685   1.538   2.836   5.922
 2929SOL    HW1 9686   1.552   2.917   5.979
 2929SOL    HW2 9687   1.623   2.783   5.918
 2930SOL     OW 9688   5.502   6.581   5.043
 2930SOL    HW1 9689   5.426   6.524   5.074
 2930SOL    HW2 9690   5.574   6.582   5.113
 2931SOL     OW 9691   5.140   5.157   6.973
 2931SOL    HW1 9692   5.155   5.063   6.941
 2931SOL    HW2 9693   5.048   5.166   7.011
 2932SOL     OW 9694   0.765   5.753   1.671
 2932SOL    HW1 9695   0.780   5.749   1.770
 2932SOL    HW2 9696   0.734   5.664   1.638
 2933SOL     OW 9697   1.726   6.644   2.084
 2933SOL    HW1 9698   1.794   6.676   2.149
 2933SOL    HW2 9699   1.745   6.549   2.059
 2934SOL     OW 9700   5.684   2.428   0.447
 2934SOL    HW1 9701   5.692   2.521   0.410
 2934SOL    HW2 9702   5.764   2.375   0.422
 2935SOL     OW 9703   6.791   2.428   6.017
 2935SOL    HW1 9704   6.824   2.357   5.954
 2935SOL    HW2 9705   6.792   2.517   5.971
 2936SOL     OW 9706   4.371   6.200   0.523
 2936SOL    HW1 9707   4.338   6.133   0.590
 2936SOL    HW2 9708   4.295   6.256   0.492
 2937SOL     OW 9709   5.543   5.057   1.129
 2937SOL    HW1 9710   5.583   5.115   1.200
 2937SOL    HW2 9711   5.445   5.044   1.147
 2938SOL     OW 9712   5.987   4.478   0.420
 2938SOL    HW1 9713   6.022   4.400   0.471
 2938SOL    HW2 9714   6.021   4.475   0.326
 2939SOL     OW 9715   2.111   0.942   1.317
 2939SOL    HW1 9716   2.059   1.012   1.268
 2939SOL    HW2 9717   2.098   0.854   1.272
 2940SOL     OW 9718   5.487   5.496   5.619
 2940SOL    HW1 9719   5.563   5.506   5.555
 2940SOL    HW2 9720   5.490   5.571   5.685
 2941SOL     OW 9721   1.876   1.985   4.039
 2941SOL    HW1 9722   1.938   1.907   4.033
 2941SOL    HW2 9723   1.923   2.062   4.083
 2942SOL     OW 9724   3.724   1.774   0.987
 2942SOL    HW1 9725   3.674   1.753   1.071
 2942SOL    HW2 9726   3.795   1.705   0.972
 2943SOL     OW 9727   5.544   4.263   3.678
 2943SOL    HW1 9728   5.492   4.263   3.764
 2943SOL    HW2 9729   5.629   4.212   3.691
 2944SOL     OW 9730   2.848   6.324   3.930
 2944SOL    HW1 9731   2.847   6.262   3.851
 2944SOL    HW2 9732   2.933   6.377   3.929
 2945SOL     OW 9733   4.514   2.473   1.919
 2945SOL    HW1 9734   4.557   2.560   1.941
 2945SOL    HW2 9735   4.440   2.487   1.853
 2946SOL     OW 9736   2.079   4.870   6.155
 2946SOL    HW1 9737   1.996   4.825   6.123
 2946SOL    HW2 9738   2.152   4.802   6.164
 2947SOL     OW 9739   1.063   5.901   1.247
 2947SOL    HW1 9740   1.115   5.960   1.309
 2947SOL    HW2 9741   0.970   5.936   1.238
 2948SOL     OW 9742   6.900   4.367   4.748
 2948SOL    HW1 9743   6.973   4.371   4.816
 2948SOL    HW2 9744   6.924   4.302   4.677
 2949SOL     OW 9745   0.684   5.472   0.686
 2949SOL    HW1 9746   0.604   5.430   0.729
 2949SOL    HW2 9747   0.654   5.534   0.614
 2950SOL     OW 9748   5.882   5.899   4.314
 2950SOL    HW1 9749   5.871   5.920   4.217
 2950SOL    HW2 9750   5.809   5.943   4.367
 2951SOL     OW 9751   5.694   2.102   2.004
 2951SOL    HW1 9752   5.619   2.037   1.999
 2951SOL    HW2 9753   5.772   2.066   1.953
 2952SOL     OW 9754   0.061   6.202   5.604
 2952SOL    HW1 9755   0.155   6.237   5.610
 2952SOL    HW2 9756   0.063   6.105   5.580
 2953SOL     OW 9757   6.466   4.390   3.320
 2953SOL    HW1 9758   6.413   4.470   3.291
 2953SOL    HW2 9759   6.415   4.307   3.298
 2954SOL     OW 9760   0.587   4.668   1.156
 2954SOL    HW1 9761   0.662   4.610   1.188
 2954SOL    HW2 9762   0.625   4.742   1.100
 2955SOL     OW 9763   0.742   4.096   0.884
 2955SOL    HW1 9764   0.697   4.018   0.841
 2955SOL    HW2 9765   0.758   4.077   0.981
 2956SOL     OW 9766   6.138   5.384   3.180
 2956SOL    HW1 9767   6.186   5.452   3.124
 2956SOL    HW2 9768   6.047   5.369   3.142
 2957SOL     OW 9769   5.087   4.641   1.479
 2957SOL    HW1 9770   5.185   4.654   1.467
 2957SOL    HW2 9771   5.067   4.545   1.499
 2958SOL     OW 9772   2.168   4.554   3.234
 2958SOL    HW1 9773   2.125   4.552   3.325
 2958SOL    HW2 9774   2.111   4.504   3.170
 2959SOL     OW 9775   5.224   3.553   2.094
 2959SOL    HW1 9776   5.127   3.576   2.085
 2959SOL    HW2 9777   5.269   3.621   2.152
 2960SOL     OW 9778   3.152   0.340   6.662
 2960SOL    HW1 9779   3.154   0.302   6.754
 2960SOL    HW2 9780   3.084   0.291   6.607
 2961SOL     OW 9781   5.922   4.881   3.273
 2961SOL    HW1 9782   5.834   4.888   3.226
 2961SOL    HW2 9783   5.937   4.963   3.328
 2962SOL     OW 9784   4.547   6.123   3.697
 2962SOL    HW1 9785   4.608   6.202   3.708
 2962SOL    HW2 9786   4.600   6.043   3.672
 2963SOL     OW 9787   0.782   0.820   0.182
 2963SOL    HW1 9788   0.823   0.909   0.166
 2963SOL    HW2 9789   0.760   0.811   0.279
 2964SOL     OW 9790   0.502   1.705   5.937
 2964SOL    HW1 9791   0.577   1.700   6.003
 2964SOL    HW2 9792   0.525   1.649   5.857
 2965SOL     OW 9793   0.436   1.000   5.001
 2965SOL    HW1 9794   0.399   1.061   5.071
 2965SOL    HW2 9795   0.377   1.003   4.920
 2966SOL     OW 9796   5.060   5.074   3.016
 2966SOL    HW1 9797   5.013   5.016   3.083
 2966SOL    HW2 9798   5.014   5.162   3.009
 2967SOL     OW 9799   6.344   0.596   5.673
 2967SOL    HW1 9800   6.306   0.553   5.591
 2967SOL    HW2 9801   6.277   0.658   5.712
 2968SOL     OW 9802   0.769   2.296   0.545
 2968SOL    HW1 9803   0.827   2.351   0.605
 2968SOL    HW2 9804   0.721   2.355   0.480
 2969SOL     OW 9805   4.769   2.646   3.954
 2969SOL    HW1 9806   4.704   2.571   3.945
 2969SOL    HW2 9807   4.860   2.609   3.972
 2970SOL     OW 9808   2.550   3.226   5.371
 2970SOL    HW1 9809   2.521   3.159   5.303
 2970SOL    HW2 9810   2.515   3.200   5.461
 2971SOL     OW 9811   5.032   3.855   0.884
 2971SOL    HW1 9812   5.109   3.862   0.821
 2971SOL    HW2 9813   5.039   3.769   0.934
 2972SOL     OW 9814   6.321   5.253   6.744
 2972SOL    HW1 9815   6.307   5.310   6.825
 2972SOL    HW2 9816   6.234   5.235   6.699
 2973SOL     OW 9817   5.097   6.447   2.202
 2973SOL    HW1 9818   5.018   6.425   2.144
 2973SOL    HW2 9819   5.176   6.468   2.145
 2974SOL     OW 9820   0.064   4.595   3.815
 2974SOL    HW1 9821   0.102   4.503   3.807
 2974SOL    HW2 9822   0.026   4.623   3.727
 2975SOL     OW 9823   4.762   4.448   4.003
 2975SOL    HW1 9824   4.681   4.507   4.002
 2975SOL    HW2 9825   4.744   4.368   4.061
 2976SOL     OW 9826   5.000   1.650   2.333
 2976SOL    HW1 9827   5.079   1.608   2.288
 2976SOL    HW2 9828   5.030   1.707   2.409
 2977SOL     OW 9829   0.824   0.574   2.672
 2977SOL    HW1 9830   0.910   0.542   2.631
 2977SOL    HW2 9831   0.830   0.672   2.690
 2978SOL     OW 9832   3.975   4.525   0.217
 2978SOL    HW1 9833   3.879   4.534   0.187
 2978SOL    HW2 9834   4.002   4.429   0.212
 2979SOL     OW 9835   3.069   1.480   4.208
 2979SOL    HW1 9836   2.996   1.493   4.276
 2979SOL    HW2 9837   3.076   1.562   4.151
 2980SOL     OW 9838   1.890   5.609   5.585
 2980SOL    HW1 9839   1.990   5.619   5.585
 2980SOL    HW2 9840   1.850   5.669   5.654
 2981SOL     OW 9841   2.263   0.719   0.169
 2981SOL    HW1 9842   2.191   0.706   0.101
 2981SOL    HW2 9843   2.227   0.698   0.260
 2982SOL     OW 9844   2.728   6.011   1.277
 2982SOL    HW1 9845   2.670   6.056   1.210
 2982SOL    HW2 9846   2.674   5.942   1.327
 2983SOL     OW 9847   6.738   2.543   1.843
 2983SOL    HW1 9848   6.755   2.445   1.852
 2983SOL    HW2 9849   6.685   2.576   1.921
 2984SOL     OW 9850   5.989   5.262   6.968
 2984SOL    HW1 9851   6.077   5.254   7.016
 2984SOL    HW2 9852   5.918   5.286   0.011
 2985SOL     OW 9853   1.912   1.589   4.456
 2985SOL    HW1 9854   1.890   1.511   4.398
 2985SOL    HW2 9855   1.996   1.570   4.507
 2986SOL     OW 9856   3.609   4.017   2.469
 2986SOL    HW1 9857   3.572   3.931   2.503
 2986SOL    HW2 9858   3.648   4.069   2.545
 2987SOL     OW 9859   1.487   1.175   4.551
 2987SOL    HW1 9860   1.430   1.115   4.495
 2987SOL    HW2 9861   1.441   1.193   4.638
 2988SOL     OW 9862   1.817   0.167   2.579
 2988SOL    HW1 9863   1.789   0.232   2.650
 2988SOL    HW2 9864   1.780   0.077   2.599
 2989SOL     OW 9865   5.181   4.841   5.527
 2989SOL    HW1 9866   5.180   4.928   5.578
 2989SOL    HW2 9867   5.240   4.776   5.575
 2990SOL     OW 9868   4.234   2.029   4.161
 2990SOL    HW1 9869   4.253   2.053   4.256
 2990SOL    HW2 9870   4.160   2.087   4.126
 2991SOL     OW 9871   6.500   2.985   5.944
 2991SOL    HW1 9872   6.466   3.004   6.036
 2991SOL    HW2 9873   6.562   3.059   5.916
 2992SOL     OW 9874   1.059   4.774   4.242
 2992SOL    HW1 9875   1.119   4.696   4.258
 2992SOL    HW2 9876   1.105   4.858   4.270
 2993SOL     OW 9877   1.221   5.198   1.585
 2993SOL    HW1 9878   1.162   5.277   1.570
 2993SOL    HW2 9879   1.178   5.117   1.545
 2994SOL     OW 9880   4.372   6.349   0.180
 2994SOL    HW1 9881   4.273   6.354   0.188
 2994SOL    HW2 9882   4.404   6.260   0.213
 2995SOL     OW 9883   3.998   0.813   6.836
 2995SOL    HW1 9884   4.043   0.828   6.923
 2995SOL    HW2 9885   3.938   0.734   6.843
 2996SOL     OW 9886   0.490   1.475   5.443
 2996SOL    HW1 9887   0.534   1.563   5.428
 2996SOL    HW2 9888   0.545   1.402   5.404
 2997SOL     OW 9889   4.644   0.515   3.149
 2997SOL    HW1 9890   4.556   0.497   3.105
 2997SOL    HW2 9891   4.713   0.453   3.111
 2998SOL     OW 9892   4.843   6.736   3.376
 2998SOL    HW1 9893   4.769   6.803   3.365
 2998SOL    HW2 9894   4.860   6.690   3.289
 2999SOL     OW 9895   2.396   5.053   5.306
 2999SOL    HW1 9896   2.492   5.036   5.285
 2999SOL    HW2 9897   2.363   4.983   5.370
 3000SOL     OW 9898   3.082   4.154   6.142
 3000SOL    HW1 9899   3.070   4.170   6.044
 3000SOL    HW2 9900   3.118   4.062   6.157
 3001SOL     OW 9901   6.244   1.583   6.803
 3001SOL    HW1 9902   6.233   1.682   6.811
 3001SOL    HW2 9903   6.311   1.563   6.732
 3002SOL     OW 9904   3.737   2.851   0.530
 3002SOL    HW1 9905   3.721   2.899   0.444
 3002SOL    HW2 9906   3.693   2.762   0.527
 3003SOL     OW 9907   0.912   6.702   0.594
 3003SOL    HW1 9908   0.969   6.781   0.615
 3003SOL    HW2 9909   0.822   6.714   0.636
 3004SOL     OW 9910   1.441   4.384   2.635
 3004SOL    HW1 9911   1.467   4.420   2.546
 3004SOL    HW2 9912   1.341   4.391   2.646
 3005SOL     OW 9913   1.743   2.449   0.206
 3005SOL    HW1 9914   1.830   2.412   0.238
 3005SOL    HW2 9915   1.675   2.442   0.280
 3006SOL     OW 9916   5.585   2.268   5.041
 3006SOL    HW1 9917   5.630   2.357   5.045
 3006SOL    HW2 9918   5.486   2.282   5.032
 3007SOL     OW 9919   5.129   4.746   0.904
 3007SOL    HW1 9920   5.089   4.823   0.954
 3007SOL    HW2 9921   5.217   4.721   0.946
 3008SOL     OW 9922   2.987   2.414   6.533
 3008SOL    HW1 9923   2.997   2.451   6.441
 3008SOL    HW2 9924   2.969   2.488   6.598
 3009SOL     OW 9925   6.660   2.865   2.658
 3009SOL    HW1 9926   6.604   2.782   2.649
 3009SOL    HW2 9927   6.632   2.915   2.740
 3010SOL     OW 9928   2.551   5.767   4.153
 3010SOL    HW1 9929   2.632   5.763   4.093
 3010SOL    HW2 9930   2.473   5.800   4.100
 3011SOL     OW 9931   5.839   0.916   2.102
 3011SOL    HW1 9932   5.831   0.818   2.086
 3011SOL    HW2 9933   5.855   0.963   2.016
 3012SOL     OW 9934   2.202   2.876   0.105
 3012SOL    HW1 9935   2.138   2.887   0.029
 3012SOL    HW2 9936   2.275   2.814   0.078
 3013SOL     OW 9937   5.353   5.350   3.749
 3013SOL    HW1 9938   5.388   5.274   3.804
 3013SOL    HW2 9939   5.349   5.432   3.805
 3014SOL     OW 9940   4.620   2.284   5.769
 3014SOL    HW1 9941   4.692   2.304   5.835
 3014SOL    HW2 9942   4.660   2.262   5.680
 3015SOL     OW 9943   1.575   1.740   0.055
 3015SOL    HW1 9944   1.505   1.713   7.010
 3015SOL    HW2 9945   1.661   1.696   0.032
 3016SOL     OW 9946   3.489   6.638   4.347
 3016SOL    HW1 9947   3.518   6.552   4.305
 3016SOL    HW2 9948   3.518   6.640   4.443
 3017SOL     OW 9949   6.108   5.846   2.342
 3017SOL    HW1 9950   6.027   5.902   2.322
 3017SOL    HW2 9951   6.087   5.781   2.414
 3018SOL     OW 9952   2.939   0.295   6.464
 3018SOL    HW1 9953   2.988   0.208   6.471
 3018SOL    HW2 9954   2.862   0.284   6.401
 3019SOL     OW 9955   0.534   0.234   6.817
 3019SOL    HW1 9956   0.463   0.262   6.882
 3019SOL    HW2 9957   0.620   0.282   6.839
 3020SOL     OW 9958   4.049   3.010   1.062
 3020SOL    HW1 9959   4.089   3.039   0.975
 3020SOL    HW2 9960   4.122   2.985   1.125
 3021SOL     OW 9961   2.711   0.411   5.035
 3021SOL    HW1 9962   2.619   0.416   5.073
 3021SOL    HW2 9963   2.764   0.489   5.067
 3022SOL     OW 9964   4.444   4.921   4.484
 3022SOL    HW1 9965   4.511   4.893   4.552
 3022SOL    HW2 9966   4.369   4.969   4.529
 3023SOL     OW 9967   4.140   6.469   2.917
 3023SOL    HW1 9968   4.206   6.544   2.915
 3023SOL    HW2 9969   4.176   6.393   2.971
 3024SOL     OW 9970   5.896   6.387   4.558
 3024SOL    HW1 9971   5.871   6.480   4.585
 3024SOL    HW2 9972   5.813   6.331   4.552
 3025SOL     OW 9973   4.492   6.194   1.791
 3025SOL    HW1 9974   4.567   6.257   1.770
 3025SOL    HW2 9975   4.410   6.221   1.741
 3026SOL     OW 9976   0.062   1.276   6.143
 3026SOL    HW1 9977   7.007   1.280   6.080
 3026SOL    HW2 9978   0.130   1.343   6.116
 3027SOL     OW 9979   3.915   1.757   2.959
 3027SOL    HW1 9980   3.855   1.680   2.935
 3027SOL    HW2 9981   4.010   1.733   2.939
 3028SOL     OW 9982   1.687   3.778   5.501
 3028SOL    HW1 9983   1.594   3.778   5.465
 3028SOL    HW2 9984   1.703   3.861   5.553
 3029SOL     OW 9985   1.407   3.275   4.579
 3029SOL    HW1 9986   1.326   3.217   4.571
 3029SOL    HW2 9987   1.488   3.222   4.554
 3030SOL     OW 9988   1.223   3.413   0.803
 3030SOL    HW1 9989   1.305   3.409   0.747
 3030SOL    HW2 9990   1.216   3.331   0.859
 3031SOL     OW 9991   0.649   4.864   0.968
 3031SOL    HW1 9992   0.628   4.953   0.928
 3031SOL    HW2 9993   0.746   4.844   0.957
 3032SOL     OW 9994   1.946   6.885   1.255
 3032SOL    HW1 9995   1.887   6.963   1.276
 3032SOL    HW2 9996   2.021   6.882   1.321
 3033SOL     OW 9997   5.725   0.701   2.421
 3033SOL    HW1 9998   5.795   0.643   2.380
 3033SOL    HW2 9999   5.750   0.797   2.411
 3034SOL     OW10000   0.814   6.973   3.268
 3034SOL    HW110001   0.895   7.004   3.317
 3034SOL    HW210002   0.842   6.915   3.191
 3035SOL     OW10003   0.681   3.047   5.935
 3035SOL    HW110004   0.659   3.018   5.842
 3035SOL    HW210005   0.778   3.070   5.941
 3036SOL     OW10006   1.391   1.863   5.485
 3036SOL    HW110007   1.405   1.958   5.512
 3036SOL    HW210008   1.478   1.814   5.492
 3037SOL     OW10009   6.104   4.903   5.824
 3037SOL    HW110010   6.176   4.838   5.847
 3037SOL    HW210011   6.139   4.996   5.831
 3038SOL     OW10012   4.994   4.744   5.336
 3038SOL    HW110013   5.068   4.788   5.388
 3038SOL    HW210014   5.013   4.755   5.238
 3039SOL     OW10015   0.725   3.055   0.585
 3039SOL    HW110016   0.668   3.132   0.613
 3039SOL    HW210017   0.679   3.003   0.514
 3040SOL     OW10018   3.558   4.837   5.494
 3040SOL    HW110019   3.486   4.775   5.461
 3040SOL    HW210020   3.542   4.928   5.457
 3041SOL     OW10021   2.124   4.557   5.377
 3041SOL    HW110022   2.158   4.650   5.365
 3041SOL    HW210023   2.077   4.528   5.293
 3042SOL     OW10024   6.023   6.494   2.968
 3042SOL    HW110025   6.102   6.544   2.932
 3042SOL    HW210026   5.978   6.446   2.893
 3043SOL     OW10027   3.021   4.120   1.824
 3043SOL    HW110028   2.984   4.213   1.821
 3043SOL    HW210029   3.025   4.089   1.919
 3044SOL     OW10030   3.558   5.766   5.530
 3044SOL    HW110031   3.464   5.792   5.553
 3044SOL    HW210032   3.615   5.848   5.528
 3045SOL     OW10033   4.876   6.683   3.068
 3045SOL    HW110034   4.974   6.668   3.052
 3045SOL    HW210035   4.835   6.599   3.102
 3046SOL     OW10036   3.589   0.452   6.701
 3046SOL    HW110037   3.673   0.486   6.741
 3046SOL    HW210038   3.599   0.446   6.601
 3047SOL     OW10039   5.995   0.510   1.435
 3047SOL    HW110040   6.064   0.562   1.485
 3047SOL    HW210041   5.908   0.558   1.437
 3048SOL     OW10042   4.252   2.388   0.626
 3048SOL    HW110043   4.268   2.301   0.673
 3048SOL    HW210044   4.288   2.382   0.533
 3049SOL     OW10045   1.683   0.127   3.403
 3049SOL    HW110046   1.698   0.194   3.330
 3049SOL    HW210047   1.693   0.034   3.367
 3050SOL     OW10048   3.347   1.809   1.704
 3050SOL    HW110049   3.333   1.728   1.761
 3050SOL    HW210050   3.348   1.890   1.763
 3051SOL     OW10051   2.010   6.657   7.004
 3051SOL    HW110052   1.998   6.729   6.937
 3051SOL    HW210053   2.107   6.636   7.015
 3052SOL     OW10054   5.281   5.455   2.312
 3052SOL    HW110055   5.315   5.543   2.344
 3052SOL    HW210056   5.207   5.424   2.372
 3053SOL     OW10057   6.989   3.310   1.228
 3053SOL    HW110058   0.057   3.344   1.204
 3053SOL    HW210059   6.950   3.366   1.301
 3054SOL     OW10060   6.158   2.441   1.952
 3054SOL    HW110061   6.109   2.372   1.899
 3054SOL    HW210062   6.141   2.532   1.913
 3055SOL     OW10063   4.847   0.248   5.225
 3055SOL    HW110064   4.906   0.170   5.247
 3055SOL    HW210065   4.836   0.255   5.126
 3056SOL     OW10066   6.553   0.928   5.636
 3056SOL    HW110067   6.565   0.829   5.644
 3056SOL    HW210068   6.496   0.950   5.557
 3057SOL     OW10069   4.463   5.015   4.225
 3057SOL    HW110070   4.558   4.998   4.198
 3057SOL    HW210071   4.448   4.979   4.318
 3058SOL     OW10072   6.530   4.446   0.889
 3058SOL    HW110073   6.529   4.423   0.791
 3058SOL    HW210074   6.603   4.512   0.907
 3059SOL     OW10075   2.876   1.381   3.759
 3059SOL    HW110076   2.968   1.352   3.732
 3059SOL    HW210077   2.856   1.348   3.852
 3060SOL     OW10078   1.867   5.240   0.430
 3060SOL    HW110079   1.905   5.305   0.364
 3060SOL    HW210080   1.935   5.221   0.501
 3061SOL     OW10081   5.967   5.448   5.509
 3061SOL    HW110082   5.913   5.380   5.557
 3061SOL    HW210083   5.918   5.535   5.508
 3062SOL     OW10084   1.885   6.911   0.958
 3062SOL    HW110085   1.900   6.869   1.047
 3062SOL    HW210086   1.935   6.860   0.888
 3063SOL     OW10087   2.403   4.478   1.195
 3063SOL    HW110088   2.314   4.513   1.167
 3063SOL    HW210089   2.426   4.397   1.140
 3064SOL     OW10090   5.341   3.263   0.493
 3064SOL    HW110091   5.260   3.321   0.487
 3064SOL    HW210092   5.392   3.268   0.407
 3065SOL     OW10093   1.435   2.312   6.335
 3065SOL    HW110094   1.441   2.334   6.432
 3065SOL    HW210095   1.341   2.286   6.312
 3066SOL     OW10096   5.190   5.285   0.754
 3066SOL    HW110097   5.100   5.286   0.798
 3066SOL    HW210098   5.219   5.190   0.741
 3067SOL     OW10099   3.777   0.771   6.560
 3067SOL    HW110100   3.859   0.821   6.532
 3067SOL    HW210101   3.706   0.783   6.491
 3068SOL     OW10102   0.113   6.133   1.374
 3068SOL    HW110103   0.182   6.167   1.311
 3068SOL    HW210104   0.022   6.149   1.336
 3069SOL     OW10105   6.763   6.644   2.501
 3069SOL    HW110106   6.671   6.651   2.539
 3069SOL    HW210107   6.825   6.608   2.571
 3070SOL     OW10108   2.663   0.525   6.770
 3070SOL    HW110109   2.594   0.596   6.753
 3070SOL    HW210110   2.629   0.462   6.839
 3071SOL     OW10111   6.822   6.392   3.993
 3071SOL    HW110112   6.740   6.448   4.004
 3071SOL    HW210113   6.803   6.299   4.024
 3072SOL     OW10114   2.104   5.393   5.769
 3072SOL    HW110115   2.102   5.353   5.860
 3072SOL    HW210116   2.183   5.454   5.761
 3073SOL     OW10117   6.837   3.540   3.123
 3073SOL    HW110118   6.922   3.590   3.108
 3073SOL    HW210119   6.857   3.443   3.136
 3074SOL     OW10120   0.181   4.224   0.937
 3074SOL    HW110121   0.086   4.197   0.919
 3074SOL    HW210122   0.210   4.186   1.024
 3075SOL     OW10123   2.598   5.870   3.019
 3075SOL    HW110124   2.523   5.923   2.978
 3075SOL    HW210125   2.559   5.798   3.077
 3076SOL     OW10126   6.860   1.651   3.849
 3076SOL    HW110127   6.848   1.687   3.757
 3076SOL    HW210128   6.772   1.615   3.882
 3077SOL     OW10129   5.896   4.402   1.971
 3077SOL    HW110130   5.943   4.316   1.989
 3077SOL    HW210131   5.798   4.385   1.962
 3078SOL     OW10132   7.018   3.324   2.423
 3078SOL    HW110133   0.095   3.320   2.436
 3078SOL    HW210134   6.997   3.328   2.326
 3079SOL     OW10135   2.709   2.399   2.849
 3079SOL    HW110136   2.667   2.459   2.781
 3079SOL    HW210137   2.731   2.311   2.808
 3080SOL     OW10138   6.295   4.986   2.513
 3080SOL    HW110139   6.318   5.074   2.471
 3080SOL    HW210140   6.371   4.923   2.500
 3081SOL     OW10141   1.140   4.106   5.977
 3081SOL    HW110142   1.208   4.126   5.907
 3081SOL    HW210143   1.178   4.041   6.043
 3082SOL     OW10144   1.849   5.844   4.042
 3082SOL    HW110145   1.929   5.902   4.033
 3082SOL    HW210146   1.831   5.826   4.138
 3083SOL     OW10147   3.062   6.602   3.833
 3083SOL    HW110148   2.974   6.650   3.839
 3083SOL    HW210149   3.121   6.648   3.766
 3084SOL     OW10150   6.360   4.793   3.229
 3084SOL    HW110151   6.299   4.721   3.261
 3084SOL    HW210152   6.313   4.850   3.162
 3085SOL     OW10153   6.318   4.557   0.550
 3085SOL    HW110154   6.403   4.579   0.598
 3085SOL    HW210155   6.283   4.639   0.504
 3086SOL     OW10156   5.141   1.425   0.228
 3086SOL    HW110157   5.180   1.515   0.212
 3086SOL    HW210158   5.141   1.373   0.143
 3087SOL     OW10159   2.075   6.843   3.394
 3087SOL    HW110160   2.072   6.882   3.303
 3087SOL    HW210161   2.001   6.881   3.450
 3088SOL     OW10162   1.844   3.253   5.128
 3088SOL    HW110163   1.874   3.340   5.088
 3088SOL    HW210164   1.760   3.222   5.082
 3089SOL     OW10165   4.209   2.302   4.473
 3089SOL    HW110166   4.277   2.229   4.463
 3089SOL    HW210167   4.177   2.305   4.567
 3090SOL     OW10168   2.357   1.324   1.620
 3090SOL    HW110169   2.386   1.233   1.649
 3090SOL    HW210170   2.276   1.316   1.562
 3091SOL     OW10171   1.234   1.215   0.416
 3091SOL    HW110172   1.169   1.203   0.491
 3091SOL    HW210173   1.326   1.190   0.446
 3092SOL     OW10174   5.357   6.991   0.557
 3092SOL    HW110175   5.330   0.005   0.646
 3092SOL    HW210176   5.387   0.043   0.498
 3093SOL     OW10177   5.372   5.734   6.452
 3093SOL    HW110178   5.390   5.738   6.354
 3093SOL    HW210179   5.335   5.644   6.475
 3094SOL     OW10180   2.405   0.126   4.265
 3094SOL    HW110181   2.427   0.086   4.176
 3094SOL    HW210182   2.419   0.057   4.336
 3095SOL     OW10183   2.374   4.240   5.316
 3095SOL    HW110184   2.400   4.327   5.274
 3095SOL    HW210185   2.388   4.166   5.251
 3096SOL     OW10186   0.944   5.114   5.642
 3096SOL    HW110187   0.870   5.076   5.588
 3096SOL    HW210188   1.032   5.082   5.606
 3097SOL     OW10189   5.793   3.629   6.909
 3097SOL    HW110190   5.736   3.547   6.914
 3097SOL    HW210191   5.879   3.612   6.956
 3098SOL     OW10192   1.610   3.067   1.397
 3098SOL    HW110193   1.607   3.000   1.471
 3098SOL    HW210194   1.659   3.149   1.427
 3099SOL     OW10195   1.016   6.027   3.871
 3099SOL    HW110196   1.011   5.980   3.959
 3099SOL    HW210197   0.962   6.111   3.875
 3100SOL     OW10198   6.487   6.113   3.852
 3100SOL    HW110199   6.560   6.146   3.793
 3100SOL    HW210200   6.409   6.085   3.795
 3101SOL     OW10201   5.201   5.584   5.900
 3101SOL    HW110202   5.231   5.507   5.844
 3101SOL    HW210203   5.118   5.558   5.950
 3102SOL     OW10204   6.254   0.153   1.264
 3102SOL    HW110205   6.250   0.098   1.181
 3102SOL    HW210206   6.195   0.112   1.334
 3103SOL     OW10207   4.354   1.406   1.467
 3103SOL    HW110208   4.330   1.502   1.486
 3103SOL    HW210209   4.295   1.346   1.521
 3104SOL     OW10210   4.514   0.642   6.118
 3104SOL    HW110211   4.604   0.661   6.157
 3104SOL    HW210212   4.520   0.642   6.018
 3105SOL     OW10213   5.439   3.712   1.389
 3105SOL    HW110214   5.536   3.708   1.409
 3105SOL    HW210215   5.422   3.780   1.318
 3106SOL     OW10216   4.977   6.938   5.177
 3106SOL    HW110217   4.882   6.909   5.182
 3106SOL    HW210218   5.016   6.910   5.089
 3107SOL     OW10219   3.564   1.099   4.663
 3107SOL    HW110220   3.573   1.127   4.759
 3107SOL    HW210221   3.599   1.171   4.604
 3108SOL     OW10222   1.932   5.520   4.587
 3108SOL    HW110223   1.929   5.616   4.559
 3108SOL    HW210224   1.899   5.512   4.681
 3109SOL     OW10225   5.835   0.192   3.801
 3109SOL    HW110226   5.834   0.232   3.709
 3109SOL    HW210227   5.866   0.097   3.795
 3110SOL     OW10228   1.394   3.700   3.167
 3110SOL    HW110229   1.447   3.758   3.229
 3110SOL    HW210230   1.312   3.748   3.137
 3111SOL     OW10231   0.039   5.207   3.448
 3111SOL    HW110232   0.035   5.283   3.513
 3111SOL    HW210233   6.997   5.136   3.476
 3112SOL     OW10234   3.469   3.340   0.553
 3112SOL    HW110235   3.534   3.264   0.549
 3112SOL    HW210236   3.507   3.419   0.505
 3113SOL     OW10237   3.399   5.667   2.624
 3113SOL    HW110238   3.318   5.641   2.677
 3113SOL    HW210239   3.444   5.585   2.590
 3114SOL     OW10240   3.446   1.844   0.764
 3114SOL    HW110241   3.510   1.767   0.774
 3114SOL    HW210242   3.449   1.877   0.670
 3115SOL     OW10243   3.755   4.714   6.576
 3115SOL    HW110244   3.758   4.616   6.553
 3115SOL    HW210245   3.800   4.729   6.663
 3116SOL     OW10246   6.471   1.829   6.674
 3116SOL    HW110247   6.469   1.830   6.774
 3116SOL    HW210248   6.474   1.735   6.641
 3117SOL     OW10249   4.542   3.914   5.523
 3117SOL    HW110250   4.598   3.853   5.467
 3117SOL    HW210251   4.534   3.876   5.615
 3118SOL     OW10252   0.920   5.114   2.402
 3118SOL    HW110253   0.833   5.075   2.430
 3118SOL    HW210254   0.961   5.163   2.479
 3119SOL     OW10255   2.211   2.241   0.004
 3119SOL    HW110256   2.294   2.281   6.988
 3119SOL    HW210257   2.213   2.249   0.103
 3120SOL     OW10258   2.590   0.488   5.714
 3120SOL    HW110259   2.535   0.435   5.650
 3120SOL    HW210260   2.630   0.567   5.667
 3121SOL     OW10261   6.185   1.197   4.869
 3121SOL    HW110262   6.211   1.263   4.798
 3121SOL    HW210263   6.129   1.125   4.827
 3122SOL     OW10264   5.099   5.555   5.286
 3122SOL    HW110265   5.046   5.612   5.223
 3122SOL    HW210266   5.111   5.465   5.247
 3123SOL     OW10267   2.221   1.619   2.418
 3123SOL    HW110268   2.200   1.535   2.469
 3123SOL    HW210269   2.140   1.677   2.416
 3124SOL     OW10270   4.669   0.018   4.358
 3124SOL    HW110271   4.579   0.058   4.344
 3124SOL    HW210272   4.739   0.075   4.314
 3125SOL     OW10273   1.317   2.974   5.315
 3125SOL    HW110274   1.378   3.053   5.328
 3125SOL    HW210275   1.268   2.985   5.229
 3126SOL     OW10276   5.350   4.266   5.376
 3126SOL    HW110277   5.290   4.285   5.454
 3126SOL    HW210278   5.351   4.167   5.358
 3127SOL     OW10279   2.272   2.196   6.579
 3127SOL    HW110280   2.242   2.286   6.611
 3127SOL    HW210281   2.220   2.125   6.627
 3128SOL     OW10282   3.383   1.026   6.525
 3128SOL    HW110283   3.398   0.960   6.598
 3128SOL    HW210284   3.285   1.040   6.513
 3129SOL     OW10285   6.235   3.723   0.426
 3129SOL    HW110286   6.223   3.624   0.431
 3129SOL    HW210287   6.178   3.760   0.352
 3130SOL     OW10288   2.102   4.460   2.041
 3130SOL    HW110289   2.077   4.481   1.946
 3130SOL    HW210290   2.093   4.543   2.097
 3131SOL     OW10291   1.036   3.626   1.895
 3131SOL    HW110292   1.107   3.617   1.965
 3131SOL    HW210293   0.958   3.567   1.918
 3132SOL     OW10294   5.061   5.239   6.579
 3132SOL    HW110295   4.984   5.188   6.617
 3132SOL    HW210296   5.111   5.284   6.653
 3133SOL     OW10297   3.122   0.771   3.266
 3133SOL    HW110298   3.204   0.822   3.241
 3133SOL    HW210299   3.041   0.819   3.230
 3134SOL     OW10300   4.194   4.406   0.977
 3134SOL    HW110301   4.176   4.502   1.000
 3134SOL    HW210302   4.168   4.348   1.053
 3135SOL     OW10303   4.357   0.253   5.665
 3135SOL    HW110304   4.278   0.284   5.613
 3135SOL    HW210305   4.432   0.233   5.602
 3136SOL     OW10306   5.327   6.692   2.628
 3136SOL    HW110307   5.324   6.635   2.547
 3136SOL    HW210308   5.413   6.743   2.630
 3137SOL     OW10309   6.843   6.660   3.581
 3137SOL    HW110310   6.891   6.602   3.646
 3137SOL    HW210311   6.757   6.692   3.621
 3138SOL     OW10312   6.495   5.700   3.698
 3138SOL    HW110313   6.447   5.718   3.612
 3138SOL    HW210314   6.518   5.602   3.703
 3139SOL     OW10315   3.583   5.021   0.667
 3139SOL    HW110316   3.511   5.079   0.628
 3139SOL    HW210317   3.647   4.994   0.595
 3140SOL     OW10318   6.431   6.688   5.951
 3140SOL    HW110319   6.341   6.647   5.963
 3140SOL    HW210320   6.431   6.748   5.871
 3141SOL     OW10321   0.897   0.167   6.773
 3141SOL    HW110322   0.851   0.256   6.775
 3141SOL    HW210323   0.935   0.152   6.681
 3142SOL     OW10324   2.916   0.207   2.578
 3142SOL    HW110325   2.829   0.251   2.600
 3142SOL    HW210326   2.899   0.125   2.522
 3143SOL     OW10327   6.185   1.416   0.006
 3143SOL    HW110328   6.239   1.481   6.976
 3143SOL    HW210329   6.114   1.376   6.971
 3144SOL     OW10330   4.465   3.849   0.854
 3144SOL    HW110331   4.565   3.843   0.850
 3144SOL    HW210332   4.426   3.757   0.844
 3145SOL     OW10333   1.913   6.240   2.253
 3145SOL    HW110334   1.957   6.290   2.178
 3145SOL    HW210335   1.814   6.248   2.245
 3146SOL     OW10336   0.975   1.541   4.596
 3146SOL    HW110337   1.043   1.469   4.592
 3146SOL    HW210338   0.945   1.565   4.503
 3147SOL     OW10339   3.434   5.170   0.020
 3147SOL    HW110340   3.398   5.253   7.000
 3147SOL    HW210341   3.448   5.186   0.118
 3148SOL     OW10342   0.121   6.646   3.931
 3148SOL    HW110343   0.104   6.658   3.833
 3148SOL    HW210344   0.102   6.551   3.957
 3149SOL     OW10345   3.118   0.766   6.392
 3149SOL    HW110346   3.191   0.721   6.340
 3149SOL    HW210347   3.071   0.698   6.449
 3150SOL     OW10348   7.004   5.974   5.301
 3150SOL    HW110349   0.055   5.920   5.259
 3150SOL    HW210350   6.963   6.034   5.232
 3151SOL     OW10351   0.356   1.178   5.194
 3151SOL    HW110352   0.270   1.152   5.239
 3151SOL    HW210353   0.433   1.150   5.251
 3152SOL     OW10354   0.909   5.064   0.397
 3152SOL    HW110355   0.899   5.055   0.298
 3152SOL    HW210356   1.005   5.081   0.420
 3153SOL     OW10357   6.236   5.455   0.564
 3153SOL    HW110358   6.169   5.381   0.565
 3153SOL    HW210359   6.328   5.416   0.560
 3154SOL     OW10360   0.035   2.275   6.943
 3154SOL    HW110361   6.982   2.319   6.991
 3154SOL    HW210362   0.005   2.188   6.905
 3155SOL     OW10363   6.652   5.111   0.426
 3155SOL    HW110364   6.722   5.042   0.445
 3155SOL    HW210365   6.688   5.202   0.448
 3156SOL     OW10366   2.792   3.424   1.860
 3156SOL    HW110367   2.707   3.422   1.808
 3156SOL    HW210368   2.815   3.519   1.883
 3157SOL     OW10369   2.341   1.685   5.914
 3157SOL    HW110370   2.311   1.631   5.993
 3157SOL    HW210371   2.352   1.781   5.941
 3158SOL     OW10372   2.827   1.285   3.993
 3158SOL    HW110373   2.755   1.339   4.037
 3158SOL    HW210374   2.886   1.244   4.063
 3159SOL     OW10375   5.430   0.341   6.152
 3159SOL    HW110376   5.432   0.306   6.245
 3159SOL    HW210377   5.488   0.422   6.145
 3160SOL     OW10378   1.386   5.951   5.721
 3160SOL    HW110379   1.323   5.906   5.784
 3160SOL    HW210380   1.383   5.903   5.633
 3161SOL     OW10381   2.407   2.630   3.057
 3161SOL    HW110382   2.369   2.721   3.070
 3161SOL    HW210383   2.357   2.565   3.114
 3162SOL     OW10384   1.548   5.839   1.783
 3162SOL    HW110385   1.593   5.806   1.700
 3162SOL    HW210386   1.615   5.886   1.841
 3163SOL     OW10387   4.410   4.096   6.546
 3163SOL    HW110388   4.418   4.066   6.451
 3163SOL    HW210389   4.314   4.093   6.574
 3164SOL     OW10390   3.956   5.530   0.973
 3164SOL    HW110391   4.010   5.614   0.977
 3164SOL    HW210392   3.860   5.551   0.990
 3165SOL     OW10393   1.588   6.670   1.727
 3165SOL    HW110394   1.544   6.749   1.770
 3165SOL    HW210395   1.684   6.691   1.710
 3166SOL     OW10396   4.296   1.842   3.309
 3166SOL    HW110397   4.269   1.809   3.399
 3166SOL    HW210398   4.255   1.932   3.292
 3167SOL     OW10399   5.570   4.320   1.112
 3167SOL    HW110400   5.562   4.261   1.031
 3167SOL    HW210401   5.540   4.413   1.089
 3168SOL     OW10402   5.298   2.617   0.298
 3168SOL    HW110403   5.217   2.616   0.239
 3168SOL    HW210404   5.350   2.532   0.285
 3169SOL     OW10405   2.271   4.316   4.034
 3169SOL    HW110406   2.177   4.345   4.018
 3169SOL    HW210407   2.333   4.388   4.004
 3170SOL     OW10408   4.292   5.921   1.675
 3170SOL    HW110409   4.337   6.010   1.680
 3170SOL    HW210410   4.273   5.888   1.767
 3171SOL     OW10411   6.987   1.521   2.215
 3171SOL    HW110412   6.952   1.581   2.287
 3171SOL    HW210413   6.914   1.458   2.187
 3172SOL     OW10414   6.934   5.734   6.876
 3172SOL    HW110415   6.843   5.748   6.915
 3172SOL    HW210416   6.928   5.727   6.776
 3173SOL     OW10417   3.434   2.911   0.024
 3173SOL    HW110418   3.393   2.872   0.107
 3173SOL    HW210419   3.387   2.996   0.000
 3174SOL     OW10420   3.315   2.830   0.236
 3174SOL    HW110421   3.281   2.904   0.293
 3174SOL    HW210422   3.240   2.792   0.182
 3175SOL     OW10423   5.908   1.311   1.547
 3175SOL    HW110424   5.938   1.374   1.475
 3175SOL    HW210425   5.841   1.248   1.509
 3176SOL     OW10426   1.120   3.652   5.679
 3176SOL    HW110427   1.168   3.693   5.757
 3176SOL    HW210428   1.148   3.697   5.595
 3177SOL     OW10429   4.729   4.727   3.803
 3177SOL    HW110430   4.787   4.746   3.882
 3177SOL    HW210431   4.653   4.670   3.831
 3178SOL     OW10432   6.694   2.425   0.870
 3178SOL    HW110433   6.675   2.334   0.835
 3178SOL    HW210434   6.623   2.489   0.838
 3179SOL     OW10435   0.987   2.148   1.824
 3179SOL    HW110436   1.041   2.218   1.870
 3179SOL    HW210437   0.959   2.079   1.890
 3180SOL     OW10438   5.769   0.414   0.229
 3180SOL    HW110439   5.670   0.418   0.235
 3180SOL    HW210440   5.798   0.415   0.134
 3181SOL     OW10441   6.262   1.787   3.270
 3181SOL    HW110442   6.276   1.707   3.213
 3181SOL    HW210443   6.219   1.860   3.216
 3182SOL     OW10444   2.566   0.188   6.744
 3182SOL    HW110445   2.523   0.216   6.658
 3182SOL    HW210446   2.501   0.196   6.819
 3183SOL     OW10447   4.815   4.269   2.120
 3183SOL    HW110448   4.720   4.269   2.089
 3183SOL    HW210449   4.818   4.254   2.219
 3184SOL     OW10450   0.891   2.714   2.842
 3184SOL    HW110451   0.930   2.734   2.932
 3184SOL    HW210452   0.952   2.751   2.771
 3185SOL     OW10453   4.863   5.729   6.674
 3185SOL    HW110454   4.921   5.728   6.593
 3185SOL    HW210455   4.901   5.669   6.744
 3186SOL     OW10456   3.140   1.840   0.646
 3186SOL    HW110457   3.142   1.887   0.734
 3186SOL    HW210458   3.224   1.788   0.634
 3187SOL     OW10459   4.805   5.564   0.784
 3187SOL    HW110460   4.708   5.582   0.795
 3187SOL    HW210461   4.847   5.639   0.733
 3188SOL     OW10462   1.202   7.007   4.435
 3188SOL    HW110463   1.165   6.972   4.521
 3188SOL    HW210464   1.216   6.931   4.372
 3189SOL     OW10465   1.212   1.995   1.047
 3189SOL    HW110466   1.312   2.007   1.052
 3189SOL    HW210467   1.190   1.916   0.990
 3190SOL     OW10468   0.359   5.513   0.571
 3190SOL    HW110469   0.292   5.582   0.600
 3190SOL    HW210470   0.446   5.558   0.549
 3191SOL     OW10471   4.928   5.528   1.162
 3191SOL    HW110472   4.937   5.520   1.261
 3191SOL    HW210473   5.015   5.504   1.119
 3192SOL     OW10474   0.466   3.554   1.255
 3192SOL    HW110475   0.548   3.503   1.279
 3192SOL    HW210476   0.492   3.642   1.215
 3193SOL     OW10477   4.405   0.994   6.321
 3193SOL    HW110478   4.310   1.018   6.300
 3193SOL    HW210479   4.432   1.037   6.407
 3194SOL     OW10480   1.453   1.741   6.331
 3194SOL    HW110481   1.435   1.709   6.424
 3194SOL    HW210482   1.429   1.838   6.323
 3195SOL     OW10483   2.020   0.870   3.370
 3195SOL    HW110484   2.029   0.964   3.400
 3195SOL    HW210485   1.936   0.830   3.408
 3196SOL     OW10486   0.580   0.678   6.805
 3196SOL    HW110487   0.644   0.654   6.877
 3196SOL    HW210488   0.492   0.704   6.845
 3197SOL     OW10489   3.031   6.497   4.316
 3197SOL    HW110490   3.086   6.557   4.258
 3197SOL    HW210491   2.987   6.551   4.388
 3198SOL     OW10492   6.382   2.983   3.803
 3198SOL    HW110493   6.416   2.896   3.768
 3198SOL    HW210494   6.332   2.968   3.888
 3199SOL     OW10495   5.365   4.006   2.772
 3199SOL    HW110496   5.464   4.015   2.759
 3199SOL    HW210497   5.347   3.976   2.866
 3200SOL     OW10498   5.504   3.014   2.862
 3200SOL    HW110499   5.417   3.035   2.817
 3200SOL    HW210500   5.574   3.079   2.831
 3201SOL     OW10501   6.779   4.402   4.079
 3201SOL    HW110502   6.713   4.466   4.041
 3201SOL    HW210503   6.847   4.379   4.008
 3202SOL     OW10504   1.578   4.724   1.231
 3202SOL    HW110505   1.522   4.796   1.274
 3202SOL    HW210506   1.654   4.700   1.291
 3203SOL     OW10507   5.948   2.308   0.404
 3203SOL    HW110508   5.964   2.210   0.395
 3203SOL    HW210509   6.015   2.358   0.349
 3204SOL     OW10510   4.517   6.394   2.844
 3204SOL    HW110511   4.614   6.369   2.834
 3204SOL    HW210512   4.460   6.320   2.810
 3205SOL     OW10513   5.394   2.643   5.733
 3205SOL    HW110514   5.411   2.735   5.699
 3205SOL    HW210515   5.440   2.630   5.821
 3206SOL     OW10516   1.948   4.554   0.412
 3206SOL    HW110517   2.046   4.540   0.419
 3206SOL    HW210518   1.921   4.634   0.465
 3207SOL     OW10519   1.356   0.858   6.497
 3207SOL    HW110520   1.447   0.828   6.467
 3207SOL    HW210521   1.354   0.958   6.502
 3208SOL     OW10522   4.402   6.554   5.988
 3208SOL    HW110523   4.331   6.549   5.917
 3208SOL    HW210524   4.435   6.649   5.995
 3209SOL     OW10525   3.695   5.232   3.761
 3209SOL    HW110526   3.727   5.195   3.674
 3209SOL    HW210527   3.601   5.264   3.751
 3210SOL     OW10528   1.238   4.104   0.431
 3210SOL    HW110529   1.271   4.096   0.526
 3210SOL    HW210530   1.247   4.015   0.386
 3211SOL     OW10531   1.740   3.819   0.722
 3211SOL    HW110532   1.673   3.806   0.795
 3211SOL    HW210533   1.718   3.758   0.645
 3212SOL     OW10534   3.067   6.805   1.513
 3212SOL    HW110535   3.096   6.774   1.604
 3212SOL    HW210536   3.129   6.769   1.444
 3213SOL     OW10537   1.408   0.252   0.371
 3213SOL    HW110538   1.333   0.315   0.391
 3213SOL    HW210539   1.373   0.158   0.370
 3214SOL     OW10540   4.171   5.821   0.379
 3214SOL    HW110541   4.146   5.895   0.316
 3214SOL    HW210542   4.169   5.734   0.330
 3215SOL     OW10543   0.537   3.741   1.053
 3215SOL    HW110544   0.519   3.815   1.119
 3215SOL    HW210545   0.617   3.765   0.998
 3216SOL     OW10546   6.006   5.751   0.283
 3216SOL    HW110547   6.050   5.763   0.371
 3216SOL    HW210548   5.908   5.771   0.292
 3217SOL     OW10549   0.550   5.225   2.128
 3217SOL    HW110550   0.640   5.189   2.154
 3217SOL    HW210551   0.561   5.288   2.051
 3218SOL     OW10552   4.720   2.745   3.674
 3218SOL    HW110553   4.804   2.693   3.663
 3218SOL    HW210554   4.702   2.760   3.771
 3219SOL     OW10555   0.785   1.838   3.307
 3219SOL    HW110556   0.816   1.743   3.304
 3219SOL    HW210557   0.815   1.880   3.392
 3220SOL     OW10558   6.917   5.396   5.974
 3220SOL    HW110559   6.929   5.307   5.929
 3220SOL    HW210560   6.942   5.387   6.070
 3221SOL     OW10561   3.955   0.255   1.776
 3221SOL    HW110562   3.855   0.254   1.771
 3221SOL    HW210563   3.988   0.349   1.775
 3222SOL     OW10564   3.251   0.968   2.930
 3222SOL    HW110565   3.329   1.029   2.939
 3222SOL    HW210566   3.171   1.021   2.901
 3223SOL     OW10567   2.093   6.809   6.400
 3223SOL    HW110568   2.098   6.862   6.315
 3223SOL    HW210569   2.105   6.712   6.380
 3224SOL     OW10570   4.977   3.385   5.488
 3224SOL    HW110571   4.889   3.399   5.444
 3224SOL    HW210572   5.009   3.291   5.470
 3225SOL     OW10573   5.179   2.754   5.518
 3225SOL    HW110574   5.116   2.816   5.565
 3225SOL    HW210575   5.263   2.744   5.573
 3226SOL     OW10576   2.422   1.379   2.605
 3226SOL    HW110577   2.372   1.462   2.632
 3226SOL    HW210578   2.519   1.400   2.598
 3227SOL     OW10579   3.324   3.164   7.006
 3227SOL    HW110580   3.276   3.244   6.968
 3227SOL    HW210581   3.407   3.194   0.031
 3228SOL     OW10582   0.121   3.861   1.395
 3228SOL    HW110583   0.206   3.853   1.445
 3228SOL    HW210584   0.121   3.796   1.319
 3229SOL     OW10585   4.045   0.277   4.844
 3229SOL    HW110586   4.050   0.229   4.757
 3229SOL    HW210587   4.046   0.212   4.919
 3230SOL     OW10588   2.536   4.445   5.226
 3230SOL    HW110589   2.632   4.421   5.210
 3230SOL    HW210590   2.510   4.520   5.164
 3231SOL     OW10591   2.636   0.053   1.645
 3231SOL    HW110592   2.735   0.052   1.635
 3231SOL    HW210593   2.611   0.111   1.722
 3232SOL     OW10594   4.760   6.669   4.592
 3232SOL    HW110595   4.743   6.665   4.691
 3232SOL    HW210596   4.803   6.584   4.562
 3233SOL     OW10597   0.224   2.867   1.030
 3233SOL    HW110598   0.304   2.832   1.080
 3233SOL    HW210599   0.253   2.939   0.967
 3234SOL     OW10600   0.603   2.315   6.707
 3234SOL    HW110601   0.659   2.277   6.781
 3234SOL    HW210602   0.510   2.332   6.741
 3235SOL     OW10603   6.389   0.641   2.266
 3235SOL    HW110604   6.293   0.666   2.258
 3235SOL    HW210605   6.404   0.593   2.353
 3236SOL     OW10606   1.587   3.653   0.544
 3236SOL    HW110607   1.572   3.699   0.457
 3236SOL    HW210608   1.636   3.567   0.528
 3237SOL     OW10609   5.684   1.469   3.769
 3237SOL    HW110610   5.621   1.545   3.786
 3237SOL    HW210611   5.778   1.501   3.776
 3238SOL     OW10612   0.196   5.304   0.534
 3238SOL    HW110613   0.141   5.298   0.451
 3238SOL    HW210614   0.258   5.381   0.527
 3239SOL     OW10615   6.136   1.518   2.132
 3239SOL    HW110616   6.153   1.504   2.034
 3239SOL    HW210617   6.221   1.547   2.176
 3240SOL     OW10618   0.069   6.569   5.979
 3240SOL    HW110619   7.009   6.521   5.952
 3240SOL    HW210620   0.054   6.668   5.974
 3241SOL     OW10621   4.772   0.651   4.530
 3241SOL    HW110622   4.706   0.597   4.477
 3241SOL    HW210623   4.785   0.608   4.620
 3242SOL     OW10624   4.759   4.224   6.858
 3242SOL    HW110625   4.799   4.296   6.915
 3242SOL    HW210626   4.724   4.151   6.917
 3243SOL     OW10627   4.651   4.794   0.247
 3243SOL    HW110628   4.607   4.882   0.267
 3243SOL    HW210629   4.587   4.736   0.198
 3244SOL     OW10630   4.598   5.602   0.451
 3244SOL    HW110631   4.558   5.639   0.367
 3244SOL    HW210632   4.678   5.546   0.427
 3245SOL     OW10633   5.385   3.536   4.570
 3245SOL    HW110634   5.329   3.468   4.521
 3245SOL    HW210635   5.329   3.616   4.590
 3246SOL     OW10636   5.687   0.425   3.097
 3246SOL    HW110637   5.751   0.374   3.040
 3246SOL    HW210638   5.689   0.521   3.072
 3247SOL     OW10639   6.294   4.285   2.678
 3247SOL    HW110640   6.232   4.257   2.605
 3247SOL    HW210641   6.307   4.384   2.677
 3248SOL     OW10642   5.728   3.716   1.403
 3248SOL    HW110643   5.748   3.658   1.324
 3248SOL    HW210644   5.762   3.672   1.486
 3249SOL     OW10645   3.799   4.003   4.058
 3249SOL    HW110646   3.713   3.981   4.104
 3249SOL    HW210647   3.872   3.945   4.094
 3250SOL     OW10648   5.789   7.019   2.722
 3250SOL    HW110649   5.723   0.065   2.752
 3250SOL    HW210650   5.814   0.014   2.627
 3251SOL     OW10651   3.015   0.881   4.108
 3251SOL    HW110652   3.037   0.810   4.175
 3251SOL    HW210653   2.985   0.838   4.023
 3252SOL     OW10654   2.234   1.164   2.683
 3252SOL    HW110655   2.233   1.242   2.622
 3252SOL    HW210656   2.276   1.086   2.636
 3253SOL     OW10657   4.711   4.278   1.737
 3253SOL    HW110658   4.640   4.269   1.807
 3253SOL    HW210659   4.748   4.187   1.715
 3254SOL     OW10660   5.432   6.101   5.710
 3254SOL    HW110661   5.333   6.092   5.721
 3254SOL    HW210662   5.453   6.157   5.630
 3255SOL     OW10663   4.921   6.514   0.201
 3255SOL    HW110664   5.011   6.471   0.204
 3255SOL    HW210665   4.893   6.527   0.106
 3256SOL     OW10666   3.631   1.066   0.939
 3256SOL    HW110667   3.637   1.005   0.860
 3256SOL    HW210668   3.561   1.136   0.922
 3257SOL     OW10669   1.346   1.738   2.113
 3257SOL    HW110670   1.398   1.811   2.156
 3257SOL    HW210671   1.388   1.713   2.026
 3258SOL     OW10672   4.592   6.035   2.492
 3258SOL    HW110673   4.608   5.945   2.452
 3258SOL    HW210674   4.496   6.059   2.481
 3259SOL     OW10675   4.892   5.241   5.037
 3259SOL    HW110676   4.799   5.231   5.071
 3259SOL    HW210677   4.923   5.155   4.997
 3260SOL     OW10678   1.211   2.133   0.744
 3260SOL    HW110679   1.114   2.112   0.753
 3260SOL    HW210680   1.256   2.126   0.833
 3261SOL     OW10681   5.336   0.777   1.560
 3261SOL    HW110682   5.315   0.725   1.478
 3261SOL    HW210683   5.325   0.718   1.641
 3262SOL     OW10684   3.113   2.046   2.674
 3262SOL    HW110685   3.169   2.079   2.750
 3262SOL    HW210686   3.053   2.120   2.643
 3263SOL     OW10687   2.172   1.157   3.185
 3263SOL    HW110688   2.194   1.135   3.090
 3263SOL    HW210689   2.186   1.076   3.242
 3264SOL     OW10690   1.338   4.555   0.989
 3264SOL    HW110691   1.336   4.458   0.965
 3264SOL    HW210692   1.432   4.589   0.984
 3265SOL     OW10693   5.246   0.830   6.504
 3265SOL    HW110694   5.199   0.902   6.556
 3265SOL    HW210695   5.189   0.748   6.503
 3266SOL     OW10696   1.867   4.407   6.996
 3266SOL    HW110697   1.866   4.438   6.901
 3266SOL    HW210698   1.849   4.309   6.999
 3267SOL     OW10699   3.132   6.325   1.187
 3267SOL    HW110700   3.223   6.351   1.218
 3267SOL    HW210701   3.087   6.405   1.146
 3268SOL     OW10702   1.751   3.536   1.547
 3268SOL    HW110703   1.704   3.523   1.634
 3268SOL    HW210704   1.843   3.571   1.563
 3269SOL     OW10705   4.961   5.609   2.390
 3269SOL    HW110706   4.864   5.597   2.368
 3269SOL    HW210707   4.996   5.692   2.345
 3270SOL     OW10708   1.526   4.220   6.233
 3270SOL    HW110709   1.459   4.279   6.187
 3270SOL    HW210710   1.535   4.134   6.182
 3271SOL     OW10711   5.889   3.671   2.296
 3271SOL    HW110712   5.832   3.744   2.259
 3271SOL    HW210713   5.895   3.596   2.230
 3272SOL     OW10714   3.052   4.465   6.049
 3272SOL    HW110715   3.098   4.494   6.133
 3272SOL    HW210716   3.095   4.510   5.971
 3273SOL     OW10717   6.722   6.076   0.562
 3273SOL    HW110718   6.626   6.088   0.583
 3273SOL    HW210719   6.762   6.163   0.534
 3274SOL     OW10720   5.697   1.201   0.856
 3274SOL    HW110721   5.606   1.225   0.822
 3274SOL    HW210722   5.715   1.104   0.837
 3275SOL     OW10723   5.348   1.413   6.828
 3275SOL    HW110724   5.422   1.351   6.801
 3275SOL    HW210725   5.350   1.494   6.769
 3276SOL     OW10726   3.005   5.849   6.563
 3276SOL    HW110727   2.939   5.913   6.604
 3276SOL    HW210728   2.962   5.803   6.486
 3277SOL     OW10729   3.986   6.674   6.975
 3277SOL    HW110730   3.964   6.677   0.050
 3277SOL    HW210731   4.084   6.691   6.963
 3278SOL     OW10732   0.811   0.774   5.591
 3278SOL    HW110733   0.812   0.748   5.688
 3278SOL    HW210734   0.718   0.764   5.555
 3279SOL     OW10735   5.038   0.396   0.589
 3279SOL    HW110736   5.062   0.411   0.685
 3279SOL    HW210737   5.001   0.480   0.550
 3280SOL     OW10738   4.219   4.735   4.514
 3280SOL    HW110739   4.167   4.766   4.594
 3280SOL    HW210740   4.299   4.793   4.502
 3281SOL     OW10741   1.630   5.071   1.917
 3281SOL    HW110742   1.659   5.010   1.991
 3281SOL    HW210743   1.645   5.026   1.829
 3282SOL     OW10744   6.897   5.252   5.467
 3282SOL    HW110745   6.978   5.303   5.438
 3282SOL    HW210746   6.840   5.309   5.525
 3283SOL     OW10747   3.877   0.195   0.794
 3283SOL    HW110748   3.853   0.261   0.865
 3283SOL    HW210749   3.869   0.102   0.830
 3284SOL     OW10750   0.535   4.913   6.913
 3284SOL    HW110751   0.511   4.957   6.827
 3284SOL    HW210752   0.575   4.823   6.894
 3285SOL     OW10753   4.434   2.175   3.244
 3285SOL    HW110754   4.341   2.142   3.228
 3285SOL    HW210755   4.432   2.272   3.266
 3286SOL     OW10756   3.459   3.035   2.319
 3286SOL    HW110757   3.412   3.019   2.406
 3286SOL    HW210758   3.522   3.112   2.328
 3287SOL     OW10759   1.053   0.617   0.234
 3287SOL    HW110760   0.979   0.644   0.296
 3287SOL    HW210761   1.016   0.559   0.161
 3288SOL     OW10762   1.175   5.813   6.691
 3288SOL    HW110763   1.100   5.867   6.652
 3288SOL    HW210764   1.235   5.781   6.617
 3289SOL     OW10765   2.455   0.494   5.145
 3289SOL    HW110766   2.498   0.547   5.218
 3289SOL    HW210767   2.367   0.459   5.177
 3290SOL     OW10768   0.330   6.181   1.219
 3290SOL    HW110769   0.381   6.178   1.133
 3290SOL    HW210770   0.323   6.275   1.251
 3291SOL     OW10771   1.684   0.188   0.213
 3291SOL    HW110772   1.767   0.142   0.180
 3291SOL    HW210773   1.703   0.233   0.300
 3292SOL     OW10774   6.927   0.559   0.748
 3292SOL    HW110775   6.886   0.591   0.833
 3292SOL    HW210776   6.896   0.465   0.729
 3293SOL     OW10777   0.408   4.220   1.328
 3293SOL    HW110778   0.379   4.162   1.404
 3293SOL    HW210779   0.356   4.306   1.330
 3294SOL     OW10780   5.986   1.679   6.223
 3294SOL    HW110781   6.025   1.770   6.207
 3294SOL    HW210782   5.893   1.676   6.184
 3295SOL     OW10783   1.398   2.266   2.195
 3295SOL    HW110784   1.489   2.308   2.184
 3295SOL    HW210785   1.330   2.326   2.153
 3296SOL     OW10786   1.471   6.949   2.788
 3296SOL    HW110787   1.458   6.865   2.842
 3296SOL    HW210788   1.487   0.003   2.849
 3297SOL     OW10789   3.244   0.955   5.835
 3297SOL    HW110790   3.307   1.026   5.865
 3297SOL    HW210791   3.153   0.994   5.823
 3298SOL     OW10792   6.132   2.293   5.616
 3298SOL    HW110793   6.198   2.343   5.673
 3298SOL    HW210794   6.069   2.242   5.675
 3299SOL     OW10795   3.506   5.606   3.359
 3299SOL    HW110796   3.547   5.584   3.270
 3299SOL    HW210797   3.431   5.672   3.345
 3300SOL     OW10798   0.117   1.107   5.294
 3300SOL    HW110799   0.116   1.008   5.280
 3300SOL    HW210800   0.063   1.130   5.375
 3301SOL     OW10801   1.827   3.548   3.485
 3301SOL    HW110802   1.757   3.479   3.470
 3301SOL    HW210803   1.785   3.629   3.527
 3302SOL     OW10804   0.820   4.702   5.386
 3302SOL    HW110805   0.815   4.614   5.340
 3302SOL    HW210806   0.860   4.690   5.477
 3303SOL     OW10807   3.748   3.594   1.089
 3303SOL    HW110808   3.828   3.595   1.149
 3303SOL    HW210809   3.668   3.626   1.140
 3304SOL     OW10810   1.085   5.329   4.232
 3304SOL    HW110811   1.106   5.377   4.147
 3304SOL    HW210812   1.004   5.273   4.220
 3305SOL     OW10813   1.996   1.158   2.466
 3305SOL    HW110814   2.030   1.065   2.480
 3305SOL    HW210815   1.953   1.165   2.375
 3306SOL     OW10816   2.209   5.389   4.907
 3306SOL    HW110817   2.169   5.481   4.901
 3306SOL    HW210818   2.152   5.331   4.964
 3307SOL     OW10819   6.970   5.473   7.003
 3307SOL    HW110820   0.044   5.474   0.009
 3307SOL    HW210821   6.949   5.559   6.956
 3308SOL     OW10822   3.020   6.370   0.829
 3308SOL    HW110823   3.011   6.377   0.730
 3308SOL    HW210824   2.930   6.350   0.870
 3309SOL     OW10825   0.077   5.790   3.617
 3309SOL    HW110826   0.087   5.870   3.558
 3309SOL    HW210827   0.051   5.711   3.561
 3310SOL     OW10828   0.096   3.538   5.930
 3310SOL    HW110829   0.073   3.496   6.018
 3310SOL    HW210830   0.012   3.558   5.879
 3311SOL     OW10831   2.878   3.639   1.267
 3311SOL    HW110832   2.804   3.678   1.321
 3311SOL    HW210833   2.901   3.548   1.303
 3312SOL     OW10834   4.275   4.712   6.212
 3312SOL    HW110835   4.232   4.717   6.122
 3312SOL    HW210836   4.363   4.759   6.210
 3313SOL     OW10837   0.723   6.338   3.616
 3313SOL    HW110838   0.679   6.415   3.570
 3313SOL    HW210839   0.779   6.373   3.691
 3314SOL     OW10840   2.713   1.343   2.597
 3314SOL    HW110841   2.760   1.426   2.626
 3314SOL    HW210842   2.691   1.288   2.677
 3315SOL     OW10843   6.557   4.316   4.303
 3315SOL    HW110844   6.623   4.241   4.295
 3315SOL    HW210845   6.560   4.372   4.220
 3316SOL     OW10846   4.905   1.160   5.666
 3316SOL    HW110847   4.980   1.205   5.715
 3316SOL    HW210848   4.822   1.166   5.722
 3317SOL     OW10849   4.302   3.093   1.753
 3317SOL    HW110850   4.272   3.177   1.798
 3317SOL    HW210851   4.391   3.065   1.790
 3318SOL     OW10852   2.204   1.507   0.786
 3318SOL    HW110853   2.242   1.415   0.788
 3318SOL    HW210854   2.262   1.568   0.840
 3319SOL     OW10855   6.438   1.437   4.203
 3319SOL    HW110856   6.519   1.485   4.168
 3319SOL    HW210857   6.406   1.372   4.134
 3320SOL     OW10858   6.700   0.766   5.034
 3320SOL    HW110859   6.684   0.692   5.100
 3320SOL    HW210860   6.797   0.769   5.011
 3321SOL     OW10861   4.965   1.808   0.275
 3321SOL    HW110862   4.993   1.739   0.341
 3321SOL    HW210863   4.941   1.892   0.323
 3322SOL     OW10864   6.483   2.860   1.181
 3322SOL    HW110865   6.436   2.908   1.107
 3322SOL    HW210866   6.552   2.798   1.142
 3323SOL     OW10867   3.194   3.019   0.478
 3323SOL    HW110868   3.159   3.074   0.402
 3323SOL    HW210869   3.122   2.959   0.513
 3324SOL     OW10870   4.196   5.124   6.928
 3324SOL    HW110871   4.096   5.132   6.933
 3324SOL    HW210872   4.222   5.090   6.838
 3325SOL     OW10873   0.688   3.131   6.807
 3325SOL    HW110874   0.602   3.119   6.757
 3325SOL    HW210875   0.683   3.083   6.894
 3326SOL     OW10876   5.459   1.954   2.007
 3326SOL    HW110877   5.445   1.858   1.983
 3326SOL    HW210878   5.403   1.978   2.086
 3327SOL     OW10879   3.245   5.628   1.638
 3327SOL    HW110880   3.223   5.662   1.547
 3327SOL    HW210881   3.342   5.602   1.642
 3328SOL     OW10882   4.125   2.099   0.634
 3328SOL    HW110883   4.147   2.076   0.729
 3328SOL    HW210884   4.051   2.166   0.633
 3329SOL     OW10885   5.158   0.090   4.633
 3329SOL    HW110886   5.235   0.154   4.635
 3329SOL    HW210887   5.189   7.023   4.663
 3330SOL     OW10888   6.305   4.981   1.757
 3330SOL    HW110889   6.302   4.898   1.701
 3330SOL    HW210890   6.342   4.959   1.847
 3331SOL     OW10891   2.283   2.933   1.240
 3331SOL    HW110892   2.229   2.951   1.322
 3331SOL    HW210893   2.361   2.996   1.237
 3332SOL     OW10894   5.760   5.260   0.073
 3332SOL    HW110895   5.689   5.238   0.007
 3332SOL    HW210896   5.743   5.210   0.158
 3333SOL     OW10897   4.302   4.531   6.408
 3333SOL    HW110898   4.289   4.612   6.350
 3333SOL    HW210899   4.275   4.449   6.357
 3334SOL     OW10900   2.861   3.728   1.801
 3334SOL    HW110901   2.817   3.814   1.777
 3334SOL    HW210902   2.895   3.684   1.718
 3335SOL     OW10903   4.600   0.178   5.551
 3335SOL    HW110904   4.645   0.102   5.503
 3335SOL    HW210905   4.591   0.256   5.489
 3336SOL     OW10906   2.419   5.760   4.663
 3336SOL    HW110907   2.458   5.668   4.658
 3336SOL    HW210908   2.331   5.757   4.711
 3337SOL     OW10909   3.030   3.969   3.085
 3337SOL    HW110910   3.082   4.015   3.157
 3337SOL    HW210911   3.048   4.014   2.998
 3338SOL     OW10912   5.598   2.811   1.477
 3338SOL    HW110913   5.675   2.763   1.518
 3338SOL    HW210914   5.528   2.745   1.450
 3339SOL     OW10915   6.658   0.384   6.472
 3339SOL    HW110916   6.686   0.345   6.384
 3339SOL    HW210917   6.603   0.317   6.522
 3340SOL     OW10918   3.623   1.206   2.517
 3340SOL    HW110919   3.618   1.305   2.503
 3340SOL    HW210920   3.650   1.162   2.431
 3341SOL     OW10921   1.359   5.184   3.228
 3341SOL    HW110922   1.447   5.231   3.228
 3341SOL    HW210923   1.301   5.223   3.299
 3342SOL     OW10924   2.237   0.332   4.132
 3342SOL    HW110925   2.287   0.348   4.047
 3342SOL    HW210926   2.294   0.282   4.197
 3343SOL     OW10927   5.554   2.901   0.913
 3343SOL    HW110928   5.504   2.987   0.906
 3343SOL    HW210929   5.533   2.857   0.999
 3344SOL     OW10930   6.025   3.169   4.344
 3344SOL    HW110931   6.027   3.201   4.249
 3344SOL    HW210932   5.953   3.101   4.355
 3345SOL     OW10933   1.651   3.735   5.832
 3345SOL    HW110934   1.678   3.699   5.921
 3345SOL    HW210935   1.727   3.788   5.793
 3346SOL     OW10936   1.657   0.554   1.078
 3346SOL    HW110937   1.647   0.607   1.162
 3346SOL    HW210938   1.752   0.521   1.071
 3347SOL     OW10939   0.841   3.546   4.730
 3347SOL    HW110940   0.831   3.458   4.776
 3347SOL    HW210941   0.800   3.541   4.639
 3348SOL     OW10942   3.293   3.298   4.123
 3348SOL    HW110943   3.266   3.394   4.119
 3348SOL    HW210944   3.267   3.259   4.211
 3349SOL     OW10945   0.995   6.023   2.856
 3349SOL    HW110946   1.067   5.956   2.834
 3349SOL    HW210947   0.970   6.014   2.952
 3350SOL     OW10948   1.195   2.452   5.802
 3350SOL    HW110949   1.180   2.395   5.721
 3350SOL    HW210950   1.278   2.506   5.791
 3351SOL     OW10951   4.796   0.830   2.558
 3351SOL    HW110952   4.754   0.857   2.472
 3351SOL    HW210953   4.742   0.757   2.600
 3352SOL     OW10954   6.825   2.406   0.352
 3352SOL    HW110955   6.910   2.432   0.398
 3352SOL    HW210956   6.767   2.355   0.415
 3353SOL     OW10957   1.712   5.658   2.032
 3353SOL    HW110958   1.695   5.629   2.127
 3353SOL    HW210959   1.754   5.749   2.032
 3354SOL     OW10960   4.731   2.501   5.216
 3354SOL    HW110961   4.694   2.487   5.308
 3354SOL    HW210962   4.794   2.425   5.194
 3355SOL     OW10963   2.110   1.534   0.046
 3355SOL    HW110964   2.201   1.501   0.071
 3355SOL    HW210965   2.104   1.632   0.060
 3356SOL     OW10966   1.375   4.603   5.989
 3356SOL    HW110967   1.418   4.595   5.899
 3356SOL    HW210968   1.430   4.665   6.046
 3357SOL     OW10969   2.665   4.545   1.725
 3357SOL    HW110970   2.707   4.586   1.644
 3357SOL    HW210971   2.732   4.540   1.799
 3358SOL     OW10972   4.796   1.076   1.136
 3358SOL    HW110973   4.807   0.980   1.159
 3358SOL    HW210974   4.887   1.118   1.126
 3359SOL     OW10975   6.869   0.252   3.680
 3359SOL    HW110976   6.968   0.247   3.689
 3359SOL    HW210977   6.826   0.219   3.764
 3360SOL     OW10978   0.441   1.075   6.764
 3360SOL    HW110979   0.475   1.169   6.766
 3360SOL    HW210980   0.395   1.059   6.677
 3361SOL     OW10981   1.209   4.434   3.583
 3361SOL    HW110982   1.187   4.361   3.647
 3361SOL    HW210983   1.142   4.436   3.509
 3362SOL     OW10984   3.659   1.562   3.153
 3362SOL    HW110985   3.656   1.661   3.165
 3362SOL    HW210986   3.583   1.519   3.202
 3363SOL     OW10987   6.043   6.617   1.408
 3363SOL    HW110988   6.116   6.572   1.356
 3363SOL    HW210989   5.970   6.645   1.346
 3364SOL     OW10990   1.516   4.449   3.991
 3364SOL    HW110991   1.527   4.547   4.007
 3364SOL    HW210992   1.430   4.417   4.031
 3365SOL     OW10993   6.944   1.889   5.433
 3365SOL    HW110994   7.015   1.819   5.426
 3365SOL    HW210995   6.978   1.975   5.396
 3366SOL     OW10996   5.909   6.440   5.192
 3366SOL    HW110997   5.848   6.467   5.267
 3366SOL    HW210998   5.963   6.519   5.163
 3367SOL     OW10999   3.468   2.894   1.506
 3367SOL    HW111000   3.482   2.797   1.529
 3367SOL    HW211001   3.392   2.930   1.559
 3368SOL     OW11002   0.450   5.108   5.665
 3368SOL    HW111003   0.389   5.059   5.728
 3368SOL    HW211004   0.428   5.083   5.571
 3369SOL     OW11005   3.761   2.648   5.945
 3369SOL    HW111006   3.841   2.601   5.909
 3369SOL    HW211007   3.791   2.729   5.997
 3370SOL     OW11008   6.937   6.129   6.386
 3370SOL    HW111009   6.896   6.039   6.369
 3370SOL    HW211010   6.901   6.195   6.320
 3371SOL     OW11011   1.815   2.909   2.020
 3371SOL    HW111012   1.782   2.852   1.944
 3371SOL    HW211013   1.767   2.997   2.019
 3372SOL     OW11014   0.703   1.694   0.995
 3372SOL    HW111015   0.634   1.642   0.944
 3372SOL    HW211016   0.790   1.645   0.990
 3373SOL     OW11017   6.626   1.734   3.078
 3373SOL    HW111018   6.703   1.692   3.029
 3373SOL    HW211019   6.540   1.694   3.046
 3374SOL     OW11020   1.324   5.884   4.547
 3374SOL    HW111021   1.236   5.929   4.534
 3374SOL    HW211022   1.367   5.865   4.459
 3375SOL     OW11023   6.265   6.114   6.082
 3375SOL    HW111024   6.323   6.098   6.002
 3375SOL    HW211025   6.187   6.052   6.079
 3376SOL     OW11026   3.759   3.072   3.261
 3376SOL    HW111027   3.733   3.168   3.249
 3376SOL    HW211028   3.854   3.068   3.290
 3377SOL     OW11029   6.997   6.387   5.426
 3377SOL    HW111030   0.041   6.462   5.427
 3377SOL    HW211031   7.015   6.325   5.502
 3378SOL     OW11032   6.891   1.011   0.661
 3378SOL    HW111033   6.862   1.078   0.730
 3378SOL    HW211034   6.976   0.968   0.690
 3379SOL     OW11035   6.970   6.766   6.344
 3379SOL    HW111036   6.992   6.807   6.432
 3379SOL    HW211037   6.949   6.838   6.278
 3380SOL     OW11038   6.077   6.669   5.171
 3380SOL    HW111039   6.149   6.706   5.112
 3380SOL    HW211040   6.119   6.631   5.254
 3381SOL     OW11041   0.718   2.753   1.082
 3381SOL    HW111042   0.762   2.716   1.164
 3381SOL    HW211043   0.630   2.793   1.107
 3382SOL     OW11044   0.642   1.925   0.751
 3382SOL    HW111045   0.582   1.846   0.765
 3382SOL    HW211046   0.663   1.967   0.839
 3383SOL     OW11047   4.521   5.939   1.949
 3383SOL    HW111048   4.617   5.916   1.965
 3383SOL    HW211049   4.515   6.032   1.912
 3384SOL     OW11050   3.012   3.265   6.202
 3384SOL    HW111051   2.994   3.335   6.132
 3384SOL    HW211052   3.064   3.191   6.161
 3385SOL     OW11053   6.909   2.899   4.454
 3385SOL    HW111054   6.915   2.947   4.367
 3385SOL    HW211055   6.928   2.802   4.439
 3386SOL     OW11056   5.984   4.166   6.681
 3386SOL    HW111057   5.997   4.107   6.602
 3386SOL    HW211058   6.009   4.260   6.657
 3387SOL     OW11059   2.998   0.829   3.535
 3387SOL    HW111060   2.992   0.928   3.524
 3387SOL    HW211061   3.057   0.790   3.464
 3388SOL     OW11062   5.029   3.329   1.627
 3388SOL    HW111063   5.089   3.276   1.567
 3388SOL    HW211064   5.082   3.399   1.674
 3389SOL     OW11065   5.407   5.029   5.608
 3389SOL    HW111066   5.447   5.108   5.655
 3389SOL    HW211067   5.426   4.946   5.661
 3390SOL     OW11068   4.848   5.608   5.968
 3390SOL    HW111069   4.882   5.550   6.042
 3390SOL    HW211070   4.912   5.682   5.950
 3391SOL     OW11071   5.213   3.041   4.792
 3391SOL    HW111072   5.189   3.131   4.758
 3391SOL    HW211073   5.134   3.001   4.840
 3392SOL     OW11074   2.820   6.734   3.881
 3392SOL    HW111075   2.831   6.762   3.976
 3392SOL    HW211076   2.756   6.658   3.876
 3393SOL     OW11077   0.476   6.396   0.023
 3393SOL    HW111078   0.531   6.313   0.014
 3393SOL    HW211079   0.487   6.452   6.964
 3394SOL     OW11080   5.872   3.515   2.040
 3394SOL    HW111081   5.822   3.535   1.956
 3394SOL    HW211082   5.848   3.423   2.072
 3395SOL     OW11083   5.469   3.306   3.459
 3395SOL    HW111084   5.376   3.270   3.467
 3395SOL    HW211085   5.501   3.295   3.365
 3396SOL     OW11086   4.568   1.773   3.737
 3396SOL    HW111087   4.649   1.807   3.690
 3396SOL    HW211088   4.489   1.829   3.711
 3397SOL     OW11089   2.259   0.639   5.464
 3397SOL    HW111090   2.179   0.675   5.512
 3397SOL    HW211091   2.264   0.679   5.372
 3398SOL     OW11092   0.591   6.455   4.698
 3398SOL    HW111093   0.503   6.406   4.700
 3398SOL    HW211094   0.605   6.500   4.786
 3399SOL     OW11095   5.438   4.493   4.102
 3399SOL    HW111096   5.406   4.567   4.042
 3399SOL    HW211097   5.360   4.455   4.152
 3400SOL     OW11098   4.859   2.920   5.755
 3400SOL    HW111099   4.933   2.985   5.742
 3400SOL    HW211100   4.883   2.833   5.712
 3401SOL     OW11101   0.240   3.321   0.984
 3401SOL    HW111102   0.259   3.382   1.062
 3401SOL    HW211103   0.220   3.375   0.903
 3402SOL     OW11104   3.892   6.176   6.698
 3402SOL    HW111105   3.807   6.142   6.738
 3402SOL    HW211106   3.884   6.275   6.681
 3403SOL     OW11107   3.826   5.743   4.897
 3403SOL    HW111108   3.782   5.653   4.885
 3403SOL    HW211109   3.761   5.806   4.940
 3404SOL     OW11110   4.864   1.626   6.883
 3404SOL    HW111111   4.816   1.640   6.970
 3404SOL    HW211112   4.938   1.561   6.896
 3405SOL     OW11113   0.169   3.795   4.383
 3405SOL    HW111114   0.112   3.866   4.339
 3405SOL    HW211115   0.131   3.773   4.473
 3406SOL     OW11116   0.654   4.196   1.690
 3406SOL    HW111117   0.617   4.132   1.758
 3406SOL    HW211118   0.646   4.156   1.599
 3407SOL     OW11119   1.254   5.127   6.210
 3407SOL    HW111120   1.194   5.071   6.268
 3407SOL    HW211121   1.270   5.215   6.256
 3408SOL     OW11122   4.675   3.757   5.345
 3408SOL    HW111123   4.635   3.686   5.287
 3408SOL    HW211124   4.753   3.797   5.299
 3409SOL     OW11125   3.317   6.090   6.719
 3409SOL    HW111126   3.226   6.109   6.754
 3409SOL    HW211127   3.351   6.004   6.758
 3410SOL     OW11128   0.110   6.292   0.540
 3410SOL    HW111129   0.036   6.309   0.605
 3410SOL    HW211130   0.081   6.320   0.448
 3411SOL     OW11131   0.583   3.301   1.983
 3411SOL    HW111132   0.616   3.273   1.892
 3411SOL    HW211133   0.513   3.237   2.014
 3412SOL     OW11134   4.225   2.739   6.941
 3412SOL    HW111135   4.139   2.689   6.926
 3412SOL    HW211136   4.207   2.837   6.937
 3413SOL     OW11137   5.912   1.327   0.957
 3413SOL    HW111138   5.829   1.299   0.908
 3413SOL    HW211139   5.971   1.379   0.894
 3414SOL     OW11140   2.422   0.206   5.755
 3414SOL    HW111141   2.455   0.246   5.670
 3414SOL    HW211142   2.485   0.135   5.786
 3415SOL     OW11143   1.903   3.749   5.156
 3415SOL    HW111144   1.834   3.808   5.112
 3415SOL    HW211145   1.894   3.656   5.122
 3416SOL     OW11146   0.181   5.730   0.661
 3416SOL    HW111147   0.095   5.680   0.661
 3416SOL    HW211148   0.175   5.809   0.600
 3417SOL     OW11149   0.638   6.039   2.895
 3417SOL    HW111150   0.666   6.039   2.799
 3417SOL    HW211151   0.570   5.968   2.910
 3418SOL     OW11152   3.847   0.801   4.577
 3418SOL    HW111153   3.893   0.735   4.517
 3418SOL    HW211154   3.883   0.793   4.670
 3419SOL     OW11155   3.308   5.561   4.866
 3419SOL    HW111156   3.359   5.480   4.837
 3419SOL    HW211157   3.355   5.603   4.944
 3420SOL     OW11158   4.944   2.709   4.398
 3420SOL    HW111159   5.016   2.754   4.345
 3420SOL    HW211160   4.865   2.770   4.404
 3421SOL     OW11161   5.317   1.040   5.242
 3421SOL    HW111162   5.256   0.960   5.246
 3421SOL    HW211163   5.411   1.010   5.225
 3422SOL     OW11164   1.863   0.335   0.795
 3422SOL    HW111165   1.766   0.357   0.793
 3422SOL    HW211166   1.909   0.395   0.860
 3423SOL     OW11167   0.893   4.611   6.735
 3423SOL    HW111168   0.927   4.559   6.657
 3423SOL    HW211169   0.962   4.612   6.807
 3424SOL     OW11170   2.859   6.339   1.647
 3424SOL    HW111171   2.932   6.300   1.590
 3424SOL    HW211172   2.817   6.415   1.598
 3425SOL     OW11173   5.410   4.945   2.578
 3425SOL    HW111174   5.358   4.997   2.646
 3425SOL    HW211175   5.409   4.848   2.603
 3426SOL     OW11176   4.004   2.828   0.618
 3426SOL    HW111177   4.052   2.875   0.545
 3426SOL    HW211178   3.910   2.809   0.590
 3427SOL     OW11179   6.168   6.986   0.155
 3427SOL    HW111180   6.223   6.904   0.164
 3427SOL    HW211181   6.225   0.044   0.169
 3428SOL     OW11182   2.661   5.204   0.640
 3428SOL    HW111183   2.627   5.135   0.577
 3428SOL    HW211184   2.620   5.191   0.730
 3429SOL     OW11185   0.316   2.254   0.358
 3429SOL    HW111186   0.316   2.315   0.437
 3429SOL    HW211187   0.347   2.163   0.387
 3430SOL     OW11188   0.540   6.350   5.092
 3430SOL    HW111189   0.549   6.253   5.066
 3430SOL    HW211190   0.455   6.387   5.055
 3431SOL     OW11191   0.833   0.082   1.374
 3431SOL    HW111192   0.796   7.020   1.335
 3431SOL    HW211193   0.765   0.124   1.433
 3432SOL     OW11194   1.623   2.367   6.862
 3432SOL    HW111195   1.688   2.443   6.858
 3432SOL    HW211196   1.564   2.377   6.942
 3433SOL     OW11197   1.229   0.681   6.352
 3433SOL    HW111198   1.145   0.673   6.405
 3433SOL    HW211199   1.297   0.734   6.404
 3434SOL     OW11200   4.718   1.992   1.221
 3434SOL    HW111201   4.686   1.901   1.194
 3434SOL    HW211202   4.778   1.984   1.301
 3435SOL     OW11203   0.558   1.600   0.388
 3435SOL    HW111204   0.463   1.575   0.372
 3435SOL    HW211205   0.582   1.680   0.334
 3436SOL     OW11206   4.044   5.680   6.731
 3436SOL    HW111207   4.067   5.760   6.675
 3436SOL    HW211208   4.005   5.710   6.818
 3437SOL     OW11209   1.788   1.218   5.770
 3437SOL    HW111210   1.755   1.256   5.684
 3437SOL    HW211211   1.808   1.293   5.834
 3438SOL     OW11212   0.926   2.853   6.874
 3438SOL    HW111213   0.832   2.839   6.906
 3438SOL    HW211214   0.961   2.939   6.910
 3439SOL     OW11215   2.055   6.254   5.108
 3439SOL    HW111216   2.138   6.280   5.157
 3439SOL    HW211217   2.066   6.276   5.011
 3440SOL     OW11218   3.618   3.753   1.303
 3440SOL    HW111219   3.564   3.789   1.379
 3440SOL    HW211220   3.703   3.713   1.338
 3441SOL     OW11221   5.124   6.938   4.403
 3441SOL    HW111222   5.060   6.902   4.336
 3441SOL    HW211223   5.079   7.009   4.458
 3442SOL     OW11224   2.898   5.071   2.050
 3442SOL    HW111225   2.864   5.006   2.117
 3442SOL    HW211226   2.831   5.080   1.976
 3443SOL     OW11227   5.035   5.692   1.486
 3443SOL    HW111228   4.966   5.762   1.505
 3443SOL    HW211229   5.099   5.726   1.417
 3444SOL     OW11230   5.170   5.447   0.462
 3444SOL    HW111231   5.203   5.499   0.541
 3444SOL    HW211232   5.143   5.355   0.492
 3445SOL     OW11233   6.534   5.366   4.383
 3445SOL    HW111234   6.437   5.374   4.364
 3445SOL    HW211235   6.555   5.271   4.407
 3446SOL     OW11236   6.032   0.326   2.702
 3446SOL    HW111237   6.008   0.352   2.609
 3446SOL    HW211238   6.060   0.407   2.753
 3447SOL     OW11239   5.696   5.801   0.936
 3447SOL    HW111240   5.689   5.785   0.837
 3447SOL    HW211241   5.772   5.865   0.954
 3448SOL     OW11242   3.361   0.316   1.094
 3448SOL    HW111243   3.402   0.375   1.024
 3448SOL    HW211244   3.315   0.373   1.163
 3449SOL     OW11245   6.038   6.411   4.009
 3449SOL    HW111246   6.031   6.319   3.970
 3449SOL    HW211247   6.114   6.414   4.074
 3450SOL     OW11248   0.024   2.452   6.563
 3450SOL    HW111249   7.004   2.502   6.487
 3450SOL    HW211250   6.984   2.380   6.594
 3451SOL     OW11251   1.715   6.409   1.750
 3451SOL    HW111252   1.747   6.366   1.666
 3451SOL    HW211253   1.652   6.484   1.727
 3452SOL     OW11254   5.975   0.451   6.001
 3452SOL    HW111255   5.964   0.434   5.903
 3452SOL    HW211256   6.059   0.410   6.034
 3453SOL     OW11257   6.426   6.032   5.888
 3453SOL    HW111258   6.475   6.051   5.802
 3453SOL    HW211259   6.408   5.934   5.894
 3454SOL     OW11260   1.021   2.438   6.038
 3454SOL    HW111261   1.064   2.382   6.109
 3454SOL    HW211262   1.071   2.426   5.952
 3455SOL     OW11263   2.493   1.924   4.372
 3455SOL    HW111264   2.566   1.886   4.429
 3455SOL    HW211265   2.520   2.015   4.340
 3456SOL     OW11266   6.139   5.663   2.748
 3456SOL    HW111267   6.042   5.686   2.734
 3456SOL    HW211268   6.195   5.736   2.708
 3457SOL     OW11269   2.854   5.364   3.216
 3457SOL    HW111270   2.950   5.364   3.244
 3457SOL    HW211271   2.840   5.296   3.144
 3458SOL     OW11272   4.696   0.586   1.543
 3458SOL    HW111273   4.743   0.623   1.623
 3458SOL    HW211274   4.619   0.645   1.520
 3459SOL     OW11275   5.644   3.581   3.272
 3459SOL    HW111276   5.714   3.649   3.295
 3459SOL    HW211277   5.687   3.492   3.259
 3460SOL     OW11278   2.651   3.111   0.024
 3460SOL    HW111279   2.648   3.072   0.116
 3460SOL    HW211280   2.558   3.127   7.013
 3461SOL     OW11281   4.050   6.232   4.975
 3461SOL    HW111282   4.078   6.182   5.057
 3461SOL    HW211283   3.995   6.311   5.001
 3462SOL     OW11284   0.409   3.722   2.494
 3462SOL    HW111285   0.509   3.716   2.497
 3462SOL    HW211286   0.381   3.774   2.414
 3463SOL     OW11287   0.728   4.092   3.050
 3463SOL    HW111288   0.640   4.052   3.075
 3463SOL    HW211289   0.802   4.034   3.083
 3464SOL     OW11290   6.268   3.868   6.626
 3464SOL    HW111291   6.216   3.800   6.574
 3464SOL    HW211292   6.349   3.894   6.575
 3465SOL     OW11293   1.731   2.221   2.355
 3465SOL    HW111294   1.655   2.246   2.414
 3465SOL    HW211295   1.716   2.258   2.263
 3466SOL     OW11296   0.245   4.907   0.172
 3466SOL    HW111297   0.330   4.866   0.204
 3466SOL    HW211298   0.180   4.912   0.247
 3467SOL     OW11299   1.700   2.325   0.809
 3467SOL    HW111300   1.679   2.286   0.720
 3467SOL    HW211301   1.799   2.335   0.820
 3468SOL     OW11302   5.471   6.343   2.618
 3468SOL    HW111303   5.542   6.333   2.687
 3468SOL    HW211304   5.386   6.373   2.662
 3469SOL     OW11305   4.701   0.159   3.274
 3469SOL    HW111306   4.784   0.113   3.305
 3469SOL    HW211307   4.654   0.200   3.352
 3470SOL     OW11308   6.366   3.575   1.391
 3470SOL    HW111309   6.359   3.542   1.296
 3470SOL    HW211310   6.407   3.503   1.448
 3471SOL     OW11311   4.353   5.292   4.139
 3471SOL    HW111312   4.397   5.203   4.146
 3471SOL    HW211313   4.407   5.359   4.190
 3472SOL     OW11314   2.790   1.037   3.334
 3472SOL    HW111315   2.717   0.971   3.320
 3472SOL    HW211316   2.764   1.125   3.293
 3473SOL     OW11317   0.038   2.109   1.343
 3473SOL    HW111318   0.138   2.106   1.342
 3473SOL    HW211319   0.005   2.154   1.260
 3474SOL     OW11320   0.998   4.747   2.008
 3474SOL    HW111321   0.948   4.780   1.928
 3474SOL    HW211322   1.005   4.821   2.075
 3475SOL     OW11323   1.277   4.614   4.274
 3475SOL    HW111324   1.345   4.652   4.211
 3475SOL    HW211325   1.322   4.585   4.358
 3476SOL     OW11326   2.341   1.348   2.961
 3476SOL    HW111327   2.329   1.253   2.991
 3476SOL    HW211328   2.252   1.389   2.942
 3477SOL     OW11329   1.803   5.424   1.220
 3477SOL    HW111330   1.777   5.346   1.277
 3477SOL    HW211331   1.779   5.509   1.267
 3478SOL     OW11332   2.526   5.657   5.462
 3478SOL    HW111333   2.569   5.642   5.372
 3478SOL    HW211334   2.593   5.638   5.534
 3479SOL     OW11335   1.092   0.251   3.195
 3479SOL    HW111336   1.189   0.228   3.201
 3479SOL    HW211337   1.082   0.350   3.187
 3480SOL     OW11338   0.372   6.281   4.705
 3480SOL    HW111339   0.345   6.211   4.771
 3480SOL    HW211340   0.309   6.358   4.711
 3481SOL     OW11341   4.907   0.339   0.169
 3481SOL    HW111342   4.826   0.305   0.121
 3481SOL    HW211343   4.913   0.297   0.259
 3482SOL     OW11344   5.929   1.519   1.753
 3482SOL    HW111345   6.005   1.495   1.813
 3482SOL    HW211346   5.914   1.446   1.687
 3483SOL     OW11347   4.548   2.145   1.951
 3483SOL    HW111348   4.515   2.209   2.021
 3483SOL    HW211349   4.613   2.192   1.892
 3484SOL     OW11350   1.146   3.224   6.616
 3484SOL    HW111351   1.077   3.236   6.545
 3484SOL    HW211352   1.161   3.127   6.633
 3485SOL     OW11353   2.078   1.332   4.699
 3485SOL    HW111354   2.154   1.382   4.740
 3485SOL    HW211355   2.047   1.260   4.762
 3486SOL     OW11356   2.663   0.252   3.523
 3486SOL    HW111357   2.595   0.225   3.455
 3486SOL    HW211358   2.707   0.171   3.560
 3487SOL     OW11359   5.765   2.628   5.560
 3487SOL    HW111360   5.740   2.631   5.463
 3487SOL    HW211361   5.714   2.554   5.605
 3488SOL     OW11362   6.132   1.187   4.511
 3488SOL    HW111363   6.196   1.124   4.466
 3488SOL    HW211364   6.044   1.184   4.464
 3489SOL     OW11365   3.992   0.096   1.190
 3489SOL    HW111366   4.004   0.178   1.133
 3489SOL    HW211367   3.896   0.067   1.186
 3490SOL     OW11368   4.428   4.430   0.399
 3490SOL    HW111369   4.392   4.421   0.306
 3490SOL    HW211370   4.353   4.449   0.462
 3491SOL     OW11371   4.525   2.675   5.123
 3491SOL    HW111372   4.539   2.676   5.024
 3491SOL    HW211373   4.592   2.614   5.166
 3492SOL     OW11374   0.188   5.435   1.277
 3492SOL    HW111375   0.145   5.514   1.320
 3492SOL    HW211376   0.268   5.406   1.331
 3493SOL     OW11377   5.494   4.183   5.985
 3493SOL    HW111378   5.557   4.206   6.059
 3493SOL    HW211379   5.413   4.139   6.023
 3494SOL     OW11380   3.553   0.181   1.284
 3494SOL    HW111381   3.500   0.213   1.205
 3494SOL    HW211382   3.597   0.094   1.262
 3495SOL     OW11383   5.909   4.956   2.123
 3495SOL    HW111384   5.945   4.883   2.065
 3495SOL    HW211385   5.891   4.920   2.215
 3496SOL     OW11386   5.947   4.257   1.115
 3496SOL    HW111387   5.916   4.341   1.070
 3496SOL    HW211388   5.924   4.262   1.212
 3497SOL     OW11389   3.190   1.364   3.961
 3497SOL    HW111390   3.132   1.379   4.041
 3497SOL    HW211391   3.212   1.267   3.953
 3498SOL     OW11392   2.833   2.418   0.536
 3498SOL    HW111393   2.872   2.405   0.628
 3498SOL    HW211394   2.833   2.330   0.488
 3499SOL     OW11395   4.877   3.333   4.107
 3499SOL    HW111396   4.898   3.287   4.021
 3499SOL    HW211397   4.847   3.427   4.089
 3500SOL     OW11398   1.731   3.450   5.362
 3500SOL    HW111399   1.692   3.403   5.442
 3500SOL    HW211400   1.830   3.441   5.363
 3501SOL     OW11401   1.764   5.742   4.697
 3501SOL    HW111402   1.699   5.681   4.652
 3501SOL    HW211403   1.797   5.700   4.782
 3502SOL     OW11404   6.257   2.898   2.722
 3502SOL    HW111405   6.266   2.833   2.797
 3502SOL    HW211406   6.275   2.990   2.755
 3503SOL     OW11407   6.167   6.433   4.533
 3503SOL    HW111408   6.075   6.396   4.547
 3503SOL    HW211409   6.162   6.511   4.471
 3504SOL     OW11410   2.112   2.132   1.375
 3504SOL    HW111411   2.161   2.201   1.427
 3504SOL    HW211412   2.061   2.072   1.437
 3505SOL     OW11413   5.633   4.872   5.161
 3505SOL    HW111414   5.556   4.816   5.193
 3505SOL    HW211415   5.705   4.871   5.230
 3506SOL     OW11416   4.986   5.376   5.532
 3506SOL    HW111417   4.940   5.302   5.484
 3506SOL    HW211418   4.924   5.453   5.542
 3507SOL     OW11419   1.584   0.858   0.910
 3507SOL    HW111420   1.634   0.929   0.861
 3507SOL    HW211421   1.644   0.780   0.926
 3508SOL     OW11422   2.866   2.441   5.679
 3508SOL    HW111423   2.864   2.345   5.706
 3508SOL    HW211424   2.858   2.448   5.579
 3509SOL     OW11425   5.873   0.265   5.728
 3509SOL    HW111426   5.841   0.351   5.688
 3509SOL    HW211427   5.971   0.255   5.711
 3510SOL     OW11428   1.321   2.466   1.976
 3510SOL    HW111429   1.374   2.391   1.935
 3510SOL    HW211430   1.376   2.550   1.975
 3511SOL     OW11431   3.449   5.238   0.276
 3511SOL    HW111432   3.485   5.332   0.276
 3511SOL    HW211433   3.404   5.220   0.363
 3512SOL     OW11434   0.582   4.644   0.824
 3512SOL    HW111435   0.497   4.623   0.776
 3512SOL    HW211436   0.571   4.728   0.877
 3513SOL     OW11437   6.478   2.859   0.643
 3513SOL    HW111438   6.436   2.944   0.612
 3513SOL    HW211439   6.538   2.878   0.721
 3514SOL     OW11440   0.493   1.660   2.059
 3514SOL    HW111441   0.410   1.686   2.108
 3514SOL    HW211442   0.518   1.566   2.081
 3515SOL     OW11443   5.105   5.956   3.051
 3515SOL    HW111444   5.079   5.876   3.104
 3515SOL    HW211445   5.143   5.927   2.963
 3516SOL     OW11446   4.726   0.293   0.744
 3516SOL    HW111447   4.711   0.212   0.687
 3516SOL    HW211448   4.822   0.298   0.770
 3517SOL     OW11449   1.513   2.078   0.460
 3517SOL    HW111450   1.421   2.112   0.439
 3517SOL    HW211451   1.547   2.024   0.384
 3518SOL     OW11452   5.847   2.726   4.499
 3518SOL    HW111453   5.915   2.681   4.557
 3518SOL    HW211454   5.825   2.668   4.421
 3519SOL     OW11455   1.731   0.743   6.676
 3519SOL    HW111456   1.702   0.787   6.591
 3519SOL    HW211457   1.658   0.683   6.710
 3520SOL     OW11458   2.944   4.847   6.159
 3520SOL    HW111459   3.035   4.809   6.175
 3520SOL    HW211460   2.922   4.839   6.062
 3521SOL     OW11461   5.083   2.352   0.162
 3521SOL    HW111462   5.101   2.383   0.069
 3521SOL    HW211463   5.116   2.258   0.173
 3522SOL     OW11464   6.862   4.516   1.992
 3522SOL    HW111465   6.831   4.453   2.063
 3522SOL    HW211466   6.957   4.495   1.969
 3523SOL     OW11467   2.227   5.101   6.223
 3523SOL    HW111468   2.171   5.020   6.205
 3523SOL    HW211469   2.296   5.110   6.151
 3524SOL     OW11470   3.844   1.545   1.545
 3524SOL    HW111471   3.787   1.531   1.626
 3524SOL    HW211472   3.838   1.465   1.486
 3525SOL     OW11473   1.053   4.098   2.807
 3525SOL    HW111474   1.064   4.051   2.719
 3525SOL    HW211475   1.142   4.128   2.840
 3526SOL     OW11476   2.277   6.058   4.334
 3526SOL    HW111477   2.296   6.156   4.326
 3526SOL    HW211478   2.253   6.037   4.429
 3527SOL     OW11479   5.836   2.697   6.315
 3527SOL    HW111480   5.877   2.760   6.249
 3527SOL    HW211481   5.886   2.611   6.314
 3528SOL     OW11482   0.557   5.526   4.541
 3528SOL    HW111483   0.656   5.534   4.552
 3528SOL    HW211484   0.521   5.612   4.505
 3529SOL     OW11485   3.950   6.993   0.138
 3529SOL    HW111486   4.027   0.029   0.114
 3529SOL    HW211487   3.889   6.985   0.060
 3530SOL     OW11488   0.750   5.461   2.756
 3530SOL    HW111489   0.785   5.549   2.789
 3530SOL    HW211490   0.780   5.388   2.817
 3531SOL     OW11491   5.106   2.899   0.747
 3531SOL    HW111492   5.098   2.805   0.781
 3531SOL    HW211493   5.191   2.909   0.695
 3532SOL     OW11494   2.886   0.621   1.594
 3532SOL    HW111495   2.985   0.634   1.603
 3532SOL    HW211496   2.868   0.528   1.563
 3533SOL     OW11497   1.970   1.721   2.420
 3533SOL    HW111498   1.936   1.815   2.411
 3533SOL    HW211499   1.936   1.666   2.344
 3534SOL     OW11500   5.857   0.942   5.861
 3534SOL    HW111501   5.884   0.886   5.783
 3534SOL    HW211502   5.766   0.980   5.845
 3535SOL     OW11503   1.397   5.622   0.235
 3535SOL    HW111504   1.475   5.649   0.180
 3535SOL    HW211505   1.428   5.578   0.319
 3536SOL     OW11506   2.356   2.335   3.515
 3536SOL    HW111507   2.431   2.397   3.491
 3536SOL    HW211508   2.389   2.267   3.581
 3537SOL     OW11509   3.240   5.601   0.973
 3537SOL    HW111510   3.236   5.687   1.024
 3537SOL    HW211511   3.249   5.525   1.038
 3538SOL     OW11512   1.229   0.460   6.149
 3538SOL    HW111513   1.240   0.545   6.201
 3538SOL    HW211514   1.133   0.433   6.149
 3539SOL     OW11515   6.063   3.368   5.936
 3539SOL    HW111516   6.081   3.312   6.017
 3539SOL    HW211517   6.007   3.447   5.961
 3540SOL     OW11518   2.270   2.593   6.291
 3540SOL    HW111519   2.177   2.560   6.273
 3540SOL    HW211520   2.307   2.633   6.207
 3541SOL     OW11521   1.921   2.490   6.385
 3541SOL    HW111522   1.898   2.569   6.442
 3541SOL    HW211523   1.866   2.411   6.415
 3542SOL     OW11524   1.280   4.837   2.261
 3542SOL    HW111525   1.296   4.897   2.182
 3542SOL    HW211526   1.333   4.753   2.251
 3543SOL     OW11527   0.729   2.573   4.963
 3543SOL    HW111528   0.818   2.529   4.953
 3543SOL    HW211529   0.686   2.582   4.873
 3544SOL     OW11530   2.812   4.423   6.193
 3544SOL    HW111531   2.851   4.435   6.285
 3544SOL    HW211532   2.884   4.437   6.125
 3545SOL     OW11533   4.094   5.247   0.171
 3545SOL    HW111534   4.083   5.160   0.122
 3545SOL    HW211535   4.061   5.238   0.264
 3546SOL     OW11536   0.322   3.745   3.468
 3546SOL    HW111537   0.261   3.666   3.471
 3546SOL    HW211538   0.321   3.785   3.376
 3547SOL     OW11539   6.444   5.115   5.322
 3547SOL    HW111540   6.472   5.211   5.330
 3547SOL    HW211541   6.346   5.111   5.301
 3548SOL     OW11542   5.519   0.507   5.415
 3548SOL    HW111543   5.526   0.529   5.512
 3548SOL    HW211544   5.512   0.592   5.362
 3549SOL     OW11545   6.726   4.881   6.308
 3549SOL    HW111546   6.653   4.937   6.267
 3549SOL    HW211547   6.750   4.807   6.245
 3550SOL     OW11548   6.150   3.013   3.471
 3550SOL    HW111549   6.086   3.005   3.394
 3550SOL    HW211550   6.244   3.014   3.436
 3551SOL     OW11551   3.456   2.056   2.940
 3551SOL    HW111552   3.479   1.963   2.912
 3551SOL    HW211553   3.531   2.118   2.917
 3552SOL     OW11554   6.459   6.521   1.712
 3552SOL    HW111555   6.538   6.579   1.694
 3552SOL    HW211556   6.429   6.533   1.806
 3553SOL     OW11557   4.647   5.535   1.089
 3553SOL    HW111558   4.627   5.592   1.010
 3553SOL    HW211559   4.742   5.504   1.085
 3554SOL     OW11560   3.909   1.991   1.117
 3554SOL    HW111561   3.812   1.968   1.123
 3554SOL    HW211562   3.950   1.987   1.209
 3555SOL     OW11563   0.542   4.543   3.729
 3555SOL    HW111564   0.523   4.591   3.814
 3555SOL    HW211565   0.641   4.528   3.720
 3556SOL     OW11566   3.938   1.321   4.439
 3556SOL    HW111567   3.953   1.420   4.429
 3556SOL    HW211568   4.024   1.273   4.423
 3557SOL     OW11569   0.949   1.176   4.441
 3557SOL    HW111570   0.901   1.180   4.529
 3557SOL    HW211571   0.970   1.081   4.419
 3558SOL     OW11572   1.340   6.050   2.367
 3558SOL    HW111573   1.381   6.072   2.455
 3558SOL    HW211574   1.258   5.995   2.380
 3559SOL     OW11575   0.377   5.985   5.384
 3559SOL    HW111576   0.456   5.983   5.322
 3559SOL    HW211577   0.298   5.943   5.340
 3560SOL     OW11578   1.249   5.496   2.829
 3560SOL    HW111579   1.308   5.435   2.776
 3560SOL    HW211580   1.289   5.509   2.920
 3561SOL     OW11581   4.588   4.514   4.834
 3561SOL    HW111582   4.633   4.600   4.855
 3561SOL    HW211583   4.511   4.500   4.896
 3562SOL     OW11584   3.762   1.297   3.209
 3562SOL    HW111585   3.793   1.264   3.120
 3562SOL    HW211586   3.740   1.394   3.203
 3563SOL     OW11587   5.992   1.997   0.324
 3563SOL    HW111588   5.950   1.997   0.233
 3563SOL    HW211589   6.087   2.027   0.317
 3564SOL     OW11590   0.840   4.566   3.460
 3564SOL    HW111591   0.789   4.647   3.433
 3564SOL    HW211592   0.825   4.493   3.392
 3565SOL     OW11593   3.277   5.317   5.175
 3565SOL    HW111594   3.233   5.227   5.180
 3565SOL    HW211595   3.298   5.349   5.267
 3566SOL     OW11596   6.877   3.563   5.826
 3566SOL    HW111597   6.870   3.626   5.749
 3566SOL    HW211598   6.786   3.537   5.857
 3567SOL     OW11599   0.267   2.630   6.432
 3567SOL    HW111600   0.249   2.578   6.516
 3567SOL    HW211601   0.184   2.634   6.377
 3568SOL     OW11602   4.346   5.013   3.806
 3568SOL    HW111603   4.433   4.994   3.852
 3568SOL    HW211604   4.287   4.933   3.811
 3569SOL     OW11605   2.625   1.495   5.826
 3569SOL    HW111606   2.716   1.476   5.790
 3569SOL    HW211607   2.629   1.573   5.889
 3570SOL     OW11608   5.359   0.736   5.123
 3570SOL    HW111609   5.374   0.768   5.216
 3570SOL    HW211610   5.416   0.789   5.060
 3571SOL     OW11611   0.530   5.049   4.832
 3571SOL    HW111612   0.618   5.001   4.829
 3571SOL    HW211613   0.458   4.984   4.856
 3572SOL     OW11614   6.116   3.652   3.074
 3572SOL    HW111615   6.187   3.637   3.143
 3572SOL    HW211616   6.064   3.567   3.060
 3573SOL     OW11617   0.662   5.767   3.142
 3573SOL    HW111618   0.604   5.839   3.104
 3573SOL    HW211619   0.605   5.706   3.198
 3574SOL     OW11620   0.713   3.558   0.513
 3574SOL    HW111621   0.780   3.508   0.568
 3574SOL    HW211622   0.697   3.509   0.427
 3575SOL     OW11623   5.327   5.128   2.163
 3575SOL    HW111624   5.336   5.146   2.261
 3575SOL    HW211625   5.258   5.189   2.124
 3576SOL     OW11626   0.301   2.542   6.088
 3576SOL    HW111627   0.231   2.613   6.095
 3576SOL    HW211628   0.266   2.466   6.034
 3577SOL     OW11629   1.393   2.109   6.073
 3577SOL    HW111630   1.330   2.031   6.076
 3577SOL    HW211631   1.342   2.192   6.052
 3578SOL     OW11632   3.999   1.609   0.538
 3578SOL    HW111633   4.046   1.686   0.495
 3578SOL    HW211634   3.900   1.617   0.521
 3579SOL     OW11635   0.553   2.218   3.361
 3579SOL    HW111636   0.564   2.317   3.358
 3579SOL    HW211637   0.485   2.193   3.430
 3580SOL     OW11638   5.992   3.228   0.988
 3580SOL    HW111639   6.088   3.210   1.009
 3580SOL    HW211640   5.937   3.219   1.071
 3581SOL     OW11641   1.475   5.682   3.684
 3581SOL    HW111642   1.392   5.709   3.733
 3581SOL    HW211643   1.548   5.663   3.750
 3582SOL     OW11644   1.093   3.620   6.376
 3582SOL    HW111645   1.060   3.704   6.334
 3582SOL    HW211646   1.086   3.544   6.310
 3583SOL     OW11647   1.072   4.265   6.182
 3583SOL    HW111648   1.084   4.195   6.111
 3583SOL    HW211649   0.977   4.296   6.182
 3584SOL     OW11650   5.502   5.308   6.596
 3584SOL    HW111651   5.414   5.262   6.598
 3584SOL    HW211652   5.537   5.308   6.502
 3585SOL     OW11653   3.213   0.924   4.840
 3585SOL    HW111654   3.261   0.837   4.848
 3585SOL    HW211655   3.226   0.961   4.748
 3586SOL     OW11656   6.305   2.062   4.643
 3586SOL    HW111657   6.219   2.014   4.630
 3586SOL    HW211658   6.307   2.145   4.587
 3587SOL     OW11659   2.286   4.807   5.402
 3587SOL    HW111660   2.259   4.829   5.496
 3587SOL    HW211661   2.360   4.740   5.403
 3588SOL     OW11662   1.459   2.815   5.514
 3588SOL    HW111663   1.392   2.885   5.491
 3588SOL    HW211664   1.550   2.846   5.487
 3589SOL     OW11665   5.242   1.402   4.814
 3589SOL    HW111666   5.265   1.458   4.893
 3589SOL    HW211667   5.168   1.339   4.839
 3590SOL     OW11668   0.911   3.253   0.411
 3590SOL    HW111669   0.904   3.272   0.509
 3590SOL    HW211670   0.983   3.186   0.395
 3591SOL     OW11671   5.222   4.174   6.804
 3591SOL    HW111672   5.257   4.091   6.760
 3591SOL    HW211673   5.146   4.211   6.750
 3592SOL     OW11674   1.086   5.117   1.965
 3592SOL    HW111675   1.144   5.176   1.910
 3592SOL    HW211676   1.008   5.170   2.000
 3593SOL     OW11677   0.879   5.369   5.445
 3593SOL    HW111678   0.835   5.294   5.494
 3593SOL    HW211679   0.906   5.339   5.354
 3594SOL     OW11680   4.786   6.881   2.910
 3594SOL    HW111681   4.825   6.815   2.974
 3594SOL    HW211682   4.733   6.949   2.960
 3595SOL     OW11683   4.255   5.592   5.960
 3595SOL    HW111684   4.293   5.665   5.903
 3595SOL    HW211685   4.163   5.618   5.989
 3596SOL     OW11686   6.428   3.304   3.263
 3596SOL    HW111687   6.368   3.341   3.334
 3596SOL    HW211688   6.470   3.379   3.212
 3597SOL     OW11689   2.041   2.320   5.649
 3597SOL    HW111690   1.951   2.316   5.693
 3597SOL    HW211691   2.057   2.235   5.599
 3598SOL     OW11692   1.186   5.359   6.350
 3598SOL    HW111693   1.134   5.321   6.427
 3598SOL    HW211694   1.136   5.435   6.310
 3599SOL     OW11695   5.925   2.381   6.494
 3599SOL    HW111696   6.016   2.421   6.479
 3599SOL    HW211697   5.870   2.445   6.547
 3600SOL     OW11698   0.597   2.991   1.549
 3600SOL    HW111699   0.543   3.036   1.478
 3600SOL    HW211700   0.678   2.949   1.508
 3601SOL     OW11701   5.363   3.389   6.513
 3601SOL    HW111702   5.380   3.462   6.579
 3601SOL    HW211703   5.268   3.358   6.520
 3602SOL     OW11704   1.612   3.341   0.471
 3602SOL    HW111705   1.573   3.327   0.380
 3602SOL    HW211706   1.641   3.253   0.509
 3603SOL     OW11707   3.427   0.914   4.356
 3603SOL    HW111708   3.525   0.927   4.337
 3603SOL    HW211709   3.400   0.822   4.328
 3604SOL     OW11710   6.699   6.123   3.189
 3604SOL    HW111711   6.674   6.143   3.284
 3604SOL    HW211712   6.736   6.206   3.146
 3605SOL     OW11713   6.613   3.941   4.406
 3605SOL    HW111714   6.689   3.998   4.373
 3605SOL    HW211715   6.582   3.975   4.495
 3606SOL     OW11716   0.108   0.473   4.364
 3606SOL    HW111717   0.199   0.459   4.401
 3606SOL    HW211718   0.040   0.469   4.437
 3607SOL     OW11719   5.911   5.205   2.021
 3607SOL    HW111720   5.914   5.110   2.050
 3607SOL    HW211721   5.865   5.212   1.933
 3608SOL     OW11722   4.990   2.497   4.566
 3608SOL    HW111723   5.008   2.410   4.520
 3608SOL    HW211724   4.963   2.565   4.497
 3609SOL     OW11725   1.061   0.246   4.426
 3609SOL    HW111726   1.096   0.336   4.455
 3609SOL    HW211727   1.123   0.175   4.459
 3610SOL     OW11728   1.860   6.863   5.856
 3610SOL    HW111729   1.765   6.855   5.825
 3610SOL    HW211730   1.920   6.872   5.776
 3611SOL     OW11731   4.654   4.846   4.650
 3611SOL    HW111732   4.597   4.765   4.636
 3611SOL    HW211733   4.716   4.831   4.727
 3612SOL     OW11734   6.650   6.820   0.753
 3612SOL    HW111735   6.735   6.834   0.803
 3612SOL    HW211736   6.670   6.780   0.663
 3613SOL     OW11737   4.945   4.516   2.096
 3613SOL    HW111738   4.885   4.540   2.172
 3613SOL    HW211739   4.910   4.435   2.049
 3614SOL     OW11740   3.937   3.632   1.274
 3614SOL    HW111741   3.953   3.551   1.330
 3614SOL    HW211742   4.023   3.683   1.264
 3615SOL     OW11743   5.291   4.247   6.489
 3615SOL    HW111744   5.315   4.156   6.456
 3615SOL    HW211745   5.374   4.296   6.515
 3616SOL     OW11746   0.383   1.628   6.265
 3616SOL    HW111747   0.469   1.585   6.291
 3616SOL    HW211748   0.391   1.727   6.271
 3617SOL     OW11749   4.510   0.577   6.860
 3617SOL    HW111750   4.542   0.660   6.814
 3617SOL    HW211751   4.437   0.535   6.805
 3618SOL     OW11752   2.701   3.051   5.957
 3618SOL    HW111753   2.735   3.140   5.928
 3618SOL    HW211754   2.647   3.010   5.884
 3619SOL     OW11755   5.689   2.853   4.802
 3619SOL    HW111756   5.615   2.920   4.814
 3619SOL    HW211757   5.742   2.876   4.720
 3620SOL     OW11758   6.210   6.264   5.700
 3620SOL    HW111759   6.256   6.331   5.641
 3620SOL    HW211760   6.229   6.172   5.667
 3621SOL     OW11761   3.047   2.893   5.248
 3621SOL    HW111762   3.060   2.855   5.156
 3621SOL    HW211763   2.957   2.936   5.254
 3622SOL     OW11764   1.134   1.492   6.328
 3622SOL    HW111765   1.104   1.585   6.349
 3622SOL    HW211766   1.057   1.440   6.291
 3623SOL     OW11767   0.070   6.379   4.437
 3623SOL    HW111768   0.094   6.317   4.512
 3623SOL    HW211769   7.021   6.441   4.466
 3624SOL     OW11770   2.057   0.075   2.503
 3624SOL    HW111771   2.041   7.019   2.444
 3624SOL    HW211772   1.970   0.117   2.527
 3625SOL     OW11773   6.908   3.049   6.678
 3625SOL    HW111774   6.883   2.973   6.618
 3625SOL    HW211775   7.005   3.042   6.702
 3626SOL     OW11776   1.795   2.312   5.779
 3626SOL    HW111777   1.732   2.259   5.836
 3626SOL    HW211778   1.755   2.401   5.760
 3627SOL     OW11779   2.999   3.308   1.735
 3627SOL    HW111780   2.979   3.211   1.736
 3627SOL    HW211781   2.921   3.359   1.771
 3628SOL     OW11782   1.322   1.063   2.415
 3628SOL    HW111783   1.225   1.083   2.426
 3628SOL    HW211784   1.356   1.012   2.494
 3629SOL     OW11785   6.744   1.098   5.657
 3629SOL    HW111786   6.708   1.175   5.709
 3629SOL    HW211787   6.670   1.033   5.639
 3630SOL     OW11788   5.159   2.477   4.197
 3630SOL    HW111789   5.218   2.541   4.245
 3630SOL    HW211790   5.101   2.429   4.262
 3631SOL     OW11791   2.332   0.935   3.294
 3631SOL    HW111792   2.413   0.906   3.243
 3631SOL    HW211793   2.359   0.995   3.369
 3632SOL     OW11794   5.634   5.173   0.861
 3632SOL    HW111795   5.603   5.156   0.955
 3632SOL    HW211796   5.686   5.095   0.828
 3633SOL     OW11797   4.088   1.964   5.653
 3633SOL    HW111798   4.094   1.887   5.716
 3633SOL    HW211799   4.081   2.049   5.704
 3634SOL     OW11800   1.530   5.017   5.567
 3634SOL    HW111801   1.474   4.969   5.500
 3634SOL    HW211802   1.483   5.018   5.656
 3635SOL     OW11803   2.911   0.027   1.022
 3635SOL    HW111804   2.812   0.042   1.021
 3635SOL    HW211805   2.945   0.036   1.115
 3636SOL     OW11806   6.931   5.700   0.882
 3636SOL    HW111807   6.838   5.709   0.919
 3636SOL    HW211808   6.927   5.701   0.782
 3637SOL     OW11809   0.016   2.521   1.985
 3637SOL    HW111810   0.011   2.605   2.039
 3637SOL    HW211811   6.947   2.495   1.956
 3638SOL     OW11812   0.681   4.199   3.414
 3638SOL    HW111813   0.747   4.259   3.368
 3638SOL    HW211814   0.588   4.223   3.386
 3639SOL     OW11815   3.743   5.429   0.530
 3639SOL    HW111816   3.706   5.448   0.440
 3639SOL    HW211817   3.725   5.506   0.591
 3640SOL     OW11818   4.325   0.674   0.491
 3640SOL    HW111819   4.279   0.653   0.405
 3640SOL    HW211820   4.415   0.714   0.473
 3641SOL     OW11821   5.982   3.860   2.467
 3641SOL    HW111822   6.060   3.895   2.416
 3641SOL    HW211823   5.938   3.787   2.415
 3642SOL     OW11824   5.081   2.060   0.430
 3642SOL    HW111825   4.989   2.081   0.464
 3642SOL    HW211826   5.141   2.037   0.506
 3643SOL     OW11827   2.885   5.400   4.797
 3643SOL    HW111828   2.877   5.370   4.702
 3643SOL    HW211829   2.799   5.382   4.845
 3644SOL     OW11830   0.921   1.406   1.726
 3644SOL    HW111831   0.867   1.331   1.690
 3644SOL    HW211832   0.970   1.377   1.808
 3645SOL     OW11833   1.679   2.131   3.902
 3645SOL    HW111834   1.739   2.073   3.957
 3645SOL    HW211835   1.734   2.178   3.832
 3646SOL     OW11836   1.785   4.488   6.117
 3646SOL    HW111837   1.771   4.407   6.061
 3646SOL    HW211838   1.706   4.500   6.179
 3647SOL     OW11839   2.223   6.229   6.562
 3647SOL    HW111840   2.207   6.156   6.629
 3647SOL    HW211841   2.321   6.236   6.543
 3648SOL     OW11842   4.471   5.781   2.181
 3648SOL    HW111843   4.500   5.821   2.094
 3648SOL    HW211844   4.416   5.847   2.232
 3649SOL     OW11845   6.241   2.943   1.362
 3649SOL    HW111846   6.204   2.962   1.271
 3649SOL    HW211847   6.302   2.864   1.357
 3650SOL     OW11848   6.673   5.540   2.414
 3650SOL    HW111849   6.741   5.476   2.451
 3650SOL    HW211850   6.625   5.497   2.337
 3651SOL     OW11851   0.446   0.670   4.386
 3651SOL    HW111852   0.535   0.705   4.417
 3651SOL    HW211853   0.455   0.634   4.293
 3652SOL     OW11854   6.393   0.260   3.340
 3652SOL    HW111855   6.327   0.261   3.415
 3652SOL    HW211856   6.428   0.167   3.328
 3653SOL     OW11857   1.394   1.034   3.427
 3653SOL    HW111858   1.358   1.106   3.368
 3653SOL    HW211859   1.328   1.013   3.499
 3654SOL     OW11860   4.150   4.634   0.377
 3654SOL    HW111861   4.177   4.558   0.437
 3654SOL    HW211862   4.065   4.611   0.330
 3655SOL     OW11863   3.020   6.914   4.337
 3655SOL    HW111864   3.046   7.010   4.325
 3655SOL    HW211865   3.098   6.856   4.314
 3656SOL     OW11866   0.421   5.245   1.634
 3656SOL    HW111867   0.435   5.276   1.540
 3656SOL    HW211868   0.350   5.301   1.677
 3657SOL     OW11869   5.684   5.385   5.206
 3657SOL    HW111870   5.602   5.335   5.178
 3657SOL    HW211871   5.728   5.425   5.126
 3658SOL     OW11872   2.432   4.421   6.742
 3658SOL    HW111873   2.481   4.450   6.824
 3658SOL    HW211874   2.352   4.366   6.768
 3659SOL     OW11875   2.316   2.929   6.104
 3659SOL    HW111876   2.363   2.879   6.031
 3659SOL    HW211877   2.227   2.886   6.121
 3660SOL     OW11878   5.626   6.030   4.344
 3660SOL    HW111879   5.608   6.024   4.246
 3660SOL    HW211880   5.561   5.972   4.393
 3661SOL     OW11881   6.679   1.232   5.326
 3661SOL    HW111882   6.685   1.203   5.231
 3661SOL    HW211883   6.731   1.316   5.339
 3662SOL     OW11884   4.274   0.758   4.427
 3662SOL    HW111885   4.235   0.759   4.335
 3662SOL    HW211886   4.297   0.851   4.455
 3663SOL     OW11887   1.845   2.102   0.284
 3663SOL    HW111888   1.800   2.157   0.354
 3663SOL    HW211889   1.917   2.047   0.326
 3664SOL     OW11890   4.687   2.253   1.749
 3664SOL    HW111891   4.772   2.293   1.715
 3664SOL    HW211892   4.610   2.285   1.694
 3665SOL     OW11893   0.557   6.094   5.018
 3665SOL    HW111894   0.598   6.054   5.100
 3665SOL    HW211895   0.567   6.030   4.942
 3666SOL     OW11896   1.067   3.684   2.820
 3666SOL    HW111897   1.130   3.744   2.770
 3666SOL    HW211898   1.019   3.624   2.756
 3667SOL     OW11899   0.286   1.183   3.941
 3667SOL    HW111900   0.289   1.153   4.037
 3667SOL    HW211901   0.377   1.173   3.900
 3668SOL     OW11902   1.424   1.194   0.845
 3668SOL    HW111903   1.396   1.284   0.813
 3668SOL    HW211904   1.449   1.199   0.942
 3669SOL     OW11905   5.408   2.099   3.831
 3669SOL    HW111906   5.470   2.034   3.785
 3669SOL    HW211907   5.323   2.052   3.854
 3670SOL     OW11908   1.856   5.522   6.820
 3670SOL    HW111909   1.855   5.431   6.778
 3670SOL    HW211910   1.890   5.589   6.754
 3671SOL     OW11911   0.284   1.843   3.857
 3671SOL    HW111912   0.357   1.811   3.797
 3671SOL    HW211913   0.260   1.937   3.834
 3672SOL     OW11914   4.640   2.085   2.431
 3672SOL    HW111915   4.663   2.120   2.521
 3672SOL    HW211916   4.645   2.159   2.364
 3673SOL     OW11917   4.188   6.023   0.009
 3673SOL    HW111918   4.282   6.039   0.038
 3673SOL    HW211919   4.164   5.927   0.023
 3674SOL     OW11920   1.605   5.672   5.528
 3674SOL    HW111921   1.576   5.581   5.499
 3674SOL    HW211922   1.532   5.738   5.508
 3675SOL     OW11923   1.897   2.924   4.040
 3675SOL    HW111924   1.945   2.851   3.992
 3675SOL    HW211925   1.920   2.921   4.137
 3676SOL     OW11926   6.680   4.399   2.928
 3676SOL    HW111927   6.748   4.472   2.944
 3676SOL    HW211928   6.711   4.315   2.973
 3677SOL     OW11929   2.985   6.253   4.219
 3677SOL    HW111930   3.012   6.341   4.259
 3677SOL    HW211931   3.020   6.247   4.125
 3678SOL     OW11932   1.450   1.308   4.259
 3678SOL    HW111933   1.351   1.289   4.258
 3678SOL    HW211934   1.482   1.307   4.354
 3679SOL     OW11935   6.745   0.560   3.218
 3679SOL    HW111936   6.723   0.498   3.143
 3679SOL    HW211937   6.845   0.569   3.226
 3680SOL     OW11938   5.173   2.843   4.301
 3680SOL    HW111939   5.154   2.941   4.294
 3680SOL    HW211940   5.215   2.811   4.216
 3681SOL     OW11941   0.063   1.336   6.418
 3681SOL    HW111942   0.050   1.330   6.319
 3681SOL    HW211943   0.012   1.263   6.463
 3682SOL     OW11944   5.851   2.979   0.122
 3682SOL    HW111945   5.829   3.073   0.098
 3682SOL    HW211946   5.937   2.977   0.173
 3683SOL     OW11947   0.275   1.492   4.508
 3683SOL    HW111948   0.356   1.549   4.493
 3683SOL    HW211949   0.267   1.425   4.435
 3684SOL     OW11950   1.129   5.556   0.050
 3684SOL    HW111951   1.221   5.538   0.083
 3684SOL    HW211952   1.082   5.470   0.031
 3685SOL     OW11953   1.871   5.876   6.453
 3685SOL    HW111954   1.850   5.814   6.378
 3685SOL    HW211955   1.879   5.969   6.418
 3686SOL     OW11956   6.038   5.078   4.640
 3686SOL    HW111957   6.040   4.989   4.687
 3686SOL    HW211958   5.949   5.091   4.598
 3687SOL     OW11959   3.776   6.217   4.176
 3687SOL    HW111960   3.817   6.130   4.148
 3687SOL    HW211961   3.723   6.205   4.260
 3688SOL     OW11962   0.094   2.972   6.962
 3688SOL    HW111963   7.022   2.942   6.972
 3688SOL    HW211964   0.106   3.060   7.009
 3689SOL     OW11965   1.779   0.247   5.662
 3689SOL    HW111966   1.730   0.167   5.628
 3689SOL    HW211967   1.779   0.318   5.592
 3690SOL     OW11968   3.746   5.905   0.250
 3690SOL    HW111969   3.743   6.005   0.241
 3690SOL    HW211970   3.654   5.868   0.240
 3691SOL     OW11971   2.646   1.510   6.915
 3691SOL    HW111972   2.622   1.449   6.840
 3691SOL    HW211973   2.743   1.530   6.912
 3692SOL     OW11974   6.701   5.353   5.748
 3692SOL    HW111975   6.685   5.403   5.833
 3692SOL    HW211976   6.673   5.408   5.670
 3693SOL     OW11977   2.125   3.253   2.923
 3693SOL    HW111978   2.199   3.316   2.946
 3693SOL    HW211979   2.137   3.220   2.830
 3694SOL     OW11980   0.641   6.276   2.201
 3694SOL    HW111981   0.631   6.192   2.254
 3694SOL    HW211982   0.625   6.256   2.104
 3695SOL     OW11983   4.831   3.138   1.537
 3695SOL    HW111984   4.859   3.231   1.559
 3695SOL    HW211985   4.833   3.125   1.438
 3696SOL     OW11986   3.674   0.174   3.846
 3696SOL    HW111987   3.732   0.163   3.927
 3696SOL    HW211988   3.583   0.205   3.874
 3697SOL     OW11989   0.493   6.267   2.915
 3697SOL    HW111990   0.564   6.196   2.910
 3697SOL    HW211991   0.406   6.225   2.941
 3698SOL     OW11992   2.748   0.778   3.678
 3698SOL    HW111993   2.829   0.756   3.625
 3698SOL    HW211994   2.688   0.697   3.681
 3699SOL     OW11995   1.783   1.151   3.694
 3699SOL    HW111996   1.726   1.114   3.621
 3699SOL    HW211997   1.879   1.141   3.670
 3700SOL     OW11998   1.421   5.502   4.826
 3700SOL    HW111999   1.325   5.474   4.828
 3700SOL    HW212000   1.478   5.421   4.812
 3701SOL     OW12001   1.434   0.225   3.771
 3701SOL    HW112002   1.445   0.325   3.775
 3701SOL    HW212003   1.426   0.197   3.676
 3702SOL     OW12004   5.377   6.499   3.618
 3702SOL    HW112005   5.296   6.454   3.580
 3702SOL    HW212006   5.387   6.590   3.577
 3703SOL     OW12007   6.821   0.619   6.584
 3703SOL    HW112008   6.750   0.686   6.607
 3703SOL    HW212009   6.778   0.533   6.555
 3704SOL     OW12010   3.624   2.122   1.114
 3704SOL    HW112011   3.664   2.181   1.044
 3704SOL    HW212012   3.627   2.169   1.202
 3705SOL     OW12013   5.146   4.177   4.874
 3705SOL    HW112014   5.107   4.173   4.782
 3705SOL    HW212015   5.239   4.141   4.873
 3706SOL     OW12016   0.981   3.577   6.838
 3706SOL    HW112017   1.037   3.540   6.764
 3706SOL    HW212018   0.959   3.673   6.819
 3707SOL     OW12019   5.252   5.185   4.517
 3707SOL    HW112020   5.272   5.088   4.503
 3707SOL    HW212021   5.280   5.237   4.436
 3708SOL     OW12022   6.026   0.324   0.301
 3708SOL    HW112023   5.929   0.349   0.294
 3708SOL    HW212024   6.079   0.404   0.330
 3709SOL     OW12025   3.670   0.246   1.679
 3709SOL    HW112026   3.597   0.296   1.632
 3709SOL    HW212027   3.647   0.236   1.776
 3710SOL     OW12028   6.577   5.646   5.251
 3710SOL    HW112029   6.601   5.651   5.347
 3710SOL    HW212030   6.533   5.558   5.232
 3711SOL     OW12031   1.287   5.133   4.994
 3711SOL    HW112032   1.352   5.199   4.956
 3711SOL    HW212033   1.290   5.136   5.094
 3712SOL     OW12034   1.013   5.001   6.082
 3712SOL    HW112035   1.017   4.988   6.181
 3712SOL    HW212036   0.972   5.090   6.061
 3713SOL     OW12037   0.407   6.696   5.231
 3713SOL    HW112038   0.470   6.660   5.163
 3713SOL    HW212039   0.451   6.698   5.321
 3714SOL     OW12040   6.043   5.975   6.532
 3714SOL    HW112041   5.952   5.952   6.567
 3714SOL    HW212042   6.034   6.032   6.451
 3715SOL     OW12043   0.627   4.094   2.789
 3715SOL    HW112044   0.606   3.996   2.777
 3715SOL    HW212045   0.676   4.107   2.875
 3716SOL     OW12046   5.826   6.417   4.208
 3716SOL    HW112047   5.905   6.417   4.148
 3716SOL    HW212048   5.822   6.504   4.257
 3717SOL     OW12049   5.939   0.171   6.734
 3717SOL    HW112050   5.865   0.164   6.801
 3717SOL    HW212051   5.950   0.267   6.707
 3718SOL     OW12052   6.664   0.374   0.628
 3718SOL    HW112053   6.576   0.327   0.617
 3718SOL    HW212054   6.727   0.314   0.679
 3719SOL     OW12055   5.050   3.524   1.292
 3719SOL    HW112056   5.013   3.548   1.202
 3719SOL    HW212057   5.029   3.428   1.312
 3720SOL     OW12058   6.008   3.194   0.317
 3720SOL    HW112059   6.083   3.129   0.304
 3720SOL    HW212060   5.946   3.161   0.388
 3721SOL     OW12061   0.108   5.077   1.809
 3721SOL    HW112062   0.204   5.054   1.790
 3721SOL    HW212063   0.095   5.085   1.908
 3722SOL     OW12064   5.579   6.042   0.958
 3722SOL    HW112065   5.656   6.071   0.902
 3722SOL    HW212066   5.585   5.944   0.975
 3723SOL     OW12067   5.529   4.544   0.945
 3723SOL    HW112068   5.510   4.639   0.968
 3723SOL    HW212069   5.472   4.517   0.867
 3724SOL     OW12070   1.814   4.643   4.862
 3724SOL    HW112071   1.897   4.587   4.861
 3724SOL    HW212072   1.741   4.594   4.910
 3725SOL     OW12073   0.458   5.335   0.131
 3725SOL    HW112074   0.534   5.346   0.195
 3725SOL    HW212075   0.484   5.269   0.060
 3726SOL     OW12076   5.839   3.052   6.258
 3726SOL    HW112077   5.881   2.966   6.230
 3726SOL    HW212078   5.846   3.118   6.183
 3727SOL     OW12079   6.295   2.200   5.416
 3727SOL    HW112080   6.333   2.129   5.474
 3727SOL    HW212081   6.233   2.258   5.469
 3728SOL     OW12082   0.862   3.571   6.519
 3728SOL    HW112083   0.893   3.517   6.597
 3728SOL    HW212084   0.940   3.592   6.460
 3729SOL     OW12085   1.932   1.625   4.117
 3729SOL    HW112086   2.031   1.617   4.112
 3729SOL    HW212087   1.891   1.535   4.106
 3730SOL     OW12088   3.312   5.878   5.350
 3730SOL    HW112089   3.294   5.887   5.252
 3730SOL    HW212090   3.243   5.818   5.391
 3731SOL     OW12091   0.186   1.300   0.463
 3731SOL    HW112092   0.137   1.218   0.434
 3731SOL    HW212093   0.175   1.313   0.562
 3732SOL     OW12094   2.673   2.113   0.178
 3732SOL    HW112095   2.682   2.154   0.087
 3732SOL    HW212096   2.697   2.016   0.174
 3733SOL     OW12097   2.106   3.332   2.642
 3733SOL    HW112098   2.102   3.403   2.713
 3733SOL    HW212099   2.042   3.354   2.569
 3734SOL     OW12100   5.430   0.067   1.062
 3734SOL    HW112101   5.339   0.034   1.089
 3734SOL    HW212102   5.486   7.012   1.033
 3735SOL     OW12103   2.726   0.721   2.535
 3735SOL    HW112104   2.741   0.806   2.484
 3735SOL    HW212105   2.814   0.686   2.567
 3736SOL     OW12106   0.157   1.340   1.104
 3736SOL    HW112107   0.177   1.431   1.068
 3736SOL    HW212108   0.069   1.309   1.070
 3737SOL     OW12109   5.001   1.081   4.164
 3737SOL    HW112110   4.962   1.100   4.253
 3737SOL    HW212111   4.994   1.162   4.106
 3738SOL     OW12112   6.324   0.301   1.662
 3738SOL    HW112113   6.342   0.281   1.566
 3738SOL    HW212114   6.227   0.318   1.675
 3739SOL     OW12115   2.569   5.238   0.911
 3739SOL    HW112116   2.526   5.311   0.858
 3739SOL    HW212117   2.558   5.258   1.009
 3740SOL     OW12118   6.000   6.795   0.707
 3740SOL    HW112119   6.085   6.771   0.660
 3740SOL    HW212120   5.986   6.894   0.703
 3741SOL     OW12121   4.988   2.960   6.107
 3741SOL    HW112122   4.902   3.012   6.102
 3741SOL    HW212123   5.029   2.973   6.197
 3742SOL     OW12124   3.609   1.545   6.882
 3742SOL    HW112125   3.545   1.469   6.866
 3742SOL    HW212126   3.701   1.517   6.854
 3743SOL     OW12127   5.662   2.910   0.454
 3743SOL    HW112128   5.672   2.846   0.378
 3743SOL    HW212129   5.566   2.930   0.469
 3744SOL     OW12130   1.464   6.859   1.925
 3744SOL    HW112131   1.430   6.907   2.006
 3744SOL    HW212132   1.492   6.766   1.950
 3745SOL     OW12133   4.584   4.634   2.707
 3745SOL    HW112134   4.640   4.594   2.780
 3745SOL    HW212135   4.492   4.597   2.711
 3746SOL     OW12136   6.728   0.557   3.894
 3746SOL    HW112137   6.717   0.488   3.822
 3746SOL    HW212138   6.721   0.648   3.855
 3747SOL     OW12139   3.850   5.590   5.165
 3747SOL    HW112140   3.836   5.577   5.067
 3747SOL    HW212141   3.805   5.516   5.215
 3748SOL     OW12142   5.336   1.334   1.550
 3748SOL    HW112143   5.325   1.251   1.605
 3748SOL    HW212144   5.367   1.409   1.609
 3749SOL     OW12145   2.090   5.114   2.836
 3749SOL    HW112146   1.994   5.120   2.807
 3749SOL    HW212147   2.148   5.162   2.769
 3750SOL     OW12148   6.685   4.999   1.228
 3750SOL    HW112149   6.771   4.979   1.181
 3750SOL    HW212150   6.705   5.044   1.315
 3751SOL     OW12151   6.672   3.413   1.236
 3751SOL    HW112152   6.747   3.445   1.294
 3751SOL    HW212153   6.591   3.397   1.292
 3752SOL     OW12154   0.051   6.511   0.340
 3752SOL    HW112155   7.016   6.576   0.290
 3752SOL    HW212156   0.144   6.513   0.303
 3753SOL     OW12157   6.996   0.802   4.004
 3753SOL    HW112158   6.994   0.878   4.069
 3753SOL    HW212159   0.030   0.729   4.040
 3754SOL     OW12160   4.126   6.819   1.299
 3754SOL    HW112161   4.035   6.853   1.326
 3754SOL    HW212162   4.135   6.824   1.200
 3755SOL     OW12163   5.158   5.848   4.517
 3755SOL    HW112164   5.146   5.876   4.421
 3755SOL    HW212165   5.075   5.870   4.568
 3756SOL     OW12166   2.136   6.013   6.236
 3756SOL    HW112167   2.194   5.941   6.273
 3756SOL    HW212168   2.117   5.994   6.139
 3757SOL     OW12169   3.937   6.540   6.486
 3757SOL    HW112170   3.886   6.453   6.480
 3757SOL    HW212171   3.888   6.602   6.548
 3758SOL     OW12172   2.116   1.516   5.064
 3758SOL    HW112173   2.150   1.532   4.972
 3758SOL    HW212174   2.177   1.453   5.112
 3759SOL     OW12175   4.643   5.445   5.940
 3759SOL    HW112176   4.617   5.444   6.037
 3759SOL    HW212177   4.718   5.510   5.926
 3760SOL     OW12178   2.069   1.925   4.950
 3760SOL    HW112179   2.095   2.018   4.926
 3760SOL    HW212180   2.069   1.915   5.049
 3761SOL     OW12181   0.921   0.842   4.761
 3761SOL    HW112182   0.922   0.822   4.859
 3761SOL    HW212183   1.010   0.879   4.734
 3762SOL     OW12184   1.294   4.362   0.324
 3762SOL    HW112185   1.287   4.271   0.364
 3762SOL    HW212186   1.336   4.356   0.233
 3763SOL     OW12187   0.187   4.511   0.870
 3763SOL    HW112188   0.102   4.536   0.823
 3763SOL    HW212189   0.182   4.415   0.899
 3764SOL     OW12190   2.033   6.677   4.425
 3764SOL    HW112191   2.024   6.768   4.464
 3764SOL    HW212192   1.998   6.609   4.490
 3765SOL     OW12193   4.731   1.014   0.874
 3765SOL    HW112194   4.631   1.018   0.870
 3765SOL    HW212195   4.763   1.046   0.963
 3766SOL     OW12196   0.728   1.326   4.013
 3766SOL    HW112197   0.635   1.360   4.029
 3766SOL    HW212198   0.780   1.331   4.097
 3767SOL     OW12199   2.435   4.405   0.591
 3767SOL    HW112200   2.508   4.438   0.531
 3767SOL    HW212201   2.433   4.305   0.590
 3768SOL     OW12202   1.923   6.026   5.014
 3768SOL    HW112203   1.970   6.101   4.966
 3768SOL    HW212204   1.937   6.036   5.113
 3769SOL     OW12205   5.963   6.355   5.586
 3769SOL    HW112206   6.008   6.351   5.675
 3769SOL    HW212207   5.926   6.265   5.562
 3770SOL     OW12208   1.790   0.347   6.853
 3770SOL    HW112209   1.850   0.270   6.870
 3770SOL    HW212210   1.746   0.375   6.939
 3771SOL     OW12211   6.154   2.976   0.180
 3771SOL    HW112212   6.215   2.961   0.258
 3771SOL    HW212213   6.200   3.037   0.114
 3772SOL     OW12214   6.997   0.606   0.501
 3772SOL    HW112215   6.914   0.650   0.467
 3772SOL    HW212216   6.989   0.590   0.599
 3773SOL     OW12217   6.253   2.969   5.804
 3773SOL    HW112218   6.343   2.979   5.845
 3773SOL    HW212219   6.228   3.053   5.757
 3774SOL     OW12220   0.109   5.907   0.282
 3774SOL    HW112221   0.158   5.820   0.278
 3774SOL    HW212222   0.072   5.928   0.191
 3775SOL     OW12223   4.928   5.158   2.510
 3775SOL    HW112224   4.872   5.087   2.467
 3775SOL    HW212225   4.977   5.119   2.588
 3776SOL     OW12226   3.915   1.525   0.947
 3776SOL    HW112227   3.947   1.565   0.861
 3776SOL    HW212228   3.993   1.510   1.007
 3777SOL     OW12229   3.598   5.016   4.267
 3777SOL    HW112230   3.527   5.024   4.337
 3777SOL    HW212231   3.643   5.104   4.254
 3778SOL     OW12232   3.743   5.048   2.368
 3778SOL    HW112233   3.699   5.015   2.284
 3778SOL    HW212234   3.743   5.148   2.367
 3779SOL     OW12235   1.897   4.896   1.008
 3779SOL    HW112236   1.917   4.870   1.102
 3779SOL    HW212237   1.871   4.993   1.005
 3780SOL     OW12238   5.338   6.041   5.385
 3780SOL    HW112239   5.356   5.943   5.388
 3780SOL    HW212240   5.413   6.087   5.337
 3781SOL     OW12241   1.186   6.848   4.683
 3781SOL    HW112242   1.257   6.887   4.741
 3781SOL    HW212243   1.153   6.762   4.724
 3782SOL     OW12244   2.499   0.679   4.263
 3782SOL    HW112245   2.410   0.659   4.303
 3782SOL    HW212246   2.503   0.642   4.170
 3783SOL     OW12247   5.651   5.504   4.127
 3783SOL    HW112248   5.563   5.498   4.079
 3783SOL    HW212249   5.717   5.550   4.069
 3784SOL     OW12250   4.788   2.847   2.195
 3784SOL    HW112251   4.755   2.910   2.124
 3784SOL    HW212252   4.711   2.811   2.246
 3785SOL     OW12253   1.719   1.647   6.341
 3785SOL    HW112254   1.633   1.695   6.325
 3785SOL    HW212255   1.703   1.549   6.341
 3786SOL     OW12256   2.060   6.486   2.885
 3786SOL    HW112257   2.156   6.472   2.863
 3786SOL    HW212258   2.011   6.399   2.879
 3787SOL     OW12259   5.700   0.352   2.476
 3787SOL    HW112260   5.792   0.390   2.490
 3787SOL    HW212261   5.708   0.253   2.462
 3788SOL     OW12262   0.922   4.168   4.587
 3788SOL    HW112263   0.851   4.101   4.609
 3788SOL    HW212264   1.012   4.127   4.602
 3789SOL     OW12265   0.324   3.244   5.359
 3789SOL    HW112266   0.324   3.281   5.266
 3789SOL    HW212267   0.397   3.176   5.368
 3790SOL     OW12268   1.563   4.755   5.173
 3790SOL    HW112269   1.529   4.849   5.171
 3790SOL    HW212270   1.662   4.756   5.187
 3791SOL     OW12271   5.464   0.683   0.471
 3791SOL    HW112272   5.455   0.781   0.455
 3791SOL    HW212273   5.451   0.634   0.385
 3792SOL     OW12274   1.094   1.750   4.740
 3792SOL    HW112275   1.105   1.758   4.839
 3792SOL    HW212276   1.061   1.659   4.716
 3793SOL     OW12277   4.177   6.962   2.838
 3793SOL    HW112278   4.186   6.924   2.930
 3793SOL    HW212279   4.081   6.958   2.810
 3794SOL     OW12280   2.422   4.098   0.558
 3794SOL    HW112281   2.397   4.062   0.648
 3794SOL    HW212282   2.427   4.023   0.492
 3795SOL     OW12283   5.094   6.343   6.867
 3795SOL    HW112284   5.022   6.293   6.819
 3795SOL    HW212285   5.107   6.303   6.958
 3796SOL     OW12286   3.042   1.623   1.787
 3796SOL    HW112287   3.022   1.653   1.880
 3796SOL    HW212288   2.980   1.549   1.761
 3797SOL     OW12289   0.201   4.227   2.580
 3797SOL    HW112290   0.112   4.273   2.586
 3797SOL    HW212291   0.266   4.289   2.536
 3798SOL     OW12292   2.922   5.819   2.323
 3798SOL    HW112293   2.908   5.746   2.256
 3798SOL    HW212294   2.974   5.784   2.401
 3799SOL     OW12295   0.784   2.486   4.676
 3799SOL    HW112296   0.831   2.401   4.654
 3799SOL    HW212297   0.824   2.561   4.624
 3800SOL     OW12298   5.250   3.330   4.480
 3800SOL    HW112299   5.191   3.328   4.561
 3800SOL    HW212300   5.193   3.324   4.398
 3801SOL     OW12301   6.216   6.699   2.860
 3801SOL    HW112302   6.282   6.658   2.923
 3801SOL    HW212303   6.242   6.795   2.842
 3802SOL     OW12304   1.210   2.054   2.319
 3802SOL    HW112305   1.180   2.113   2.394
 3802SOL    HW212306   1.249   2.110   2.246
 3803SOL     OW12307   3.228   2.315   0.893
 3803SOL    HW112308   3.225   2.237   0.956
 3803SOL    HW212309   3.235   2.283   0.799
 3804SOL     OW12310   5.307   1.143   4.030
 3804SOL    HW112311   5.248   1.083   3.975
 3804SOL    HW212312   5.318   1.103   4.121
 3805SOL     OW12313   2.355   3.001   1.643
 3805SOL    HW112314   2.440   2.956   1.671
 3805SOL    HW212315   2.364   3.100   1.658
 3806SOL     OW12316   3.797   4.123   6.609
 3806SOL    HW112317   3.839   4.051   6.555
 3806SOL    HW212318   3.747   4.186   6.549
 3807SOL     OW12319   1.588   6.170   3.197
 3807SOL    HW112320   1.553   6.122   3.117
 3807SOL    HW212321   1.664   6.229   3.170
 3808SOL     OW12322   4.514   0.376   0.878
 3808SOL    HW112323   4.487   0.316   0.954
 3808SOL    HW212324   4.602   0.346   0.841
 3809SOL     OW12325   6.086   3.008   0.662
 3809SOL    HW112326   6.138   3.063   0.597
 3809SOL    HW212327   5.995   3.047   0.673
 3810SOL     OW12328   4.789   2.352   4.309
 3810SOL    HW112329   4.787   2.451   4.295
 3810SOL    HW212330   4.775   2.306   4.221
 3811SOL     OW12331   1.100   4.149   4.188
 3811SOL    HW112332   1.053   4.232   4.219
 3811SOL    HW212333   1.044   4.069   4.210
 3812SOL     OW12334   5.496   0.533   4.965
 3812SOL    HW112335   5.409   0.550   5.010
 3812SOL    HW212336   5.571   0.564   5.025
 3813SOL     OW12337   4.806   4.868   0.488
 3813SOL    HW112338   4.756   4.913   0.562
 3813SOL    HW212339   4.748   4.800   0.445
 3814SOL     OW12340   0.128   6.583   0.607
 3814SOL    HW112341   0.159   6.517   0.675
 3814SOL    HW212342   0.105   6.536   0.522
 3815SOL     OW12343   4.721   3.141   7.008
 3815SOL    HW112344   4.679   3.146   0.076
 3815SOL    HW212345   4.810   3.094   7.015
 3816SOL     OW12346   0.534   5.723   0.115
 3816SOL    HW112347   0.610   5.657   0.110
 3816SOL    HW212348   0.508   5.751   0.023
 3817SOL     OW12349   4.906   3.924   2.293
 3817SOL    HW112350   5.006   3.921   2.291
 3817SOL    HW212351   4.872   3.866   2.367
 3818SOL     OW12352   5.487   0.808   0.189
 3818SOL    HW112353   5.405   0.809   0.245
 3818SOL    HW212354   5.476   0.744   0.113
 3819SOL     OW12355   5.318   5.524   1.477
 3819SOL    HW112356   5.415   5.550   1.485
 3819SOL    HW212357   5.274   5.534   1.567
 3820SOL     OW12358   6.151   0.015   3.121
 3820SOL    HW112359   6.060   7.017   3.083
 3820SOL    HW212360   6.141   0.078   3.198
 3821SOL     OW12361   2.931   1.487   0.649
 3821SOL    HW112362   2.945   1.570   0.594
 3821SOL    HW212363   2.839   1.489   0.688
 3822SOL     OW12364   1.441   6.754   2.577
 3822SOL    HW112365   1.446   6.778   2.480
 3822SOL    HW212366   1.443   6.838   2.632
 3823SOL     OW12367   3.281   2.813   6.157
 3823SOL    HW112368   3.201   2.782   6.209
 3823SOL    HW212369   3.273   2.780   6.063
 3824SOL     OW12370   5.925   2.388   0.699
 3824SOL    HW112371   5.829   2.382   0.729
 3824SOL    HW212372   5.930   2.369   0.601
 3825SOL     OW12373   0.807   6.356   0.527
 3825SOL    HW112374   0.846   6.397   0.445
 3825SOL    HW212375   0.811   6.256   0.520
 3826SOL     OW12376   0.759   2.718   0.108
 3826SOL    HW112377   0.824   2.670   0.050
 3826SOL    HW212378   0.673   2.666   0.111
 3827SOL     OW12379   2.607   2.640   1.158
 3827SOL    HW112380   2.571   2.638   1.064
 3827SOL    HW212381   2.670   2.564   1.171
 3828SOL     OW12382   3.648   2.524   1.664
 3828SOL    HW112383   3.653   2.454   1.736
 3828SOL    HW212384   3.688   2.489   1.580
 3829SOL     OW12385   1.986   4.578   4.491
 3829SOL    HW112386   1.993   4.661   4.546
 3829SOL    HW212387   1.914   4.520   4.528
 3830SOL     OW12388   0.728   0.455   4.270
 3830SOL    HW112389   0.635   0.461   4.236
 3830SOL    HW212390   0.734   0.501   4.359
 3831SOL     OW12391   4.249   2.025   2.467
 3831SOL    HW112392   4.195   2.045   2.385
 3831SOL    HW212393   4.346   2.021   2.442
 3832SOL     OW12394   5.778   0.715   3.086
 3832SOL    HW112395   5.706   0.780   3.109
 3832SOL    HW212396   5.850   0.762   3.034
 3833SOL     OW12397   0.577   5.869   6.183
 3833SOL    HW112398   0.571   5.967   6.204
 3833SOL    HW212399   0.661   5.832   6.225
 3834SOL     OW12400   4.375   3.433   1.654
 3834SOL    HW112401   4.457   3.378   1.671
 3834SOL    HW212402   4.297   3.391   1.699
 3835SOL     OW12403   3.266   5.488   5.411
 3835SOL    HW112404   3.344   5.533   5.368
 3835SOL    HW212405   3.203   5.557   5.448
 3836SOL     OW12406   1.809   4.056   5.886
 3836SOL    HW112407   1.785   3.974   5.938
 3836SOL    HW212408   1.782   4.138   5.938
 3837SOL     OW12409   4.874   3.846   0.039
 3837SOL    HW112410   4.940   3.888   6.999
 3837SOL    HW212411   4.922   3.801   0.114
 3838SOL     OW12412   0.225   3.258   4.931
 3838SOL    HW112413   0.282   3.267   4.849
 3838SOL    HW212414   0.129   3.257   4.904
 3839SOL     OW12415   4.094   0.730   4.198
 3839SOL    HW112416   4.038   0.648   4.185
 3839SOL    HW212417   4.034   0.810   4.203
 3840SOL     OW12418   1.888   1.556   5.195
 3840SOL    HW112419   1.965   1.531   5.137
 3840SOL    HW212420   1.921   1.602   5.277
 3841SOL     OW12421   0.063   3.045   5.339
 3841SOL    HW112422   0.052   2.959   5.389
 3841SOL    HW212423   0.135   3.100   5.382
 3842SOL     OW12424   0.915   3.994   6.604
 3842SOL    HW112425   0.877   4.073   6.557
 3842SOL    HW212426   1.011   3.982   6.577
 3843SOL     OW12427   7.007   4.451   2.463
 3843SOL    HW112428   0.073   4.497   2.468
 3843SOL    HW212429   6.955   4.470   2.546
 3844SOL     OW12430   7.012   3.113   6.421
 3844SOL    HW112431   0.065   3.049   6.432
 3844SOL    HW212432   6.943   3.094   6.491
 3845SOL     OW12433   3.818   2.963   3.009
 3845SOL    HW112434   3.792   3.004   3.097
 3845SOL    HW212435   3.918   2.954   3.006
 3846SOL     OW12436   1.344   4.821   3.773
 3846SOL    HW112437   1.300   4.753   3.832
 3846SOL    HW212438   1.369   4.778   3.686
 3847SOL     OW12439   6.348   0.676   4.705
 3847SOL    HW112440   6.347   0.776   4.709
 3847SOL    HW212441   6.254   0.642   4.703
 3848SOL     OW12442   3.104   5.757   2.530
 3848SOL    HW112443   3.120   5.684   2.596
 3848SOL    HW212444   3.154   5.839   2.558
 3849SOL     OW12445   0.867   1.530   5.047
 3849SOL    HW112446   0.871   1.619   5.092
 3849SOL    HW212447   0.830   1.541   4.955
 3850SOL     OW12448   2.451   3.416   1.373
 3850SOL    HW112449   2.464   3.344   1.441
 3850SOL    HW212450   2.498   3.499   1.402
 3851SOL     OW12451   1.698   4.629   2.702
 3851SOL    HW112452   1.670   4.553   2.761
 3851SOL    HW212453   1.623   4.695   2.694
 3852SOL     OW12454   4.489   6.566   3.946
 3852SOL    HW112455   4.441   6.612   3.871
 3852SOL    HW212456   4.464   6.608   4.033
 3853SOL     OW12457   1.560   2.617   3.064
 3853SOL    HW112458   1.536   2.712   3.043
 3853SOL    HW212459   1.652   2.615   3.104
 3854SOL     OW12460   1.399   3.201   2.614
 3854SOL    HW112461   1.345   3.259   2.553
 3854SOL    HW212462   1.477   3.253   2.648
 3855SOL     OW12463   4.919   6.060   6.205
 3855SOL    HW112464   4.992   6.058   6.273
 3855SOL    HW212465   4.840   6.009   6.239
 3856SOL     OW12466   6.274   5.987   5.606
 3856SOL    HW112467   6.314   5.918   5.665
 3856SOL    HW212468   6.238   5.943   5.523
 3857SOL     OW12469   1.060   5.808   6.215
 3857SOL    HW112470   1.141   5.838   6.264
 3857SOL    HW212471   1.057   5.850   6.125
 3858SOL     OW12472   1.365   5.811   5.480
 3858SOL    HW112473   1.394   5.881   5.414
 3858SOL    HW212474   1.322   5.735   5.431
 3859SOL     OW12475   6.998   2.108   3.174
 3859SOL    HW112476   0.049   2.115   3.241
 3859SOL    HW212477   6.912   2.139   3.216
 3860SOL     OW12478   1.409   0.892   5.454
 3860SOL    HW112479   1.346   0.819   5.479
 3860SOL    HW212480   1.390   0.973   5.509
 3861SOL     OW12481   5.347   4.803   1.774
 3861SOL    HW112482   5.435   4.759   1.757
 3861SOL    HW212483   5.323   4.860   1.695
 3862SOL     OW12484   0.344   6.948   5.072
 3862SOL    HW112485   0.378   6.855   5.081
 3862SOL    HW212486   0.258   6.947   5.020
 3863SOL     OW12487   4.311   3.083   6.494
 3863SOL    HW112488   4.272   3.144   6.426
 3863SOL    HW212489   4.346   3.136   6.571
 3864SOL     OW12490   3.385   1.237   5.361
 3864SOL    HW112491   3.453   1.309   5.347
 3864SOL    HW212492   3.371   1.187   5.275
 3865SOL     OW12493   3.812   6.897   0.637
 3865SOL    HW112494   3.826   6.937   0.728
 3865SOL    HW212495   3.740   6.947   0.590
 3866SOL     OW12496   4.126   0.921   0.972
 3866SOL    HW112497   4.135   1.018   0.952
 3866SOL    HW212498   4.047   0.884   0.923
 3867SOL     OW12499   2.127   3.550   3.728
 3867SOL    HW112500   2.099   3.463   3.768
 3867SOL    HW212501   2.140   3.539   3.630
 3868SOL     OW12502   3.085   6.547   1.049
 3868SOL    HW112503   3.146   6.620   1.020
 3868SOL    HW212504   3.085   6.474   0.981
 3869SOL     OW12505   0.102   3.028   4.602
 3869SOL    HW112506   0.106   3.116   4.557
 3869SOL    HW212507   0.025   2.975   4.566
 3870SOL     OW12508   4.924   5.317   0.859
 3870SOL    HW112509   4.913   5.416   0.849
 3870SOL    HW212510   4.837   5.276   0.887
 3871SOL     OW12511   3.815   0.455   2.744
 3871SOL    HW112512   3.797   0.548   2.709
 3871SOL    HW212513   3.913   0.437   2.738
 3872SOL     OW12514   3.073   2.912   1.934
 3872SOL    HW112515   3.049   2.925   2.030
 3872SOL    HW212516   3.094   2.815   1.917
 3873SOL     OW12517   6.723   5.825   1.222
 3873SOL    HW112518   6.706   5.869   1.133
 3873SOL    HW212519   6.744   5.895   1.290
 3874SOL     OW12520   4.029   5.823   0.108
 3874SOL    HW112521   3.985   5.850   0.022
 3874SOL    HW212522   3.960   5.801   0.176
 3875SOL     OW12523   1.057   3.003   2.429
 3875SOL    HW112524   1.140   3.056   2.409
 3875SOL    HW212525   0.998   3.002   2.347
 3876SOL     OW12526   6.287   5.427   6.962
 3876SOL    HW112527   6.371   5.444   7.014
 3876SOL    HW212528   6.241   5.514   6.944
 3877SOL     OW12529   0.019   2.185   0.281
 3877SOL    HW112530   6.952   2.223   0.259
 3877SOL    HW212531   0.011   2.126   0.362
 3878SOL     OW12532   2.120   6.144   5.475
 3878SOL    HW112533   2.103   6.071   5.409
 3878SOL    HW212534   2.209   6.186   5.457
 3879SOL     OW12535   4.667   6.705   1.144
 3879SOL    HW112536   4.627   6.794   1.165
 3879SOL    HW212537   4.706   6.706   1.052
 3880SOL     OW12538   5.653   4.136   3.403
 3880SOL    HW112539   5.739   4.130   3.453
 3880SOL    HW212540   5.577   4.120   3.466
 3881SOL     OW12541   1.216   5.158   0.512
 3881SOL    HW112542   1.201   5.214   0.593
 3881SOL    HW212543   1.291   5.094   0.529
 3882SOL     OW12544   6.407   1.306   5.369
 3882SOL    HW112545   6.387   1.291   5.272
 3882SOL    HW212546   6.503   1.285   5.386
 3883SOL     OW12547   4.239   1.180   3.479
 3883SOL    HW112548   4.275   1.190   3.386
 3883SOL    HW212549   4.158   1.121   3.477
 3884SOL     OW12550   1.217   5.552   4.086
 3884SOL    HW112551   1.219   5.597   4.175
 3884SOL    HW212552   1.262   5.609   4.018
 3885SOL     OW12553   6.259   1.365   4.670
 3885SOL    HW112554   6.215   1.453   4.650
 3885SOL    HW212555   6.222   1.295   4.609
 3886SOL     OW12556   6.223   6.951   4.926
 3886SOL    HW112557   6.244   6.864   4.970
 3886SOL    HW212558   6.304   6.984   4.878
 3887SOL     OW12559   5.230   1.630   5.675
 3887SOL    HW112560   5.232   1.727   5.653
 3887SOL    HW212561   5.142   1.607   5.717
 3888SOL     OW12562   0.897   0.459   6.535
 3888SOL    HW112563   0.850   0.501   6.458
 3888SOL    HW212564   0.991   0.438   6.509
 3889SOL     OW12565   6.944   3.376   6.403
 3889SOL    HW112566   6.997   3.432   6.466
 3889SOL    HW212567   6.980   3.282   6.403
 3890SOL     OW12568   6.455   6.887   3.104
 3890SOL    HW112569   6.470   6.801   3.057
 3890SOL    HW212570   6.391   6.943   3.051
 3891SOL     OW12571   5.111   4.534   4.737
 3891SOL    HW112572   5.099   4.468   4.812
 3891SOL    HW212573   5.150   4.487   4.658
 3892SOL     OW12574   0.671   0.509   2.213
 3892SOL    HW112575   0.726   0.449   2.156
 3892SOL    HW212576   0.678   0.603   2.179
 3893SOL     OW12577   3.143   5.763   1.918
 3893SOL    HW112578   3.080   5.784   1.993
 3893SOL    HW212579   3.153   5.663   1.911
 3894SOL     OW12580   3.540   2.567   1.186
 3894SOL    HW112581   3.448   2.551   1.150
 3894SOL    HW212582   3.554   2.510   1.267
 3895SOL     OW12583   1.071   1.013   5.600
 3895SOL    HW112584   1.069   1.032   5.698
 3895SOL    HW212585   1.051   1.096   5.549
 3896SOL     OW12586   0.656   2.381   5.891
 3896SOL    HW112587   0.579   2.375   5.828
 3896SOL    HW212588   0.736   2.417   5.842
 3897SOL     OW12589   2.897   6.631   1.924
 3897SOL    HW112590   2.945   6.672   2.002
 3897SOL    HW212591   2.942   6.659   1.840
 3898SOL     OW12592   3.559   2.878   3.312
 3898SOL    HW112593   3.545   2.851   3.408
 3898SOL    HW212594   3.593   2.973   3.310
 3899SOL     OW12595   4.647   1.325   4.500
 3899SOL    HW112596   4.567   1.336   4.559
 3899SOL    HW212597   4.618   1.307   4.406
 3900SOL     OW12598   5.754   3.305   3.861
 3900SOL    HW112599   5.668   3.281   3.816
 3900SOL    HW212600   5.738   3.318   3.959
 3901SOL     OW12601   1.870   6.108   6.314
 3901SOL    HW112602   1.947   6.159   6.276
 3901SOL    HW212603   1.794   6.109   6.249
 3902SOL     OW12604   4.620   4.358   2.325
 3902SOL    HW112605   4.684   4.297   2.370
 3902SOL    HW212606   4.593   4.319   2.237
 3903SOL     OW12607   3.981   4.095   6.819
 3903SOL    HW112608   3.921   4.140   6.753
 3903SOL    HW212609   3.940   4.099   6.910
 3904SOL     OW12610   1.086   0.531   6.727
 3904SOL    HW112611   1.001   0.514   6.678
 3904SOL    HW212612   1.102   0.630   6.733
 3905SOL     OW12613   6.345   6.864   6.432
 3905SOL    HW112614   6.383   6.841   6.342
 3905SOL    HW212615   6.370   6.958   6.456
 3906SOL     OW12616   2.094   4.849   4.855
 3906SOL    HW112617   2.188   4.873   4.882
 3906SOL    HW212618   2.031   4.875   4.928
 3907SOL     OW12619   0.557   1.519   4.829
 3907SOL    HW112620   0.533   1.442   4.888
 3907SOL    HW212621   0.480   1.582   4.823
 3908SOL     OW12622   0.295   1.012   6.547
 3908SOL    HW112623   0.318   0.914   6.552
 3908SOL    HW212624   0.301   1.042   6.452
 3909SOL     OW12625   5.719   4.252   6.178
 3909SOL    HW112626   5.690   4.160   6.204
 3909SOL    HW212627   5.795   4.281   6.235
 3910SOL     OW12628   3.620   4.063   1.998
 3910SOL    HW112629   3.525   4.078   2.024
 3910SOL    HW212630   3.658   4.147   1.960
 3911SOL     OW12631   5.421   0.980   0.826
 3911SOL    HW112632   5.493   0.989   0.894
 3911SOL    HW212633   5.425   0.888   0.785
 3912SOL     OW12634   3.566   0.871   6.075
 3912SOL    HW112635   3.478   0.829   6.050
 3912SOL    HW212636   3.553   0.930   6.155
 3913SOL     OW12637   3.901   5.824   6.897
 3913SOL    HW112638   3.842   5.880   6.839
 3913SOL    HW212639   3.847   5.752   6.940
 3914SOL     OW12640   5.204   0.937   1.916
 3914SOL    HW112641   5.292   0.916   1.874
 3914SOL    HW212642   5.204   1.031   1.949
 3915SOL     OW12643   3.929   6.438   6.824
 3915SOL    HW112644   3.954   6.520   6.875
 3915SOL    HW212645   3.933   6.359   6.884
 3916SOL     OW12646   2.375   0.208   2.859
 3916SOL    HW112647   2.434   0.229   2.781
 3916SOL    HW212648   2.302   0.146   2.829
 3917SOL     OW12649   3.081   5.032   6.985
 3917SOL    HW112650   3.073   5.130   6.971
 3917SOL    HW212651   3.162   5.012   0.018
 3918SOL     OW12652   4.409   0.922   0.588
 3918SOL    HW112653   4.369   0.831   0.589
 3918SOL    HW212654   4.414   0.956   0.494
 3919SOL     OW12655   4.288   0.378   0.604
 3919SOL    HW112656   4.305   0.442   0.529
 3919SOL    HW212657   4.361   0.386   0.672
 3920SOL     OW12658   2.145   0.879   6.577
 3920SOL    HW112659   2.173   0.873   6.673
 3920SOL    HW212660   2.209   0.938   6.527
 3921SOL     OW12661   6.941   2.629   0.014
 3921SOL    HW112662   6.966   2.560   0.082
 3921SOL    HW212663   6.989   2.611   6.951
 3922SOL     OW12664   4.802   5.510   1.633
 3922SOL    HW112665   4.806   5.423   1.684
 3922SOL    HW212666   4.826   5.493   1.537
 3923SOL     OW12667   5.522   1.658   1.560
 3923SOL    HW112668   5.522   1.578   1.500
 3923SOL    HW212669   5.449   1.720   1.533
 3924SOL     OW12670   0.873   4.363   3.290
 3924SOL    HW112671   0.813   4.362   3.210
 3924SOL    HW212672   0.947   4.298   3.277
 3925SOL     OW12673   4.754   4.572   1.323
 3925SOL    HW112674   4.720   4.546   1.413
 3925SOL    HW212675   4.677   4.593   1.263
 3926SOL     OW12676   0.824   0.171   5.757
 3926SOL    HW112677   0.739   0.170   5.810
 3926SOL    HW212678   0.879   0.091   5.783
 3927SOL     OW12679   0.727   3.180   3.799
 3927SOL    HW112680   0.821   3.177   3.833
 3927SOL    HW212681   0.673   3.110   3.844
 3928SOL     OW12682   2.542   6.770   2.400
 3928SOL    HW112683   2.517   6.851   2.347
 3928SOL    HW212684   2.561   6.796   2.494
 3929SOL     OW12685   0.118   1.220   0.021
 3929SOL    HW112686   0.180   1.288   0.060
 3929SOL    HW212687   0.039   1.208   0.081
 3930SOL     OW12688   1.298   2.157   4.032
 3930SOL    HW112689   1.277   2.178   3.937
 3930SOL    HW212690   1.385   2.108   4.037
 3931SOL     OW12691   1.794   2.103   1.890
 3931SOL    HW112692   1.784   2.116   1.792
 3931SOL    HW212693   1.858   2.170   1.927
 3932SOL     OW12694   2.451   5.212   3.713
 3932SOL    HW112695   2.366   5.165   3.739
 3932SOL    HW212696   2.520   5.144   3.688
 3933SOL     OW12697   0.915   6.466   0.306
 3933SOL    HW112698   0.997   6.522   0.315
 3933SOL    HW212699   0.940   6.377   0.268
 3934SOL     OW12700   0.442   1.702   3.082
 3934SOL    HW112701   0.382   1.653   3.020
 3934SOL    HW212702   0.488   1.636   3.142
 3935SOL     OW12703   6.492   2.302   6.283
 3935SOL    HW112704   6.449   2.376   6.231
 3935SOL    HW212705   6.448   2.215   6.261
 3936SOL     OW12706   6.362   5.789   5.735
 3936SOL    HW112707   6.451   5.748   5.713
 3936SOL    HW212708   6.293   5.717   5.739
 3937SOL     OW12709   0.753   6.061   2.650
 3937SOL    HW112710   0.832   6.093   2.702
 3937SOL    HW212711   0.780   5.985   2.591
 3938SOL     OW12712   6.887   3.404   4.382
 3938SOL    HW112713   6.810   3.386   4.444
 3938SOL    HW212714   6.855   3.396   4.287
 3939SOL     OW12715   2.027   1.089   3.545
 3939SOL    HW112716   2.090   1.139   3.487
 3939SOL    HW212717   2.078   1.031   3.608
 3940SOL     OW12718   3.066   4.767   2.004
 3940SOL    HW112719   2.969   4.748   1.987
 3940SOL    HW212720   3.121   4.728   1.931
 3941SOL     OW12721   5.768   6.830   4.154
 3941SOL    HW112722   5.707   6.882   4.095
 3941SOL    HW212723   5.827   6.771   4.097
 3942SOL     OW12724   1.061   6.085   5.714
 3942SOL    HW112725   1.045   6.184   5.718
 3942SOL    HW212726   1.034   6.044   5.801
 3943SOL     OW12727   1.199   3.756   1.709
 3943SOL    HW112728   1.175   3.848   1.678
 3943SOL    HW212729   1.122   3.715   1.756
 3944SOL     OW12730   5.493   3.120   5.974
 3944SOL    HW112731   5.468   3.208   6.013
 3944SOL    HW212732   5.497   3.051   6.046
 3945SOL     OW12733   1.083   2.323   3.143
 3945SOL    HW112734   1.001   2.343   3.089
 3945SOL    HW212735   1.132   2.408   3.163
 3946SOL     OW12736   6.899   3.675   6.638
 3946SOL    HW112737   6.873   3.735   6.714
 3946SOL    HW212738   6.875   3.581   6.661
 3947SOL     OW12739   6.058   5.156   0.345
 3947SOL    HW112740   6.136   5.178   0.286
 3947SOL    HW212741   6.054   5.222   0.421
 3948SOL     OW12742   1.729   3.463   6.918
 3948SOL    HW112743   1.817   3.489   6.878
 3948SOL    HW212744   1.724   3.363   6.925
 3949SOL     OW12745   6.582   0.236   2.950
 3949SOL    HW112746   6.627   0.219   3.037
 3949SOL    HW212747   6.483   0.224   2.961
 3950SOL     OW12748   4.426   4.124   1.637
 3950SOL    HW112749   4.388   4.031   1.638
 3950SOL    HW212750   4.459   4.147   1.728
 3951SOL     OW12751   0.627   2.146   6.481
 3951SOL    HW112752   0.602   2.211   6.410
 3951SOL    HW212753   0.641   2.194   6.568
 3952SOL     OW12754   6.124   2.650   3.864
 3952SOL    HW112755   6.059   2.586   3.823
 3952SOL    HW212756   6.148   2.720   3.796
 3953SOL     OW12757   3.111   4.662   5.860
 3953SOL    HW112758   3.176   4.664   5.784
 3953SOL    HW212759   3.019   4.679   5.827
 3954SOL     OW12760   6.473   4.239   5.807
 3954SOL    HW112761   6.510   4.332   5.803
 3954SOL    HW212762   6.373   4.243   5.813
 3955SOL     OW12763   4.658   6.244   0.198
 3955SOL    HW112764   4.638   6.329   0.150
 3955SOL    HW212765   4.638   6.256   0.296
 3956SOL     OW12766   1.172   2.682   5.522
 3956SOL    HW112767   1.079   2.649   5.532
 3956SOL    HW212768   1.196   2.686   5.425
 3957SOL     OW12769   3.332   6.393   4.182
 3957SOL    HW112770   3.315   6.322   4.114
 3957SOL    HW212771   3.430   6.408   4.191
 3958SOL     OW12772   5.454   6.820   0.046
 3958SOL    HW112773   5.487   6.830   6.975
 3958SOL    HW212774   5.532   6.821   0.109
 3959SOL     OW12775   3.430   6.027   1.298
 3959SOL    HW112776   3.512   6.080   1.274
 3959SOL    HW212777   3.436   6.000   1.395
 3960SOL     OW12778   4.900   2.616   6.790
 3960SOL    HW112779   4.865   2.583   6.703
 3960SOL    HW212780   4.826   2.659   6.842
 3961SOL     OW12781   4.975   2.078   1.967
 3961SOL    HW112782   4.973   2.170   1.930
 3961SOL    HW212783   5.016   2.016   1.900
 3962SOL     OW12784   0.855   6.012   6.999
 3962SOL    HW112785   0.895   5.929   6.961
 3962SOL    HW212786   0.900   6.034   0.063
 3963SOL     OW12787   5.790   5.544   3.225
 3963SOL    HW112788   5.789   5.644   3.236
 3963SOL    HW212789   5.845   5.520   3.145
 3964SOL     OW12790   4.288   6.087   5.091
 3964SOL    HW112791   4.357   6.158   5.076
 3964SOL    HW212792   4.321   6.000   5.056
 3965SOL     OW12793   3.469   4.539   6.265
 3965SOL    HW112794   3.479   4.445   6.300
 3965SOL    HW212795   3.555   4.567   6.223
 3966SOL     OW12796   6.631   4.791   6.565
 3966SOL    HW112797   6.560   4.848   6.607
 3966SOL    HW212798   6.664   4.836   6.482
 3967SOL     OW12799   0.753   4.959   3.857
 3967SOL    HW112800   0.772   5.045   3.905
 3967SOL    HW212801   0.755   4.974   3.759
 3968SOL     OW12802   5.295   0.152   2.739
 3968SOL    HW112803   5.253   0.198   2.817
 3968SOL    HW212804   5.259   0.059   2.732
 3969SOL     OW12805   1.213   4.599   2.707
 3969SOL    HW112806   1.207   4.547   2.622
 3969SOL    HW212807   1.125   4.643   2.725
 3970SOL     OW12808   4.633   4.976   3.797
 3970SOL    HW112809   4.649   4.877   3.798
 3970SOL    HW212810   4.713   5.022   3.757
 3971SOL     OW12811   2.916   5.690   3.265
 3971SOL    HW112812   2.911   5.786   3.292
 3971SOL    HW212813   2.828   5.647   3.279
 3972SOL     OW12814   0.270   6.349   0.766
 3972SOL    HW112815   0.226   6.306   0.845
 3972SOL    HW212816   0.223   6.320   0.683
 3973SOL     OW12817   2.907   3.263   5.563
 3973SOL    HW112818   2.981   3.322   5.533
 3973SOL    HW212819   2.890   3.192   5.495
 3974SOL     OW12820   0.530   1.250   6.301
 3974SOL    HW112821   0.565   1.167   6.257
 3974SOL    HW212822   0.555   1.248   6.398
 3975SOL     OW12823   6.664   0.492   5.807
 3975SOL    HW112824   6.644   0.555   5.731
 3975SOL    HW212825   6.721   0.538   5.874
 3976SOL     OW12826   1.104   4.743   1.397
 3976SOL    HW112827   1.166   4.692   1.457
 3976SOL    HW212828   1.098   4.697   1.308
 3977SOL     OW12829   2.792   5.932   6.157
 3977SOL    HW112830   2.772   5.889   6.069
 3977SOL    HW212831   2.817   5.862   6.224
 3978SOL     OW12832   5.605   1.315   5.246
 3978SOL    HW112833   5.517   1.340   5.206
 3978SOL    HW212834   5.666   1.280   5.174
 3979SOL     OW12835   1.785   0.163   1.625
 3979SOL    HW112836   1.784   0.152   1.724
 3979SOL    HW212837   1.737   0.086   1.582
 3980SOL     OW12838   6.367   3.744   4.932
 3980SOL    HW112839   6.389   3.817   4.997
 3980SOL    HW212840   6.419   3.758   4.847
 3981SOL     OW12841   0.064   1.794   6.261
 3981SOL    HW112842   0.149   1.847   6.260
 3981SOL    HW212843   0.008   1.821   6.183
 3982SOL     OW12844   2.458   0.976   4.945
 3982SOL    HW112845   2.434   1.037   5.020
 3982SOL    HW212846   2.486   0.887   4.981
 3983SOL     OW12847   3.467   6.182   4.531
 3983SOL    HW112848   3.433   6.182   4.625
 3983SOL    HW212849   3.398   6.225   4.472
 3984SOL     OW12850   1.678   0.428   1.616
 3984SOL    HW112851   1.623   0.447   1.534
 3984SOL    HW212852   1.714   0.335   1.611
 3985SOL     OW12853   2.143   3.959   0.192
 3985SOL    HW112854   2.206   3.996   0.261
 3985SOL    HW212855   2.157   4.006   0.105
 3986SOL     OW12856   7.015   1.866   2.847
 3986SOL    HW112857   6.973   1.956   2.836
 3986SOL    HW212858   0.091   1.873   2.836
 3987SOL     OW12859   1.833   5.510   4.859
 3987SOL    HW112860   1.894   5.453   4.915
 3987SOL    HW212861   1.744   5.464   4.850
 3988SOL     OW12862   3.333   1.845   5.777
 3988SOL    HW112863   3.330   1.777   5.704
 3988SOL    HW212864   3.327   1.937   5.737
 3989SOL     OW12865   6.148   0.285   6.139
 3989SOL    HW112866   6.238   0.259   6.104
 3989SOL    HW212867   6.092   0.203   6.153
 3990SOL     OW12868   5.802   2.815   5.059
 3990SOL    HW112869   5.799   2.898   5.115
 3990SOL    HW212870   5.762   2.834   4.970
 3991SOL     OW12871   0.078   2.493   3.397
 3991SOL    HW112872   0.159   2.483   3.454
 3991SOL    HW212873   0.106   2.514   3.303
 3992SOL     OW12874   4.179   3.017   6.879
 3992SOL    HW112875   4.244   3.092   6.881
 3992SOL    HW212876   4.085   3.053   6.880
 3993SOL     OW12877   2.753   1.988   3.120
 3993SOL    HW112878   2.851   1.970   3.127
 3993SOL    HW212879   2.717   1.949   3.036
 3994SOL     OW12880   2.206   2.802   4.994
 3994SOL    HW112881   2.110   2.805   4.968
 3994SOL    HW212882   2.244   2.895   4.993
 3995SOL     OW12883   2.430   4.370   3.448
 3995SOL    HW112884   2.402   4.294   3.389
 3995SOL    HW212885   2.453   4.449   3.392
 3996SOL     OW12886   1.996   1.138   4.863
 3996SOL    HW112887   1.939   1.177   4.936
 3996SOL    HW212888   1.944   1.070   4.812
 3997SOL     OW12889   4.841   3.826   3.205
 3997SOL    HW112890   4.817   3.729   3.193
 3997SOL    HW212891   4.774   3.870   3.264
 3998SOL     OW12892   5.743   2.339   2.121
 3998SOL    HW112893   5.742   2.403   2.045
 3998SOL    HW212894   5.743   2.245   2.086
 3999SOL     OW12895   6.403   3.915   3.300
 3999SOL    HW112896   6.393   3.870   3.389
 3999SOL    HW212897   6.326   3.890   3.242
 4000SOL     OW12898   3.173   5.585   2.763
 4000SOL    HW112899   3.102   5.517   2.744
 4000SOL    HW212900   3.160   5.622   2.854
 4001SOL     OW12901   2.916   4.078   5.248
 4001SOL    HW112902   2.977   4.000   5.267
 4001SOL    HW212903   2.821   4.048   5.256
 4002SOL     OW12904   3.408   3.224   4.737
 4002SOL    HW112905   3.335   3.159   4.762
 4002SOL    HW212906   3.487   3.173   4.703
 4003SOL     OW12907   1.950   1.332   6.403
 4003SOL    HW112908   1.877   1.388   6.364
 4003SOL    HW212909   1.915   1.282   6.482
 4004SOL     OW12910   6.628   3.560   4.221
 4004SOL    HW112911   6.702   3.519   4.169
 4004SOL    HW212912   6.666   3.619   4.292
 4005SOL     OW12913   4.796   4.959   1.421
 4005SOL    HW112914   4.783   5.035   1.357
 4005SOL    HW212915   4.855   4.890   1.380
 4006SOL     OW12916   5.974   4.777   2.333
 4006SOL    HW112917   5.970   4.800   2.431
 4006SOL    HW212918   5.949   4.681   2.321
 4007SOL     OW12919   0.476   2.344   2.777
 4007SOL    HW112920   0.522   2.422   2.819
 4007SOL    HW212921   0.513   2.259   2.815
 4008SOL     OW12922   3.190   0.822   6.085
 4008SOL    HW112923   3.229   0.856   6.000
 4008SOL    HW212924   3.092   0.806   6.074
 4009SOL     OW12925   4.532   2.049   1.410
 4009SOL    HW112926   4.604   2.057   1.480
 4009SOL    HW212927   4.574   2.042   1.320
 4010SOL     OW12928   3.006   3.577   1.572
 4010SOL    HW112929   2.939   3.516   1.528
 4010SOL    HW212930   3.094   3.531   1.577
 4011SOL     OW12931   6.967   6.533   1.794
 4011SOL    HW112932   0.034   6.540   1.837
 4011SOL    HW212933   6.897   6.572   1.855
 4012SOL     OW12934   4.360   6.647   2.502
 4012SOL    HW112935   4.416   6.728   2.522
 4012SOL    HW212936   4.391   6.571   2.558
 4013SOL     OW12937   2.171   0.691   1.156
 4013SOL    HW112938   2.248   0.635   1.184
 4013SOL    HW212939   2.193   0.738   1.071
 4014SOL     OW12940   3.412   5.779   3.882
 4014SOL    HW112941   3.365   5.732   3.956
 4014SOL    HW212942   3.382   5.741   3.794
 4015SOL     OW12943   5.232   4.897   6.789
 4015SOL    HW112944   5.284   4.940   6.715
 4015SOL    HW212945   5.289   4.890   6.870
 4016SOL     OW12946   2.812   6.025   6.651
 4016SOL    HW112947   2.760   6.036   6.566
 4016SOL    HW212948   2.754   6.047   6.729
 4017SOL     OW12949   0.679   6.049   5.901
 4017SOL    HW112950   0.761   6.077   5.951
 4017SOL    HW212951   0.704   6.030   5.805
 4018SOL     OW12952   4.582   6.599   1.585
 4018SOL    HW112953   4.547   6.608   1.679
 4018SOL    HW212954   4.531   6.527   1.538
 4019SOL     OW12955   5.890   4.205   2.609
 4019SOL    HW112956   5.805   4.258   2.605
 4019SOL    HW212957   5.929   4.210   2.701
 4020SOL     OW12958   6.486   3.158   5.579
 4020SOL    HW112959   6.483   3.257   5.566
 4020SOL    HW212960   6.425   3.114   5.513
 4021SOL     OW12961   3.615   4.088   5.274
 4021SOL    HW112962   3.606   4.094   5.175
 4021SOL    HW212963   3.705   4.119   5.302
 4022SOL     OW12964   3.811   6.811   6.622
 4022SOL    HW112965   3.821   6.800   6.721
 4022SOL    HW212966   3.832   6.906   6.597
 4023SOL     OW12967   0.167   0.332   5.183
 4023SOL    HW112968   0.259   0.323   5.221
 4023SOL    HW212969   0.143   0.248   5.135
 4024SOL     OW12970   2.289   5.085   4.082
 4024SOL    HW112971   2.214   5.031   4.046
 4024SOL    HW212972   2.371   5.069   4.028
 4025SOL     OW12973   0.707   6.040   4.090
 4025SOL    HW112974   0.662   5.959   4.050
 4025SOL    HW212975   0.641   6.091   4.145
 4026SOL     OW12976   5.938   6.940   3.718
 4026SOL    HW112977   5.974   6.932   3.626
 4026SOL    HW212978   5.907   6.851   3.751
 4027SOL     OW12979   2.865   2.199   0.377
 4027SOL    HW112980   2.807   2.132   0.332
 4027SOL    HW212981   2.918   2.249   0.308
 4028SOL     OW12982   3.887   1.693   3.754
 4028SOL    HW112983   3.865   1.753   3.677
 4028SOL    HW212984   3.902   1.600   3.721
 4029SOL     OW12985   2.790   4.797   5.943
 4029SOL    HW112986   2.709   4.768   5.994
 4029SOL    HW212987   2.783   4.763   5.849
 4030SOL     OW12988   6.559   1.359   2.207
 4030SOL    HW112989   6.486   1.383   2.143
 4030SOL    HW212990   6.642   1.337   2.155
 4031SOL     OW12991   5.526   5.735   3.463
 4031SOL    HW112992   5.500   5.823   3.502
 4031SOL    HW212993   5.479   5.721   3.376
 4032SOL     OW12994   6.937   0.192   1.889
 4032SOL    HW112995   0.002   0.237   1.878
 4032SOL    HW212996   6.872   0.228   1.822
 4033SOL     OW12997   2.122   3.035   1.451
 4033SOL    HW112998   2.074   3.123   1.449
 4033SOL    HW212999   2.204   3.043   1.508
 4034SOL     OW13000   6.208   1.426   5.184
 4034SOL    HW113001   6.272   1.485   5.233
 4034SOL    HW213002   6.258   1.350   5.142
 4035SOL     OW13003   6.460   1.775   0.965
 4035SOL    HW113004   6.369   1.766   1.007
 4035SOL    HW213005   6.509   1.689   0.976
 4036SOL     OW13006   4.039   5.024   2.067
 4036SOL    HW113007   4.015   5.100   2.127
 4036SOL    HW213008   3.956   4.977   2.038
 4037SOL     OW13009   2.122   1.826   0.071
 4037SOL    HW113010   2.219   1.840   0.090
 4037SOL    HW213011   2.100   1.865   7.005
 4038SOL     OW13012   4.349   2.553   1.722
 4038SOL    HW113013   4.361   2.646   1.687
 4038SOL    HW213014   4.267   2.512   1.680
 4039SOL     OW13015   5.890   5.789   1.253
 4039SOL    HW113016   5.968   5.851   1.251
 4039SOL    HW213017   5.901   5.723   1.327
 4040SOL     OW13018   3.305   6.951   5.388
 4040SOL    HW113019   3.314   6.866   5.441
 4040SOL    HW213020   3.361   6.945   5.306
 4041SOL     OW13021   0.810   5.553   1.228
 4041SOL    HW113022   0.892   5.542   1.171
 4041SOL    HW213023   0.830   5.524   1.321
 4042SOL     OW13024   6.085   5.776   3.754
 4042SOL    HW113025   6.056   5.735   3.667
 4042SOL    HW213026   6.112   5.704   3.817
 4043SOL     OW13027   6.589   2.871   5.172
 4043SOL    HW113028   6.517   2.803   5.157
 4043SOL    HW213029   6.677   2.831   5.149
 4044SOL     OW13030   4.511   6.984   3.616
 4044SOL    HW113031   4.583   6.934   3.664
 4044SOL    HW213032   4.460   0.017   3.682
 4045SOL     OW13033   4.033   6.218   5.268
 4045SOL    HW113034   3.942   6.223   5.227
 4045SOL    HW213035   4.030   6.163   5.351
 4046SOL     OW13036   1.408   1.869   4.077
 4046SOL    HW113037   1.499   1.842   4.110
 4046SOL    HW213038   1.367   1.791   4.029
 4047SOL     OW13039   2.228   2.499   0.768
 4047SOL    HW113040   2.130   2.518   0.760
 4047SOL    HW213041   2.243   2.436   0.844
 4048SOL     OW13042   5.299   1.442   1.818
 4048SOL    HW113043   5.250   1.369   1.866
 4048SOL    HW213044   5.232   1.504   1.776
 4049SOL     OW13045   5.555   5.186   6.901
 4049SOL    HW113046   5.551   5.086   6.910
 4049SOL    HW213047   5.559   5.211   6.805
 4050SOL     OW13048   1.062   6.939   2.037
 4050SOL    HW113049   0.979   6.883   2.043
 4050SOL    HW213050   1.099   6.934   1.944
 4051SOL     OW13051   4.233   1.905   6.564
 4051SOL    HW113052   4.289   1.823   6.578
 4051SOL    HW213053   4.144   1.878   6.527
 4052SOL     OW13054   6.512   1.102   2.289
 4052SOL    HW113055   6.598   1.060   2.260
 4052SOL    HW213056   6.519   1.201   2.279
 4053SOL     OW13057   3.122   5.965   3.940
 4053SOL    HW113058   3.159   5.911   3.864
 4053SOL    HW213059   3.032   6.001   3.914
 4054SOL     OW13060   6.372   4.191   1.563
 4054SOL    HW113061   6.409   4.109   1.606
 4054SOL    HW213062   6.432   4.218   1.487
 4055SOL     OW13063   2.919   3.527   0.036
 4055SOL    HW113064   2.859   3.579   6.999
 4055SOL    HW213065   2.864   3.476   0.103
 4056SOL     OW13066   4.792   4.066   0.727
 4056SOL    HW113067   4.761   3.975   0.754
 4056SOL    HW213068   4.714   4.127   0.720
 4057SOL     OW13069   6.777   2.791   1.111
 4057SOL    HW113070   6.716   2.711   1.114
 4057SOL    HW213071   6.804   2.815   1.204
 4058SOL     OW13072   2.017   0.226   4.754
 4058SOL    HW113073   2.049   0.296   4.818
 4058SOL    HW213074   1.924   0.249   4.723
 4059SOL     OW13075   0.787   1.662   2.919
 4059SOL    HW113076   0.790   1.600   2.840
 4059SOL    HW213077   0.692   1.676   2.947
 4060SOL     OW13078   5.312   5.849   4.991
 4060SOL    HW113079   5.215   5.871   5.000
 4060SOL    HW213080   5.323   5.759   4.949
 4061SOL     OW13081   2.759   4.681   2.341
 4061SOL    HW113082   2.812   4.766   2.347
 4061SOL    HW213083   2.739   4.648   2.433
 4062SOL     OW13084   2.269   1.727   1.928
 4062SOL    HW113085   2.195   1.675   1.971
 4062SOL    HW213086   2.303   1.677   1.848
 4063SOL     OW13087   6.312   6.668   6.812
 4063SOL    HW113088   6.287   6.577   6.779
 4063SOL    HW213089   6.231   6.724   6.820
 4064SOL     OW13090   2.436   0.285   3.899
 4064SOL    HW113091   2.474   0.212   3.956
 4064SOL    HW213092   2.368   0.246   3.837
 4065SOL     OW13093   1.205   6.362   1.213
 4065SOL    HW113094   1.158   6.313   1.287
 4065SOL    HW213095   1.147   6.365   1.132
 4066SOL     OW13096   5.906   5.025   3.779
 4066SOL    HW113097   5.830   5.006   3.717
 4066SOL    HW213098   5.888   5.109   3.830
 4067SOL     OW13099   6.669   3.390   2.732
 4067SOL    HW113100   6.597   3.337   2.689
 4067SOL    HW213101   6.672   3.481   2.691
 4068SOL     OW13102   2.054   1.365   4.226
 4068SOL    HW113103   2.100   1.450   4.203
 4068SOL    HW213104   2.115   1.288   4.209
 4069SOL     OW13105   2.335   5.285   6.673
 4069SOL    HW113106   2.435   5.279   6.676
 4069SOL    HW213107   2.300   5.213   6.613
 4070SOL     OW13108   0.821   3.439   1.981
 4070SOL    HW113109   0.733   3.392   1.995
 4070SOL    HW213110   0.836   3.503   2.056
 4071SOL     OW13111   1.568   0.823   5.206
 4071SOL    HW113112   1.605   0.914   5.185
 4071SOL    HW213113   1.489   0.832   5.267
 4072SOL     OW13114   0.390   5.323   4.411
 4072SOL    HW113115   0.446   5.242   4.425
 4072SOL    HW213116   0.439   5.403   4.447
 4073SOL     OW13117   2.557   6.231   6.006
 4073SOL    HW113118   2.560   6.308   5.942
 4073SOL    HW213119   2.633   6.239   6.071
 4074SOL     OW13120   0.291   3.882   2.020
 4074SOL    HW113121   0.200   3.852   2.050
 4074SOL    HW213122   0.328   3.816   1.955
 4075SOL     OW13123   4.087   1.870   2.117
 4075SOL    HW113124   4.009   1.923   2.083
 4075SOL    HW213125   4.166   1.931   2.128
 4076SOL     OW13126   2.546   2.713   5.510
 4076SOL    HW113127   2.455   2.748   5.490
 4076SOL    HW213128   2.539   2.626   5.558
 4077SOL     OW13129   3.195   1.155   0.006
 4077SOL    HW113130   3.232   1.242   6.997
 4077SOL    HW213131   3.151   1.108   6.952
 4078SOL     OW13132   0.781   5.829   1.404
 4078SOL    HW113133   0.821   5.749   1.359
 4078SOL    HW213134   0.750   5.803   1.495
 4079SOL     OW13135   1.323   1.190   3.742
 4079SOL    HW113136   1.373   1.105   3.761
 4079SOL    HW213137   1.388   1.265   3.730
 4080SOL     OW13138   3.486   4.219   6.257
 4080SOL    HW113139   3.419   4.278   6.211
 4080SOL    HW213140   3.438   4.142   6.300
 4081SOL     OW13141   2.012   2.664   4.815
 4081SOL    HW113142   1.978   2.604   4.887
 4081SOL    HW213143   2.108   2.643   4.796
 4082SOL     OW13144   1.348   3.441   0.574
 4082SOL    HW113145   1.366   3.539   0.576
 4082SOL    HW213146   1.427   3.394   0.535
 4083SOL     OW13147   6.838   4.322   2.284
 4083SOL    HW113148   6.915   4.328   2.348
 4083SOL    HW213149   6.787   4.408   2.285
 4084SOL     OW13150   4.840   2.191   3.285
 4084SOL    HW113151   4.939   2.181   3.300
 4084SOL    HW213152   4.801   2.101   3.266
 4085SOL     OW13153   2.236   5.877   1.165
 4085SOL    HW113154   2.154   5.821   1.170
 4085SOL    HW213155   2.302   5.845   1.233
 4086SOL     OW13156   1.032   5.427   1.892
 4086SOL    HW113157   1.037   5.412   1.991
 4086SOL    HW213158   1.121   5.404   1.851
 4087SOL     OW13159   1.478   1.601   3.337
 4087SOL    HW113160   1.385   1.628   3.311
 4087SOL    HW213161   1.514   1.668   3.402
 4088SOL     OW13162   6.603   0.918   6.365
 4088SOL    HW113163   6.515   0.876   6.388
 4088SOL    HW213164   6.656   0.933   6.448
 4089SOL     OW13165   5.996   5.657   4.099
 4089SOL    HW113166   6.084   5.704   4.094
 4089SOL    HW213167   5.988   5.610   4.187
 4090SOL     OW13168   1.645   5.352   5.164
 4090SOL    HW113169   1.708   5.409   5.218
 4090SOL    HW213170   1.678   5.258   5.162
 4091SOL     OW13171   6.555   6.623   6.534
 4091SOL    HW113172   6.598   6.534   6.551
 4091SOL    HW213173   6.455   6.613   6.538
 4092SOL     OW13174   6.182   2.734   5.407
 4092SOL    HW113175   6.143   2.648   5.439
 4092SOL    HW213176   6.224   2.721   5.317
 4093SOL     OW13177   4.764   6.211   2.381
 4093SOL    HW113178   4.845   6.220   2.438
 4093SOL    HW213179   4.698   6.149   2.425
 4094SOL     OW13180   2.006   5.408   5.338
 4094SOL    HW113181   2.084   5.466   5.360
 4094SOL    HW213182   1.927   5.465   5.316
 4095SOL     OW13183   1.111   3.587   0.157
 4095SOL    HW113184   1.037   3.641   0.117
 4095SOL    HW213185   1.189   3.586   0.095
 4096SOL     OW13186   4.571   6.477   6.199
 4096SOL    HW113187   4.513   6.469   6.118
 4096SOL    HW213188   4.515   6.478   6.281
 4097SOL     OW13189   4.193   4.599   5.323
 4097SOL    HW113190   4.210   4.526   5.256
 4097SOL    HW213191   4.123   4.569   5.388
 4098SOL     OW13192   6.668   2.565   1.571
 4098SOL    HW113193   6.714   2.575   1.659
 4098SOL    HW213194   6.737   2.559   1.498
 4099SOL     OW13195   3.021   5.445   1.643
 4099SOL    HW113196   3.089   5.516   1.660
 4099SOL    HW213197   3.062   5.355   1.661
 4100SOL     OW13198   6.712   6.759   4.794
 4100SOL    HW113199   6.807   6.727   4.800
 4100SOL    HW213200   6.696   6.799   4.704
 4101SOL     OW13201   6.249   1.206   0.145
 4101SOL    HW113202   6.242   1.300   0.112
 4101SOL    HW213203   6.171   1.153   0.114
 4102SOL     OW13204   0.085   0.728   0.986
 4102SOL    HW113205   7.018   0.685   0.978
 4102SOL    HW213206   0.090   0.777   1.073
 4103SOL     OW13207   6.873   0.177   0.399
 4103SOL    HW113208   6.785   0.216   0.370
 4103SOL    HW213209   6.945   0.245   0.386
 4104SOL     OW13210   0.558   4.664   2.935
 4104SOL    HW113211   0.641   4.661   2.991
 4104SOL    HW213212   0.495   4.592   2.965
 4105SOL     OW13213   5.101   6.850   1.532
 4105SOL    HW113214   5.189   6.887   1.500
 4105SOL    HW213215   5.076   6.772   1.475
 4106SOL     OW13216   6.318   3.142   2.843
 4106SOL    HW113217   6.260   3.223   2.831
 4106SOL    HW213218   6.403   3.153   2.792
 4107SOL     OW13219   1.440   5.475   1.302
 4107SOL    HW113220   1.491   5.483   1.388
 4107SOL    HW213221   1.502   5.492   1.225
 4108SOL     OW13222   6.215   4.296   5.833
 4108SOL    HW113223   6.169   4.222   5.783
 4108SOL    HW213224   6.161   4.319   5.914
 4109SOL     OW13225   5.838   0.186   5.054
 4109SOL    HW113226   5.782   0.170   5.135
 4109SOL    HW213227   5.779   0.207   4.976
 4110SOL     OW13228   4.179   3.538   5.735
 4110SOL    HW113229   4.208   3.450   5.774
 4110SOL    HW213230   4.090   3.564   5.773
 4111SOL     OW13231   5.172   3.185   0.053
 4111SOL    HW113232   5.221   3.159   6.992
 4111SOL    HW213233   5.106   3.114   0.077
 4112SOL     OW13234   5.052   5.902   4.285
 4112SOL    HW113235   5.107   5.881   4.204
 4112SOL    HW213236   4.997   5.822   4.309
 4113SOL     OW13237   4.990   6.079   4.845
 4113SOL    HW113238   4.912   6.141   4.842
 4113SOL    HW213239   5.075   6.130   4.833
 4114SOL     OW13240   3.171   2.137   4.181
 4114SOL    HW113241   3.114   2.143   4.100
 4114SOL    HW213242   3.267   2.148   4.156
 4115SOL     OW13243   3.370   5.272   1.764
 4115SOL    HW113244   3.400   5.225   1.681
 4115SOL    HW213245   3.385   5.213   1.843
 4116SOL     OW13246   2.912   1.470   2.334
 4116SOL    HW113247   2.916   1.449   2.431
 4116SOL    HW213248   2.870   1.394   2.284
 4117SOL     OW13249   1.538   4.125   2.595
 4117SOL    HW113250   1.483   4.203   2.624
 4117SOL    HW213251   1.525   4.109   2.497
 4118SOL     OW13252   3.404   6.771   7.014
 4118SOL    HW113253   3.311   6.743   0.018
 4118SOL    HW213254   3.467   6.696   0.009
 4119SOL     OW13255   2.568   1.982   3.792
 4119SOL    HW113256   2.639   1.947   3.731
 4119SOL    HW213257   2.579   1.942   3.883
 4120SOL     OW13258   3.616   0.784   6.782
 4120SOL    HW113259   3.675   0.772   6.702
 4120SOL    HW213260   3.521   0.787   6.753
 4121SOL     OW13261   5.880   1.130   4.415
 4121SOL    HW113262   5.836   1.053   4.369
 4121SOL    HW213263   5.815   1.204   4.428
 4122SOL     OW13264   1.109   5.429   4.485
 4122SOL    HW113265   1.084   5.385   4.398
 4122SOL    HW213266   1.187   5.489   4.470
 4123SOL     OW13267   4.487   4.786   5.584
 4123SOL    HW113268   4.419   4.734   5.636
 4123SOL    HW213269   4.570   4.798   5.639
 4124SOL     OW13270   6.597   5.598   6.836
 4124SOL    HW113271   6.652   5.669   6.881
 4124SOL    HW213272   6.508   5.636   6.809
 4125SOL     OW13273   5.121   1.220   1.928
 4125SOL    HW113274   5.125   1.275   2.011
 4125SOL    HW213275   5.025   1.211   1.898
 4126SOL     OW13276   1.237   3.776   4.365
 4126SOL    HW113277   1.152   3.757   4.316
 4126SOL    HW213278   1.273   3.692   4.406
 4127SOL     OW13279   4.818   4.866   4.861
 4127SOL    HW113280   4.881   4.944   4.868
 4127SOL    HW213281   4.783   4.843   4.952
 4128SOL     OW13282   1.280   2.874   1.586
 4128SOL    HW113283   1.352   2.841   1.525
 4128SOL    HW213284   1.242   2.798   1.638
 4129SOL     OW13285   3.641   1.127   6.435
 4129SOL    HW113286   3.644   1.038   6.388
 4129SOL    HW213287   3.553   1.138   6.481
 4130SOL     OW13288   6.390   3.287   6.817
 4130SOL    HW113289   6.447   3.223   6.766
 4130SOL    HW213290   6.384   3.374   6.767
 4131SOL     OW13291   0.792   0.841   4.067
 4131SOL    HW113292   0.846   0.911   4.021
 4131SOL    HW213293   0.701   0.837   4.025
 4132SOL     OW13294   4.850   4.459   3.639
 4132SOL    HW113295   4.753   4.452   3.615
 4132SOL    HW213296   4.869   4.400   3.718
 4133SOL     OW13297   2.663   6.115   0.683
 4133SOL    HW113298   2.647   6.029   0.634
 4133SOL    HW213299   2.619   6.111   0.773
 4134SOL     OW13300   2.710   3.609   0.793
 4134SOL    HW113301   2.692   3.701   0.759
 4134SOL    HW213302   2.714   3.610   0.892
 4135SOL     OW13303   0.584   1.444   2.535
 4135SOL    HW113304   0.645   1.449   2.613
 4135SOL    HW213305   0.557   1.536   2.507
 4136SOL     OW13306   1.396   2.046   3.273
 4136SOL    HW113307   1.359   2.028   3.364
 4136SOL    HW213308   1.322   2.046   3.206
 4137SOL     OW13309   1.275   4.197   0.739
 4137SOL    HW113310   1.276   4.247   0.826
 4137SOL    HW213311   1.270   4.099   0.758
 4138SOL     OW13312   4.783   5.652   2.978
 4138SOL    HW113313   4.710   5.590   2.950
 4138SOL    HW213314   4.812   5.707   2.899
 4139SOL     OW13315   2.024   1.741   5.810
 4139SOL    HW113316   2.080   1.819   5.837
 4139SOL    HW213317   2.066   1.657   5.845
 4140SOL     OW13318   3.113   0.248   5.237
 4140SOL    HW113319   3.118   0.324   5.172
 4140SOL    HW213320   3.181   0.179   5.213
 4141SOL     OW13321   6.215   5.990   0.981
 4141SOL    HW113322   6.292   5.996   1.045
 4141SOL    HW213323   6.223   6.063   0.913
 4142SOL     OW13324   6.973   5.326   1.164
 4142SOL    HW113325   0.035   5.361   1.204
 4142SOL    HW213326   6.919   5.279   1.234
 4143SOL     OW13327   6.044   1.501   0.773
 4143SOL    HW113328   6.026   1.598   0.789
 4143SOL    HW213329   6.126   1.491   0.716
 4144SOL     OW13330   4.956   3.430   6.777
 4144SOL    HW113331   4.959   3.398   6.872
 4144SOL    HW213332   4.953   3.529   6.775
 4145SOL     OW13333   6.301   6.280   1.641
 4145SOL    HW113334   6.356   6.216   1.587
 4145SOL    HW213335   6.351   6.365   1.654
 4146SOL     OW13336   6.543   0.525   4.282
 4146SOL    HW113337   6.541   0.470   4.366
 4146SOL    HW213338   6.637   0.557   4.266
 4147SOL     OW13339   4.880   3.949   6.495
 4147SOL    HW113340   4.828   3.992   6.421
 4147SOL    HW213341   4.959   3.901   6.457
 4148SOL     OW13342   1.275   0.587   5.201
 4148SOL    HW113343   1.284   0.551   5.108
 4148SOL    HW213344   1.274   0.687   5.198
 4149SOL     OW13345   6.869   3.115   0.304
 4149SOL    HW113346   6.969   3.123   0.304
 4149SOL    HW213347   6.841   3.037   0.359
 4150SOL     OW13348   1.155   0.651   5.936
 4150SOL    HW113349   1.155   0.703   5.851
 4150SOL    HW213350   1.061   0.643   5.971
 4151SOL     OW13351   2.134   5.913   5.971
 4151SOL    HW113352   2.139   5.903   5.872
 4151SOL    HW213353   2.192   5.844   6.014
 4152SOL     OW13354   4.627   5.831   1.478
 4152SOL    HW113355   4.679   5.802   1.558
 4152SOL    HW213356   4.539   5.784   1.476
 4153SOL     OW13357   4.529   5.282   6.857
 4153SOL    HW113358   4.606   5.308   6.916
 4153SOL    HW213359   4.562   5.261   6.765
 4154SOL     OW13360   0.119   5.398   4.099
 4154SOL    HW113361   0.207   5.443   4.112
 4154SOL    HW213362   0.046   5.460   4.127
 4155SOL     OW13363   0.679   0.978   2.481
 4155SOL    HW113364   0.632   0.913   2.421
 4155SOL    HW213365   0.644   1.070   2.463
 4156SOL     OW13366   5.242   6.233   5.129
 4156SOL    HW113367   5.316   6.185   5.178
 4156SOL    HW213368   5.239   6.202   5.034
 4157SOL     OW13369   4.744   5.203   4.178
 4157SOL    HW113370   4.751   5.176   4.274
 4157SOL    HW213371   4.713   5.124   4.124
 4158SOL     OW13372   0.963   4.265   2.201
 4158SOL    HW113373   0.914   4.342   2.242
 4158SOL    HW213374   1.055   4.294   2.175
 4159SOL     OW13375   2.121   3.762   3.920
 4159SOL    HW113376   2.125   3.682   3.859
 4159SOL    HW213377   2.160   3.737   4.009
 4160SOL     OW13378   6.538   1.140   1.398
 4160SOL    HW113379   6.487   1.158   1.314
 4160SOL    HW213380   6.576   1.225   1.433
 4161SOL     OW13381   1.016   1.119   0.836
 4161SOL    HW113382   0.969   1.145   0.921
 4161SOL    HW213383   1.095   1.062   0.858
 4162SOL     OW13384   6.752   6.637   6.251
 4162SOL    HW113385   6.749   6.570   6.325
 4162SOL    HW213386   6.828   6.701   6.268
 4163SOL     OW13387   5.997   6.413   3.582
 4163SOL    HW113388   5.930   6.365   3.638
 4163SOL    HW213389   5.962   6.504   3.558
 4164SOL     OW13390   1.452   6.456   6.364
 4164SOL    HW113391   1.537   6.508   6.351
 4164SOL    HW213392   1.438   6.437   6.461
 4165SOL     OW13393   4.279   6.710   6.992
 4165SOL    HW113394   4.308   6.782   0.034
 4165SOL    HW213395   4.319   6.623   7.019
 4166SOL     OW13396   6.401   3.522   0.848
 4166SOL    HW113397   6.351   3.461   0.786
 4166SOL    HW213398   6.336   3.574   0.904
 4167SOL     OW13399   1.540   4.244   1.041
 4167SOL    HW113400   1.620   4.192   1.071
 4167SOL    HW213401   1.554   4.276   0.948
 4168SOL     OW13402   6.713   4.651   0.907
 4168SOL    HW113403   6.799   4.630   0.952
 4168SOL    HW213404   6.710   4.748   0.885
 4169SOL     OW13405   5.763   4.084   3.772
 4169SOL    HW113406   5.774   3.994   3.729
 4169SOL    HW213407   5.847   4.107   3.822
 4170SOL     OW13408   4.719   4.445   5.752
 4170SOL    HW113409   4.676   4.411   5.668
 4170SOL    HW213410   4.663   4.418   5.830
 4171SOL     OW13411   6.490   5.346   0.589
 4171SOL    HW113412   6.473   5.279   0.662
 4171SOL    HW213413   6.565   5.406   0.616
 4172SOL     OW13414   0.475   2.288   6.186
 4172SOL    HW113415   0.430   2.240   6.261
 4172SOL    HW213416   0.436   2.258   6.099
 4173SOL     OW13417   5.716   3.449   5.800
 4173SOL    HW113418   5.734   3.355   5.773
 4173SOL    HW213419   5.643   3.487   5.743
 4174SOL     OW13420   5.203   0.957   3.148
 4174SOL    HW113421   5.136   0.935   3.218
 4174SOL    HW213422   5.262   1.032   3.179
 4175SOL     OW13423   2.434   5.940   3.894
 4175SOL    HW113424   2.494   6.017   3.916
 4175SOL    HW213425   2.376   5.920   3.973
 4176SOL     OW13426   2.963   6.370   1.925
 4176SOL    HW113427   2.930   6.463   1.941
 4176SOL    HW213428   2.913   6.329   1.848
 4177SOL     OW13429   5.785   4.480   4.698
 4177SOL    HW113430   5.721   4.409   4.725
 4177SOL    HW213431   5.791   4.550   4.769
 4178SOL     OW13432   4.567   0.664   4.311
 4178SOL    HW113433   4.510   0.701   4.384
 4178SOL    HW213434   4.614   0.739   4.264
 4179SOL     OW13435   5.294   2.792   3.641
 4179SOL    HW113436   5.251   2.770   3.553
 4179SOL    HW213437   5.316   2.708   3.690
 4180SOL     OW13438   5.103   4.354   1.515
 4180SOL    HW113439   5.068   4.297   1.441
 4180SOL    HW213440   5.067   4.322   1.602
 4181SOL     OW13441   2.563   1.516   0.777
 4181SOL    HW113442   2.551   1.561   0.689
 4181SOL    HW213443   2.481   1.531   0.833
 4182SOL     OW13444   0.335   0.078   3.087
 4182SOL    HW113445   0.406   0.053   3.022
 4182SOL    HW213446   0.348   0.174   3.115
 4183SOL     OW13447   4.576   0.731   0.355
 4183SOL    HW113448   4.575   0.831   0.356
 4183SOL    HW213449   4.639   0.699   0.284
 4184SOL     OW13450   4.765   5.179   1.268
 4184SOL    HW113451   4.742   5.199   1.173
 4184SOL    HW213452   4.790   5.263   1.315
 4185SOL     OW13453   0.486   5.819   2.467
 4185SOL    HW113454   0.546   5.792   2.543
 4185SOL    HW213455   0.446   5.909   2.487
 4186SOL     OW13456   2.320   5.350   0.810
 4186SOL    HW113457   2.324   5.431   0.752
 4186SOL    HW213458   2.328   5.268   0.754
 4187SOL     OW13459   3.771   4.105   5.872
 4187SOL    HW113460   3.816   4.174   5.817
 4187SOL    HW213461   3.686   4.142   5.910
 4188SOL     OW13462   4.385   6.900   4.359
 4188SOL    HW113463   4.411   6.894   4.456
 4188SOL    HW213464   4.376   6.996   4.332
 4189SOL     OW13465   3.747   0.306   5.543
 4189SOL    HW113466   3.769   0.260   5.457
 4189SOL    HW213467   3.649   0.301   5.559
 4190SOL     OW13468   0.549   0.517   0.409
 4190SOL    HW113469   0.567   0.540   0.504
 4190SOL    HW213470   0.533   0.601   0.357
 4191SOL     OW13471   5.147   3.605   3.139
 4191SOL    HW113472   5.230   3.578   3.188
 4191SOL    HW213473   5.120   3.697   3.166
 4192SOL     OW13474   0.503   1.261   4.384
 4192SOL    HW113475   0.576   1.316   4.425
 4192SOL    HW213476   0.541   1.176   4.348
 4193SOL     OW13477   1.398   0.741   2.706
 4193SOL    HW113478   1.472   0.714   2.767
 4193SOL    HW213479   1.432   0.808   2.640
 4194SOL     OW13480   5.668   0.173   5.275
 4194SOL    HW113481   5.591   0.236   5.266
 4194SOL    HW213482   5.711   0.186   5.364
 4195SOL     OW13483   4.086   6.774   2.407
 4195SOL    HW113484   4.145   6.853   2.423
 4195SOL    HW213485   4.137   6.690   2.424
 4196SOL     OW13486   5.706   2.076   3.300
 4196SOL    HW113487   5.668   2.162   3.334
 4196SOL    HW213488   5.634   2.008   3.293
 4197SOL     OW13489   4.625   6.258   5.447
 4197SOL    HW113490   4.645   6.355   5.463
 4197SOL    HW213491   4.618   6.211   5.535
 4198SOL     OW13492   5.672   3.384   6.890
 4198SOL    HW113493   5.678   3.285   6.904
 4198SOL    HW213494   5.577   3.409   6.873
 4199SOL     OW13495   2.135   3.171   6.736
 4199SOL    HW113496   2.177   3.084   6.764
 4199SOL    HW213497   2.175   3.201   6.650
 4200SOL     OW13498   2.825   6.610   5.711
 4200SOL    HW113499   2.828   6.513   5.735
 4200SOL    HW213500   2.894   6.660   5.764
 4201SOL     OW13501   6.469   6.388   3.856
 4201SOL    HW113502   6.395   6.421   3.797
 4201SOL    HW213503   6.473   6.289   3.852
 4202SOL     OW13504   4.367   5.488   5.559
 4202SOL    HW113505   4.448   5.489   5.501
 4202SOL    HW213506   4.311   5.569   5.540
 4203SOL     OW13507   4.808   5.275   0.500
 4203SOL    HW113508   4.764   5.288   0.589
 4203SOL    HW213509   4.739   5.271   0.428
 4204SOL     OW13510   4.145   3.373   2.543
 4204SOL    HW113511   4.152   3.471   2.564
 4204SOL    HW213512   4.122   3.323   2.626
 4205SOL     OW13513   3.403   5.270   3.633
 4205SOL    HW113514   3.318   5.323   3.622
 4205SOL    HW213515   3.435   5.240   3.543
 4206SOL     OW13516   6.050   0.706   5.414
 4206SOL    HW113517   5.981   0.674   5.349
 4206SOL    HW213518   6.128   0.643   5.415
 4207SOL     OW13519   1.545   1.469   1.558
 4207SOL    HW113520   1.597   1.459   1.642
 4207SOL    HW213521   1.450   1.491   1.580
 4208SOL     OW13522   0.710   3.801   6.576
 4208SOL    HW113523   0.746   3.716   6.539
 4208SOL    HW213524   0.780   3.873   6.569
 4209SOL     OW13525   0.361   0.916   5.790
 4209SOL    HW113526   0.367   0.824   5.752
 4209SOL    HW213527   0.340   0.981   5.717
 4210SOL     OW13528   3.135   3.272   2.070
 4210SOL    HW113529   3.150   3.180   2.108
 4210SOL    HW213530   3.037   3.291   2.069
 4211SOL     OW13531   3.809   5.093   5.516
 4211SOL    HW113532   3.823   5.021   5.585
 4211SOL    HW213533   3.718   5.132   5.528
 4212SOL     OW13534   5.994   2.867   2.568
 4212SOL    HW113535   5.971   2.918   2.485
 4212SOL    HW213536   6.078   2.815   2.554
 4213SOL     OW13537   2.468   1.066   2.343
 4213SOL    HW113538   2.484   1.043   2.247
 4213SOL    HW213539   2.399   1.138   2.349
 4214SOL     OW13540   1.616   4.127   5.165
 4214SOL    HW113541   1.602   4.040   5.117
 4214SOL    HW213542   1.622   4.201   5.099
 4215SOL     OW13543   6.839   6.336   4.684
 4215SOL    HW113544   6.741   6.317   4.687
 4215SOL    HW213545   6.854   6.424   4.640
 4216SOL     OW13546   1.281   1.360   3.439
 4216SOL    HW113547   1.327   1.345   3.351
 4216SOL    HW213548   1.337   1.322   3.512
 4217SOL     OW13549   6.802   0.345   2.565
 4217SOL    HW113550   6.757   0.412   2.506
 4217SOL    HW213551   6.762   0.255   2.550
 4218SOL     OW13552   4.933   0.843   1.874
 4218SOL    HW113553   5.027   0.877   1.882
 4218SOL    HW213554   4.887   0.851   1.962
 4219SOL     OW13555   2.638   5.222   3.341
 4219SOL    HW113556   2.649   5.123   3.330
 4219SOL    HW213557   2.727   5.267   3.330
 4220SOL     OW13558   5.673   2.961   3.510
 4220SOL    HW113559   5.599   2.964   3.443
 4220SOL    HW213560   5.641   2.918   3.594
 4221SOL     OW13561   6.059   5.734   6.375
 4221SOL    HW113562   5.965   5.702   6.377
 4221SOL    HW213563   6.068   5.817   6.430
 4222SOL     OW13564   6.127   2.450   2.843
 4222SOL    HW113565   6.082   2.456   2.754
 4222SOL    HW213566   6.080   2.382   2.900
 4223SOL     OW13567   3.136   3.408   5.468
 4223SOL    HW113568   3.136   3.477   5.395
 4223SOL    HW213569   3.194   3.331   5.441
 4224SOL     OW13570   5.086   3.010   3.466
 4224SOL    HW113571   5.132   3.090   3.504
 4224SOL    HW213572   5.048   3.033   3.377
 4225SOL     OW13573   4.153   0.616   5.373
 4225SOL    HW113574   4.100   0.616   5.289
 4225SOL    HW213575   4.250   0.628   5.351
 4226SOL     OW13576   0.581   0.522   2.813
 4226SOL    HW113577   0.534   0.608   2.834
 4226SOL    HW213578   0.669   0.542   2.770
 4227SOL     OW13579   3.587   4.914   6.604
 4227SOL    HW113580   3.648   4.840   6.575
 4227SOL    HW213581   3.562   4.970   6.525
 4228SOL     OW13582   0.879   3.759   3.810
 4228SOL    HW113583   0.956   3.821   3.793
 4228SOL    HW213584   0.895   3.672   3.762
 4229SOL     OW13585   4.878   5.195   5.347
 4229SOL    HW113586   4.890   5.200   5.248
 4229SOL    HW213587   4.840   5.105   5.372
 4230SOL     OW13588   2.283   0.548   4.323
 4230SOL    HW113589   2.210   0.617   4.326
 4230SOL    HW213590   2.253   0.471   4.267
 4231SOL     OW13591   5.537   6.163   4.943
 4231SOL    HW113592   5.559   6.066   4.931
 4231SOL    HW213593   5.541   6.186   5.040
 4232SOL     OW13594   0.083   4.503   1.927
 4232SOL    HW113595   0.134   4.564   1.987
 4232SOL    HW213596   0.116   4.514   1.833
 4233SOL     OW13597   6.528   0.736   7.018
 4233SOL    HW113598   6.499   0.812   6.960
 4233SOL    HW213599   6.620   0.707   6.992
 4234SOL     OW13600   1.278   0.118   5.786
 4234SOL    HW113601   1.286   0.205   5.834
 4234SOL    HW213602   1.192   0.074   5.812
 4235SOL     OW13603   5.211   3.950   5.613
 4235SOL    HW113604   5.153   3.970   5.533
 4235SOL    HW213605   5.285   3.890   5.585
 4236SOL     OW13606   0.293   3.621   2.734
 4236SOL    HW113607   0.305   3.626   2.635
 4236SOL    HW213608   0.220   3.683   2.762
 4237SOL     OW13609   6.509   5.349   3.502
 4237SOL    HW113610   6.556   5.291   3.435
 4237SOL    HW213611   6.438   5.402   3.455
 4238SOL     OW13612   3.536   4.899   2.713
 4238SOL    HW113613   3.509   4.987   2.752
 4238SOL    HW213614   3.480   4.880   2.632
 4239SOL     OW13615   5.786   1.369   4.117
 4239SOL    HW113616   5.784   1.361   4.217
 4239SOL    HW213617   5.764   1.463   4.091
 4240SOL     OW13618   2.108   6.943   0.121
 4240SOL    HW113619   2.043   6.914   0.051
 4240SOL    HW213620   2.160   6.864   0.153
 4241SOL     OW13621   5.901   1.183   1.188
 4241SOL    HW113622   5.907   1.233   1.101
 4241SOL    HW213623   5.816   1.130   1.190
 4242SOL     OW13624   1.779   0.525   3.577
 4242SOL    HW113625   1.756   0.480   3.663
 4242SOL    HW213626   1.878   0.538   3.571
 4243SOL     OW13627   0.650   3.740   3.984
 4243SOL    HW113628   0.585   3.680   3.937
 4243SOL    HW213629   0.738   3.736   3.938
 4244SOL     OW13630   5.387   5.438   1.228
 4244SOL    HW113631   5.365   5.460   1.323
 4244SOL    HW213632   5.307   5.456   1.171
 4245SOL     OW13633   6.220   0.952   6.410
 4245SOL    HW113634   6.125   0.922   6.415
 4245SOL    HW213635   6.281   0.873   6.411
 4246SOL     OW13636   6.059   2.825   3.656
 4246SOL    HW113637   6.005   2.888   3.711
 4246SOL    HW213638   6.105   2.876   3.583
 4247SOL     OW13639   2.086   5.195   3.261
 4247SOL    HW113640   2.007   5.136   3.276
 4247SOL    HW213641   2.115   5.234   3.349
 4248SOL     OW13642   1.674   1.059   3.466
 4248SOL    HW113643   1.574   1.055   3.478
 4248SOL    HW213644   1.695   1.099   3.377
 4249SOL     OW13645   5.184   1.688   3.553
 4249SOL    HW113646   5.238   1.671   3.470
 4249SOL    HW213647   5.134   1.605   3.577
 4250SOL     OW13648   5.990   6.076   4.581
 4250SOL    HW113649   6.030   5.988   4.608
 4250SOL    HW213650   5.900   6.062   4.541
 4251SOL     OW13651   6.277   3.211   1.163
 4251SOL    HW113652   6.211   3.167   1.224
 4251SOL    HW213653   6.335   3.142   1.121
 4252SOL     OW13654   5.268   5.859   6.066
 4252SOL    HW113655   5.173   5.852   6.034
 4252SOL    HW213656   5.292   5.956   6.078
 4253SOL     OW13657   3.266   6.453   1.548
 4253SOL    HW113658   3.210   6.370   1.549
 4253SOL    HW213659   3.299   6.473   1.640
 4254SOL     OW13660   2.064   3.867   2.004
 4254SOL    HW113661   2.119   3.945   2.034
 4254SOL    HW213662   1.967   3.892   2.005
 4255SOL     OW13663   6.944   4.207   3.891
 4255SOL    HW113664   7.009   4.155   3.947
 4255SOL    HW213665   6.994   4.261   3.823
 4256SOL     OW13666   0.761   6.086   0.975
 4256SOL    HW113667   0.766   6.058   0.879
 4256SOL    HW213668   0.753   6.006   1.033
 4257SOL     OW13669   3.991   1.590   4.439
 4257SOL    HW113670   3.993   1.596   4.339
 4257SOL    HW213671   3.930   1.661   4.475
 4258SOL     OW13672   3.130   6.088   0.823
 4258SOL    HW113673   3.126   6.179   0.783
 4258SOL    HW213674   3.104   6.092   0.919
 4259SOL     OW13675   1.448   6.561   0.728
 4259SOL    HW113676   1.502   6.635   0.687
 4259SOL    HW213677   1.447   6.573   0.827
 4260SOL     OW13678   5.664   0.986   3.460
 4260SOL    HW113679   5.709   1.023   3.379
 4260SOL    HW213680   5.652   1.059   3.527
 4261SOL     OW13681   1.919   0.919   3.117
 4261SOL    HW113682   1.981   0.861   3.064
 4261SOL    HW213683   1.954   0.926   3.211
 4262SOL     OW13684   1.023   3.886   6.268
 4262SOL    HW113685   0.957   3.957   6.242
 4262SOL    HW213686   1.113   3.908   6.231
 4263SOL     OW13687   2.259   0.784   3.522
 4263SOL    HW113688   2.325   0.710   3.511
 4263SOL    HW213689   2.239   0.825   3.432
 4264SOL     OW13690   6.746   2.279   4.638
 4264SOL    HW113691   6.818   2.222   4.676
 4264SOL    HW213692   6.663   2.271   4.694
 4265SOL     OW13693   3.882   0.843   0.869
 4265SOL    HW113694   3.895   0.784   0.789
 4265SOL    HW213695   3.786   0.838   0.898
 4266SOL     OW13696   2.221   6.269   6.280
 4266SOL    HW113697   2.211   6.273   6.380
 4266SOL    HW213698   2.210   6.174   6.250
 4267SOL     OW13699   2.274   4.151   4.402
 4267SOL    HW113700   2.252   4.084   4.331
 4267SOL    HW213701   2.356   4.202   4.375
 4268SOL     OW13702   1.536   5.596   6.938
 4268SOL    HW113703   1.531   5.501   6.970
 4268SOL    HW213704   1.583   5.652   7.007
 4269SOL     OW13705   2.857   0.260   3.319
 4269SOL    HW113706   2.813   0.249   3.408
 4269SOL    HW213707   2.788   0.280   3.249
 4270SOL     OW13708   3.502   2.837   2.116
 4270SOL    HW113709   3.472   2.928   2.147
 4270SOL    HW213710   3.511   2.776   2.194
 4271SOL     OW13711   0.285   0.607   0.840
 4271SOL    HW113712   0.211   0.630   0.903
 4271SOL    HW213713   0.256   0.533   0.779
 4272SOL     OW13714   6.549   2.713   4.714
 4272SOL    HW113715   6.596   2.790   4.670
 4272SOL    HW213716   6.555   2.632   4.654
 4273SOL     OW13717   4.868   6.428   4.550
 4273SOL    HW113718   4.948   6.391   4.502
 4273SOL    HW213719   4.785   6.400   4.501
 4274SOL     OW13720   1.478   6.935   2.224
 4274SOL    HW113721   1.401   6.873   2.209
 4274SOL    HW213722   1.455   7.000   2.296
 4275SOL     OW13723   0.060   1.774   3.988
 4275SOL    HW113724   0.129   1.820   3.933
 4275SOL    HW213725   7.022   1.721   3.928
 4276SOL     OW13726   2.798   5.244   4.089
 4276SOL    HW113727   2.778   5.279   4.180
 4276SOL    HW213728   2.787   5.318   4.022
 4277SOL     OW13729   0.032   4.459   2.975
 4277SOL    HW113730   6.976   4.519   2.986
 4277SOL    HW213731   0.108   4.511   2.936
 4278SOL     OW13732   6.978   6.724   4.847
 4278SOL    HW113733   7.006   6.820   4.851
 4278SOL    HW213734   6.998   6.680   4.935
 4279SOL     OW13735   1.858   1.459   2.978
 4279SOL    HW113736   1.820   1.542   3.018
 4279SOL    HW213737   1.880   1.394   3.051
 4280SOL     OW13738   5.955   0.099   5.463
 4280SOL    HW113739   5.931   0.006   5.434
 4280SOL    HW213740   6.053   0.114   5.449
 4281SOL     OW13741   5.707   5.326   3.394
 4281SOL    HW113742   5.627   5.345   3.451
 4281SOL    HW213743   5.768   5.406   3.394
 4282SOL     OW13744   3.280   4.276   0.629
 4282SOL    HW113745   3.379   4.273   0.640
 4282SOL    HW213746   3.240   4.334   0.700
 4283SOL     OW13747   2.666   1.285   3.576
 4283SOL    HW113748   2.663   1.196   3.530
 4283SOL    HW213749   2.760   1.304   3.605
 4284SOL     OW13750   4.067   4.662   0.942
 4284SOL    HW113751   4.028   4.606   0.869
 4284SOL    HW213752   4.006   4.739   0.962
 4285SOL     OW13753   2.463   1.307   5.975
 4285SOL    HW113754   2.524   1.362   5.918
 4285SOL    HW213755   2.483   1.210   5.962
 4286SOL     OW13756   5.643   6.516   5.774
 4286SOL    HW113757   5.635   6.501   5.676
 4286SOL    HW213758   5.567   6.572   5.806
 4287SOL     OW13759   4.627   1.141   5.917
 4287SOL    HW113760   4.530   1.120   5.906
 4287SOL    HW213761   4.677   1.056   5.935
 4288SOL     OW13762   0.703   5.602   3.834
 4288SOL    HW113763   0.694   5.598   3.933
 4288SOL    HW213764   0.634   5.664   3.797
 4289SOL     OW13765   0.953   2.166   5.903
 4289SOL    HW113766   0.902   2.250   5.885
 4289SOL    HW213767   0.991   2.131   5.817
 4290SOL     OW13768   1.061   6.228   4.900
 4290SOL    HW113769   0.982   6.209   4.959
 4290SOL    HW213770   1.031   6.232   4.805
 4291SOL     OW13771   4.898   3.710   6.776
 4291SOL    HW113772   4.901   3.809   6.768
 4291SOL    HW213773   4.823   3.683   6.837
 4292SOL     OW13774   6.352   2.922   0.341
 4292SOL    HW113775   6.434   2.969   0.372
 4292SOL    HW213776   6.351   2.829   0.375
 4293SOL     OW13777   3.741   4.653   0.134
 4293SOL    HW113778   3.723   4.723   0.065
 4293SOL    HW213779   3.655   4.606   0.156
 4294SOL     OW13780   1.936   0.866   6.417
 4294SOL    HW113781   1.959   0.908   6.329
 4294SOL    HW213782   2.005   0.891   6.484
 4295SOL     OW13783   5.507   5.749   3.885
 4295SOL    HW113784   5.606   5.748   3.877
 4295SOL    HW213785   5.469   5.812   3.817
 4296SOL     OW13786   2.940   6.920   6.941
 4296SOL    HW113787   2.856   6.875   6.970
 4296SOL    HW213788   3.019   6.877   6.985
 4297SOL     OW13789   5.895   0.166   2.180
 4297SOL    HW113790   5.872   0.200   2.089
 4297SOL    HW213791   5.970   0.219   2.217
 4298SOL     OW13792   3.566   5.732   1.128
 4298SOL    HW113793   3.500   5.766   1.195
 4298SOL    HW213794   3.578   5.633   1.141
 4299SOL     OW13795   1.316   2.770   7.008
 4299SOL    HW113796   1.261   2.750   6.927
 4299SOL    HW213797   1.312   2.693   0.049
 4300SOL     OW13798   2.770   6.827   0.428
 4300SOL    HW113799   2.823   6.766   0.369
 4300SOL    HW213800   2.681   6.844   0.386
 4301SOL     OW13801   4.532   6.989   1.285
 4301SOL    HW113802   4.600   0.010   1.344
 4301SOL    HW213803   4.446   6.980   1.334
 4302SOL     OW13804   6.838   0.555   6.187
 4302SOL    HW113805   6.778   0.479   6.212
 4302SOL    HW213806   6.785   0.640   6.186
 4303SOL     OW13807   0.289   4.358   4.067
 4303SOL    HW113808   0.389   4.351   4.059
 4303SOL    HW213809   0.267   4.407   4.152
 4304SOL     OW13810   3.350   3.437   2.454
 4304SOL    HW113811   3.410   3.431   2.374
 4304SOL    HW213812   3.297   3.521   2.449
 4305SOL     OW13813   0.757   6.918   5.979
 4305SOL    HW113814   0.678   6.961   5.935
 4305SOL    HW213815   0.823   6.988   6.006
 4306SOL     OW13816   4.615   4.659   4.344
 4306SOL    HW113817   4.715   4.653   4.343
 4306SOL    HW213818   4.580   4.622   4.430
 4307SOL     OW13819   5.884   3.510   5.293
 4307SOL    HW113820   5.906   3.603   5.321
 4307SOL    HW213821   5.947   3.480   5.222
 4308SOL     OW13822   6.123   5.943   1.259
 4308SOL    HW113823   6.153   5.871   1.321
 4308SOL    HW213824   6.159   5.925   1.168
 4309SOL     OW13825   1.029   1.218   0.591
 4309SOL    HW113826   1.005   1.315   0.598
 4309SOL    HW213827   1.037   1.179   0.683
 4310SOL     OW13828   1.502   2.653   1.205
 4310SOL    HW113829   1.431   2.666   1.136
 4310SOL    HW213830   1.582   2.611   1.164
 4311SOL     OW13831   0.197   5.947   2.877
 4311SOL    HW113832   0.180   6.036   2.835
 4311SOL    HW213833   0.148   5.943   2.965
 4312SOL     OW13834   1.590   5.500   2.902
 4312SOL    HW113835   1.529   5.529   2.975
 4312SOL    HW213836   1.538   5.481   2.819
 4313SOL     OW13837   4.582   2.114   0.703
 4313SOL    HW113838   4.575   2.017   0.678
 4313SOL    HW213839   4.586   2.123   0.802
 4314SOL     OW13840   5.875   2.084   5.312
 4314SOL    HW113841   5.904   2.149   5.383
 4314SOL    HW213842   5.806   2.022   5.351
 4315SOL     OW13843   2.051   0.208   3.552
 4315SOL    HW113844   1.953   0.221   3.537
 4315SOL    HW213845   2.095   0.185   3.466
 4316SOL     OW13846   4.464   0.169   1.931
 4316SOL    HW113847   4.365   0.182   1.925
 4316SOL    HW213848   4.504   0.181   1.840
 4317SOL     OW13849   5.395   1.391   5.635
 4317SOL    HW113850   5.362   1.485   5.639
 4317SOL    HW213851   5.334   1.331   5.687
 4318SOL     OW13852   1.429   2.062   5.082
 4318SOL    HW113853   1.399   1.987   5.141
 4318SOL    HW213854   1.432   2.030   4.987
 4319SOL     OW13855   2.067   1.876   0.966
 4319SOL    HW113856   2.119   1.905   0.886
 4319SOL    HW213857   2.128   1.869   1.045
 4320SOL     OW13858   3.829   5.230   0.718
 4320SOL    HW113859   3.786   5.140   0.710
 4320SOL    HW213860   3.797   5.290   0.645
 4321SOL     OW13861   0.158   4.590   4.669
 4321SOL    HW113862   0.194   4.506   4.628
 4321SOL    HW213863   0.071   4.614   4.626
 4322SOL     OW13864   6.251   3.144   7.006
 4322SOL    HW113865   6.161   3.156   6.965
 4322SOL    HW213866   6.318   3.199   6.957
 4323SOL     OW13867   4.875   4.639   0.229
 4323SOL    HW113868   4.795   4.700   0.224
 4323SOL    HW213869   4.958   4.691   0.210
 4324SOL     OW13870   6.222   4.516   6.227
 4324SOL    HW113871   6.260   4.446   6.287
 4324SOL    HW213872   6.184   4.590   6.283
 4325SOL     OW13873   2.946   1.616   2.066
 4325SOL    HW113874   2.852   1.651   2.061
 4325SOL    HW213875   2.968   1.592   2.161
 4326SOL     OW13876   5.201   4.584   2.198
 4326SOL    HW113877   5.179   4.596   2.295
 4326SOL    HW213878   5.117   4.561   2.148
 4327SOL     OW13879   5.046   5.851   2.236
 4327SOL    HW113880   5.007   5.935   2.199
 4327SOL    HW213881   5.104   5.872   2.315
 4328SOL     OW13882   5.675   4.756   5.581
 4328SOL    HW113883   5.716   4.837   5.540
 4328SOL    HW213884   5.728   4.728   5.661
 4329SOL     OW13885   4.860   2.915   5.331
 4329SOL    HW113886   4.841   2.855   5.254
 4329SOL    HW213887   4.810   3.001   5.320
 4330SOL     OW13888   1.904   6.018   4.368
 4330SOL    HW113889   1.945   6.099   4.326
 4330SOL    HW213890   1.898   6.031   4.467
 4331SOL     OW13891   5.596   0.890   1.595
 4331SOL    HW113892   5.500   0.865   1.579
 4331SOL    HW213893   5.629   0.843   1.677
 4332SOL     OW13894   5.696   3.192   2.775
 4332SOL    HW113895   5.722   3.229   2.686
 4332SOL    HW213896   5.777   3.182   2.832
 4333SOL     OW13897   4.637   1.484   5.011
 4333SOL    HW113898   4.589   1.475   4.923
 4333SOL    HW213899   4.584   1.542   5.072
 4334SOL     OW13900   2.038   2.680   2.051
 4334SOL    HW113901   2.024   2.776   2.026
 4334SOL    HW213902   2.096   2.674   2.132
 4335SOL     OW13903   3.810   3.293   1.881
 4335SOL    HW113904   3.828   3.356   1.956
 4335SOL    HW213905   3.863   3.209   1.894
 4336SOL     OW13906   2.870   6.354   5.786
 4336SOL    HW113907   2.885   6.299   5.704
 4336SOL    HW213908   2.888   6.299   5.868
 4337SOL     OW13909   2.485   4.722   1.662
 4337SOL    HW113910   2.447   4.707   1.571
 4337SOL    HW213911   2.544   4.646   1.687
 4338SOL     OW13912   6.299   6.791   5.682
 4338SOL    HW113913   6.230   6.864   5.679
 4338SOL    HW213914   6.253   6.702   5.688
 4339SOL     OW13915   4.127   2.856   6.631
 4339SOL    HW113916   4.172   2.890   6.714
 4339SOL    HW213917   4.095   2.933   6.576
 4340SOL     OW13918   6.473   3.967   1.684
 4340SOL    HW113919   6.531   4.042   1.716
 4340SOL    HW213920   6.434   3.919   1.763
 4341SOL     OW13921   1.591   5.537   1.096
 4341SOL    HW113922   1.670   5.480   1.114
 4341SOL    HW213923   1.620   5.631   1.081
 4342SOL     OW13924   5.387   3.919   3.034
 4342SOL    HW113925   5.315   3.918   3.104
 4342SOL    HW213926   5.475   3.937   3.078
 4343SOL     OW13927   3.235   5.974   4.585
 4343SOL    HW113928   3.212   5.879   4.565
 4343SOL    HW213929   3.222   5.992   4.683
 4344SOL     OW13930   1.114   3.475   3.004
 4344SOL    HW113931   1.111   3.559   2.950
 4344SOL    HW213932   1.061   3.488   3.088
 4345SOL     OW13933   3.568   4.061   4.766
 4345SOL    HW113934   3.556   4.103   4.676
 4345SOL    HW213935   3.478   4.040   4.804
 4346SOL     OW13936   2.248   2.832   3.101
 4346SOL    HW113937   2.240   2.921   3.147
 4346SOL    HW213938   2.162   2.811   3.054
 4347SOL     OW13939   5.536   6.117   2.816
 4347SOL    HW113940   5.486   6.156   2.893
 4347SOL    HW213941   5.534   6.017   2.823
 4348SOL     OW13942   0.082   5.909   4.177
 4348SOL    HW113943   0.124   5.818   4.179
 4348SOL    HW213944   0.006   5.908   4.111
 4349SOL     OW13945   6.419   1.971   3.415
 4349SOL    HW113946   6.363   1.909   3.360
 4349SOL    HW213947   6.408   1.949   3.512
 4350SOL     OW13948   3.954   1.838   3.974
 4350SOL    HW113949   3.937   1.783   3.892
 4350SOL    HW213950   3.992   1.926   3.948
 4351SOL     OW13951   1.237   6.078   1.436
 4351SOL    HW113952   1.252   6.017   1.514
 4351SOL    HW213953   1.323   6.119   1.408
 4352SOL     OW13954   6.342   4.325   2.255
 4352SOL    HW113955   6.387   4.317   2.344
 4352SOL    HW213956   6.293   4.412   2.250
 4353SOL     OW13957   3.573   3.224   6.690
 4353SOL    HW113958   3.531   3.312   6.714
 4353SOL    HW213959   3.526   3.186   6.610
 4354SOL     OW13960   1.917   1.222   6.109
 4354SOL    HW113961   1.869   1.294   6.059
 4354SOL    HW213962   2.006   1.257   6.140
 4355SOL     OW13963   1.794   0.271   2.985
 4355SOL    HW113964   1.747   0.274   2.896
 4355SOL    HW213965   1.856   0.350   2.992
 4356SOL     OW13966   4.690   3.442   6.334
 4356SOL    HW113967   4.772   3.385   6.337
 4356SOL    HW213968   4.718   3.538   6.333
 4357SOL     OW13969   0.128   0.852   1.233
 4357SOL    HW113970   0.227   0.846   1.247
 4357SOL    HW213971   0.091   0.924   1.292
 4358SOL     OW13972   6.438   0.743   0.751
 4358SOL    HW113973   6.342   0.767   0.739
 4358SOL    HW213974   6.475   0.711   0.664
 4359SOL     OW13975   1.502   1.142   6.796
 4359SOL    HW113976   1.494   1.217   6.861
 4359SOL    HW213977   1.597   1.112   6.790
 4360SOL     OW13978   0.479   3.545   3.861
 4360SOL    HW113979   0.414   3.470   3.853
 4360SOL    HW213980   0.447   3.623   3.807
 4361SOL     OW13981   2.474   4.045   1.499
 4361SOL    HW113982   2.568   4.044   1.463
 4361SOL    HW213983   2.413   4.083   1.429
 4362SOL     OW13984   6.772   5.807   4.389
 4362SOL    HW113985   6.760   5.761   4.301
 4362SOL    HW213986   6.825   5.891   4.376
 4363SOL     OW13987   4.579   1.233   1.526
 4363SOL    HW113988   4.665   1.268   1.491
 4363SOL    HW213989   4.503   1.282   1.484
 4364SOL     OW13990   3.290   3.991   3.430
 4364SOL    HW113991   3.335   4.070   3.389
 4364SOL    HW213992   3.343   3.960   3.509
 4365SOL     OW13993   2.519   0.560   2.214
 4365SOL    HW113994   2.474   0.648   2.224
 4365SOL    HW213995   2.456   0.494   2.173
 4366SOL     OW13996   6.148   6.747   6.565
 4366SOL    HW113997   6.236   6.770   6.522
 4366SOL    HW213998   6.118   6.825   6.620
 4367SOL     OW13999   2.398   4.758   3.679
 4367SOL    HW114000   2.477   4.700   3.665
 4367SOL    HW214001   2.405   4.840   3.621
 4368SOL     OW14002   3.729   5.668   1.945
 4368SOL    HW114003   3.642   5.718   1.945
 4368SOL    HW214004   3.765   5.665   1.851
 4369SOL     OW14005   4.734   5.042   3.048
 4369SOL    HW114006   4.686   4.988   3.118
 4369SOL    HW214007   4.672   5.062   2.972
 4370SOL     OW14008   3.754   4.566   1.339
 4370SOL    HW114009   3.772   4.664   1.324
 4370SOL    HW214010   3.710   4.554   1.427
 4371SOL     OW14011   2.138   2.105   2.703
 4371SOL    HW114012   2.225   2.153   2.709
 4371SOL    HW214013   2.068   2.167   2.667
 4372SOL     OW14014   2.385   2.760   4.392
 4372SOL    HW114015   2.353   2.851   4.363
 4372SOL    HW214016   2.321   2.722   4.459
 4373SOL     OW14017   4.337   1.072   0.203
 4373SOL    HW114018   4.350   1.096   0.107
 4373SOL    HW214019   4.284   0.987   0.209
 4374SOL     OW14020   1.288   1.562   1.605
 4374SOL    HW114021   1.227   1.641   1.599
 4374SOL    HW214022   1.235   1.478   1.591
 4375SOL     OW14023   4.039   5.763   2.695
 4375SOL    HW114024   4.022   5.847   2.747
 4375SOL    HW214025   3.978   5.691   2.728
 4376SOL     OW14026   5.976   0.450   2.467
 4376SOL    HW114027   5.995   0.548   2.472
 4376SOL    HW214028   6.011   0.413   2.381
 4377SOL     OW14029   5.652   5.507   0.240
 4377SOL    HW114030   5.673   5.447   0.162
 4377SOL    HW214031   5.609   5.453   0.313
 4378SOL     OW14032   1.895   3.148   2.817
 4378SOL    HW114033   1.913   3.101   2.731
 4378SOL    HW214034   1.962   3.221   2.830
 4379SOL     OW14035   1.997   1.753   1.709
 4379SOL    HW114036   2.022   1.846   1.737
 4379SOL    HW214037   2.056   1.687   1.756
 4380SOL     OW14038   2.048   6.050   4.050
 4380SOL    HW114039   2.045   6.116   4.125
 4380SOL    HW214040   2.138   6.051   4.007
 4381SOL     OW14041   2.191   4.256   4.841
 4381SOL    HW114042   2.262   4.326   4.836
 4381SOL    HW214043   2.210   4.194   4.917
 4382SOL     OW14044   6.215   3.059   6.450
 4382SOL    HW114045   6.186   2.965   6.431
 4382SOL    HW214046   6.259   3.063   6.540
 4383SOL     OW14047   0.570   3.059   5.681
 4383SOL    HW114048   0.538   2.983   5.624
 4383SOL    HW214049   0.519   3.142   5.658
 4384SOL     OW14050   5.664   1.097   6.483
 4384SOL    HW114051   5.750   1.083   6.533
 4384SOL    HW214052   5.684   1.115   6.387
 4385SOL     OW14053   6.886   2.511   4.685
 4385SOL    HW114054   6.821   2.436   4.697
 4385SOL    HW214055   6.965   2.497   4.745
 4386SOL     OW14056   1.894   3.718   6.598
 4386SOL    HW114057   1.810   3.765   6.625
 4386SOL    HW214058   1.957   3.713   6.675
 4387SOL     OW14059   1.004   1.416   1.473
 4387SOL    HW114060   0.981   1.438   1.568
 4387SOL    HW214061   0.993   1.318   1.458
 4388SOL     OW14062   4.736   1.188   6.263
 4388SOL    HW114063   4.676   1.114   6.233
 4388SOL    HW214064   4.682   1.259   6.307
 4389SOL     OW14065   5.850   1.880   0.518
 4389SOL    HW114066   5.760   1.872   0.475
 4389SOL    HW214067   5.912   1.928   0.457
 4390SOL     OW14068   4.237   1.475   2.376
 4390SOL    HW114069   4.227   1.451   2.280
 4390SOL    HW214070   4.243   1.575   2.385
 4391SOL     OW14071   1.731   5.721   5.781
 4391SOL    HW114072   1.680   5.705   5.696
 4391SOL    HW214073   1.760   5.634   5.820
 4392SOL     OW14074   6.529   3.750   5.298
 4392SOL    HW114075   6.512   3.817   5.225
 4392SOL    HW214076   6.530   3.658   5.259
 4393SOL     OW14077   5.532   6.493   3.221
 4393SOL    HW114078   5.508   6.484   3.318
 4393SOL    HW214079   5.632   6.495   3.212
 4394SOL     OW14080   6.620   5.423   2.829
 4394SOL    HW114081   6.648   5.481   2.752
 4394SOL    HW214082   6.676   5.446   2.909
 4395SOL     OW14083   3.722   1.085   1.996
 4395SOL    HW114084   3.643   1.106   1.938
 4395SOL    HW214085   3.794   1.044   1.940
 4396SOL     OW14086   2.561   2.181   4.278
 4396SOL    HW114087   2.533   2.253   4.341
 4396SOL    HW214088   2.489   2.166   4.210
 4397SOL     OW14089   0.538   1.644   5.127
 4397SOL    HW114090   0.457   1.692   5.162
 4397SOL    HW214091   0.511   1.556   5.089
 4398SOL     OW14092   1.000   4.537   4.824
 4398SOL    HW114093   0.911   4.490   4.820
 4398SOL    HW214094   1.011   4.593   4.742
 4399SOL     OW14095   1.511   0.719   2.066
 4399SOL    HW114096   1.602   0.680   2.077
 4399SOL    HW214097   1.502   0.799   2.126
 4400SOL     OW14098   2.448   0.061   5.127
 4400SOL    HW114099   2.385   0.107   5.064
 4400SOL    HW214100   2.402   0.046   5.215
 4401SOL     OW14101   5.170   0.004   6.761
 4401SOL    HW114102   5.175   6.948   6.699
 4401SOL    HW214103   5.252   0.060   6.750
 4402SOL     OW14104   2.041   6.798   1.904
 4402SOL    HW114105   2.040   6.714   1.850
 4402SOL    HW214106   1.949   6.837   1.908
 4403SOL     OW14107   0.418   6.948   4.175
 4403SOL    HW114108   0.365   7.023   4.215
 4403SOL    HW214109   0.405   6.947   4.076
 4404SOL     OW14110   0.893   4.068   5.864
 4404SOL    HW114111   0.980   4.086   5.910
 4404SOL    HW214112   0.869   3.972   5.873
 4405SOL     OW14113   2.861   4.181   0.835
 4405SOL    HW114114   2.876   4.085   0.855
 4405SOL    HW214115   2.840   4.231   0.919
 4406SOL     OW14116   6.636   4.731   1.327
 4406SOL    HW114117   6.544   4.724   1.367
 4406SOL    HW214118   6.660   4.828   1.319
 4407SOL     OW14119   0.776   4.285   0.396
 4407SOL    HW114120   0.864   4.237   0.404
 4407SOL    HW214121   0.711   4.245   0.460
 4408SOL     OW14122   4.351   1.350   1.185
 4408SOL    HW114123   4.375   1.255   1.202
 4408SOL    HW214124   4.328   1.394   1.272
 4409SOL     OW14125   4.261   6.869   1.820
 4409SOL    HW114126   4.357   6.877   1.846
 4409SOL    HW214127   4.248   6.789   1.761
 4410SOL     OW14128   1.438   5.455   0.428
 4410SOL    HW114129   1.527   5.437   0.471
 4410SOL    HW214130   1.413   5.376   0.371
 4411SOL     OW14131   3.515   3.137   4.029
 4411SOL    HW114132   3.569   3.204   3.978
 4411SOL    HW214133   3.424   3.174   4.045
 4412SOL     OW14134   3.198   0.967   5.102
 4412SOL    HW114135   3.191   0.951   5.003
 4412SOL    HW214136   3.290   0.998   5.124
 4413SOL     OW14137   4.848   5.471   4.660
 4413SOL    HW114138   4.900   5.456   4.576
 4413SOL    HW214139   4.754   5.496   4.637
 4414SOL     OW14140   3.842   4.957   1.652
 4414SOL    HW114141   3.932   5.001   1.652
 4414SOL    HW214142   3.812   4.945   1.557
 4415SOL     OW14143   4.177   3.785   6.297
 4415SOL    HW114144   4.262   3.836   6.306
 4415SOL    HW214145   4.139   3.798   6.206
 4416SOL     OW14146   2.809   0.475   4.058
 4416SOL    HW114147   2.717   0.490   4.021
 4416SOL    HW214148   2.814   0.512   4.151
 4417SOL     OW14149   5.998   4.286   3.131
 4417SOL    HW114150   6.072   4.261   3.193
 4417SOL    HW214151   5.936   4.349   3.178
 4418SOL     OW14152   5.077   0.912   3.377
 4418SOL    HW114153   5.025   0.901   3.462
 4418SOL    HW214154   5.174   0.902   3.396
 4419SOL     OW14155   5.394   6.167   0.382
 4419SOL    HW114156   5.380   6.266   0.389
 4419SOL    HW214157   5.492   6.147   0.388
 4420SOL     OW14158   5.272   1.775   1.463
 4420SOL    HW114159   5.206   1.700   1.464
 4420SOL    HW214160   5.285   1.809   1.556
 4421SOL     OW14161   2.039   1.328   3.884
 4421SOL    HW114162   2.031   1.354   3.788
 4421SOL    HW214163   1.955   1.355   3.932
 4422SOL     OW14164   2.476   4.174   6.026
 4422SOL    HW114165   2.567   4.196   5.993
 4422SOL    HW214166   2.438   4.252   6.075
 4423SOL     OW14167   1.285   2.710   5.277
 4423SOL    HW114168   1.331   2.780   5.330
 4423SOL    HW214169   1.305   2.724   5.180
 4424SOL     OW14170   5.115   0.295   4.184
 4424SOL    HW114171   5.112   0.290   4.284
 4424SOL    HW214172   5.195   0.348   4.156
 4425SOL     OW14173   3.865   5.791   6.368
 4425SOL    HW114174   3.866   5.868   6.305
 4425SOL    HW214175   3.947   5.735   6.354
 4426SOL     OW14176   0.217   1.901   4.501
 4426SOL    HW114177   0.232   1.852   4.415
 4426SOL    HW214178   0.129   1.875   4.539
 4427SOL     OW14179   6.693   6.567   3.040
 4427SOL    HW114180   6.721   6.641   3.100
 4427SOL    HW214181   6.716   6.479   3.082
 4428SOL     OW14182   3.483   5.745   2.225
 4428SOL    HW114183   3.410   5.783   2.282
 4428SOL    HW214184   3.463   5.763   2.129
 4429SOL     OW14185   2.848   0.277   2.878
 4429SOL    HW114186   2.764   0.231   2.908
 4429SOL    HW214187   2.838   0.376   2.891
 4430SOL     OW14188   4.912   3.372   5.085
 4430SOL    HW114189   4.929   3.327   5.172
 4430SOL    HW214190   4.858   3.455   5.100
 4431SOL     OW14191   1.463   0.947   2.221
 4431SOL    HW114192   1.540   0.916   2.277
 4431SOL    HW214193   1.393   0.986   2.280
 4432SOL     OW14194   3.229   4.045   4.205
 4432SOL    HW114195   3.253   4.070   4.111
 4432SOL    HW214196   3.134   4.015   4.208
 4433SOL     OW14197   5.702   0.328   4.850
 4433SOL    HW114198   5.667   0.295   4.763
 4433SOL    HW214199   5.663   0.418   4.870
 4434SOL     OW14200   3.553   1.860   3.567
 4434SOL    HW114201   3.487   1.880   3.494
 4434SOL    HW214202   3.537   1.921   3.644
 4435SOL     OW14203   4.264   3.977   1.117
 4435SOL    HW114204   4.322   3.994   1.197
 4435SOL    HW214205   4.249   3.879   1.106
 4436SOL     OW14206   4.127   1.511   1.083
 4436SOL    HW114207   4.193   1.437   1.070
 4436SOL    HW214208   4.175   1.599   1.086
 4437SOL     OW14209   5.486   1.372   4.245
 4437SOL    HW114210   5.408   1.365   4.184
 4437SOL    HW214211   5.511   1.468   4.256
 4438SOL     OW14212   4.858   0.887   0.427
 4438SOL    HW114213   4.840   0.789   0.429
 4438SOL    HW214214   4.771   0.937   0.421
 4439SOL     OW14215   0.623   6.256   1.573
 4439SOL    HW114216   0.594   6.176   1.520
 4439SOL    HW214217   0.572   6.259   1.659
 4440SOL     OW14218   2.005   4.710   0.824
 4440SOL    HW114219   2.023   4.761   0.740
 4440SOL    HW214220   1.938   4.759   0.880
 4441SOL     OW14221   6.515   1.900   2.728
 4441SOL    HW114222   6.539   1.915   2.632
 4441SOL    HW214223   6.589   1.935   2.787
 4442SOL     OW14224   2.820   5.727   5.031
 4442SOL    HW114225   2.888   5.656   5.013
 4442SOL    HW214226   2.808   5.785   4.950
 4443SOL     OW14227   6.782   3.164   1.121
 4443SOL    HW114228   6.725   3.244   1.141
 4443SOL    HW214229   6.878   3.187   1.138
 4444SOL     OW14230   4.218   5.416   6.217
 4444SOL    HW114231   4.147   5.360   6.175
 4444SOL    HW214232   4.262   5.473   6.147
 4445SOL     OW14233   6.441   0.287   1.090
 4445SOL    HW114234   6.434   0.221   1.015
 4445SOL    HW214235   6.380   0.262   1.164
 4446SOL     OW14236   6.267   1.841   1.925
 4446SOL    HW114237   6.341   1.880   1.871
 4446SOL    HW214238   6.257   1.893   2.011
 4447SOL     OW14239   5.947   3.453   6.206
 4447SOL    HW114240   5.921   3.528   6.145
 4447SOL    HW214241   5.880   3.447   6.280
 4448SOL     OW14242   3.159   4.464   1.074
 4448SOL    HW114243   3.150   4.366   1.096
 4448SOL    HW214244   3.141   4.478   0.977
 4449SOL     OW14245   4.603   0.934   6.139
 4449SOL    HW114246   4.526   0.942   6.202
 4449SOL    HW214247   4.671   0.871   6.177
 4450SOL     OW14248   4.130   3.464   4.175
 4450SOL    HW114249   4.175   3.386   4.131
 4450SOL    HW214250   4.044   3.483   4.128
 4451SOL     OW14251   5.888   4.218   3.521
 4451SOL    HW114252   5.963   4.177   3.572
 4451SOL    HW214253   5.858   4.302   3.567
 4452SOL     OW14254   5.416   6.743   4.192
 4452SOL    HW114255   5.460   6.690   4.263
 4452SOL    HW214256   5.441   6.707   4.102
 4453SOL     OW14257   0.185   2.801   1.403
 4453SOL    HW114258   0.117   2.849   1.347
 4453SOL    HW214259   0.238   2.868   1.455
 4454SOL     OW14260   6.321   2.112   7.018
 4454SOL    HW114261   6.281   2.155   6.937
 4454SOL    HW214262   6.374   2.032   6.991
 4455SOL     OW14263   3.848   0.060   6.561
 4455SOL    HW114264   3.750   0.066   6.583
 4455SOL    HW214265   3.875   0.142   6.510
 4456SOL     OW14266   2.861   5.342   2.164
 4456SOL    HW114267   2.891   5.402   2.090
 4456SOL    HW214268   2.888   5.248   2.145
 4457SOL     OW14269   4.188   2.644   0.757
 4457SOL    HW114270   4.111   2.702   0.731
 4457SOL    HW214271   4.191   2.563   0.698
 4458SOL     OW14272   1.208   3.969   6.855
 4458SOL    HW114273   1.230   4.047   6.795
 4458SOL    HW214274   1.275   3.897   6.842
 4459SOL     OW14275   4.621   0.710   3.855
 4459SOL    HW114276   4.647   0.802   3.885
 4459SOL    HW214277   4.540   0.681   3.906
 4460SOL     OW14278   2.782   3.029   5.355
 4460SOL    HW114279   2.685   3.008   5.342
 4460SOL    HW214280   2.808   3.102   5.292
 4461SOL     OW14281   1.288   0.524   2.573
 4461SOL    HW114282   1.225   0.495   2.645
 4461SOL    HW214283   1.345   0.599   2.606
 4462SOL     OW14284   6.685   3.837   1.547
 4462SOL    HW114285   6.682   3.807   1.643
 4462SOL    HW214286   6.591   3.851   1.514
 4463SOL     OW14287   4.260   2.841   0.202
 4463SOL    HW114288   4.249   2.933   0.165
 4463SOL    HW214289   4.256   2.775   0.127
 4464SOL     OW14290   6.875   4.940   7.010
 4464SOL    HW114291   6.803   4.873   6.991
 4464SOL    HW214292   6.834   5.023   0.026
 4465SOL     OW14293   2.637   5.534   2.475
 4465SOL    HW114294   2.615   5.628   2.449
 4465SOL    HW214295   2.728   5.510   2.440
 4466SOL     OW14296   1.575   1.348   3.012
 4466SOL    HW114297   1.551   1.361   2.916
 4466SOL    HW214298   1.634   1.423   3.042
 4467SOL     OW14299   1.379   6.882   3.306
 4467SOL    HW114300   1.370   6.848   3.399
 4467SOL    HW214301   1.404   6.806   3.245
 4468SOL     OW14302   1.711   2.720   0.732
 4468SOL    HW114303   1.774   2.781   0.684
 4468SOL    HW214304   1.674   2.767   0.812
 4469SOL     OW14305   3.846   0.402   1.422
 4469SOL    HW114306   3.938   0.363   1.421
 4469SOL    HW214307   3.779   0.329   1.434
 4470SOL     OW14308   6.028   3.236   1.825
 4470SOL    HW114309   5.947   3.212   1.771
 4470SOL    HW214310   6.019   3.329   1.860
 4471SOL     OW14311   0.168   2.073   0.065
 4471SOL    HW114312   0.114   2.103   0.144
 4471SOL    HW214313   0.153   2.135   7.011
 4472SOL     OW14314   1.751   3.155   3.662
 4472SOL    HW114315   1.652   3.160   3.672
 4472SOL    HW214316   1.793   3.154   3.753
 4473SOL     OW14317   7.016   2.640   4.009
 4473SOL    HW114318   0.057   2.672   3.939
 4473SOL    HW214319   0.013   2.545   4.032
 4474SOL     OW14320   3.809   0.499   1.955
 4474SOL    HW114321   3.833   0.448   2.038
 4474SOL    HW214322   3.889   0.504   1.895
 4475SOL     OW14323   1.704   3.830   2.592
 4475SOL    HW114324   1.650   3.769   2.534
 4475SOL    HW214325   1.711   3.792   2.683
 4476SOL     OW14326   4.794   6.512   4.205
 4476SOL    HW114327   4.769   6.491   4.300
 4476SOL    HW214328   4.880   6.563   4.204
 4477SOL     OW14329   1.299   0.372   5.868
 4477SOL    HW114330   1.399   0.379   5.869
 4477SOL    HW214331   1.263   0.412   5.952
 4478SOL     OW14332   3.458   6.463   2.699
 4478SOL    HW114333   3.436   6.387   2.760
 4478SOL    HW214334   3.556   6.484   2.705
 4479SOL     OW14335   0.676   0.854   1.280
 4479SOL    HW114336   0.774   0.873   1.288
 4479SOL    HW214337   0.638   0.907   1.204
 4480SOL     OW14338   2.130   3.674   5.433
 4480SOL    HW114339   2.066   3.751   5.435
 4480SOL    HW214340   2.222   3.707   5.413
 4481SOL     OW14341   2.286   6.526   4.978
 4481SOL    HW114342   2.354   6.503   5.048
 4481SOL    HW214343   2.207   6.570   5.020
 4482SOL     OW14344   0.639   4.203   3.947
 4482SOL    HW114345   0.721   4.229   3.895
 4482SOL    HW214346   0.626   4.268   4.022
 4483SOL     OW14347   4.952   3.449   2.301
 4483SOL    HW114348   4.927   3.359   2.264
 4483SOL    HW214349   4.940   3.519   2.231
 4484SOL     OW14350   3.170   2.925   5.482
 4484SOL    HW114351   3.244   2.859   5.486
 4484SOL    HW214352   3.123   2.917   5.394
 4485SOL     OW14353   5.267   1.676   5.071
 4485SOL    HW114354   5.310   1.697   4.983
 4485SOL    HW214355   5.206   1.751   5.096
 4486SOL     OW14356   5.073   4.102   4.589
 4486SOL    HW114357   5.121   4.094   4.502
 4486SOL    HW214358   4.983   4.143   4.574
 4487SOL     OW14359   2.807   3.040   6.430
 4487SOL    HW114360   2.772   2.990   6.351
 4487SOL    HW214361   2.797   3.139   6.414
 4488SOL     OW14362   6.217   3.584   5.591
 4488SOL    HW114363   6.256   3.621   5.675
 4488SOL    HW214364   6.122   3.557   5.608
 4489SOL     OW14365   5.963   5.482   4.301
 4489SOL    HW114366   5.976   5.560   4.363
 4489SOL    HW214367   5.879   5.435   4.324
 4490SOL     OW14368   6.368   2.562   3.372
 4490SOL    HW114369   6.319   2.538   3.455
 4490SOL    HW214370   6.464   2.532   3.379
 4491SOL     OW14371   0.256   2.903   4.809
 4491SOL    HW114372   0.226   2.960   4.885
 4491SOL    HW214373   0.230   2.946   4.722
 4492SOL     OW14374   5.417   4.057   1.576
 4492SOL    HW114375   5.330   4.020   1.608
 4492SOL    HW214376   5.404   4.099   1.486
 4493SOL     OW14377   4.426   6.409   5.134
 4493SOL    HW114378   4.481   6.471   5.078
 4493SOL    HW214379   4.461   6.315   5.125
 4494SOL     OW14380   6.847   1.513   5.924
 4494SOL    HW114381   6.778   1.549   5.987
 4494SOL    HW214382   6.812   1.430   5.880
 4495SOL     OW14383   4.625   5.830   4.418
 4495SOL    HW114384   4.545   5.793   4.371
 4495SOL    HW214385   4.686   5.872   4.351
 4496SOL     OW14386   5.050   5.452   1.404
 4496SOL    HW114387   5.041   5.542   1.446
 4496SOL    HW214388   5.147   5.429   1.394
 4497SOL     OW14389   4.521   0.806   6.660
 4497SOL    HW114390   4.585   0.879   6.680
 4497SOL    HW214391   4.427   0.842   6.663
 4498SOL     OW14392   6.682   3.286   6.339
 4498SOL    HW114393   6.724   3.329   6.259
 4498SOL    HW214394   6.730   3.317   6.422
 4499SOL     OW14395   6.940   3.688   3.772
 4499SOL    HW114396   7.012   3.622   3.795
 4499SOL    HW214397   6.981   3.776   3.749
 4500SOL     OW14398   2.967   3.429   3.743
 4500SOL    HW114399   2.944   3.511   3.794
 4500SOL    HW214400   2.997   3.358   3.807
 4501SOL     OW14401   7.002   2.802   5.488
 4501SOL    HW114402   7.002   2.735   5.414
 4501SOL    HW214403   6.912   2.844   5.496
 4502SOL     OW14404   1.031   1.796   6.759
 4502SOL    HW114405   1.038   1.760   6.852
 4502SOL    HW214406   0.979   1.882   6.760
 4503SOL     OW14407   3.417   0.174   2.470
 4503SOL    HW114408   3.334   0.190   2.523
 4503SOL    HW214409   3.462   0.261   2.450
 4504SOL     OW14410   6.597   1.733   4.788
 4504SOL    HW114411   6.571   1.760   4.881
 4504SOL    HW214412   6.557   1.644   4.766
 4505SOL     OW14413   6.384   5.802   2.950
 4505SOL    HW114414   6.306   5.839   3.000
 4505SOL    HW214415   6.466   5.855   2.972
 4506SOL     OW14416   4.542   2.168   3.528
 4506SOL    HW114417   4.558   2.180   3.430
 4506SOL    HW214418   4.525   2.071   3.547
 4507SOL     OW14419   5.794   5.008   2.601
 4507SOL    HW114420   5.729   5.030   2.675
 4507SOL    HW214421   5.781   5.072   2.526
 4508SOL     OW14422   1.103   4.652   5.987
 4508SOL    HW114423   1.102   4.734   5.930
 4508SOL    HW214424   1.197   4.624   6.003
 4509SOL     OW14425   5.162   2.836   2.718
 4509SOL    HW114426   5.186   2.829   2.621
 4509SOL    HW214427   5.084   2.777   2.737
 4510SOL     OW14428   4.545   0.528   4.753
 4510SOL    HW114429   4.531   0.622   4.786
 4510SOL    HW214430   4.638   0.499   4.775
 4511SOL     OW14431   6.591   3.155   6.691
 4511SOL    HW114432   6.637   3.219   6.630
 4511SOL    HW214433   6.642   3.147   6.776
 4512SOL     OW14434   2.623   6.969   5.541
 4512SOL    HW114435   2.660   6.892   5.491
 4512SOL    HW214436   2.524   6.976   5.524
 4513SOL     OW14437   5.092   6.354   0.588
 4513SOL    HW114438   5.121   6.320   0.678
 4513SOL    HW214439   5.001   6.318   0.567
 4514SOL     OW14440   4.914   1.234   5.153
 4514SOL    HW114441   4.918   1.328   5.189
 4514SOL    HW214442   4.961   1.172   5.215
 4515SOL     OW14443   0.401   3.177   5.913
 4515SOL    HW114444   0.485   3.129   5.889
 4515SOL    HW214445   0.420   3.243   5.986
 4516SOL     OW14446   1.660   0.254   6.619
 4516SOL    HW114447   1.600   0.175   6.628
 4516SOL    HW214448   1.708   0.270   6.705
 4517SOL     OW14449   2.647   1.025   6.565
 4517SOL    HW114450   2.726   1.059   6.616
 4517SOL    HW214451   2.661   1.042   6.468
 4518SOL     OW14452   6.596   1.126   3.417
 4518SOL    HW114453   6.580   1.046   3.475
 4518SOL    HW214454   6.633   1.201   3.472
 4519SOL     OW14455   5.515   0.265   2.077
 4519SOL    HW114456   5.536   0.167   2.075
 4519SOL    HW214457   5.485   0.290   2.169
 4520SOL     OW14458   5.094   6.074   3.410
 4520SOL    HW114459   5.120   6.096   3.316
 4520SOL    HW214460   5.001   6.105   3.428
 4521SOL     OW14461   5.985   2.065   3.816
 4521SOL    HW114462   6.013   1.976   3.851
 4521SOL    HW214463   6.042   2.137   3.856
 4522SOL     OW14464   5.656   7.007   3.530
 4522SOL    HW114465   5.601   6.968   3.456
 4522SOL    HW214466   5.669   6.940   3.602
 4523SOL     OW14467   1.548   4.539   0.186
 4523SOL    HW114468   1.533   4.591   0.269
 4523SOL    HW214469   1.631   4.484   0.195
 4524SOL     OW14470   5.710   2.426   3.940
 4524SOL    HW114471   5.700   2.501   4.005
 4524SOL    HW214472   5.679   2.341   3.983
 4525SOL     OW14473   5.319   1.302   3.439
 4525SOL    HW114474   5.255   1.326   3.512
 4525SOL    HW214475   5.391   1.372   3.432
 4526SOL     OW14476   5.339   0.840   1.148
 4526SOL    HW114477   5.357   0.895   1.229
 4526SOL    HW214478   5.271   0.886   1.091
 4527SOL     OW14479   3.926   1.424   3.682
 4527SOL    HW114480   3.967   1.419   3.591
 4527SOL    HW214481   3.884   1.336   3.705
 4528SOL     OW14482   4.623   6.679   6.914
 4528SOL    HW114483   4.549   6.611   6.922
 4528SOL    HW214484   4.703   6.635   6.875
 4529SOL     OW14485   3.704   1.806   4.942
 4529SOL    HW114486   3.773   1.764   4.882
 4529SOL    HW214487   3.712   1.905   4.936
 4530SOL     OW14488   0.452   3.340   6.116
 4530SOL    HW114489   0.497   3.406   6.176
 4530SOL    HW214490   0.356   3.368   6.102
 4531SOL     OW14491   0.653   3.415   3.989
 4531SOL    HW114492   0.584   3.463   3.934
 4531SOL    HW214493   0.688   3.337   3.937
 4532SOL     OW14494   6.129   1.833   3.831
 4532SOL    HW114495   6.142   1.780   3.747
 4532SOL    HW214496   6.193   1.910   3.832
 4533SOL     OW14497   1.736   0.853   2.362
 4533SOL    HW114498   1.821   0.891   2.327
 4533SOL    HW214499   1.748   0.756   2.382
 4534SOL     OW14500   5.053   4.382   5.044
 4534SOL    HW114501   5.011   4.332   5.120
 4534SOL    HW214502   5.089   4.317   4.977
 4535SOL     OW14503   4.662   1.376   2.464
 4535SOL    HW114504   4.657   1.417   2.555
 4535SOL    HW214505   4.758   1.366   2.438
 4536SOL     OW14506   3.719   2.114   4.057
 4536SOL    HW114507   3.762   2.041   4.109
 4536SOL    HW214508   3.740   2.104   3.960
 4537SOL     OW14509   3.688   3.046   5.631
 4537SOL    HW114510   3.785   3.025   5.618
 4537SOL    HW214511   3.665   3.129   5.579
 4538SOL     OW14512   2.687   0.677   4.599
 4538SOL    HW114513   2.598   0.713   4.627
 4538SOL    HW214514   2.676   0.582   4.568
 4539SOL     OW14515   2.374   1.211   4.282
 4539SOL    HW114516   2.421   1.130   4.248
 4539SOL    HW214517   2.358   1.202   4.381
 4540SOL     OW14518   3.083   3.485   4.726
 4540SOL    HW114519   3.169   3.529   4.752
 4540SOL    HW214520   3.027   3.550   4.675
 4541SOL     OW14521   6.165   1.654   0.527
 4541SOL    HW114522   6.214   1.736   0.497
 4541SOL    HW214523   6.098   1.678   0.597
 4542SOL     OW14524   6.325   0.922   2.973
 4542SOL    HW114525   6.367   0.951   2.887
 4542SOL    HW214526   6.391   0.869   3.026
 4543SOL     OW14527   5.327   1.952   1.262
 4543SOL    HW114528   5.313   1.912   1.352
 4543SOL    HW214529   5.248   1.933   1.204
 4544SOL     OW14530   3.417   6.368   6.361
 4544SOL    HW114531   3.349   6.419   6.414
 4544SOL    HW214532   3.378   6.280   6.334
 4545SOL     OW14533   5.481   3.025   4.813
 4545SOL    HW114534   5.499   3.111   4.764
 4545SOL    HW214535   5.387   2.996   4.797
 4546SOL     OW14536   2.149   1.506   6.539
 4546SOL    HW114537   2.072   1.471   6.486
 4546SOL    HW214538   2.118   1.580   6.598
 4547SOL     OW14539   6.283   2.696   2.903
 4547SOL    HW114540   6.375   2.673   2.936
 4547SOL    HW214541   6.241   2.615   2.864
 4548SOL     OW14542   1.230   4.304   4.798
 4548SOL    HW114543   1.197   4.340   4.885
 4548SOL    HW214544   1.200   4.209   4.788
 4549SOL     OW14545   5.686   3.924   2.578
 4549SOL    HW114546   5.689   3.897   2.674
 4549SOL    HW214547   5.779   3.923   2.541
 4550SOL     OW14548   1.363   6.313   2.968
 4550SOL    HW114549   1.458   6.298   2.940
 4550SOL    HW214550   1.331   6.233   3.019
 4551SOL     OW14551   6.133   1.308   6.166
 4551SOL    HW114552   6.182   1.221   6.164
 4551SOL    HW214553   6.035   1.291   6.153
 4552SOL     OW14554   6.316   2.446   0.995
 4552SOL    HW114555   6.221   2.417   1.003
 4552SOL    HW214556   6.336   2.470   0.900
 4553SOL     OW14557   4.003   4.339   6.911
 4553SOL    HW114558   4.047   4.255   6.880
 4553SOL    HW214559   4.070   4.397   6.958
 4554SOL     OW14560   4.592   0.318   1.534
 4554SOL    HW114561   4.624   0.411   1.547
 4554SOL    HW214562   4.494   0.319   1.512
 4555SOL     OW14563   3.516   1.487   5.974
 4555SOL    HW114564   3.560   1.470   5.886
 4555SOL    HW214565   3.513   1.586   5.991
 4556SOL     OW14566   4.591   2.455   3.895
 4556SOL    HW114567   4.504   2.422   3.932
 4556SOL    HW214568   4.614   2.404   3.812
 4557SOL     OW14569   4.527   6.880   4.600
 4557SOL    HW114570   4.615   6.834   4.609
 4557SOL    HW214571   4.478   6.875   4.687
 4558SOL     OW14572   0.207   3.624   5.457
 4558SOL    HW114573   0.200   3.719   5.486
 4558SOL    HW214574   0.136   3.605   5.389
 4559SOL     OW14575   1.016   4.178   1.406
 4559SOL    HW114576   1.059   4.268   1.411
 4559SOL    HW214577   0.946   4.179   1.334
 4560SOL     OW14578   5.109   4.717   2.986
 4560SOL    HW114579   5.019   4.688   3.019
 4560SOL    HW214580   5.148   4.784   3.048
 4561SOL     OW14581   2.654   0.584   1.320
 4561SOL    HW114582   2.680   0.506   1.378
 4561SOL    HW214583   2.632   0.662   1.378
 4562SOL     OW14584   3.310   6.363   5.325
 4562SOL    HW114585   3.286   6.371   5.422
 4562SOL    HW214586   3.270   6.279   5.288
 4563SOL     OW14587   0.901   4.068   0.649
 4563SOL    HW114588   0.867   4.039   0.739
 4563SOL    HW214589   0.845   4.027   0.577
 4564SOL     OW14590   0.488   6.648   1.030
 4564SOL    HW114591   0.553   6.572   1.029
 4564SOL    HW214592   0.533   6.730   0.995
 4565SOL     OW14593   6.904   0.915   5.776
 4565SOL    HW114594   6.876   0.919   5.872
 4565SOL    HW214595   6.847   0.977   5.722
 4566SOL     OW14596   6.909   1.624   0.331
 4566SOL    HW114597   6.962   1.543   0.306
 4566SOL    HW214598   6.943   1.660   0.418
 4567SOL     OW14599   0.056   0.376   0.353
 4567SOL    HW114600   0.053   0.458   0.411
 4567SOL    HW214601   0.144   0.330   0.367
 4568SOL     OW14602   1.451   3.996   5.656
 4568SOL    HW114603   1.409   4.002   5.565
 4568SOL    HW214604   1.540   3.950   5.649
 4569SOL     OW14605   1.729   1.112   3.201
 4569SOL    HW114606   1.798   1.048   3.167
 4569SOL    HW214607   1.756   1.205   3.177
 4570SOL     OW14608   1.151   6.464   2.859
 4570SOL    HW114609   1.080   6.468   2.928
 4570SOL    HW214610   1.238   6.438   2.901
 4571SOL     OW14611   3.148   3.145   6.490
 4571SOL    HW114612   3.103   3.190   6.412
 4571SOL    HW214613   3.101   3.060   6.511
 4572SOL     OW14614   1.121   6.863   6.789
 4572SOL    HW114615   1.163   6.776   6.813
 4572SOL    HW214616   1.052   6.887   6.857
 4573SOL     OW14617   6.394   6.168   6.935
 4573SOL    HW114618   6.427   6.118   7.015
 4573SOL    HW214619   6.381   6.104   6.859
 4574SOL     OW14620   6.869   3.462   1.425
 4574SOL    HW114621   6.934   3.528   1.464
 4574SOL    HW214622   6.812   3.425   1.499
 4575SOL     OW14623   5.809   1.874   6.028
 4575SOL    HW114624   5.857   1.936   6.090
 4575SOL    HW214625   5.782   1.924   5.946
 4576SOL     OW14626   2.229   5.775   6.435
 4576SOL    HW114627   2.194   5.856   6.481
 4576SOL    HW214628   2.236   5.700   6.501
 4577SOL     OW14629   1.052   2.024   4.007
 4577SOL    HW114630   1.135   2.044   4.060
 4577SOL    HW214631   1.076   1.965   3.930
 4578SOL     OW14632   1.337   3.230   4.158
 4578SOL    HW114633   1.237   3.236   4.158
 4578SOL    HW214634   1.375   3.315   4.195
 4579SOL     OW14635   4.662   2.233   2.675
 4579SOL    HW114636   4.610   2.149   2.690
 4579SOL    HW214637   4.606   2.312   2.700
 4580SOL     OW14638   4.853   5.148   6.739
 4580SOL    HW114639   4.759   5.154   6.705
 4580SOL    HW214640   4.853   5.103   6.829
 4581SOL     OW14641   3.219   5.139   3.038
 4581SOL    HW114642   3.254   5.212   3.098
 4581SOL    HW214643   3.220   5.052   3.087
 4582SOL     OW14644   5.637   6.577   4.824
 4582SOL    HW114645   5.575   6.513   4.780
 4582SOL    HW214646   5.595   6.610   4.909
 4583SOL     OW14647   3.064   1.477   5.558
 4583SOL    HW114648   3.041   1.557   5.502
 4583SOL    HW214649   3.031   1.490   5.651
 4584SOL     OW14650   0.279   4.982   5.824
 4584SOL    HW114651   0.272   5.042   5.904
 4584SOL    HW214652   0.217   5.014   5.752
 4585SOL     OW14653   2.611   6.720   3.274
 4585SOL    HW114654   2.634   6.693   3.368
 4585SOL    HW214655   2.690   6.702   3.215
 4586SOL     OW14656   3.960   4.868   0.339
 4586SOL    HW114657   3.993   4.926   0.265
 4586SOL    HW214658   3.969   4.772   0.313
 4587SOL     OW14659   3.932   3.814   2.135
 4587SOL    HW114660   3.975   3.764   2.209
 4587SOL    HW214661   3.868   3.882   2.173
 4588SOL     OW14662   4.107   4.232   5.545
 4588SOL    HW114663   4.121   4.206   5.450
 4588SOL    HW214664   4.150   4.165   5.606
 4589SOL     OW14665   5.224   1.167   2.361
 4589SOL    HW114666   5.313   1.150   2.403
 4589SOL    HW214667   5.152   1.155   2.429
 4590SOL     OW14668   4.949   5.580   0.401
 4590SOL    HW114669   4.931   5.654   0.466
 4590SOL    HW214670   5.038   5.539   0.420
 4591SOL     OW14671   0.593   5.991   4.738
 4591SOL    HW114672   0.600   5.892   4.725
 4591SOL    HW214673   0.593   6.036   4.649
 4592SOL     OW14674   3.850   1.776   2.269
 4592SOL    HW114675   3.939   1.750   2.232
 4592SOL    HW214676   3.837   1.874   2.259
 4593SOL     OW14677   4.199   5.934   3.681
 4593SOL    HW114678   4.220   5.862   3.616
 4593SOL    HW214679   4.232   6.022   3.646
 4594SOL     OW14680   3.080   0.654   1.874
 4594SOL    HW114681   3.141   0.690   1.804
 4594SOL    HW214682   3.117   0.672   1.965
 4595SOL     OW14683   3.406   2.283   5.954
 4595SOL    HW114684   3.477   2.229   5.999
 4595SOL    HW214685   3.437   2.378   5.945
 4596SOL     OW14686   5.823   6.543   3.258
 4596SOL    HW114687   5.818   6.620   3.195
 4596SOL    HW214688   5.789   6.571   3.348
 4597SOL     OW14689   4.670   4.380   6.666
 4597SOL    HW114690   4.728   4.339   6.596
 4597SOL    HW214691   4.677   4.327   6.750
 4598SOL     OW14692   2.263   5.134   0.191
 4598SOL    HW114693   2.242   5.232   0.197
 4598SOL    HW214694   2.225   5.097   0.107
 4599SOL     OW14695   1.470   5.207   0.262
 4599SOL    HW114696   1.525   5.143   0.316
 4599SOL    HW214697   1.393   5.158   0.220
 4600SOL     OW14698   1.113   4.841   5.067
 4600SOL    HW114699   1.125   4.742   5.060
 4600SOL    HW214700   1.187   4.886   5.017
 4601SOL     OW14701   1.600   6.830   5.630
 4601SOL    HW114702   1.552   6.916   5.613
 4601SOL    HW214703   1.538   6.753   5.615
 4602SOL     OW14704   1.186   5.669   1.364
 4602SOL    HW114705   1.155   5.754   1.323
 4602SOL    HW214706   1.276   5.682   1.405
 4603SOL     OW14707   3.387   6.208   1.034
 4603SOL    HW114708   3.330   6.225   1.114
 4603SOL    HW214709   3.473   6.166   1.062
 4604SOL     OW14710   4.679   0.175   1.755
 4604SOL    HW114711   4.740   0.237   1.805
 4604SOL    HW214712   4.645   0.221   1.673
 4605SOL     OW14713   3.538   0.837   3.987
 4605SOL    HW114714   3.501   0.799   4.072
 4605SOL    HW214715   3.509   0.780   3.910
 4606SOL     OW14716   1.015   6.885   1.404
 4606SOL    HW114717   0.999   6.837   1.318
 4606SOL    HW214718   0.971   6.974   1.401
 4607SOL     OW14719   2.545   2.563   0.911
 4607SOL    HW114720   2.499   2.617   0.841
 4607SOL    HW214721   2.620   2.511   0.870
 4608SOL     OW14722   1.002   5.888   3.420
 4608SOL    HW114723   1.099   5.895   3.444
 4608SOL    HW214724   0.946   5.898   3.502
 4609SOL     OW14725   4.438   4.980   5.968
 4609SOL    HW114726   4.506   5.052   5.955
 4609SOL    HW214727   4.356   5.019   6.011
 4610SOL     OW14728   4.962   2.178   0.685
 4610SOL    HW114729   4.887   2.121   0.653
 4610SOL    HW214730   4.973   2.257   0.624
 4611SOL     OW14731   0.074   5.976   6.131
 4611SOL    HW114732   0.059   5.955   6.034
 4611SOL    HW214733   7.012   6.011   6.172
 4612SOL     OW14734   0.776   5.551   0.093
 4612SOL    HW114735   0.809   5.505   0.010
 4612SOL    HW214736   0.847   5.547   0.163
 4613SOL     OW14737   2.366   6.194   2.151
 4613SOL    HW114738   2.333   6.205   2.245
 4613SOL    HW214739   2.466   6.184   2.152
 4614SOL     OW14740   0.540   3.834   4.604
 4614SOL    HW114741   0.513   3.804   4.696
 4614SOL    HW214742   0.507   3.769   4.536
 4615SOL     OW14743   2.216   1.119   6.935
 4615SOL    HW114744   2.172   1.200   6.975
 4615SOL    HW214745   2.309   1.142   6.906
 4616SOL     OW14746   5.769   0.503   5.663
 4616SOL    HW114747   5.821   0.587   5.678
 4616SOL    HW214748   5.672   0.519   5.682
 4617SOL     OW14749   0.891   2.744   1.851
 4617SOL    HW114750   0.834   2.716   1.774
 4617SOL    HW214751   0.833   2.784   1.923
 4618SOL     OW14752   2.005   2.842   5.448
 4618SOL    HW114753   1.944   2.791   5.388
 4618SOL    HW214754   2.017   2.935   5.413
 4619SOL     OW14755   3.260   6.115   3.020
 4619SOL    HW114756   3.177   6.150   3.065
 4619SOL    HW214757   3.276   6.021   3.049
 4620SOL     OW14758   3.500   4.445   0.109
 4620SOL    HW114759   3.440   4.371   0.077
 4620SOL    HW214760   3.495   4.450   0.209
 4621SOL     OW14761   4.678   1.482   2.765
 4621SOL    HW114762   4.610   1.489   2.837
 4621SOL    HW214763   4.764   1.523   2.796
 4622SOL     OW14764   2.384   4.454   0.230
 4622SOL    HW114765   2.404   4.526   0.164
 4622SOL    HW214766   2.323   4.490   0.301
 4623SOL     OW14767   6.734   6.243   0.899
 4623SOL    HW114768   6.665   6.256   0.970
 4623SOL    HW214769   6.750   6.145   0.885
 4624SOL     OW14770   5.601   0.189   3.206
 4624SOL    HW114771   5.590   0.146   3.116
 4624SOL    HW214772   5.642   0.280   3.194
 4625SOL     OW14773   1.794   4.432   0.244
 4625SOL    HW114774   1.867   4.490   0.279
 4625SOL    HW214775   1.811   4.410   0.148
 4626SOL     OW14776   5.810   5.562   2.831
 4626SOL    HW114777   5.823   5.619   2.750
 4626SOL    HW214778   5.890   5.505   2.845
 4627SOL     OW14779   3.059   5.159   3.885
 4627SOL    HW114780   3.006   5.198   3.809
 4627SOL    HW214781   2.998   5.143   3.963
 4628SOL     OW14782   5.598   3.913   3.908
 4628SOL    HW114783   5.663   3.839   3.921
 4628SOL    HW214784   5.635   3.980   3.843
 4629SOL     OW14785   2.446   5.261   5.454
 4629SOL    HW114786   2.419   5.186   5.393
 4629SOL    HW214787   2.389   5.341   5.437
 4630SOL     OW14788   3.905   5.576   2.436
 4630SOL    HW114789   3.846   5.617   2.366
 4630SOL    HW214790   3.871   5.602   2.526
 4631SOL     OW14791   2.310   6.572   3.627
 4631SOL    HW114792   2.397   6.620   3.613
 4631SOL    HW214793   2.247   6.595   3.553
 4632SOL     OW14794   3.947   5.162   2.614
 4632SOL    HW114795   3.989   5.179   2.525
 4632SOL    HW214796   3.859   5.118   2.602
 4633SOL     OW14797   5.491   1.602   3.953
 4633SOL    HW114798   5.465   1.659   3.875
 4633SOL    HW214799   5.423   1.530   3.965
 4634SOL     OW14800   2.473   4.791   6.145
 4634SOL    HW114801   2.520   4.712   6.104
 4634SOL    HW214802   2.494   4.795   6.242
 4635SOL     OW14803   5.483   3.662   1.936
 4635SOL    HW114804   5.517   3.644   2.028
 4635SOL    HW214805   5.399   3.716   1.941
 4636SOL     OW14806   2.385   4.617   0.012
 4636SOL    HW114807   2.481   4.594   7.018
 4636SOL    HW214808   2.356   4.685   6.967
 4637SOL     OW14809   0.911   0.114   0.148
 4637SOL    HW114810   0.987   0.108   0.083
 4637SOL    HW214811   0.824   0.100   0.100
 4638SOL     OW14812   4.630   3.162   0.246
 4638SOL    HW114813   4.698   3.116   0.302
 4638SOL    HW214814   4.551   3.186   0.303
 4639SOL     OW14815   2.376   4.460   4.812
 4639SOL    HW114816   2.457   4.514   4.836
 4639SOL    HW214817   2.375   4.444   4.713
 4640SOL     OW14818   4.934   4.822   3.618
 4640SOL    HW114819   4.924   4.921   3.625
 4640SOL    HW214820   4.858   4.777   3.665
 4641SOL     OW14821   3.030   6.137   4.507
 4641SOL    HW114822   3.118   6.094   4.528
 4641SOL    HW214823   3.015   6.134   4.408
 4642SOL     OW14824   0.282   5.700   4.259
 4642SOL    HW114825   0.354   5.733   4.320
 4642SOL    HW214826   0.308   5.610   4.223
 4643SOL     OW14827   5.838   2.957   1.369
 4643SOL    HW114828   5.744   2.925   1.383
 4643SOL    HW214829   5.893   2.882   1.332
 4644SOL     OW14830   0.343   4.587   5.179
 4644SOL    HW114831   0.289   4.559   5.259
 4644SOL    HW214832   0.292   4.565   5.096
 4645SOL     OW14833   0.759   1.170   4.955
 4645SOL    HW114834   0.756   1.071   4.967
 4645SOL    HW214835   0.842   1.207   4.998
 4646SOL     OW14836   2.264   5.864   3.272
 4646SOL    HW114837   2.207   5.922   3.213
 4646SOL    HW214838   2.307   5.793   3.215
 4647SOL     OW14839   1.418   0.523   3.761
 4647SOL    HW114840   1.326   0.508   3.798
 4647SOL    HW214841   1.482   0.535   3.836
 4648SOL     OW14842   4.101   0.780   2.195
 4648SOL    HW114843   4.034   0.853   2.181
 4648SOL    HW214844   4.191   0.821   2.213
 4649SOL     OW14845   5.319   0.403   5.901
 4649SOL    HW114846   5.334   0.500   5.919
 4649SOL    HW214847   5.361   0.349   5.973
 4650SOL     OW14848   4.864   5.653   3.626
 4650SOL    HW114849   4.834   5.601   3.706
 4650SOL    HW214850   4.950   5.616   3.592
 4651SOL     OW14851   6.743   1.753   0.876
 4651SOL    HW114852   6.825   1.758   0.820
 4651SOL    HW214853   6.727   1.842   0.920
 4652SOL     OW14854   0.259   0.101   4.315
 4652SOL    HW114855   0.242   0.182   4.259
 4652SOL    HW214856   0.306   0.128   4.399
 4653SOL     OW14857   5.925   4.971   6.992
 4653SOL    HW114858   5.927   5.071   6.996
 4653SOL    HW214859   5.960   4.934   0.055
 4654SOL     OW14860   0.262   6.420   0.181
 4654SOL    HW114861   0.316   6.436   0.099
 4654SOL    HW214862   0.221   6.329   0.176
 4655SOL     OW14863   6.699   5.350   1.760
 4655SOL    HW114864   6.641   5.283   1.714
 4655SOL    HW214865   6.706   5.433   1.704
 4656SOL     OW14866   0.973   0.451   3.660
 4656SOL    HW114867   0.973   0.424   3.756
 4656SOL    HW214868   1.036   0.393   3.609
 4657SOL     OW14869   5.144   6.220   1.450
 4657SOL    HW114870   5.075   6.287   1.475
 4657SOL    HW214871   5.138   6.141   1.511
 4658SOL     OW14872   4.447   1.081   2.600
 4658SOL    HW114873   4.361   1.054   2.557
 4658SOL    HW214874   4.442   1.177   2.629
 4659SOL     OW14875   2.922   4.329   5.367
 4659SOL    HW114876   2.937   4.391   5.290
 4659SOL    HW214877   2.919   4.234   5.333
 4660SOL     OW14878   1.059   3.143   5.543
 4660SOL    HW114879   1.064   3.182   5.452
 4660SOL    HW214880   0.971   3.166   5.585
 4661SOL     OW14881   3.474   3.913   5.881
 4661SOL    HW114882   3.509   3.951   5.966
 4661SOL    HW214883   3.392   3.858   5.900
 4662SOL     OW14884   3.739   6.929   4.913
 4662SOL    HW114885   3.667   6.973   4.860
 4662SOL    HW214886   3.746   6.833   4.886
 4663SOL     OW14887   0.204   1.888   3.187
 4663SOL    HW114888   0.108   1.867   3.202
 4663SOL    HW214889   0.260   1.808   3.210
 4664SOL     OW14890   1.959   1.523   0.683
 4664SOL    HW114891   2.052   1.503   0.714
 4664SOL    HW214892   1.962   1.572   0.596
 4665SOL     OW14893   3.131   6.579   0.387
 4665SOL    HW114894   3.100   6.633   0.465
 4665SOL    HW214895   3.231   6.573   0.389
 4666SOL     OW14896   1.494   2.078   0.986
 4666SOL    HW114897   1.550   2.093   0.905
 4666SOL    HW214898   1.552   2.052   1.063
 4667SOL     OW14899   6.529   4.150   1.943
 4667SOL    HW114900   6.429   4.142   1.948
 4667SOL    HW214901   6.555   4.180   1.852
 4668SOL     OW14902   5.339   1.700   3.211
 4668SOL    HW114903   5.272   1.625   3.213
 4668SOL    HW214904   5.370   1.714   3.117
 4669SOL     OW14905   4.361   6.350   6.749
 4669SOL    HW114906   4.313   6.431   6.715
 4669SOL    HW214907   4.295   6.287   6.790
 4670SOL     OW14908   3.087   2.365   5.444
 4670SOL    HW114909   3.118   2.369   5.349
 4670SOL    HW214910   3.145   2.424   5.500
 4671SOL     OW14911   6.633   2.309   2.174
 4671SOL    HW114912   6.554   2.362   2.143
 4671SOL    HW214913   6.711   2.370   2.189
 4672SOL     OW14914   2.768   4.252   5.964
 4672SOL    HW114915   2.862   4.239   5.934
 4672SOL    HW214916   2.765   4.258   6.064
 4673SOL     OW14917   5.052   6.593   1.417
 4673SOL    HW114918   4.954   6.614   1.423
 4673SOL    HW214919   5.071   6.542   1.333
 4674SOL     OW14920   4.791   6.896   6.518
 4674SOL    HW114921   4.795   6.868   6.422
 4674SOL    HW214922   4.797   6.995   6.525
 4675SOL     OW14923   0.261   2.178   6.339
 4675SOL    HW114924   0.274   2.251   6.407
 4675SOL    HW214925   0.223   2.217   6.255
 4676SOL     OW14926   6.730   6.176   3.733
 4676SOL    HW114927   6.715   6.224   3.646
 4676SOL    HW214928   6.808   6.115   3.724
 4677SOL     OW14929   2.750   1.159   0.128
 4677SOL    HW114930   2.673   1.182   0.188
 4677SOL    HW214931   2.716   1.135   0.037
 4678SOL     OW14932   2.017   4.484   2.920
 4678SOL    HW114933   2.003   4.451   2.827
 4678SOL    HW214934   2.049   4.579   2.917
 4679SOL     OW14935   3.719   6.997   1.207
 4679SOL    HW114936   3.659   6.958   1.137
 4679SOL    HW214937   3.767   6.923   1.253
 4680SOL     OW14938   3.894   1.193   6.715
 4680SOL    HW114939   3.963   1.177   6.785
 4680SOL    HW214940   3.808   1.148   6.741
 4681SOL     OW14941   5.630   4.918   6.937
 4681SOL    HW114942   5.613   4.858   6.859
 4681SOL    HW214943   5.729   4.930   6.948
 4682SOL     OW14944   5.033   4.475   5.377
 4682SOL    HW114945   5.018   4.409   5.303
 4682SOL    HW214946   5.031   4.568   5.340
 4683SOL     OW14947   4.928   5.012   2.761
 4683SOL    HW114948   4.843   4.963   2.741
 4683SOL    HW214949   4.937   5.023   2.860
 4684SOL     OW14950   5.435   0.320   5.240
 4684SOL    HW114951   5.465   0.397   5.296
 4684SOL    HW214952   5.413   0.352   5.148
 4685SOL     OW14953   1.605   5.289   5.811
 4685SOL    HW114954   1.604   5.276   5.712
 4685SOL    HW214955   1.532   5.236   5.853
 4686SOL     OW14956   4.617   5.251   6.605
 4686SOL    HW114957   4.579   5.229   6.515
 4686SOL    HW214958   4.658   5.342   6.602
 4687SOL     OW14959   5.097   3.381   4.257
 4687SOL    HW114960   5.083   3.456   4.322
 4687SOL    HW214961   5.010   3.358   4.214
 4688SOL     OW14962   5.710   3.783   5.024
 4688SOL    HW114963   5.765   3.860   4.989
 4688SOL    HW214964   5.686   3.723   4.948
 4689SOL     OW14965   4.735   0.680   0.108
 4689SOL    HW114966   4.765   0.585   0.112
 4689SOL    HW214967   4.781   0.728   0.033
 4690SOL     OW14968   1.010   0.106   0.409
 4690SOL    HW114969   0.992   0.084   0.313
 4690SOL    HW214970   0.976   0.198   0.429
 4691SOL     OW14971   3.053   3.993   0.617
 4691SOL    HW114972   3.109   4.041   0.685
 4691SOL    HW214973   3.036   3.900   0.647
 4692SOL     OW14974   5.682   5.266   2.417
 4692SOL    HW114975   5.701   5.318   2.501
 4692SOL    HW214976   5.584   5.247   2.412
 4693SOL     OW14977   1.156   1.860   2.739
 4693SOL    HW114978   1.104   1.942   2.712
 4693SOL    HW214979   1.203   1.823   2.660
 4694SOL     OW14980   2.268   1.303   0.125
 4694SOL    HW114981   2.305   1.215   0.154
 4694SOL    HW214982   2.341   1.371   0.122
 4695SOL     OW14983   1.669   4.615   2.075
 4695SOL    HW114984   1.570   4.618   2.085
 4695SOL    HW214985   1.693   4.563   1.993
 4696SOL     OW14986   0.104   4.022   0.088
 4696SOL    HW114987   0.044   4.082   0.036
 4696SOL    HW214988   0.078   3.927   0.072
 4697SOL     OW14989   1.727   4.120   1.345
 4697SOL    HW114990   1.773   4.114   1.256
 4697SOL    HW214991   1.782   4.074   1.414
 4698SOL     OW14992   4.488   5.874   2.833
 4698SOL    HW114993   4.567   5.845   2.779
 4698SOL    HW214994   4.519   5.933   2.908
 4699SOL     OW14995   1.186   6.494   2.375
 4699SOL    HW114996   1.171   6.565   2.445
 4699SOL    HW214997   1.283   6.475   2.368
 4700SOL     OW14998   6.668   1.327   2.784
 4700SOL    HW114999   6.574   1.329   2.819
 4700SOL    HW215000   6.668   1.354   2.688
 4701SOL     OW15001   3.196   2.494   0.490
 4701SOL    HW115002   3.175   2.518   0.584
 4701SOL    HW215003   3.228   2.575   0.441
 4702SOL     OW15004   4.957   4.990   0.283
 4702SOL    HW115005   4.991   5.083   0.294
 4702SOL    HW215006   4.907   4.963   0.365
 4703SOL     OW15007   0.287   0.282   2.265
 4703SOL    HW115008   0.187   0.282   2.270
 4703SOL    HW215009   0.324   0.221   2.335
 4704SOL     OW15010   6.510   6.786   6.194
 4704SOL    HW115011   6.578   6.734   6.246
 4704SOL    HW215012   6.510   6.757   6.099
 4705SOL     OW15013   4.109   2.588   1.288
 4705SOL    HW115014   4.164   2.518   1.241
 4705SOL    HW215015   4.012   2.574   1.266
 4706SOL     OW15016   2.437   0.141   0.189
 4706SOL    HW115017   2.482   0.065   0.141
 4706SOL    HW215018   2.505   0.192   0.241
 4707SOL     OW15019   1.396   6.782   0.279
 4707SOL    HW115020   1.408   6.872   0.236
 4707SOL    HW215021   1.482   6.731   0.275
 4708SOL     OW15022   1.181   2.581   6.271
 4708SOL    HW115023   1.125   2.541   6.198
 4708SOL    HW215024   1.199   2.677   6.250
 4709SOL     OW15025   4.332   5.636   5.141
 4709SOL    HW115026   4.416   5.626   5.193
 4709SOL    HW215027   4.253   5.633   5.202
 4710SOL     OW15028   4.716   0.067   6.013
 4710SOL    HW115029   4.795   0.128   6.005
 4710SOL    HW215030   4.664   0.070   5.928
 4711SOL     OW15031   6.171   1.481   1.496
 4711SOL    HW115032   6.261   1.483   1.452
 4711SOL    HW215033   6.178   1.521   1.588
 4712SOL     OW15034   2.821   5.363   6.076
 4712SOL    HW115035   2.905   5.398   6.117
 4712SOL    HW215036   2.815   5.393   5.981
 4713SOL     OW15037   3.420   4.535   0.816
 4713SOL    HW115038   3.411   4.454   0.875
 4713SOL    HW215039   3.490   4.595   0.853
 4714SOL     OW15040   0.906   1.380   6.226
 4714SOL    HW115041   0.900   1.428   6.138
 4714SOL    HW215042   0.831   1.409   6.286
 4715SOL     OW15043   5.904   3.395   2.411
 4715SOL    HW115044   5.847   3.470   2.377
 4715SOL    HW215045   5.848   3.312   2.420
 4716SOL     OW15046   4.374   6.815   6.226
 4716SOL    HW115047   4.432   6.874   6.283
 4716SOL    HW215048   4.366   6.854   6.135
 4717SOL     OW15049   0.597   6.090   3.652
 4717SOL    HW115050   0.628   6.185   3.658
 4717SOL    HW215051   0.607   6.056   3.559
 4718SOL     OW15052   6.074   2.313   1.079
 4718SOL    HW115053   6.090   2.254   1.158
 4718SOL    HW215054   6.020   2.263   1.011
 4719SOL     OW15055   4.609   2.969   1.598
 4719SOL    HW115056   4.574   2.987   1.690
 4719SOL    HW215057   4.666   3.045   1.568
 4720SOL     OW15058   2.086   4.961   5.895
 4720SOL    HW115059   2.073   4.915   5.983
 4720SOL    HW215060   2.094   5.059   5.910
 4721SOL     OW15061   6.453   1.634   2.639
 4721SOL    HW115062   6.491   1.726   2.649
 4721SOL    HW215063   6.511   1.580   2.578
 4722SOL     OW15064   0.951   5.974   6.640
 4722SOL    HW115065   0.953   5.996   6.542
 4722SOL    HW215066   0.986   6.052   6.692
 4723SOL     OW15067   2.516   3.395   5.873
 4723SOL    HW115068   2.533   3.334   5.950
 4723SOL    HW215069   2.505   3.489   5.907
 4724SOL     OW15070   6.156   0.096   3.841
 4724SOL    HW115071   6.057   0.110   3.851
 4724SOL    HW215072   6.189   0.039   3.916
 4725SOL     OW15073   6.831   4.962   0.976
 4725SOL    HW115074   6.912   4.927   1.022
 4725SOL    HW215075   6.843   4.954   0.877
 4726SOL     OW15076   1.192   3.193   6.115
 4726SOL    HW115077   1.178   3.112   6.172
 4726SOL    HW215078   1.286   3.194   6.081
 4727SOL     OW15079   1.044   6.573   1.383
 4727SOL    HW115080   0.963   6.611   1.426
 4727SOL    HW215081   1.020   6.540   1.291
 4728SOL     OW15082   5.720   1.732   1.744
 4728SOL    HW115083   5.641   1.714   1.686
 4728SOL    HW215084   5.755   1.646   1.781
 4729SOL     OW15085   4.774   1.335   1.032
 4729SOL    HW115086   4.744   1.260   1.091
 4729SOL    HW215087   4.862   1.312   0.990
 4730SOL     OW15088   3.370   5.713   5.109
 4730SOL    HW115089   3.422   5.783   5.060
 4730SOL    HW215090   3.419   5.687   5.192
 4731SOL     OW15091   3.007   0.285   0.587
 4731SOL    HW115092   3.005   0.384   0.571
 4731SOL    HW215093   3.072   0.242   0.524
 4732SOL     OW15094   1.091   3.969   5.284
 4732SOL    HW115095   1.092   4.057   5.331
 4732SOL    HW215096   1.165   3.967   5.216
 4733SOL     OW15097   2.105   4.267   3.483
 4733SOL    HW115098   2.200   4.245   3.466
 4733SOL    HW215099   2.074   4.222   3.567
 4734SOL     OW15100   4.634   3.723   0.205
 4734SOL    HW115101   4.591   3.701   0.118
 4734SOL    HW215102   4.732   3.732   0.193
 4735SOL     OW15103   0.170   5.028   4.857
 4735SOL    HW115104   0.198   5.120   4.884
 4735SOL    HW215105   0.243   4.964   4.880
 4736SOL     OW15106   6.125   1.552   5.819
 4736SOL    HW115107   6.142   1.541   5.916
 4736SOL    HW215108   6.185   1.623   5.782
 4737SOL     OW15109   3.238   4.278   1.453
 4737SOL    HW115110   3.164   4.307   1.514
 4737SOL    HW215111   3.198   4.233   1.373
 4738SOL     OW15112   1.801   6.346   3.079
 4738SOL    HW115113   1.794   6.445   3.072
 4738SOL    HW215114   1.835   6.308   2.993
 4739SOL     OW15115   4.718   1.820   2.812
 4739SOL    HW115116   4.783   1.747   2.792
 4739SOL    HW215117   4.664   1.795   2.893
 4740SOL     OW15118   0.495   1.686   0.649
 4740SOL    HW115119   0.521   1.644   0.562
 4740SOL    HW215120   0.406   1.731   0.640
 4741SOL     OW15121   5.510   4.073   0.447
 4741SOL    HW115122   5.519   3.989   0.393
 4741SOL    HW215123   5.417   4.109   0.436
 4742SOL     OW15124   2.932   0.121   6.799
 4742SOL    HW115125   2.949   0.038   6.854
 4742SOL    HW215126   2.943   0.099   6.702
 4743SOL     OW15127   1.995   3.442   5.366
 4743SOL    HW115128   2.062   3.516   5.373
 4743SOL    HW215129   2.026   3.376   5.298
 4744SOL     OW15130   2.805   3.846   6.115
 4744SOL    HW115131   2.740   3.781   6.155
 4744SOL    HW215132   2.770   3.879   6.027
 4745SOL     OW15133   3.182   5.336   6.351
 4745SOL    HW115134   3.268   5.383   6.371
 4745SOL    HW215135   3.132   5.321   6.437
 4746SOL     OW15136   5.557   6.472   2.361
 4746SOL    HW115137   5.593   6.565   2.369
 4746SOL    HW215138   5.543   6.434   2.452
 4747SOL     OW15139   2.073   4.385   6.248
 4747SOL    HW115140   2.092   4.374   6.346
 4747SOL    HW215141   1.985   4.430   6.236
 4748SOL     OW15142   0.943   4.914   0.767
 4748SOL    HW115143   1.002   4.845   0.808
 4748SOL    HW215144   0.987   5.004   0.775
 4749SOL     OW15145   3.038   6.185   5.302
 4749SOL    HW115146   3.104   6.131   5.354
 4749SOL    HW215147   2.972   6.227   5.364
 4750SOL     OW15148   0.371   3.451   3.304
 4750SOL    HW115149   0.413   3.474   3.217
 4750SOL    HW215150   0.346   3.354   3.304
 4751SOL     OW15151   2.912   2.524   1.143
 4751SOL    HW115152   2.903   2.427   1.122
 4751SOL    HW215153   2.927   2.536   1.241
 4752SOL     OW15154   3.306   0.560   6.632
 4752SOL    HW115155   3.234   0.493   6.615
 4752SOL    HW215156   3.395   0.514   6.634
 4753SOL     OW15157   5.013   0.519   3.823
 4753SOL    HW115158   5.098   0.563   3.854
 4753SOL    HW215159   4.942   0.532   3.892
 4754SOL     OW15160   6.048   0.105   4.657
 4754SOL    HW115161   5.990   0.065   4.586
 4754SOL    HW215162   5.994   0.117   4.741
 4755SOL     OW15163   2.476   0.633   0.907
 4755SOL    HW115164   2.547   0.703   0.898
 4755SOL    HW215165   2.467   0.607   1.003
 4756SOL     OW15166   6.310   3.495   1.123
 4756SOL    HW115167   6.302   3.401   1.156
 4756SOL    HW215168   6.230   3.517   1.067
 4757SOL     OW15169   2.290   1.821   0.437
 4757SOL    HW115170   2.361   1.796   0.503
 4757SOL    HW215171   2.317   1.789   0.346
 4758SOL     OW15172   2.035   6.250   4.238
 4758SOL    HW115173   2.119   6.261   4.292
 4758SOL    HW215174   2.009   6.337   4.198
 4759SOL     OW15175   5.381   4.992   4.719
 4759SOL    HW115176   5.460   5.028   4.768
 4759SOL    HW215177   5.407   4.909   4.669
 4760SOL     OW15178   3.446   2.090   0.198
 4760SOL    HW115179   3.355   2.054   0.218
 4760SOL    HW215180   3.439   2.189   0.181
 4761SOL     OW15181   0.434   6.020   6.966
 4761SOL    HW115182   0.353   6.067   7.002
 4761SOL    HW215183   0.410   5.924   6.948
 4762SOL     OW15184   1.716   5.721   2.999
 4762SOL    HW115185   1.647   5.771   3.051
 4762SOL    HW215186   1.674   5.643   2.953
 4763SOL     OW15187   6.629   6.225   3.467
 4763SOL    HW115188   6.612   6.320   3.493
 4763SOL    HW215189   6.551   6.169   3.494
 4764SOL     OW15190   4.809   3.917   5.137
 4764SOL    HW115191   4.909   3.907   5.140
 4764SOL    HW215192   4.776   3.892   5.047
 4765SOL     OW15193   4.447   0.990   4.383
 4765SOL    HW115194   4.379   1.058   4.355
 4765SOL    HW215195   4.472   0.933   4.305
 4766SOL     OW15196   5.205   5.583   4.176
 4766SOL    HW115197   5.250   5.537   4.253
 4766SOL    HW215198   5.111   5.606   4.201
 4767SOL     OW15199   3.788   5.312   6.123
 4767SOL    HW115200   3.820   5.405   6.105
 4767SOL    HW215201   3.818   5.283   6.213
 4768SOL     OW15202   3.954   1.140   5.401
 4768SOL    HW115203   3.931   1.208   5.332
 4768SOL    HW215204   4.051   1.117   5.394
 4769SOL     OW15205   5.300   4.602   0.376
 4769SOL    HW115206   5.211   4.593   0.331
 4769SOL    HW215207   5.373   4.581   0.310
 4770SOL     OW15208   1.089   0.642   4.358
 4770SOL    HW115209   1.114   0.579   4.431
 4770SOL    HW215210   1.040   0.592   4.286
 4771SOL     OW15211   3.317   5.597   6.062
 4771SOL    HW115212   3.373   5.535   6.117
 4771SOL    HW215213   3.374   5.673   6.030
 4772SOL     OW15214   3.092   4.644   1.244
 4772SOL    HW115215   3.081   4.725   1.187
 4772SOL    HW215216   3.134   4.571   1.190
 4773SOL     OW15217   0.006   5.602   4.925
 4773SOL    HW115218   6.997   5.512   4.896
 4773SOL    HW215219   7.002   5.670   4.857
 4774SOL     OW15220   1.069   2.345   1.997
 4774SOL    HW115221   1.148   2.392   1.958
 4774SOL    HW215222   1.075   2.348   2.097
 4775SOL     OW15223   5.272   6.527   2.419
 4775SOL    HW115224   5.197   6.494   2.363
 4775SOL    HW215225   5.358   6.489   2.386
 4776SOL     OW15226   0.936   6.040   5.443
 4776SOL    HW115227   0.883   6.125   5.439
 4776SOL    HW215228   1.003   6.047   5.517
 4777SOL     OW15229   2.730   5.037   1.048
 4777SOL    HW115230   2.826   5.050   1.073
 4777SOL    HW215231   2.697   5.116   0.997
 4778SOL     OW15232   6.696   2.858   3.422
 4778SOL    HW115233   6.607   2.849   3.378
 4778SOL    HW215234   6.740   2.768   3.428
 4779SOL     OW15235   6.462   6.682   2.528
 4779SOL    HW115236   6.389   6.647   2.469
 4779SOL    HW215237   6.470   6.781   2.515
 4780SOL     OW15238   6.358   0.520   0.289
 4780SOL    HW115239   6.336   0.617   0.295
 4780SOL    HW215240   6.345   0.477   0.379
 4781SOL     OW15241   2.175   5.789   2.063
 4781SOL    HW115242   2.102   5.745   2.010
 4781SOL    HW215243   2.155   5.887   2.071
 4782SOL     OW15244   4.272   5.667   0.098
 4782SOL    HW115245   4.197   5.731   0.081
 4782SOL    HW215246   4.246   5.576   0.064
 4783SOL     OW15247   5.146   4.567   0.158
 4783SOL    HW115248   5.223   4.581   0.096
 4783SOL    HW215249   5.085   4.498   0.120
 4784SOL     OW15250   5.672   4.164   6.669
 4784SOL    HW115251   5.770   4.172   6.686
 4784SOL    HW215252   5.655   4.093   6.601
 4785SOL     OW15253   7.022   6.238   2.311
 4785SOL    HW115254   0.019   6.249   2.214
 4785SOL    HW215255   0.085   6.226   2.361
 4786SOL     OW15256   2.789   1.791   0.212
 4786SOL    HW115257   2.869   1.792   0.151
 4786SOL    HW215258   2.804   1.726   0.286
 4787SOL     OW15259   4.352   1.381   2.628
 4787SOL    HW115260   4.391   1.472   2.646
 4787SOL    HW215261   4.320   1.377   2.533
 4788SOL     OW15262   0.883   5.765   5.699
 4788SOL    HW115263   0.926   5.703   5.634
 4788SOL    HW215264   0.884   5.723   5.790
 4789SOL     OW15265   5.593   1.634   1.175
 4789SOL    HW115266   5.662   1.579   1.128
 4789SOL    HW215267   5.569   1.591   1.262
 4790SOL     OW15268   6.583   2.565   5.168
 4790SOL    HW115269   6.613   2.562   5.072
 4790SOL    HW215270   6.491   2.528   5.175
 4791SOL     OW15271   6.417   2.445   2.024
 4791SOL    HW115272   6.433   2.544   2.024
 4791SOL    HW215273   6.319   2.427   2.025
 4792SOL     OW15274   2.085   3.766   3.062
 4792SOL    HW115275   2.093   3.670   3.089
 4792SOL    HW215276   2.156   3.789   2.996
 4793SOL     OW15277   2.303   2.830   5.834
 4793SOL    HW115278   2.254   2.780   5.763
 4793SOL    HW215279   2.252   2.913   5.858
 4794SOL     OW15280   4.142   0.530   3.419
 4794SOL    HW115281   4.196   0.447   3.433
 4794SOL    HW215282   4.086   0.520   3.337
 4795SOL     OW15283   6.173   2.589   4.282
 4795SOL    HW115284   6.227   2.632   4.354
 4795SOL    HW215285   6.223   2.511   4.243
 4796SOL     OW15286   5.200   1.533   5.406
 4796SOL    HW115287   5.215   1.434   5.399
 4796SOL    HW215288   5.201   1.559   5.502
 4797SOL     OW15289   1.249   6.287   5.924
 4797SOL    HW115290   1.328   6.226   5.929
 4797SOL    HW215291   1.252   6.351   6.001
 4798SOL     OW15292   0.091   3.277   4.497
 4798SOL    HW115293   0.003   3.317   4.471
 4798SOL    HW215294   0.146   3.344   4.546
 4799SOL     OW15295   5.231   2.305   6.869
 4799SOL    HW115296   5.298   2.292   6.943
 4799SOL    HW215297   5.279   2.311   6.782
 4800SOL     OW15298   3.463   3.144   6.003
 4800SOL    HW115299   3.482   3.088   5.922
 4800SOL    HW215300   3.371   3.124   6.037
 4801SOL     OW15301   2.833   2.413   6.954
 4801SOL    HW115302   2.932   2.398   6.957
 4801SOL    HW215303   2.793   2.354   6.884
 4802SOL     OW15304   0.889   6.016   2.057
 4802SOL    HW115305   0.931   6.084   2.117
 4802SOL    HW215306   0.945   6.004   1.975
 4803SOL     OW15307   1.127   5.441   1.116
 4803SOL    HW115308   1.160   5.497   1.192
 4803SOL    HW215309   1.188   5.453   1.037
 4804SOL     OW15310   5.298   5.668   6.848
 4804SOL    HW115311   5.284   5.755   6.801
 4804SOL    HW215312   5.234   5.660   6.924
 4805SOL     OW15313   5.138   0.960   2.210
 4805SOL    HW115314   5.138   1.053   2.248
 4805SOL    HW215315   5.164   0.964   2.114
 4806SOL     OW15316   0.794   4.722   3.044
 4806SOL    HW115317   0.762   4.805   2.998
 4806SOL    HW215318   0.780   4.731   3.143
 4807SOL     OW15319   0.956   4.761   0.197
 4807SOL    HW115320   0.869   4.807   0.218
 4807SOL    HW215321   0.969   4.685   0.260
 4808SOL     OW15322   5.557   3.767   6.805
 4808SOL    HW115323   5.656   3.783   6.800
 4808SOL    HW215324   5.519   3.817   6.882
 4809SOL     OW15325   3.617   4.451   6.884
 4809SOL    HW115326   3.713   4.475   6.876
 4809SOL    HW215327   3.589   4.458   6.980
 4810SOL     OW15328   1.312   5.206   2.616
 4810SOL    HW115329   1.382   5.137   2.599
 4810SOL    HW215330   1.306   5.224   2.714
 4811SOL     OW15331   2.766   3.970   1.705
 4811SOL    HW115332   2.758   4.069   1.722
 4811SOL    HW215333   2.845   3.954   1.645
 4812SOL     OW15334   6.542   5.213   4.046
 4812SOL    HW115335   6.469   5.187   4.108
 4812SOL    HW215336   6.630   5.184   4.083
 4813SOL     OW15337   5.160   2.105   1.542
 4813SOL    HW115338   5.149   2.045   1.621
 4813SOL    HW215339   5.254   2.140   1.539
 4814SOL     OW15340   6.457   3.954   0.622
 4814SOL    HW115341   6.485   4.014   0.696
 4814SOL    HW215342   6.360   3.970   0.600
 4815SOL     OW15343   5.575   4.718   3.003
 4815SOL    HW115344   5.580   4.678   3.094
 4815SOL    HW215345   5.632   4.665   2.940
 4816SOL     OW15346   1.472   5.119   1.103
 4816SOL    HW115347   1.523   5.058   1.163
 4816SOL    HW215348   1.398   5.163   1.154
 4817SOL     OW15349   0.271   2.004   6.723
 4817SOL    HW115350   0.191   2.020   6.665
 4817SOL    HW215351   0.299   2.091   6.764
 4818SOL     OW15352   1.035   6.423   4.542
 4818SOL    HW115353   1.071   6.390   4.454
 4818SOL    HW215354   0.939   6.449   4.530
 4819SOL     OW15355   1.520   1.863   0.287
 4819SOL    HW115356   1.553   1.803   0.214
 4819SOL    HW215357   1.538   1.821   0.376
 4820SOL     OW15358   6.119   2.697   1.829
 4820SOL    HW115359   6.110   2.666   1.735
 4820SOL    HW215360   6.204   2.749   1.838
 4821SOL     OW15361   1.131   6.204   2.691
 4821SOL    HW115362   1.075   6.135   2.738
 4821SOL    HW215363   1.138   6.286   2.749
 4822SOL     OW15364   2.681   2.061   5.114
 4822SOL    HW115365   2.590   2.063   5.074
 4822SOL    HW215366   2.686   2.126   5.190
 4823SOL     OW15367   1.665   0.924   4.617
 4823SOL    HW115368   1.629   0.913   4.524
 4823SOL    HW215369   1.662   1.021   4.642
 4824SOL     OW15370   4.956   2.324   5.207
 4824SOL    HW115371   4.976   2.411   5.250
 4824SOL    HW215372   5.030   2.259   5.226
 4825SOL     OW15373   1.922   2.866   5.086
 4825SOL    HW115374   1.943   2.933   5.157
 4825SOL    HW215375   1.934   2.908   4.996
 4826SOL     OW15376   5.345   1.699   0.051
 4826SOL    HW115377   5.351   1.651   6.987
 4826SOL    HW215378   5.254   1.739   0.061
 4827SOL     OW15379   6.600   1.762   0.556
 4827SOL    HW115380   6.669   1.830   0.580
 4827SOL    HW215381   6.582   1.703   0.635
 4828SOL     OW15382   5.031   2.189   0.933
 4828SOL    HW115383   5.012   2.184   0.835
 4828SOL    HW215384   4.995   2.107   0.978
 4829SOL     OW15385   3.948   6.447   5.516
 4829SOL    HW115386   4.038   6.415   5.544
 4829SOL    HW215387   3.956   6.538   5.475
 4830SOL     OW15388   4.436   6.277   4.540
 4830SOL    HW115389   4.418   6.179   4.537
 4830SOL    HW215390   4.354   6.327   4.510
 4831SOL     OW15391   1.322   4.398   6.174
 4831SOL    HW115392   1.337   4.463   6.099
 4831SOL    HW215393   1.243   4.341   6.153
 4832SOL     OW15394   3.784   4.094   3.771
 4832SOL    HW115395   3.827   4.084   3.860
 4832SOL    HW215396   3.688   4.120   3.783
 4833SOL     OW15397   5.476   1.564   2.772
 4833SOL    HW115398   5.519   1.595   2.687
 4833SOL    HW215399   5.422   1.638   2.812
 4834SOL     OW15400   3.031   6.246   1.428
 4834SOL    HW115401   3.065   6.281   1.341
 4834SOL    HW215402   3.010   6.148   1.419
 4835SOL     OW15403   5.465   1.802   6.540
 4835SOL    HW115404   5.466   1.901   6.533
 4835SOL    HW215405   5.557   1.766   6.528
 4836SOL     OW15406   5.230   2.151   4.877
 4836SOL    HW115407   5.182   2.065   4.891
 4836SOL    HW215408   5.321   2.133   4.840
 4837SOL     OW15409   0.104   3.866   2.866
 4837SOL    HW115410   0.041   3.886   2.791
 4837SOL    HW215411   0.184   3.925   2.859
 4838SOL     OW15412   1.172   5.299   0.268
 4838SOL    HW115413   1.225   5.289   0.183
 4838SOL    HW215414   1.212   5.240   0.338
 4839SOL     OW15415   1.676   3.726   0.245
 4839SOL    HW115416   1.604   3.788   0.213
 4839SOL    HW215417   1.756   3.779   0.271
 4840SOL     OW15418   6.873   4.749   6.681
 4840SOL    HW115419   6.782   4.772   6.645
 4840SOL    HW215420   6.941   4.812   6.643
 4841SOL     OW15421   2.498   5.358   2.641
 4841SOL    HW115422   2.550   5.415   2.577
 4841SOL    HW215423   2.505   5.398   2.733
 4842SOL     OW15424   3.807   5.332   2.376
 4842SOL    HW115425   3.887   5.275   2.352
 4842SOL    HW215426   3.838   5.417   2.418
 4843SOL     OW15427   6.228   3.361   1.670
 4843SOL    HW115428   6.166   3.322   1.738
 4843SOL    HW215429   6.244   3.295   1.597
 4844SOL     OW15430   0.214   2.924   6.506
 4844SOL    HW115431   0.273   2.844   6.520
 4844SOL    HW215432   0.202   2.972   6.592
 4845SOL     OW15433   5.394   5.003   6.565
 4845SOL    HW115434   5.489   5.020   6.591
 4845SOL    HW215435   5.392   4.947   6.482
 4846SOL     OW15436   6.878   2.226   3.529
 4846SOL    HW115437   6.836   2.199   3.441
 4846SOL    HW215438   6.973   2.253   3.513
 4847SOL     OW15439   2.424   1.031   6.357
 4847SOL    HW115440   2.341   1.086   6.351
 4847SOL    HW215441   2.503   1.093   6.368
 4848SOL     OW15442   1.901   0.910   4.744
 4848SOL    HW115443   1.808   0.904   4.707
 4848SOL    HW215444   1.911   0.843   4.818
 4849SOL     OW15445   1.332   5.896   0.160
 4849SOL    HW115446   1.323   5.804   0.199
 4849SOL    HW215447   1.327   5.890   0.060
 4850SOL     OW15448   4.134   1.272   1.653
 4850SOL    HW115449   4.046   1.235   1.622
 4850SOL    HW215450   4.205   1.203   1.642
 4851SOL     OW15451   3.442   6.780   5.828
 4851SOL    HW115452   3.426   6.692   5.873
 4851SOL    HW215453   3.539   6.805   5.836
 4852SOL     OW15454   2.048   5.719   5.153
 4852SOL    HW115455   1.978   5.710   5.082
 4852SOL    HW215456   2.133   5.677   5.122
 4853SOL     OW15457   3.151   1.401   3.466
 4853SOL    HW115458   3.118   1.337   3.535
 4853SOL    HW215459   3.187   1.483   3.511
 4854SOL     OW15460   4.328   6.547   2.235
 4854SOL    HW115461   4.238   6.589   2.226
 4854SOL    HW215462   4.381   6.596   2.304
 4855SOL     OW15463   5.590   2.810   4.292
 4855SOL    HW115464   5.532   2.822   4.373
 4855SOL    HW215465   5.585   2.714   4.263
 4856SOL     OW15466   1.702   3.366   2.783
 4856SOL    HW115467   1.768   3.295   2.807
 4856SOL    HW215468   1.641   3.383   2.860
 4857SOL     OW15469   2.906   2.215   3.649
 4857SOL    HW115470   2.853   2.278   3.706
 4857SOL    HW215471   2.930   2.134   3.702
 4858SOL     OW15472   7.002   0.156   5.020
 4858SOL    HW115473   7.010   0.255   5.035
 4858SOL    HW215474   6.906   0.129   5.027
 4859SOL     OW15475   0.609   5.414   3.136
 4859SOL    HW115476   0.539   5.391   3.204
 4859SOL    HW215477   0.623   5.336   3.075
 4860SOL     OW15478   4.631   4.889   0.701
 4860SOL    HW115479   4.569   4.836   0.642
 4860SOL    HW215480   4.672   4.828   0.769
 4861SOL     OW15481   6.200   4.998   6.644
 4861SOL    HW115482   6.111   5.043   6.653
 4861SOL    HW215483   6.239   5.020   6.555
 4862SOL     OW15484   1.899   4.341   4.825
 4862SOL    HW115485   1.890   4.284   4.907
 4862SOL    HW215486   1.993   4.374   4.818
 4863SOL     OW15487   5.183   3.256   2.168
 4863SOL    HW115488   5.212   3.351   2.158
 4863SOL    HW215489   5.101   3.240   2.113
 4864SOL     OW15490   3.596   1.720   2.383
 4864SOL    HW115491   3.539   1.696   2.305
 4864SOL    HW215492   3.683   1.756   2.351
 4865SOL     OW15493   1.813   6.269   4.703
 4865SOL    HW115494   1.744   6.252   4.632
 4865SOL    HW215495   1.772   6.258   4.793
 4866SOL     OW15496   6.393   4.741   1.451
 4866SOL    HW115497   6.359   4.756   1.359
 4866SOL    HW215498   6.318   4.715   1.511
 4867SOL     OW15499   4.680   5.616   2.236
 4867SOL    HW115500   4.591   5.659   2.225
 4867SOL    HW215501   4.669   5.529   2.284
 4868SOL     OW15502   0.797   5.117   2.165
 4868SOL    HW115503   0.815   5.144   2.259
 4868SOL    HW215504   0.861   5.045   2.138
 4869SOL     OW15505   0.216   1.989   1.836
 4869SOL    HW115506   0.120   1.992   1.809
 4869SOL    HW215507   0.240   2.074   1.882
 4870SOL     OW15508   6.673   6.038   1.696
 4870SOL    HW115509   6.750   6.101   1.696
 4870SOL    HW215510   6.706   5.944   1.694
 4871SOL     OW15511   0.505   1.657   4.496
 4871SOL    HW115512   0.559   1.576   4.519
 4871SOL    HW215513   0.561   1.719   4.441
 4872SOL     OW15514   6.922   6.054   4.342
 4872SOL    HW115515   6.946   6.096   4.430
 4872SOL    HW215516   7.005   6.029   4.293
 4873SOL     OW15517   6.781   4.637   3.906
 4873SOL    HW115518   6.875   4.668   3.918
 4873SOL    HW215519   6.724   4.714   3.878
 4874SOL     OW15520   6.167   3.388   3.473
 4874SOL    HW115521   6.260   3.416   3.498
 4874SOL    HW215522   6.119   3.355   3.554
 4875SOL     OW15523   5.183   3.193   1.453
 4875SOL    HW115524   5.199   3.097   1.432
 4875SOL    HW215525   5.270   3.237   1.475
 4876SOL     OW15526   5.484   1.249   4.712
 4876SOL    HW115527   5.445   1.204   4.631
 4876SOL    HW215528   5.451   1.343   4.717
 4877SOL     OW15529   6.964   2.029   6.881
 4877SOL    HW115530   6.890   2.024   6.947
 4877SOL    HW215531   7.004   1.938   6.869
 4878SOL     OW15532   5.943   1.395   3.529
 4878SOL    HW115533   6.010   1.449   3.478
 4878SOL    HW215534   5.874   1.359   3.466
 4879SOL     OW15535   4.482   4.996   3.545
 4879SOL    HW115536   4.422   5.075   3.531
 4879SOL    HW215537   4.537   5.009   3.627
 4880SOL     OW15538   6.053   3.412   6.776
 4880SOL    HW115539   6.152   3.415   6.766
 4880SOL    HW215540   6.011   3.476   6.710
 4881SOL     OW15541   1.991   6.919   6.886
 4881SOL    HW115542   2.042   6.862   6.822
 4881SOL    HW215543   1.921   6.970   6.836
 4882SOL     OW15544   5.712   1.850   3.972
 4882SOL    HW115545   5.761   1.875   4.055
 4882SOL    HW215546   5.638   1.787   3.995
 4883SOL     OW15547   5.123   4.928   2.328
 4883SOL    HW115548   5.024   4.931   2.347
 4883SOL    HW215549   5.168   4.872   2.397
 4884SOL     OW15550   4.008   0.346   1.038
 4884SOL    HW115551   3.935   0.415   1.042
 4884SOL    HW215552   4.096   0.390   1.053
 4885SOL     OW15553   2.850   5.994   1.818
 4885SOL    HW115554   2.764   6.044   1.806
 4885SOL    HW215555   2.874   5.992   1.915
 4886SOL     OW15556   6.415   5.798   6.304
 4886SOL    HW115557   6.330   5.789   6.253
 4886SOL    HW215558   6.426   5.720   6.365
 4887SOL     OW15559   7.003   0.638   3.167
 4887SOL    HW115560   0.065   0.685   3.192
 4887SOL    HW215561   7.013   0.599   3.075
 4888SOL     OW15562   1.907   6.526   4.692
 4888SOL    HW115563   1.899   6.426   4.698
 4888SOL    HW215564   1.823   6.563   4.651
 4889SOL     OW15565   6.343   0.550   6.543
 4889SOL    HW115566   6.382   0.485   6.608
 4889SOL    HW215567   6.288   0.501   6.475
 4890SOL     OW15568   0.719   2.079   5.684
 4890SOL    HW115569   0.688   2.104   5.593
 4890SOL    HW215570   0.641   2.054   5.741
 4891SOL     OW15571   1.373   5.980   0.875
 4891SOL    HW115572   1.332   6.029   0.798
 4891SOL    HW215573   1.312   5.906   0.904
 4892SOL     OW15574   2.465   6.430   1.906
 4892SOL    HW115575   2.419   6.494   1.844
 4892SOL    HW215576   2.433   6.338   1.887
 4893SOL     OW15577   6.937   4.155   0.556
 4893SOL    HW115578   7.018   4.170   0.613
 4893SOL    HW215579   6.903   4.062   0.569
 4894SOL     OW15580   2.012   2.347   2.033
 4894SOL    HW115581   1.963   2.429   2.060
 4894SOL    HW215582   2.106   2.370   2.008
 4895SOL     OW15583   0.417   4.550   2.661
 4895SOL    HW115584   0.360   4.538   2.579
 4895SOL    HW215585   0.446   4.461   2.694
 4896SOL     OW15586   2.298   5.087   1.856
 4896SOL    HW115587   2.344   5.062   1.771
 4896SOL    HW215588   2.315   5.016   1.924
 4897SOL     OW15589   2.652   5.022   5.500
 4897SOL    HW115590   2.577   4.958   5.518
 4897SOL    HW215591   2.616   5.114   5.490
 4898SOL     OW15592   4.793   0.909   4.591
 4898SOL    HW115593   4.801   0.818   4.552
 4898SOL    HW215594   4.696   0.935   4.596
 4899SOL     OW15595   6.255   4.975   3.495
 4899SOL    HW115596   6.355   4.976   3.503
 4899SOL    HW215597   6.226   5.052   3.438
 4900SOL     OW15598   1.753   5.774   5.053
 4900SOL    HW115599   1.668   5.755   5.004
 4900SOL    HW215600   1.782   5.867   5.034
 4901SOL     OW15601   2.885   6.558   5.442
 4901SOL    HW115602   2.875   6.578   5.540
 4901SOL    HW215603   2.950   6.622   5.401
 4902SOL     OW15604   2.545   2.574   4.962
 4902SOL    HW115605   2.540   2.588   5.061
 4902SOL    HW215606   2.611   2.639   4.923
 4903SOL     OW15607   2.836   6.608   6.509
 4903SOL    HW115608   2.764   6.644   6.568
 4903SOL    HW215609   2.921   6.601   6.560
 4904SOL     OW15610   0.967   0.383   3.937
 4904SOL    HW115611   0.947   0.473   3.976
 4904SOL    HW215612   1.018   0.328   4.005
 4905SOL     OW15613   4.080   1.163   2.271
 4905SOL    HW115614   4.141   1.236   2.241
 4905SOL    HW215615   3.985   1.196   2.269
 4906SOL     OW15616   3.858   1.494   6.767
 4906SOL    HW115617   3.906   1.523   6.684
 4906SOL    HW215618   3.862   1.394   6.774
 4907SOL     OW15619   5.011   6.087   1.224
 4907SOL    HW115620   5.002   6.145   1.304
 4907SOL    HW215621   5.055   6.138   1.150
 4908SOL     OW15622   5.272   4.900   6.328
 4908SOL    HW115623   5.204   4.951   6.276
 4908SOL    HW215624   5.236   4.809   6.350
 4909SOL     OW15625   6.772   0.381   5.275
 4909SOL    HW115626   6.840   0.410   5.342
 4909SOL    HW215627   6.754   0.284   5.286
 4910SOL     OW15628   5.193   6.706   4.632
 4910SOL    HW115629   5.188   6.751   4.543
 4910SOL    HW215630   5.103   6.668   4.654
 4911SOL     OW15631   6.738   2.874   5.499
 4911SOL    HW115632   6.673   2.861   5.574
 4911SOL    HW215633   6.689   2.871   5.412
 4912SOL     OW15634   5.423   2.626   1.393
 4912SOL    HW115635   5.495   2.571   1.351
 4912SOL    HW215636   5.339   2.572   1.398
 4913SOL     OW15637   4.000   3.617   3.669
 4913SOL    HW115638   3.999   3.650   3.575
 4913SOL    HW215639   3.950   3.682   3.727
 4914SOL     OW15640   2.855   6.737   5.007
 4914SOL    HW115641   2.828   6.813   5.066
 4914SOL    HW215642   2.819   6.652   5.043
 4915SOL     OW15643   4.133   0.364   4.445
 4915SOL    HW115644   4.167   0.307   4.520
 4915SOL    HW215645   4.210   0.391   4.387
 4916SOL     OW15646   2.009   1.489   3.641
 4916SOL    HW115647   1.961   1.474   3.554
 4916SOL    HW215648   1.967   1.566   3.690
 4917SOL     OW15649   1.451   4.767   0.718
 4917SOL    HW115650   1.480   4.675   0.745
 4917SOL    HW215651   1.374   4.796   0.774
 4918SOL     OW15652   2.539   6.885   2.685
 4918SOL    HW115653   2.612   6.858   2.749
 4918SOL    HW215654   2.471   6.812   2.681
 4919SOL     OW15655   1.876   1.621   0.303
 4919SOL    HW115656   1.843   1.687   0.371
 4919SOL    HW215657   1.846   1.650   0.212
 4920SOL     OW15658   4.933   0.498   6.139
 4920SOL    HW115659   4.884   0.469   6.056
 4920SOL    HW215660   5.018   0.447   6.146
 4921SOL     OW15661   1.843   4.328   1.178
 4921SOL    HW115662   1.763   4.312   1.236
 4921SOL    HW215663   1.813   4.363   1.089
 4922SOL     OW15664   1.963   3.077   4.878
 4922SOL    HW115665   1.912   3.108   4.798
 4922SOL    HW215666   2.011   3.154   4.919
 4923SOL     OW15667   3.239   1.236   0.637
 4923SOL    HW115668   3.302   1.278   0.702
 4923SOL    HW215669   3.146   1.235   0.675
 4924SOL     OW15670   2.034   2.551   6.139
 4924SOL    HW115671   2.030   2.464   6.090
 4924SOL    HW215672   1.970   2.548   6.216
 4925SOL     OW15673   5.706   6.531   1.167
 4925SOL    HW115674   5.611   6.539   1.138
 4925SOL    HW215675   5.715   6.451   1.226
 4926SOL     OW15676   4.968   2.574   0.972
 4926SOL    HW115677   5.053   2.528   1.000
 4926SOL    HW215678   4.906   2.579   1.050
 4927SOL     OW15679   3.922   3.809   4.292
 4927SOL    HW115680   3.937   3.711   4.303
 4927SOL    HW215681   3.975   3.859   4.361
 4928SOL     OW15682   0.257   0.315   6.705
 4928SOL    HW115683   0.328   0.273   6.649
 4928SOL    HW215684   0.262   0.278   6.798
 4929SOL     OW15685   1.627   4.386   5.012
 4929SOL    HW115686   1.628   4.297   4.965
 4929SOL    HW215687   1.534   4.422   5.014
 4930SOL     OW15688   5.866   0.636   2.111
 4930SOL    HW115689   5.928   0.575   2.062
 4930SOL    HW215690   5.771   0.612   2.089
 4931SOL     OW15691   6.815   6.912   1.481
 4931SOL    HW115692   6.747   6.970   1.436
 4931SOL    HW215693   6.873   6.969   1.539
 4932SOL     OW15694   2.036   2.708   1.730
 4932SOL    HW115695   2.072   2.759   1.809
 4932SOL    HW215696   2.108   2.701   1.661
 4933SOL     OW15697   2.639   6.529   3.850
 4933SOL    HW115698   2.711   6.469   3.885
 4933SOL    HW215699   2.581   6.478   3.786
 4934SOL     OW15700   1.765   4.927   2.830
 4934SOL    HW115701   1.749   4.931   2.929
 4934SOL    HW215702   1.762   4.832   2.800
 4935SOL     OW15703   1.097   1.436   6.743
 4935SOL    HW115704   1.189   1.418   6.708
 4935SOL    HW215705   1.096   1.427   6.842
 4936SOL     OW15706   2.392   5.255   2.115
 4936SOL    HW115707   2.396   5.333   2.177
 4936SOL    HW215708   2.394   5.288   2.020
 4937SOL     OW15709   6.681   3.136   5.774
 4937SOL    HW115710   6.763   3.084   5.750
 4937SOL    HW215711   6.621   3.142   5.695
 4938SOL     OW15712   2.510   5.466   0.441
 4938SOL    HW115713   2.567   5.403   0.388
 4938SOL    HW215714   2.568   5.526   0.495
 4939SOL     OW15715   0.947   1.617   4.328
 4939SOL    HW115716   0.948   1.717   4.330
 4939SOL    HW215717   1.040   1.583   4.308
 4940SOL     OW15718   0.742   1.193   5.744
 4940SOL    HW115719   0.741   1.119   5.811
 4940SOL    HW215720   0.715   1.279   5.788
 4941SOL     OW15721   4.379   2.345   5.308
 4941SOL    HW115722   4.388   2.338   5.408
 4941SOL    HW215723   4.397   2.439   5.279
 4942SOL     OW15724   5.392   3.105   5.097
 4942SOL    HW115725   5.352   3.052   5.022
 4942SOL    HW215726   5.492   3.101   5.090
 4943SOL     OW15727   5.217   4.252   5.615
 4943SOL    HW115728   5.131   4.270   5.662
 4943SOL    HW215729   5.249   4.160   5.638
 4944SOL     OW15730   2.487   4.347   1.697
 4944SOL    HW115731   2.544   4.428   1.692
 4944SOL    HW215732   2.422   4.347   1.621
 4945SOL     OW15733   1.122   6.732   5.067
 4945SOL    HW115734   1.205   6.787   5.064
 4945SOL    HW215735   1.062   6.757   4.991
 4946SOL     OW15736   0.982   5.332   0.026
 4946SOL    HW115737   0.928   5.313   6.967
 4946SOL    HW215738   0.963   5.262   0.095
 4947SOL     OW15739   2.504   0.342   0.891
 4947SOL    HW115740   2.496   0.440   0.870
 4947SOL    HW215741   2.414   0.299   0.882
 4948SOL     OW15742   2.037   2.368   2.407
 4948SOL    HW115743   2.082   2.410   2.486
 4948SOL    HW215744   1.942   2.348   2.430
 4949SOL     OW15745   6.520   4.115   5.556
 4949SOL    HW115746   6.506   4.159   5.644
 4949SOL    HW215747   6.516   4.016   5.567
 4950SOL     OW15748   1.967   4.501   5.164
 4950SOL    HW115749   1.992   4.535   5.073
 4950SOL    HW215750   1.976   4.401   5.166
 4951SOL     OW15751   6.276   0.992   4.394
 4951SOL    HW115752   6.209   0.982   4.321
 4951SOL    HW215753   6.334   0.910   4.399
 4952SOL     OW15754   0.063   0.122   6.512
 4952SOL    HW115755   0.118   0.185   6.567
 4952SOL    HW215756   0.106   0.032   6.510
 4953SOL     OW15757   1.353   6.982   3.796
 4953SOL    HW115758   1.256   6.997   3.812
 4953SOL    HW215759   1.406   0.035   3.833
 4954SOL     OW15760   2.913   3.180   0.027
 4954SOL    HW115761   2.931   3.196   6.953
 4954SOL    HW215762   2.815   3.180   0.044
 4955SOL     OW15763   2.761   6.656   7.017
 4955SOL    HW115764   2.689   6.592   0.021
 4955SOL    HW215765   2.832   6.656   0.065
 4956SOL     OW15766   2.927   6.947   5.510
 4956SOL    HW115767   2.931   6.998   5.424
 4956SOL    HW215768   2.833   6.916   5.525
 4957SOL     OW15769   6.051   2.539   1.595
 4957SOL    HW115770   6.017   2.446   1.584
 4957SOL    HW215771   6.124   2.557   1.529
 4958SOL     OW15772   0.939   5.296   6.049
 4958SOL    HW115773   1.029   5.314   6.089
 4958SOL    HW215774   0.874   5.273   6.122
 4959SOL     OW15775   6.328   1.878   0.550
 4959SOL    HW115776   6.417   1.838   0.574
 4959SOL    HW215777   6.285   1.914   0.632
 4960SOL     OW15778   3.889   4.866   3.612
 4960SOL    HW115779   3.790   4.865   3.622
 4960SOL    HW215780   3.932   4.890   3.699
 4961SOL     OW15781   3.677   0.820   5.678
 4961SOL    HW115782   3.690   0.724   5.703
 4961SOL    HW215783   3.758   0.854   5.630
 4962SOL     OW15784   6.124   2.737   0.619
 4962SOL    HW115785   6.042   2.713   0.672
 4962SOL    HW215786   6.142   2.835   0.629
 4963SOL     OW15787   0.518   5.896   0.494
 4963SOL    HW115788   0.423   5.899   0.525
 4963SOL    HW215789   0.528   5.956   0.414
 4964SOL     OW15790   2.273   0.175   4.920
 4964SOL    HW115791   2.203   0.243   4.943
 4964SOL    HW215792   2.304   0.190   4.826
 4965SOL     OW15793   1.058   0.196   2.076
 4965SOL    HW115794   1.049   0.099   2.053
 4965SOL    HW215795   1.102   0.244   2.000
 4966SOL     OW15796   2.765   6.460   5.070
 4966SOL    HW115797   2.852   6.439   5.114
 4966SOL    HW215798   2.728   6.377   5.028
 4967SOL     OW15799   3.847   4.754   5.455
 4967SOL    HW115800   3.784   4.792   5.523
 4967SOL    HW215801   3.927   4.715   5.501
 4968SOL     OW15802   0.046   1.175   3.537
 4968SOL    HW115803   0.026   1.201   3.443
 4968SOL    HW215804   6.992   1.124   3.576
 4969SOL     OW15805   1.754   6.024   2.836
 4969SOL    HW115806   1.803   5.963   2.899
 4969SOL    HW215807   1.688   5.970   2.783
 4970SOL     OW15808   2.748   1.956   1.444
 4970SOL    HW115809   2.711   2.036   1.491
 4970SOL    HW215810   2.768   1.884   1.510
 4971SOL     OW15811   6.023   5.410   2.800
 4971SOL    HW115812   6.014   5.310   2.793
 4971SOL    HW215813   6.120   5.434   2.806
 4972SOL     OW15814   1.011   3.363   1.385
 4972SOL    HW115815   0.988   3.322   1.473
 4972SOL    HW215816   1.094   3.417   1.394
 4973SOL     OW15817   1.664   0.198   1.876
 4973SOL    HW115818   1.632   0.291   1.857
 4973SOL    HW215819   1.587   0.143   1.910
 4974SOL     OW15820   6.941   4.606   0.733
 4974SOL    HW115821   6.910   4.539   0.666
 4974SOL    HW215822   6.861   4.653   0.772
 4975SOL     OW15823   6.153   4.007   5.759
 4975SOL    HW115824   6.123   3.935   5.696
 4975SOL    HW215825   6.157   3.969   5.852
 4976SOL     OW15826   2.238   1.866   4.029
 4976SOL    HW115827   2.296   1.812   4.090
 4976SOL    HW215828   2.229   1.820   3.941
 4977SOL     OW15829   4.880   5.065   0.040
 4977SOL    HW115830   4.842   4.985   7.017
 4977SOL    HW215831   4.896   5.044   0.136
 4978SOL     OW15832   6.538   4.562   5.168
 4978SOL    HW115833   6.494   4.626   5.231
 4978SOL    HW215834   6.634   4.587   5.155
 4979SOL     OW15835   6.560   6.835   5.659
 4979SOL    HW115836   6.622   6.760   5.634
 4979SOL    HW215837   6.466   6.807   5.642
 4980SOL     OW15838   5.502   5.522   3.222
 4980SOL    HW115839   5.461   5.443   3.268
 4980SOL    HW215840   5.601   5.508   3.214
 4981SOL     OW15841   3.923   4.882   1.030
 4981SOL    HW115842   3.976   4.956   0.989
 4981SOL    HW215843   3.825   4.899   1.013
 4982SOL     OW15844   3.249   1.369   5.914
 4982SOL    HW115845   3.231   1.347   5.819
 4982SOL    HW215846   3.337   1.416   5.922
 4983SOL     OW15847   6.425   3.673   5.866
 4983SOL    HW115848   6.508   3.725   5.886
 4983SOL    HW215849   6.443   3.575   5.876
 4984SOL     OW15850   5.812   4.393   3.313
 4984SOL    HW115851   5.828   4.465   3.379
 4984SOL    HW215852   5.777   4.311   3.360
 4985SOL     OW15853   5.896   0.028   2.979
 4985SOL    HW115854   5.864   6.993   2.903
 4985SOL    HW215855   5.867   0.122   2.964
 4986SOL     OW15856   0.344   5.029   1.150
 4986SOL    HW115857   0.252   5.060   1.175
 4986SOL    HW215858   0.357   5.036   1.051
 4987SOL     OW15859   0.574   6.503   2.555
 4987SOL    HW115860   0.570   6.574   2.624
 4987SOL    HW215861   0.650   6.440   2.576
 4988SOL     OW15862   5.241   0.858   2.863
 4988SOL    HW115863   5.158   0.835   2.811
 4988SOL    HW215864   5.220   0.862   2.960
 4989SOL     OW15865   5.282   6.588   1.529
 4989SOL    HW115866   5.201   6.597   1.472
 4989SOL    HW215867   5.318   6.495   1.523
 4990SOL     OW15868   2.670   2.196   5.990
 4990SOL    HW115869   2.637   2.288   6.011
 4990SOL    HW215870   2.595   2.142   5.953
 4991SOL     OW15871   6.537   5.426   3.782
 4991SOL    HW115872   6.476   5.412   3.860
 4991SOL    HW215873   6.502   5.376   3.703
 4992SOL     OW15874   4.689   0.698   1.828
 4992SOL    HW115875   4.777   0.744   1.820
 4992SOL    HW215876   4.691   0.635   1.905
 4993SOL     OW15877   3.710   6.005   4.960
 4993SOL    HW115878   3.762   6.013   5.045
 4993SOL    HW215879   3.617   5.976   4.980
 4994SOL     OW15880   1.576   0.322   4.484
 4994SOL    HW115881   1.525   0.240   4.507
 4994SOL    HW215882   1.653   0.332   4.547
 4995SOL     OW15883   0.630   1.898   5.344
 4995SOL    HW115884   0.601   1.988   5.312
 4995SOL    HW215885   0.564   1.862   5.409
 4996SOL     OW15886   0.455   1.310   3.096
 4996SOL    HW115887   0.453   1.216   3.129
 4996SOL    HW215888   0.399   1.368   3.155
 4997SOL     OW15889   4.637   2.664   2.330
 4997SOL    HW115890   4.708   2.603   2.365
 4997SOL    HW215891   4.549   2.641   2.370
 4998SOL     OW15892   2.188   3.461   5.095
 4998SOL    HW115893   2.249   3.420   5.163
 4998SOL    HW215894   2.209   3.558   5.085
 4999SOL     OW15895   6.705   3.683   6.161
 4999SOL    HW115896   6.804   3.679   6.174
 4999SOL    HW215897   6.678   3.777   6.142
 5000SOL     OW15898   3.611   6.673   3.156
 5000SOL    HW115899   3.553   6.739   3.109
 5000SOL    HW215900   3.652   6.610   3.090
 5001SOL     OW15901   0.465   4.203   2.129
 5001SOL    HW115902   0.530   4.158   2.191
 5001SOL    HW215903   0.382   4.227   2.180
 5002SOL     OW15904   1.033   3.261   1.999
 5002SOL    HW115905   0.964   3.331   2.016
 5002SOL    HW215906   1.068   3.271   1.906
 5003SOL     OW15907   3.209   5.251   2.507
 5003SOL    HW115908   3.210   5.218   2.601
 5003SOL    HW215909   3.137   5.204   2.456
 5004SOL     OW15910   2.933   5.033   5.428
 5004SOL    HW115911   2.863   5.079   5.483
 5004SOL    HW215912   2.892   4.953   5.383
 5005SOL     OW15913   3.140   3.174   1.081
 5005SOL    HW115914   3.123   3.086   1.036
 5005SOL    HW215915   3.236   3.198   1.074
 5006SOL     OW15916   4.891   0.615   1.047
 5006SOL    HW115917   4.860   0.576   1.133
 5006SOL    HW215918   4.814   0.660   1.001
 5007SOL     OW15919   0.671   6.478   0.760
 5007SOL    HW115920   0.733   6.435   0.695
 5007SOL    HW215921   0.659   6.574   0.736
 5008SOL     OW15922   5.594   6.265   1.584
 5008SOL    HW115923   5.608   6.197   1.655
 5008SOL    HW215924   5.675   6.324   1.578
 5009SOL     OW15925   0.150   1.338   0.734
 5009SOL    HW115926   0.185   1.265   0.793
 5009SOL    HW215927   0.055   1.359   0.760
 5010SOL     OW15928   4.114   3.290   2.255
 5010SOL    HW115929   4.199   3.238   2.243
 5010SOL    HW215930   4.106   3.319   2.350
 5011SOL     OW15931   1.695   4.247   2.128
 5011SOL    HW115932   1.696   4.292   2.217
 5011SOL    HW215933   1.601   4.236   2.097
 5012SOL     OW15934   5.783   3.948   5.592
 5012SOL    HW115935   5.708   3.972   5.654
 5012SOL    HW215936   5.829   4.031   5.561
 5013SOL     OW15937   5.084   1.479   6.913
 5013SOL    HW115938   5.029   1.398   6.930
 5013SOL    HW215939   5.176   1.452   6.885
 5014SOL     OW15940   6.303   4.417   1.295
 5014SOL    HW115941   6.295   4.468   1.210
 5014SOL    HW215942   6.392   4.371   1.298
 5015SOL     OW15943   4.682   1.752   4.488
 5015SOL    HW115944   4.693   1.692   4.567
 5015SOL    HW215945   4.718   1.707   4.407
 5016SOL     OW15946   1.191   2.947   6.604
 5016SOL    HW115947   1.283   2.911   6.585
 5016SOL    HW215948   1.161   2.915   6.694
 5017SOL     OW15949   2.453   2.989   0.794
 5017SOL    HW115950   2.424   2.900   0.761
 5017SOL    HW215951   2.393   3.060   0.759
 5018SOL     OW15952   1.096   3.761   2.304
 5018SOL    HW115953   1.026   3.733   2.369
 5018SOL    HW215954   1.062   3.750   2.211
 5019SOL     OW15955   1.131   4.911   5.853
 5019SOL    HW115956   1.105   4.965   5.773
 5019SOL    HW215957   1.092   4.952   5.935
 5020SOL     OW15958   5.599   0.267   6.696
 5020SOL    HW115959   5.644   0.277   6.607
 5020SOL    HW215960   5.616   0.349   6.751
 5021SOL     OW15961   0.475   1.276   0.182
 5021SOL    HW115962   0.482   1.226   0.269
 5021SOL    HW215963   0.536   1.233   0.115
 5022SOL     OW15964   1.546   0.971   0.402
 5022SOL    HW115965   1.571   0.877   0.425
 5022SOL    HW215966   1.497   0.972   0.315
 5023SOL     OW15967   0.185   3.424   1.540
 5023SOL    HW115968   0.099   3.471   1.558
 5023SOL    HW215969   0.203   3.357   1.611
 5024SOL     OW15970   6.410   5.497   1.778
 5024SOL    HW115971   6.462   5.458   1.853
 5024SOL    HW215972   6.425   5.596   1.775
 5025SOL     OW15973   3.951   1.358   2.673
 5025SOL    HW115974   4.027   1.298   2.700
 5025SOL    HW215975   3.869   1.334   2.725
 5026SOL     OW15976   5.950   6.054   5.398
 5026SOL    HW115977   5.931   6.098   5.310
 5026SOL    HW215978   5.882   6.084   5.466
 5027SOL     OW15979   0.232   6.231   1.602
 5027SOL    HW115980   0.198   6.187   1.519
 5027SOL    HW215981   0.233   6.330   1.589
 5028SOL     OW15982   0.100   2.108   2.380
 5028SOL    HW115983   0.093   2.114   2.480
 5028SOL    HW215984   0.051   2.184   2.339
 5029SOL     OW15985   6.538   2.231   1.861
 5029SOL    HW115986   6.515   2.324   1.890
 5029SOL    HW215987   6.633   2.229   1.829
 5030SOL     OW15988   6.739   6.625   0.166
 5030SOL    HW115989   6.725   6.653   0.261
 5030SOL    HW215990   6.830   6.654   0.135
 5031SOL     OW15991   6.177   0.212   5.735
 5031SOL    HW115992   6.277   0.217   5.741
 5031SOL    HW215993   6.147   0.117   5.742
 5032SOL     OW15994   1.975   2.160   6.944
 5032SOL    HW115995   1.927   2.146   0.008
 5032SOL    HW215996   2.063   2.205   6.961
 5033SOL     OW15997   2.269   6.762   5.372
 5033SOL    HW115998   2.242   6.726   5.461
 5033SOL    HW215999   2.215   6.718   5.301
 5034SOL     OW16000   5.826   0.360   3.595
 5034SOL    HW116001   5.904   0.397   3.544
 5034SOL    HW216002   5.741   0.385   3.549
 5035SOL     OW16003   0.932   3.350   6.991
 5035SOL    HW116004   1.032   3.356   6.991
 5035SOL    HW216005   0.894   3.426   6.939
 5036SOL     OW16006   0.658   5.046   6.472
 5036SOL    HW116007   0.719   5.001   6.538
 5036SOL    HW216008   0.605   4.977   6.423
 5037SOL     OW16009   5.859   4.098   2.354
 5037SOL    HW116010   5.867   4.121   2.451
 5037SOL    HW216011   5.789   4.027   2.342
 5038SOL     OW16012   3.591   3.909   6.153
 5038SOL    HW116013   3.623   3.826   6.107
 5038SOL    HW216014   3.491   3.907   6.160
 5039SOL     OW16015   2.875   4.512   5.794
 5039SOL    HW116016   2.873   4.432   5.854
 5039SOL    HW216017   2.934   4.494   5.716
 5040SOL     OW16018   1.540   6.175   5.730
 5040SOL    HW116019   1.625   6.135   5.764
 5040SOL    HW216020   1.467   6.107   5.730
 5041SOL     OW16021   2.214   1.841   2.666
 5041SOL    HW116022   2.182   1.932   2.692
 5041SOL    HW216023   2.288   1.850   2.599
 5042SOL     OW16024   6.722   2.751   0.169
 5042SOL    HW116025   6.800   2.717   0.115
 5042SOL    HW216026   6.653   2.679   0.176
 5043SOL     OW16027   3.196   0.109   6.015
 5043SOL    HW116028   3.182   0.010   6.025
 5043SOL    HW216029   3.258   0.141   6.087
 5044SOL     OW16030   0.270   6.634   6.949
 5044SOL    HW116031   0.300   6.646   6.854
 5044SOL    HW216032   0.233   6.542   6.961
 5045SOL     OW16033   4.809   0.480   6.618
 5045SOL    HW116034   4.853   0.434   6.540
 5045SOL    HW216035   4.879   0.526   6.673
 5046SOL     OW16036   3.332   4.079   2.697
 5046SOL    HW116037   3.311   4.122   2.610
 5046SOL    HW216038   3.426   4.102   2.723
 5047SOL     OW16039   0.810   4.067   2.308
 5047SOL    HW116040   0.877   4.139   2.286
 5047SOL    HW216041   0.784   4.075   2.404
 5048SOL     OW16042   0.866   1.776   2.634
 5048SOL    HW116043   0.941   1.750   2.574
 5048SOL    HW216044   0.823   1.693   2.671
 5049SOL     OW16045   5.338   2.144   5.921
 5049SOL    HW116046   5.283   2.225   5.943
 5049SOL    HW216047   5.417   2.172   5.867
 5050SOL     OW16048   1.439   1.610   1.284
 5050SOL    HW116049   1.506   1.546   1.320
 5050SOL    HW216050   1.431   1.688   1.347
 5051SOL     OW16051   4.773   4.838   0.947
 5051SOL    HW116052   4.712   4.830   1.026
 5051SOL    HW216053   4.794   4.934   0.930
 5052SOL     OW16054   2.181   1.173   6.310
 5052SOL    HW116055   2.187   1.211   6.217
 5052SOL    HW216056   2.093   1.199   6.351
 5053SOL     OW16057   2.153   3.774   3.419
 5053SOL    HW116058   2.162   3.811   3.511
 5053SOL    HW216059   2.132   3.677   3.423
 5054SOL     OW16060   3.723   5.411   5.321
 5054SOL    HW116061   3.699   5.330   5.267
 5054SOL    HW216062   3.787   5.384   5.394
 5055SOL     OW16063   2.149   1.949   5.926
 5055SOL    HW116064   2.220   1.996   5.979
 5055SOL    HW216065   2.066   1.941   5.981
 5056SOL     OW16066   6.704   4.295   6.625
 5056SOL    HW116067   6.654   4.256   6.548
 5056SOL    HW216068   6.704   4.229   6.701
 5057SOL     OW16069   6.734   5.699   4.153
 5057SOL    HW116070   6.656   5.755   4.129
 5057SOL    HW216071   6.784   5.674   4.070
 5058SOL     OW16072   2.792   3.266   5.828
 5058SOL    HW116073   2.837   3.262   5.739
 5058SOL    HW216074   2.695   3.288   5.815
 5059SOL     OW16075   5.768   1.232   3.875
 5059SOL    HW116076   5.746   1.316   3.826
 5059SOL    HW216077   5.768   1.249   3.973
 5060SOL     OW16078   0.984   1.971   5.659
 5060SOL    HW116079   0.981   1.909   5.580
 5060SOL    HW216080   0.892   2.005   5.678
 5061SOL     OW16081   4.191   2.232   1.720
 5061SOL    HW116082   4.173   2.300   1.650
 5061SOL    HW216083   4.109   2.222   1.778
 5062SOL     OW16084   4.881   1.092   3.349
 5062SOL    HW116085   4.970   1.051   3.372
 5062SOL    HW216086   4.855   1.065   3.256
 5063SOL     OW16087   1.173   6.537   2.063
 5063SOL    HW116088   1.101   6.506   2.000
 5063SOL    HW216089   1.146   6.516   2.157
 5064SOL     OW16090   5.063   4.019   1.559
 5064SOL    HW116091   4.976   4.056   1.590
 5064SOL    HW216092   5.076   4.040   1.462
 5065SOL     OW16093   1.823   0.395   3.851
 5065SOL    HW116094   1.906   0.385   3.906
 5065SOL    HW216095   1.816   0.318   3.787
 5066SOL     OW16096   4.691   4.949   2.093
 5066SOL    HW116097   4.622   4.882   2.119
 5066SOL    HW216098   4.657   5.004   2.017
 5067SOL     OW16099   4.878   0.821   1.605
 5067SOL    HW116100   4.938   0.818   1.685
 5067SOL    HW216101   4.810   0.893   1.618
 5068SOL     OW16102   3.363   4.918   0.032
 5068SOL    HW116103   3.382   4.905   6.958
 5068SOL    HW216104   3.373   5.015   0.056
 5069SOL     OW16105   2.208   3.547   5.663
 5069SOL    HW116106   2.175   3.599   5.584
 5069SOL    HW216107   2.306   3.531   5.653
 5070SOL     OW16108   4.692   4.969   4.071
 5070SOL    HW116109   4.693   4.971   3.971
 5070SOL    HW216110   4.750   4.896   4.104
 5071SOL     OW16111   4.157   2.063   3.244
 5071SOL    HW116112   4.120   2.124   3.315
 5071SOL    HW216113   4.082   2.027   3.189
 5072SOL     OW16114   1.196   0.163   1.304
 5072SOL    HW116115   1.286   0.155   1.347
 5072SOL    HW216116   1.187   0.094   1.233
 5073SOL     OW16117   0.177   5.768   1.785
 5073SOL    HW116118   0.176   5.673   1.816
 5073SOL    HW216119   0.268   5.807   1.801
 5074SOL     OW16120   3.139   2.901   1.096
 5074SOL    HW116121   3.200   2.895   1.176
 5074SOL    HW216122   3.047   2.876   1.124
 5075SOL     OW16123   1.059   1.757   6.369
 5075SOL    HW116124   0.985   1.787   6.431
 5075SOL    HW216125   1.073   1.826   6.299
 5076SOL     OW16126   4.196   1.172   0.867
 5076SOL    HW116127   4.133   1.216   0.803
 5076SOL    HW216128   4.266   1.237   0.894
 5077SOL     OW16129   1.941   4.735   5.551
 5077SOL    HW116130   2.035   4.770   5.546
 5077SOL    HW216131   1.877   4.811   5.557
 5078SOL     OW16132   1.284   0.618   4.072
 5078SOL    HW116133   1.269   0.537   4.016
 5078SOL    HW216134   1.235   0.608   4.159
 5079SOL     OW16135   2.247   3.209   6.487
 5079SOL    HW116136   2.275   3.139   6.420
 5079SOL    HW216137   2.221   3.292   6.438
 5080SOL     OW16138   6.012   6.789   6.068
 5080SOL    HW116139   6.078   6.727   6.027
 5080SOL    HW216140   5.954   6.829   5.997
 5081SOL     OW16141   2.933   3.289   4.863
 5081SOL    HW116142   2.894   3.244   4.783
 5081SOL    HW216143   2.970   3.378   4.836
 5082SOL     OW16144   4.673   5.852   0.629
 5082SOL    HW116145   4.638   5.764   0.597
 5082SOL    HW216146   4.647   5.924   0.564
 5083SOL     OW16147   2.065   6.738   2.537
 5083SOL    HW116148   2.049   6.796   2.458
 5083SOL    HW216149   2.048   6.642   2.512
 5084SOL     OW16150   0.402   4.741   4.641
 5084SOL    HW116151   0.327   4.676   4.651
 5084SOL    HW216152   0.366   4.833   4.630
 5085SOL     OW16153   4.958   3.009   6.985
 5085SOL    HW116154   4.990   3.005   6.890
 5085SOL    HW216155   4.929   2.918   7.014
 5086SOL     OW16156   1.057   5.647   3.243
 5086SOL    HW116157   1.006   5.565   3.219
 5086SOL    HW216158   1.031   5.678   3.334
 5087SOL     OW16159   1.368   5.303   2.382
 5087SOL    HW116160   1.314   5.256   2.313
 5087SOL    HW216161   1.344   5.267   2.473
 5088SOL     OW16162   6.830   1.081   5.128
 5088SOL    HW116163   6.808   1.039   5.040
 5088SOL    HW216164   6.867   1.172   5.113
 5089SOL     OW16165   4.945   3.929   4.389
 5089SOL    HW116166   4.946   4.029   4.394
 5089SOL    HW216167   4.942   3.901   4.293
 5090SOL     OW16168   2.111   3.937   2.425
 5090SOL    HW116169   2.131   3.850   2.470
 5090SOL    HW216170   2.014   3.957   2.435
 5091SOL     OW16171   0.758   0.023   2.610
 5091SOL    HW116172   0.753   0.050   2.513
 5091SOL    HW216173   0.752   0.105   2.667
 5092SOL     OW16174   3.660   3.471   1.716
 5092SOL    HW116175   3.703   3.392   1.759
 5092SOL    HW216176   3.568   3.483   1.752
 5093SOL     OW16177   2.640   1.264   1.603
 5093SOL    HW116178   2.555   1.301   1.566
 5093SOL    HW216179   2.630   1.166   1.620
 5094SOL     OW16180   2.285   5.600   5.669
 5094SOL    HW116181   2.298   5.697   5.690
 5094SOL    HW216182   2.237   5.591   5.582
 5095SOL     OW16183   5.818   2.431   4.796
 5095SOL    HW116184   5.746   2.378   4.750
 5095SOL    HW216185   5.790   2.451   4.890
 5096SOL     OW16186   4.191   4.434   0.534
 5096SOL    HW116187   4.231   4.508   0.588
 5096SOL    HW216188   4.142   4.371   0.594
 5097SOL     OW16189   1.332   0.774   6.931
 5097SOL    HW116190   1.353   0.786   6.834
 5097SOL    HW216191   1.235   0.790   6.946
 5098SOL     OW16192   1.523   0.897   1.773
 5098SOL    HW116193   1.550   0.817   1.828
 5098SOL    HW216194   1.482   0.866   1.688
 5099SOL     OW16195   0.640   6.185   7.009
 5099SOL    HW116196   0.571   6.114   6.995
 5099SOL    HW216197   0.731   6.143   7.013
 5100SOL     OW16198   4.021   5.605   5.718
 5100SOL    HW116199   4.107   5.555   5.728
 5100SOL    HW216200   4.036   5.688   5.664
 5101SOL     OW16201   4.920   6.188   0.187
 5101SOL    HW116202   4.980   6.267   0.199
 5101SOL    HW216203   4.825   6.219   0.182
 5102SOL     OW16204   4.932   0.564   4.290
 5102SOL    HW116205   4.860   0.601   4.348
 5102SOL    HW216206   4.974   0.485   4.336
 5103SOL     OW16207   6.955   2.074   4.012
 5103SOL    HW116208   6.959   2.092   3.914
 5103SOL    HW216209   0.007   2.013   4.038
 5104SOL     OW16210   1.707   6.466   2.773
 5104SOL    HW116211   1.754   6.544   2.814
 5104SOL    HW216212   1.682   6.488   2.679
 5105SOL     OW16213   3.597   3.090   0.630
 5105SOL    HW116214   3.653   3.007   0.626
 5105SOL    HW216215   3.505   3.067   0.661
 5106SOL     OW16216   3.263   1.007   0.299
 5106SOL    HW116217   3.166   1.004   0.325
 5106SOL    HW216218   3.273   0.982   0.203
 5107SOL     OW16219   3.223   0.732   0.425
 5107SOL    HW116220   3.233   0.633   0.421
 5107SOL    HW216221   3.313   0.774   0.440
 5108SOL     OW16222   3.097   3.798   4.675
 5108SOL    HW116223   3.026   3.800   4.605
 5108SOL    HW216224   3.128   3.892   4.694
 5109SOL     OW16225   1.415   0.696   0.749
 5109SOL    HW116226   1.485   0.750   0.795
 5109SOL    HW216227   1.339   0.756   0.721
 5110SOL     OW16228   0.395   0.752   6.536
 5110SOL    HW116229   0.345   0.702   6.607
 5110SOL    HW216230   0.492   0.756   6.561
 5111SOL     OW16231   2.769   1.821   5.711
 5111SOL    HW116232   2.680   1.829   5.667
 5111SOL    HW216233   2.759   1.775   5.799
 5112SOL     OW16234   1.068   0.025   3.007
 5112SOL    HW116235   1.135   0.074   3.064
 5112SOL    HW216236   1.051   6.958   3.047
 5113SOL     OW16237   2.225   6.358   1.392
 5113SOL    HW116238   2.306   6.378   1.447
 5113SOL    HW216239   2.229   6.410   1.306
 5114SOL     OW16240   3.469   1.720   0.055
 5114SOL    HW116241   3.452   1.667   0.138
 5114SOL    HW216242   3.516   1.663   7.011
 5115SOL     OW16243   2.246   4.968   4.327
 5115SOL    HW116244   2.265   5.018   4.243
 5115SOL    HW216245   2.332   4.945   4.373
 5116SOL     OW16246   6.095   6.847   6.827
 5116SOL    HW116247   6.147   6.933   6.837
 5116SOL    HW216248   6.006   6.857   6.872
 5117SOL     OW16249   2.873   4.835   4.881
 5117SOL    HW116250   2.847   4.764   4.946
 5117SOL    HW216251   2.863   4.799   4.788
 5118SOL     OW16252   5.119   0.536   0.220
 5118SOL    HW116253   5.201   0.479   0.227
 5118SOL    HW216254   5.046   0.484   0.177
 5119SOL     OW16255   5.360   0.581   1.798
 5119SOL    HW116256   5.322   0.511   1.738
 5119SOL    HW216257   5.291   0.610   1.864
 5120SOL     OW16258   3.947   1.604   4.168
 5120SOL    HW116259   3.981   1.529   4.111
 5120SOL    HW216260   3.965   1.691   4.122
 5121SOL     OW16261   2.709   2.105   6.897
 5121SOL    HW116262   2.730   2.166   6.821
 5121SOL    HW216263   2.726   2.010   6.870
 5122SOL     OW16264   3.043   0.218   3.074
 5122SOL    HW116265   2.994   0.239   2.989
 5122SOL    HW216266   3.010   0.278   3.147
 5123SOL     OW16267   5.681   1.532   5.402
 5123SOL    HW116268   5.686   1.452   5.342
 5123SOL    HW216269   5.660   1.502   5.495
 5124SOL     OW16270   3.082   5.095   4.652
 5124SOL    HW116271   3.120   5.121   4.740
 5124SOL    HW216272   3.038   5.006   4.659
 5125SOL     OW16273   6.779   3.375   4.076
 5125SOL    HW116274   6.739   3.291   4.040
 5125SOL    HW216275   6.803   3.436   4.000
 5126SOL     OW16276   5.965   5.537   5.932
 5126SOL    HW116277   5.979   5.446   5.972
 5126SOL    HW216278   5.876   5.540   5.887
 5127SOL     OW16279   0.582   3.786   0.494
 5127SOL    HW116280   0.620   3.694   0.502
 5127SOL    HW216281   0.653   3.849   0.464
 5128SOL     OW16282   6.905   0.403   6.945
 5128SOL    HW116283   6.987   0.382   7.000
 5128SOL    HW216284   6.891   0.331   6.878
 5129SOL     OW16285   4.401   0.409   3.069
 5129SOL    HW116286   4.351   0.335   3.114
 5129SOL    HW216287   4.445   0.374   2.986
 5130SOL     OW16288   1.748   5.322   4.100
 5130SOL    HW116289   1.717   5.402   4.153
 5130SOL    HW216290   1.688   5.310   4.021
 5131SOL     OW16291   2.635   5.017   3.994
 5131SOL    HW116292   2.698   5.076   4.045
 5131SOL    HW216293   2.654   5.024   3.896
 5132SOL     OW16294   3.723   1.830   6.419
 5132SOL    HW116295   3.653   1.853   6.351
 5132SOL    HW216296   3.681   1.778   6.494
 5133SOL     OW16297   2.083   4.945   6.616
 5133SOL    HW116298   2.066   4.848   6.602
 5133SOL    HW216299   2.164   4.973   6.564
 5134SOL     OW16300   6.365   0.937   1.769
 5134SOL    HW116301   6.332   0.999   1.697
 5134SOL    HW216302   6.462   0.952   1.784
 5135SOL     OW16303   4.980   3.579   4.440
 5135SOL    HW116304   5.052   3.640   4.473
 5135SOL    HW216305   4.947   3.523   4.516
 5136SOL     OW16306   5.499   0.930   6.639
 5136SOL    HW116307   5.417   0.897   6.592
 5136SOL    HW216308   5.560   0.972   6.572
 5137SOL     OW16309   5.299   3.294   5.478
 5137SOL    HW116310   5.329   3.275   5.571
 5137SOL    HW216311   5.205   3.261   5.467
 5138SOL     OW16312   4.068   3.715   4.663
 5138SOL    HW116313   4.099   3.809   4.678
 5138SOL    HW216314   4.040   3.704   4.567
 5139SOL     OW16315   0.764   0.188   4.341
 5139SOL    HW116316   0.739   0.278   4.306
 5139SOL    HW216317   0.863   0.182   4.353
 5140SOL     OW16318   3.772   1.674   5.728
 5140SOL    HW116319   3.758   1.763   5.685
 5140SOL    HW216320   3.833   1.685   5.807
 5141SOL     OW16321   6.464   3.845   1.328
 5141SOL    HW116322   6.390   3.885   1.274
 5141SOL    HW216323   6.450   3.746   1.336
 5142SOL     OW16324   5.252   6.485   4.327
 5142SOL    HW116325   5.350   6.502   4.317
 5142SOL    HW216326   5.200   6.556   4.279
 5143SOL     OW16327   0.331   4.523   4.411
 5143SOL    HW116328   0.240   4.481   4.405
 5143SOL    HW216329   0.329   4.612   4.368
 5144SOL     OW16330   1.429   4.996   5.278
 5144SOL    HW116331   1.362   4.926   5.303
 5144SOL    HW216332   1.401   5.084   5.315
 5145SOL     OW16333   3.643   5.841   6.511
 5145SOL    HW116334   3.738   5.831   6.480
 5145SOL    HW216335   3.602   5.920   6.466
 5146SOL     OW16336   3.514   3.863   5.356
 5146SOL    HW116337   3.543   3.841   5.449
 5146SOL    HW216338   3.553   3.951   5.330
 5147SOL     OW16339   6.352   5.704   3.936
 5147SOL    HW116340   6.390   5.626   3.987
 5147SOL    HW216341   6.398   5.712   3.848
 5148SOL     OW16342   6.988   1.059   2.220
 5148SOL    HW116343   6.990   1.137   2.283
 5148SOL    HW216344   0.059   1.027   2.203
 5149SOL     OW16345   6.299   5.509   4.328
 5149SOL    HW116346   6.340   5.598   4.348
 5149SOL    HW216347   6.200   5.515   4.336
 5150SOL     OW16348   2.127   5.288   3.507
 5150SOL    HW116349   2.047   5.267   3.562
 5150SOL    HW216350   2.164   5.377   3.535
 5151SOL     OW16351   0.248   4.130   1.860
 5151SOL    HW116352   0.183   4.166   1.926
 5151SOL    HW216353   0.301   4.057   1.902
 5152SOL     OW16354   1.558   5.215   6.806
 5152SOL    HW116355   1.590   5.216   6.901
 5152SOL    HW216356   1.493   5.290   6.792
 5153SOL     OW16357   0.738   1.986   1.007
 5153SOL    HW116358   0.718   1.889   1.014
 5153SOL    HW216359   0.735   2.028   1.098
 5154SOL     OW16360   0.902   2.688   5.974
 5154SOL    HW116361   0.950   2.601   5.984
 5154SOL    HW216362   0.969   2.762   5.968
 5155SOL     OW16363   3.828   0.013   2.046
 5155SOL    HW116364   3.925   7.015   2.028
 5155SOL    HW216365   3.785   6.957   2.089
 5156SOL     OW16366   5.540   4.639   5.376
 5156SOL    HW116367   5.605   4.692   5.430
 5156SOL    HW216368   5.511   4.559   5.428
 5157SOL     OW16369   3.165   2.168   2.912
 5157SOL    HW116370   3.082   2.205   2.954
 5157SOL    HW216371   3.232   2.146   2.982
 5158SOL     OW16372   4.117   2.178   1.023
 5158SOL    HW116373   4.174   2.129   0.956
 5158SOL    HW216374   4.063   2.112   1.075
 5159SOL     OW16375   5.936   2.966   5.810
 5159SOL    HW116376   5.909   2.998   5.719
 5159SOL    HW216377   6.031   2.933   5.806
 5160SOL     OW16378   0.002   4.560   3.307
 5160SOL    HW116379   6.940   4.507   3.308
 5160SOL    HW216380   0.018   4.595   3.215
 5161SOL     OW16381   2.086   3.378   7.007
 5161SOL    HW116382   2.019   3.369   0.057
 5161SOL    HW216383   2.089   3.294   6.953
 5162SOL     OW16384   0.888   5.420   3.179
 5162SOL    HW116385   0.794   5.449   3.162
 5162SOL    HW216386   0.929   5.388   3.093
 5163SOL     OW16387   3.029   7.007   0.759
 5163SOL    HW116388   2.944   7.005   0.707
 5163SOL    HW216389   3.009   7.008   0.857
 5164SOL     OW16390   3.915   3.197   0.538
 5164SOL    HW116391   3.854   3.268   0.573
 5164SOL    HW216392   3.904   3.188   0.440
 5165SOL     OW16393   0.809   3.832   5.970
 5165SOL    HW116394   0.730   3.780   6.004
 5165SOL    HW216395   0.890   3.808   6.023
 5166SOL     OW16396   2.040   5.159   2.392
 5166SOL    HW116397   1.949   5.116   2.390
 5166SOL    HW216398   2.082   5.151   2.302
 5167SOL     OW16399   6.269   4.530   5.692
 5167SOL    HW116400   6.297   4.482   5.609
 5167SOL    HW216401   6.258   4.464   5.767
 5168SOL     OW16402   5.298   3.400   2.485
 5168SOL    HW116403   5.330   3.408   2.580
 5168SOL    HW216404   5.204   3.364   2.485
 5169SOL     OW16405   3.890   2.125   3.365
 5169SOL    HW116406   3.889   2.042   3.420
 5169SOL    HW216407   3.940   2.197   3.413
 5170SOL     OW16408   1.453   3.624   4.958
 5170SOL    HW116409   1.377   3.685   4.982
 5170SOL    HW216410   1.512   3.612   5.037
 5171SOL     OW16411   0.205   3.767   6.079
 5171SOL    HW116412   0.167   3.676   6.062
 5171SOL    HW216413   0.294   3.758   6.124
 5172SOL     OW16414   1.604   3.638   2.417
 5172SOL    HW116415   1.665   3.658   2.340
 5172SOL    HW216416   1.599   3.539   2.430
 5173SOL     OW16417   3.977   5.084   5.293
 5173SOL    HW116418   3.913   5.103   5.368
 5173SOL    HW216419   3.932   5.027   5.225
 5174SOL     OW16420   2.700   4.956   3.167
 5174SOL    HW116421   2.619   4.942   3.224
 5174SOL    HW216422   2.672   4.992   3.078
 5175SOL     OW16423   3.038   3.485   6.521
 5175SOL    HW116424   2.969   3.534   6.574
 5175SOL    HW216425   3.020   3.496   6.424
 5176SOL     OW16426   5.169   3.688   6.879
 5176SOL    HW116427   5.238   3.642   6.823
 5176SOL    HW216428   5.087   3.706   6.824
 5177SOL     OW16429   5.223   6.578   0.875
 5177SOL    HW116430   5.245   6.482   0.858
 5177SOL    HW216431   5.186   6.619   0.792
 5178SOL     OW16432   1.169   3.903   2.630
 5178SOL    HW116433   1.152   3.967   2.555
 5178SOL    HW216434   1.256   3.856   2.615
 5179SOL     OW16435   4.525   4.599   3.922
 5179SOL    HW116436   4.437   4.614   3.877
 5179SOL    HW216437   4.511   4.553   4.010
 5180SOL     OW16438   3.259   1.299   1.341
 5180SOL    HW116439   3.168   1.269   1.311
 5180SOL    HW216440   3.316   1.220   1.360
 5181SOL     OW16441   5.157   0.741   2.414
 5181SOL    HW116442   5.119   0.816   2.360
 5181SOL    HW216443   5.245   0.713   2.376
 5182SOL     OW16444   4.567   4.532   1.927
 5182SOL    HW116445   4.506   4.558   2.002
 5182SOL    HW216446   4.576   4.432   1.925
 5183SOL     OW16447   3.526   1.805   2.871
 5183SOL    HW116448   3.462   1.728   2.866
 5183SOL    HW216449   3.587   1.803   2.791
 5184SOL     OW16450   1.286   2.507   3.546
 5184SOL    HW116451   1.359   2.541   3.486
 5184SOL    HW216452   1.215   2.576   3.555
 5185SOL     OW16453   4.817   1.011   3.084
 5185SOL    HW116454   4.720   1.022   3.067
 5185SOL    HW216455   4.852   0.932   3.034
 5186SOL     OW16456   5.862   1.054   6.645
 5186SOL    HW116457   5.955   1.026   6.666
 5186SOL    HW216458   5.837   1.133   6.701
 5187SOL     OW16459   1.076   5.925   5.217
 5187SOL    HW116460   1.003   5.981   5.257
 5187SOL    HW216461   1.160   5.979   5.210
 5188SOL     OW16462   6.728   5.565   1.595
 5188SOL    HW116463   6.793   5.626   1.641
 5188SOL    HW216464   6.649   5.618   1.564
 5189SOL     OW16465   4.231   5.791   0.702
 5189SOL    HW116466   4.186   5.815   0.616
 5189SOL    HW216467   4.283   5.707   0.690
 5190SOL     OW16468   0.695   3.441   4.244
 5190SOL    HW116469   0.617   3.387   4.276
 5190SOL    HW216470   0.691   3.451   4.145
 5191SOL     OW16471   3.651   6.802   2.613
 5191SOL    HW116472   3.713   6.816   2.536
 5191SOL    HW216473   3.600   6.886   2.629
 5192SOL     OW16474   1.817   5.989   1.539
 5192SOL    HW116475   1.880   5.938   1.597
 5192SOL    HW216476   1.758   6.047   1.595
 5193SOL     OW16477   5.209   5.741   5.672
 5193SOL    HW116478   5.304   5.765   5.654
 5193SOL    HW216479   5.203   5.677   5.748
 5194SOL     OW16480   4.388   2.087   0.045
 5194SOL    HW116481   4.349   2.175   0.017
 5194SOL    HW216482   4.488   2.095   0.047
 5195SOL     OW16483   0.461   0.480   4.114
 5195SOL    HW116484   0.542   0.492   4.056
 5195SOL    HW216485   0.435   0.383   4.115
 5196SOL     OW16486   4.929   0.119   2.135
 5196SOL    HW116487   4.920   0.027   2.095
 5196SOL    HW216488   4.860   0.131   2.206
 5197SOL     OW16489   2.138   4.078   6.553
 5197SOL    HW116490   2.186   4.003   6.598
 5197SOL    HW216491   2.170   4.085   6.458
 5198SOL     OW16492   4.867   6.193   3.413
 5198SOL    HW116493   4.781   6.191   3.363
 5198SOL    HW216494   4.855   6.245   3.498
 5199SOL     OW16495   1.067   6.208   0.278
 5199SOL    HW116496   1.012   6.129   0.254
 5199SOL    HW216497   1.156   6.178   0.312
 5200SOL     OW16498   6.912   3.971   5.414
 5200SOL    HW116499   6.842   4.003   5.351
 5200SOL    HW216500   6.963   3.895   5.373
 5201SOL     OW16501   0.707   6.776   2.893
 5201SOL    HW116502   0.754   6.782   2.805
 5201SOL    HW216503   0.650   6.694   2.895
 5202SOL     OW16504   4.716   2.747   6.409
 5202SOL    HW116505   4.705   2.847   6.408
 5202SOL    HW216506   4.656   2.708   6.480
 5203SOL     OW16507   2.251   2.467   6.709
 5203SOL    HW116508   2.258   2.551   6.656
 5203SOL    HW216509   2.155   2.439   6.716
 5204SOL     OW16510   3.214   5.144   6.675
 5204SOL    HW116511   3.210   5.237   6.639
 5204SOL    HW216512   3.156   5.084   6.621
 5205SOL     OW16513   0.408   6.657   0.600
 5205SOL    HW116514   0.419   6.613   0.511
 5205SOL    HW216515   0.319   6.633   0.639
 5206SOL     OW16516   0.121   4.133   5.472
 5206SOL    HW116517   0.038   4.079   5.453
 5206SOL    HW216518   0.193   4.107   5.408
 5207SOL     OW16519   0.862   5.937   3.649
 5207SOL    HW116520   0.932   5.927   3.720
 5207SOL    HW216521   0.813   6.023   3.664
 5208SOL     OW16522   3.444   1.915   6.587
 5208SOL    HW116523   3.483   2.007   6.581
 5208SOL    HW216524   3.504   1.850   6.540
 5209SOL     OW16525   5.747   6.129   3.506
 5209SOL    HW116526   5.715   6.223   3.511
 5209SOL    HW216527   5.769   6.097   3.598
 5210SOL     OW16528   5.347   2.723   5.271
 5210SOL    HW116529   5.307   2.737   5.180
 5210SOL    HW216530   5.279   2.746   5.340
 5211SOL     OW16531   3.241   2.952   4.755
 5211SOL    HW116532   3.317   2.909   4.805
 5211SOL    HW216533   3.155   2.934   4.803
 5212SOL     OW16534   6.205   1.942   0.789
 5212SOL    HW116535   6.230   1.909   0.880
 5212SOL    HW216536   6.127   1.890   0.755
 5213SOL     OW16537   4.332   3.916   6.940
 5213SOL    HW116538   4.412   3.914   6.880
 5213SOL    HW216539   4.329   4.004   6.989
 5214SOL     OW16540   4.647   1.475   5.498
 5214SOL    HW116541   4.683   1.532   5.425
 5214SOL    HW216542   4.698   1.389   5.501
 5215SOL     OW16543   5.897   4.758   3.544
 5215SOL    HW116544   5.961   4.821   3.589
 5215SOL    HW216545   5.925   4.747   3.448
 5216SOL     OW16546   4.297   5.350   1.668
 5216SOL    HW116547   4.207   5.338   1.710
 5216SOL    HW216548   4.330   5.262   1.635
 5217SOL     OW16549   2.997   5.548   4.414
 5217SOL    HW116550   3.080   5.544   4.358
 5217SOL    HW216551   2.943   5.628   4.388
 5218SOL     OW16552   1.184   0.829   3.948
 5218SOL    HW116553   1.216   0.759   4.012
 5218SOL    HW216554   1.246   0.833   3.870
 5219SOL     OW16555   4.213   0.605   5.842
 5219SOL    HW116556   4.300   0.557   5.833
 5219SOL    HW216557   4.214   0.661   5.925
 5220SOL     OW16558   1.437   5.608   2.634
 5220SOL    HW116559   1.527   5.577   2.604
 5220SOL    HW216560   1.370   5.592   2.562
 5221SOL     OW16561   5.557   2.214   4.038
 5221SOL    HW116562   5.503   2.172   3.966
 5221SOL    HW216563   5.636   2.157   4.059
 5222SOL     OW16564   3.529   6.021   3.486
 5222SOL    HW116565   3.481   5.943   3.445
 5222SOL    HW216566   3.613   5.989   3.530
 5223SOL     OW16567   6.197   1.714   0.977
 5223SOL    HW116568   6.215   1.675   0.886
 5223SOL    HW216569   6.104   1.691   1.005
 5224SOL     OW16570   0.368   2.438   4.117
 5224SOL    HW116571   0.381   2.340   4.105
 5224SOL    HW216572   0.287   2.455   4.172
 5225SOL     OW16573   0.353   0.311   3.245
 5225SOL    HW116574   0.368   0.355   3.156
 5225SOL    HW216575   0.255   0.304   3.262
 5226SOL     OW16576   0.256   5.565   5.012
 5226SOL    HW116577   0.313   5.559   4.930
 5226SOL    HW216578   0.166   5.601   4.987
 5227SOL     OW16579   1.359   3.577   3.882
 5227SOL    HW116580   1.419   3.544   3.809
 5227SOL    HW216581   1.383   3.672   3.903
 5228SOL     OW16582   6.415   2.197   1.139
 5228SOL    HW116583   6.421   2.267   1.067
 5228SOL    HW216584   6.338   2.217   1.199
 5229SOL     OW16585   1.988   5.425   0.256
 5229SOL    HW116586   1.951   5.495   0.194
 5229SOL    HW216587   2.087   5.433   0.259
 5230SOL     OW16588   0.656   6.418   1.026
 5230SOL    HW116589   0.630   6.422   0.929
 5230SOL    HW216590   0.737   6.361   1.036
 5231SOL     OW16591   4.187   3.589   5.338
 5231SOL    HW116592   4.120   3.556   5.405
 5231SOL    HW216593   4.268   3.530   5.341
 5232SOL     OW16594   3.319   2.044   5.605
 5232SOL    HW116595   3.232   2.038   5.556
 5232SOL    HW216596   3.337   2.139   5.630
 5233SOL     OW16597   5.835   0.518   1.746
 5233SOL    HW116598   5.865   0.612   1.762
 5233SOL    HW216599   5.747   0.518   1.698
 5234SOL     OW16600   2.467   0.460   6.979
 5234SOL    HW116601   2.430   0.524   6.912
 5234SOL    HW216602   2.392   0.422   0.011
 5235SOL     OW16603   1.974   3.135   1.033
 5235SOL    HW116604   1.904   3.079   1.077
 5235SOL    HW216605   2.052   3.078   1.009
 5236SOL     OW16606   5.661   3.843   2.830
 5236SOL    HW116607   5.727   3.779   2.869
 5236SOL    HW216608   5.569   3.803   2.836
 5237SOL     OW16609   1.995   0.565   5.139
 5237SOL    HW116610   2.061   0.504   5.183
 5237SOL    HW216611   1.972   0.640   5.202
 5238SOL     OW16612   1.604   4.332   0.803
 5238SOL    HW116613   1.671   4.392   0.848
 5238SOL    HW216614   1.642   4.298   0.718
 5239SOL     OW16615   4.021   3.109   4.228
 5239SOL    HW116616   4.086   3.134   4.156
 5239SOL    HW216617   3.995   3.013   4.217
 5240SOL     OW16618   3.477   1.859   6.269
 5240SOL    HW116619   3.475   1.834   6.173
 5240SOL    HW216620   3.384   1.879   6.300
 5241SOL     OW16621   0.583   5.489   5.764
 5241SOL    HW116622   0.608   5.584   5.785
 5241SOL    HW216623   0.666   5.434   5.758
 5242SOL     OW16624   6.638   6.054   6.057
 5242SOL    HW116625   6.558   6.057   5.997
 5242SOL    HW216626   6.612   6.082   6.149
 5243SOL     OW16627   1.122   5.704   1.724
 5243SOL    HW116628   1.108   5.642   1.647
 5243SOL    HW216629   1.199   5.672   1.779
 5244SOL     OW16630   3.555   4.187   5.991
 5244SOL    HW116631   3.556   4.147   6.083
 5244SOL    HW216632   3.470   4.238   5.978
 5245SOL     OW16633   4.875   4.401   0.356
 5245SOL    HW116634   4.962   4.393   0.405
 5245SOL    HW216635   4.869   4.492   0.314
 5246SOL     OW16636   5.659   4.343   2.627
 5246SOL    HW116637   5.585   4.311   2.686
 5246SOL    HW216638   5.622   4.359   2.535
 5247SOL     OW16639   0.923   6.808   0.334
 5247SOL    HW116640   0.932   6.779   0.429
 5247SOL    HW216641   0.853   6.753   0.289
 5248SOL     OW16642   5.661   0.686   4.444
 5248SOL    HW116643   5.671   0.712   4.348
 5248SOL    HW216644   5.709   0.751   4.502
 5249SOL     OW16645   6.792   4.603   4.829
 5249SOL    HW116646   6.809   4.669   4.756
 5249SOL    HW216647   6.844   4.520   4.811
 5250SOL     OW16648   0.744   1.067   5.516
 5250SOL    HW116649   0.777   0.976   5.541
 5250SOL    HW216650   0.732   1.122   5.599
 5251SOL     OW16651   0.737   3.404   0.292
 5251SOL    HW116652   0.682   3.344   0.233
 5251SOL    HW216653   0.811   3.351   0.333
 5252SOL     OW16654   2.288   5.725   0.920
 5252SOL    HW116655   2.285   5.799   0.986
 5252SOL    HW216656   2.226   5.745   0.844
 5253SOL     OW16657   5.394   3.804   4.658
 5253SOL    HW116658   5.467   3.843   4.601
 5253SOL    HW216659   5.415   3.822   4.754
 5254SOL     OW16660   4.538   1.416   3.268
 5254SOL    HW116661   4.468   1.352   3.236
 5254SOL    HW216662   4.593   1.372   3.339
 5255SOL     OW16663   4.529   0.638   5.603
 5255SOL    HW116664   4.571   0.727   5.621
 5255SOL    HW216665   4.493   0.600   5.688
 5256SOL     OW16666   4.463   0.607   3.621
 5256SOL    HW116667   4.537   0.605   3.688
 5256SOL    HW216668   4.479   0.537   3.551
 5257SOL     OW16669   4.851   6.536   1.974
 5257SOL    HW116670   4.765   6.585   1.992
 5257SOL    HW216671   4.889   6.566   1.887
 5258SOL     OW16672   5.386   3.385   1.575
 5258SOL    HW116673   5.450   3.391   1.651
 5258SOL    HW216674   5.314   3.454   1.586
 5259SOL     OW16675   4.724   5.954   0.887
 5259SOL    HW116676   4.705   5.911   0.799
 5259SOL    HW216677   4.638   5.973   0.934
 5260SOL     OW16678   5.506   3.808   0.671
 5260SOL    HW116679   5.562   3.876   0.624
 5260SOL    HW216680   5.526   3.717   0.635
 5261SOL     OW16681   1.800   3.306   6.555
 5261SOL    HW116682   1.852   3.294   6.639
 5261SOL    HW216683   1.861   3.339   6.483
 5262SOL     OW16684   2.521   0.621   2.854
 5262SOL    HW116685   2.447   0.557   2.874
 5262SOL    HW216686   2.488   0.715   2.865
 5263SOL     OW16687   1.065   0.733   5.647
 5263SOL    HW116688   1.053   0.830   5.629
 5263SOL    HW216689   0.981   0.684   5.625
 5264SOL     OW16690   5.697   1.198   2.419
 5264SOL    HW116691   5.779   1.155   2.457
 5264SOL    HW216692   5.702   1.195   2.319
 5265SOL     OW16693   5.202   4.122   3.482
 5265SOL    HW116694   5.242   4.211   3.461
 5265SOL    HW216695   5.140   4.095   3.408
 5266SOL     OW16696   2.789   6.983   2.003
 5266SOL    HW116697   2.830   6.963   1.914
 5266SOL    HW216698   2.727   0.038   1.993
 5267SOL     OW16699   4.949   4.334   5.669
 5267SOL    HW116700   5.008   4.398   5.619
 5267SOL    HW216701   4.863   4.380   5.693
 5268SOL     OW16702   6.401   0.116   6.479
 5268SOL    HW116703   6.435   0.108   6.573
 5268SOL    HW216704   6.311   0.159   6.480
 5269SOL     OW16705   2.070   6.993   4.360
 5269SOL    HW116706   2.105   0.003   4.272
 5269SOL    HW216707   1.971   6.977   4.352
 5270SOL     OW16708   5.131   2.090   2.236
 5270SOL    HW116709   5.122   2.046   2.147
 5270SOL    HW216710   5.219   2.066   2.277
 5271SOL     OW16711   5.491   5.183   5.132
 5271SOL    HW116712   5.567   5.121   5.110
 5271SOL    HW216713   5.434   5.141   5.203
 5272SOL     OW16714   2.076   6.416   2.063
 5272SOL    HW116715   2.107   6.375   1.977
 5272SOL    HW216716   2.141   6.487   2.091
 5273SOL     OW16717   6.687   3.052   3.211
 5273SOL    HW116718   6.717   2.995   3.287
 5273SOL    HW216719   6.589   3.041   3.198
 5274SOL     OW16720   6.569   6.337   2.339
 5274SOL    HW116721   6.664   6.365   2.345
 5274SOL    HW216722   6.558   6.245   2.378
 5275SOL     OW16723   3.703   2.236   6.392
 5275SOL    HW116724   3.752   2.322   6.409
 5275SOL    HW216725   3.753   2.160   6.435
 5276SOL     OW16726   1.460   0.799   1.155
 5276SOL    HW116727   1.514   0.737   1.212
 5276SOL    HW216728   1.501   0.805   1.064
 5277SOL     OW16729   1.576   1.889   3.127
 5277SOL    HW116730   1.510   1.934   3.187
 5277SOL    HW216731   1.664   1.935   3.136
 5278SOL     OW16732   4.563   0.259   4.100
 5278SOL    HW116733   4.538   0.317   4.023
 5278SOL    HW216734   4.662   0.261   4.112
 5279SOL     OW16735   1.510   5.354   6.543
 5279SOL    HW116736   1.450   5.418   6.495
 5279SOL    HW216737   1.502   5.368   6.642
 5280SOL     OW16738   3.310   6.372   5.605
 5280SOL    HW116739   3.262   6.285   5.610
 5280SOL    HW216740   3.295   6.423   5.690
 5281SOL     OW16741   0.938   1.462   3.064
 5281SOL    HW116742   0.926   1.517   3.147
 5281SOL    HW216743   0.978   1.519   2.993
 5282SOL     OW16744   2.192   1.476   3.382
 5282SOL    HW116745   2.235   1.393   3.346
 5282SOL    HW216746   2.137   1.452   3.462
 5283SOL     OW16747   3.435   6.913   2.147
 5283SOL    HW116748   3.366   6.942   2.212
 5283SOL    HW216749   3.521   6.962   2.165
 5284SOL     OW16750   5.520   3.247   3.210
 5284SOL    HW116751   5.614   3.221   3.188
 5284SOL    HW216752   5.459   3.214   3.138
 5285SOL     OW16753   1.821   4.104   4.396
 5285SOL    HW116754   1.858   4.015   4.422
 5285SOL    HW216755   1.852   4.127   4.303
 5286SOL     OW16756   0.197   3.908   1.039
 5286SOL    HW116757   0.158   3.816   1.032
 5286SOL    HW216758   0.133   3.967   1.088
 5287SOL     OW16759   1.629   6.139   1.736
 5287SOL    HW116760   1.550   6.188   1.700
 5287SOL    HW216761   1.667   6.189   1.813
 5288SOL     OW16762   3.849   0.574   2.417
 5288SOL    HW116763   3.839   0.648   2.484
 5288SOL    HW216764   3.823   0.607   2.326
 5289SOL     OW16765   1.780   5.532   6.515
 5289SOL    HW116766   1.820   5.447   6.549
 5289SOL    HW216767   1.733   5.514   6.428
 5290SOL     OW16768   1.837   4.168   5.443
 5290SOL    HW116769   1.783   4.217   5.374
 5290SOL    HW216770   1.929   4.152   5.408
 5291SOL     OW16771   3.162   5.014   5.552
 5291SOL    HW116772   3.067   5.018   5.519
 5291SOL    HW216773   3.202   5.105   5.551
 5292SOL     OW16774   6.417   4.923   0.445
 5292SOL    HW116775   6.336   4.965   0.486
 5292SOL    HW216776   6.486   4.993   0.428
 5293SOL     OW16777   1.235   0.386   3.914
 5293SOL    HW116778   1.282   0.309   3.870
 5293SOL    HW216779   1.136   0.375   3.904
 5294SOL     OW16780   6.036   2.960   4.788
 5294SOL    HW116781   6.020   2.875   4.738
 5294SOL    HW216782   6.059   3.033   4.724
 5295SOL     OW16783   4.329   0.521   2.628
 5295SOL    HW116784   4.404   0.455   2.623
 5295SOL    HW216785   4.347   0.587   2.701
 5296SOL     OW16786   2.304   5.166   0.572
 5296SOL    HW116787   2.356   5.176   0.487
 5296SOL    HW216788   2.286   5.069   0.589
 5297SOL     OW16789   3.130   2.537   0.759
 5297SOL    HW116790   3.051   2.562   0.815
 5297SOL    HW216791   3.175   2.458   0.800
 5298SOL     OW16792   1.369   5.818   6.901
 5298SOL    HW116793   1.301   5.801   6.830
 5298SOL    HW216794   1.432   5.740   6.907
 5299SOL     OW16795   2.760   2.414   0.833
 5299SOL    HW116796   2.821   2.487   0.862
 5299SOL    HW216797   2.787   2.328   0.877
 5300SOL     OW16798   0.850   6.361   1.546
 5300SOL    HW116799   0.756   6.337   1.568
 5300SOL    HW216800   0.858   6.459   1.532
 5301SOL     OW16801   3.414   2.438   6.250
 5301SOL    HW116802   3.451   2.346   6.234
 5301SOL    HW216803   3.427   2.494   6.168
 5302SOL     OW16804   5.719   5.496   3.748
 5302SOL    HW116805   5.651   5.423   3.754
 5302SOL    HW216806   5.793   5.468   3.688
 5303SOL     OW16807   6.846   5.999   2.811
 5303SOL    HW116808   6.882   6.086   2.777
 5303SOL    HW216809   6.921   5.933   2.819
 5304SOL     OW16810   5.216   1.687   6.419
 5304SOL    HW116811   5.280   1.756   6.454
 5304SOL    HW216812   5.122   1.714   6.442
 5305SOL     OW16813   1.227   5.330   3.411
 5305SOL    HW116814   1.157   5.313   3.481
 5305SOL    HW216815   1.273   5.417   3.431
 5306SOL     OW16816   0.780   4.451   5.269
 5306SOL    HW116817   0.760   4.353   5.267
 5306SOL    HW216818   0.720   4.499   5.204
 5307SOL     OW16819   4.169   0.142   0.673
 5307SOL    HW116820   4.214   0.230   0.659
 5307SOL    HW216821   4.077   0.157   0.709
 5308SOL     OW16822   0.959   6.439   3.406
 5308SOL    HW116823   0.893   6.404   3.339
 5308SOL    HW216824   0.970   6.537   3.392
 5309SOL     OW16825   4.313   4.649   1.468
 5309SOL    HW116826   4.292   4.558   1.433
 5309SOL    HW216827   4.411   4.668   1.457
 5310SOL     OW16828   6.270   3.577   1.825
 5310SOL    HW116829   6.232   3.655   1.775
 5310SOL    HW216830   6.288   3.502   1.762
 5311SOL     OW16831   6.714   6.225   0.248
 5311SOL    HW116832   6.700   6.276   0.164
 5311SOL    HW216833   6.695   6.128   0.232
 5312SOL     OW16834   0.833   4.870   1.821
 5312SOL    HW116835   0.738   4.899   1.807
 5312SOL    HW216836   0.894   4.949   1.810
 5313SOL     OW16837   1.920   4.653   6.439
 5313SOL    HW116838   1.840   4.710   6.460
 5313SOL    HW216839   1.892   4.577   6.379
 5314SOL     OW16840   3.533   6.249   6.749
 5314SOL    HW116841   3.464   6.193   6.702
 5314SOL    HW216842   3.488   6.305   6.819
 5315SOL     OW16843   4.755   3.887   1.433
 5315SOL    HW116844   4.785   3.795   1.407
 5315SOL    HW216845   4.695   3.923   1.362
 5316SOL     OW16846   0.073   4.432   4.957
 5316SOL    HW116847   0.060   4.399   5.051
 5316SOL    HW216848   0.105   4.526   4.960
 5317SOL     OW16849   6.716   0.121   4.981
 5317SOL    HW116850   6.652   0.068   5.035
 5317SOL    HW216851   6.667   0.163   4.904
 5318SOL     OW16852   0.091   2.281   6.158
 5318SOL    HW116853   0.099   2.368   6.110
 5318SOL    HW216854   7.017   2.253   6.161
 5319SOL     OW16855   4.289   6.814   6.734
 5319SOL    HW116856   4.253   6.753   6.664
 5319SOL    HW216857   4.283   6.770   6.823
 5320SOL     OW16858   6.128   4.896   0.113
 5320SOL    HW116859   6.177   4.982   0.101
 5320SOL    HW216860   6.193   4.820   0.113
 5321SOL     OW16861   1.013   4.047   3.471
 5321SOL    HW116862   0.938   4.074   3.531
 5321SOL    HW216863   1.020   4.112   3.395
 5322SOL     OW16864   4.470   6.119   6.438
 5322SOL    HW116865   4.403   6.088   6.506
 5322SOL    HW216866   4.518   6.199   6.474
 5323SOL     OW16867   3.735   2.693   6.841
 5323SOL    HW116868   3.728   2.793   6.844
 5323SOL    HW216869   3.699   2.660   6.754
 5324SOL     OW16870   4.306   2.649   1.012
 5324SOL    HW116871   4.303   2.564   1.065
 5324SOL    HW216872   4.273   2.632   0.920
 5325SOL     OW16873   4.305   0.470   4.259
 5325SOL    HW116874   4.221   0.483   4.207
 5325SOL    HW216875   4.350   0.558   4.273
 5326SOL     OW16876   0.400   5.461   4.165
 5326SOL    HW116877   0.389   5.396   4.240
 5326SOL    HW216878   0.489   5.448   4.121
 5327SOL     OW16879   5.519   3.792   5.258
 5327SOL    HW116880   5.534   3.705   5.305
 5327SOL    HW216881   5.602   3.818   5.210
 5328SOL     OW16882   4.021   2.729   5.665
 5328SOL    HW116883   3.992   2.806   5.609
 5328SOL    HW216884   4.058   2.763   5.752
 5329SOL     OW16885   6.882   4.420   7.006
 5329SOL    HW116886   6.937   4.443   0.065
 5329SOL    HW216887   6.848   4.504   6.965
 5330SOL     OW16888   3.886   4.291   5.727
 5330SOL    HW116889   3.962   4.295   5.662
 5330SOL    HW216890   3.846   4.382   5.737
 5331SOL     OW16891   5.013   1.224   0.985
 5331SOL    HW116892   5.085   1.276   1.032
 5331SOL    HW216893   5.048   1.132   0.964
 5332SOL     OW16894   0.437   3.983   1.170
 5332SOL    HW116895   0.427   4.082   1.181
 5332SOL    HW216896   0.361   3.948   1.116
 5333SOL     OW16897   1.090   0.991   3.383
 5333SOL    HW116898   1.099   0.955   3.476
 5333SOL    HW216899   1.025   0.934   3.332
 5334SOL     OW16900   3.949   6.593   4.466
 5334SOL    HW116901   4.033   6.647   4.466
 5334SOL    HW216902   3.947   6.535   4.547
 5335SOL     OW16903   6.475   5.669   2.521
 5335SOL    HW116904   6.392   5.663   2.465
 5335SOL    HW216905   6.553   5.634   2.468
 5336SOL     OW16906   1.821   1.990   3.171
 5336SOL    HW116907   1.919   2.005   3.154
 5336SOL    HW216908   1.786   2.063   3.230
 5337SOL     OW16909   5.725   4.546   2.385
 5337SOL    HW116910   5.753   4.461   2.340
 5337SOL    HW216911   5.650   4.587   2.335
 5338SOL     OW16912   5.739   0.699   5.436
 5338SOL    HW116913   5.733   0.616   5.491
 5338SOL    HW216914   5.759   0.777   5.495
 5339SOL     OW16915   6.485   2.234   3.388
 5339SOL    HW116916   6.475   2.135   3.394
 5339SOL    HW216917   6.435   2.268   3.308
 5340SOL     OW16918   5.453   3.485   1.151
 5340SOL    HW116919   5.526   3.420   1.171
 5340SOL    HW216920   5.432   3.538   1.233
 5341SOL     OW16921   3.396   4.974   6.173
 5341SOL    HW116922   3.317   4.924   6.138
 5341SOL    HW216923   3.400   5.065   6.130
 5342SOL     OW16924   4.642   6.401   4.385
 5342SOL    HW116925   4.567   6.378   4.447
 5342SOL    HW216926   4.609   6.401   4.291
 5343SOL     OW16927   3.766   3.630   4.722
 5343SOL    HW116928   3.793   3.704   4.660
 5343SOL    HW216929   3.744   3.668   4.812
 5344SOL     OW16930   1.780   1.841   1.081
 5344SOL    HW116931   1.723   1.791   1.016
 5344SOL    HW216932   1.868   1.863   1.038
 5345SOL     OW16933   3.564   6.386   0.268
 5345SOL    HW116934   3.619   6.464   0.299
 5345SOL    HW216935   3.540   6.330   0.347
 5346SOL     OW16936   3.236   5.650   4.056
 5346SOL    HW116937   3.256   5.613   4.147
 5346SOL    HW216938   3.141   5.678   4.051
 5347SOL     OW16939   7.020   2.717   2.179
 5347SOL    HW116940   6.972   2.786   2.233
 5347SOL    HW216941   0.095   2.738   2.175
 5348SOL     OW16942   6.762   1.973   0.574
 5348SOL    HW116943   6.710   2.006   0.495
 5348SOL    HW216944   6.860   1.974   0.553
 5349SOL     OW16945   2.454   2.627   0.428
 5349SOL    HW116946   2.520   2.607   0.355
 5349SOL    HW216947   2.405   2.544   0.453
 5350SOL     OW16948   1.346   6.908   5.055
 5350SOL    HW116949   1.317   6.987   5.109
 5350SOL    HW216950   1.364   6.936   4.961
 5351SOL     OW16951   6.653   5.117   2.039
 5351SOL    HW116952   6.714   5.145   2.113
 5351SOL    HW216953   6.618   5.198   1.992
 5352SOL     OW16954   1.783   5.249   3.079
 5352SOL    HW116955   1.846   5.296   3.016
 5352SOL    HW216956   1.800   5.151   3.075
 5353SOL     OW16957   3.956   5.193   4.402
 5353SOL    HW116958   3.940   5.255   4.324
 5353SOL    HW216959   4.054   5.186   4.419
 5354SOL     OW16960   2.003   4.790   1.233
 5354SOL    HW116961   1.941   4.775   1.310
 5354SOL    HW216962   2.081   4.845   1.262
 5355SOL     OW16963   6.278   4.550   4.630
 5355SOL    HW116964   6.266   4.631   4.687
 5355SOL    HW216965   6.207   4.483   4.651
 5356SOL     OW16966   6.730   3.749   2.386
 5356SOL    HW116967   6.807   3.690   2.414
 5356SOL    HW216968   6.683   3.783   2.468
 5357SOL     OW16969   2.999   6.010   7.013
 5357SOL    HW116970   2.925   5.948   6.985
 5357SOL    HW216971   2.963   6.103   7.021
 5358SOL     OW16972   4.782   1.456   0.442
 5358SOL    HW116973   4.774   1.365   0.400
 5358SOL    HW216974   4.711   1.467   0.511
 5359SOL     OW16975   1.911   0.978   5.797
 5359SOL    HW116976   2.006   1.003   5.817
 5359SOL    HW216977   1.856   1.062   5.787
 5360SOL     OW16978   3.358   6.068   3.721
 5360SOL    HW116979   3.384   5.993   3.782
 5360SOL    HW216980   3.413   6.063   3.638
 5361SOL     OW16981   2.745   0.979   4.678
 5361SOL    HW116982   2.677   0.922   4.632
 5361SOL    HW216983   2.710   1.072   4.688
 5362SOL     OW16984   6.270   6.335   2.696
 5362SOL    HW116985   6.220   6.421   2.683
 5362SOL    HW216986   6.365   6.355   2.719
 5363SOL     OW16987   6.730   6.642   5.586
 5363SOL    HW116988   6.723   6.543   5.581
 5363SOL    HW216989   6.826   6.668   5.599
 5364SOL     OW16990   6.783   0.189   2.098
 5364SOL    HW116991   6.712   0.259   2.095
 5364SOL    HW216992   6.837   0.193   2.014
 5365SOL     OW16993   4.189   3.139   1.500
 5365SOL    HW116994   4.238   3.138   1.587
 5365SOL    HW216995   4.091   3.131   1.517
 5366SOL     OW16996   5.942   5.955   0.987
 5366SOL    HW116997   6.040   5.971   0.986
 5366SOL    HW216998   5.897   6.024   0.929
 5367SOL     OW16999   0.240   6.977   1.050
 5367SOL    HW117000   0.257   7.004   0.955
 5367SOL    HW217001   0.239   0.037   1.107
 5368SOL     OW17002   5.457   0.018   2.436
 5368SOL    HW117003   5.450   0.117   2.426
 5368SOL    HW217004   5.379   6.997   2.391
 5369SOL     OW17005   2.856   6.757   1.054
 5369SOL    HW117006   2.850   6.727   1.149
 5369SOL    HW217007   2.877   6.855   1.051
 5370SOL     OW17008   4.784   2.641   1.177
 5370SOL    HW117009   4.722   2.604   1.107
 5370SOL    HW217010   4.730   2.680   1.252
 5371SOL     OW17011   0.319   4.011   5.316
 5371SOL    HW117012   0.281   3.925   5.282
 5371SOL    HW217013   0.397   3.991   5.375
 5372SOL     OW17014   1.283   5.794   3.315
 5372SOL    HW117015   1.320   5.718   3.367
 5372SOL    HW217016   1.200   5.765   3.267
 5373SOL     OW17017   3.777   6.653   4.841
 5373SOL    HW117018   3.734   6.598   4.769
 5373SOL    HW217019   3.835   6.594   4.897
 5374SOL     OW17020   2.136   4.145   0.564
 5374SOL    HW117021   2.235   4.129   0.563
 5374SOL    HW217022   2.116   4.224   0.622
 5375SOL     OW17023   0.401   5.536   4.789
 5375SOL    HW117024   0.460   5.456   4.794
 5375SOL    HW217025   0.362   5.543   4.697
 5376SOL     OW17026   1.158   2.262   1.275
 5376SOL    HW117027   1.118   2.343   1.318
 5376SOL    HW217028   1.211   2.210   1.342
 5377SOL     OW17029   0.281   6.864   2.290
 5377SOL    HW117030   0.247   6.911   2.372
 5377SOL    HW217031   0.217   6.880   2.214
 5378SOL     OW17032   0.057   0.268   2.514
 5378SOL    HW117033   0.117   0.335   2.557
 5378SOL    HW217034   6.984   0.291   2.533
 5379SOL     OW17035   0.745   4.390   4.812
 5379SOL    HW117036   0.691   4.308   4.834
 5379SOL    HW217037   0.686   4.459   4.771
 5380SOL     OW17038   2.796   0.896   2.854
 5380SOL    HW117039   2.837   0.930   2.769
 5380SOL    HW217040   2.723   0.832   2.832
 5381SOL     OW17041   6.464   5.273   1.924
 5381SOL    HW117042   6.374   5.294   1.963
 5381SOL    HW217043   6.453   5.244   1.829
 5382SOL     OW17044   2.361   1.425   1.952
 5382SOL    HW117045   2.396   1.488   1.882
 5382SOL    HW217046   2.392   1.455   2.042
 5383SOL     OW17047   2.140   2.236   5.255
 5383SOL    HW117048   2.161   2.184   5.338
 5383SOL    HW217049   2.163   2.332   5.270
 5384SOL     OW17050   5.431   0.142   4.869
 5384SOL    HW117051   5.516   0.168   4.915
 5384SOL    HW217052   5.445   0.056   4.820
 5385SOL     OW17053   3.598   3.594   4.133
 5385SOL    HW117054   3.553   3.546   4.209
 5385SOL    HW217055   3.635   3.680   4.165
 5386SOL     OW17056   4.877   1.404   4.081
 5386SOL    HW117057   4.796   1.461   4.065
 5386SOL    HW217058   4.907   1.414   4.176
 5387SOL     OW17059   1.982   6.650   3.841
 5387SOL    HW117060   2.063   6.629   3.896
 5387SOL    HW217061   1.984   6.746   3.813
 5388SOL     OW17062   0.282   1.455   3.271
 5388SOL    HW117063   0.224   1.375   3.290
 5388SOL    HW217064   0.235   1.538   3.299
 5389SOL     OW17065   3.442   1.420   3.271
 5389SOL    HW117066   3.353   1.401   3.231
 5389SOL    HW217067   3.433   1.431   3.370
 5390SOL     OW17068   4.781   4.089   3.516
 5390SOL    HW117069   4.811   4.154   3.585
 5390SOL    HW217070   4.814   3.997   3.539
 5391SOL     OW17071   2.850   1.153   1.128
 5391SOL    HW117072   2.783   1.227   1.132
 5391SOL    HW217073   2.802   1.065   1.135
 5392SOL     OW17074   5.728   3.681   1.136
 5392SOL    HW117075   5.813   3.634   1.114
 5392SOL    HW217076   5.692   3.725   1.053
 5393SOL     OW17077   4.884   0.316   5.490
 5393SOL    HW117078   4.853   0.296   5.397
 5393SOL    HW217079   4.982   0.333   5.489
 5394SOL     OW17080   0.474   5.802   1.118
 5394SOL    HW117081   0.422   5.854   1.186
 5394SOL    HW217082   0.430   5.809   1.029
 5395SOL     OW17083   4.776   1.421   1.500
 5395SOL    HW117084   4.766   1.502   1.442
 5395SOL    HW217085   4.787   1.450   1.595
 5396SOL     OW17086   5.636   4.255   1.985
 5396SOL    HW117087   5.685   4.219   1.905
 5396SOL    HW217088   5.543   4.281   1.958
 5397SOL     OW17089   0.440   3.074   1.333
 5397SOL    HW117090   0.436   3.008   1.258
 5397SOL    HW217091   0.480   3.159   1.299
 5398SOL     OW17092   2.784   2.347   3.871
 5398SOL    HW117093   2.802   2.332   3.968
 5398SOL    HW217094   2.712   2.415   3.860
 5399SOL     OW17095   2.610   6.520   0.855
 5399SOL    HW117096   2.589   6.597   0.914
 5399SOL    HW217097   2.632   6.553   0.763
 5400SOL     OW17098   3.451   3.556   7.014
 5400SOL    HW117099   3.384   3.504   0.044
 5400SOL    HW217100   3.445   3.653   0.016
 5401SOL     OW17101   6.641   4.550   2.288
 5401SOL    HW117102   6.598   4.601   2.214
 5401SOL    HW217103   6.571   4.497   2.336
 5402SOL     OW17104   2.117   6.312   1.785
 5402SOL    HW117105   2.069   6.277   1.705
 5402SOL    HW217106   2.204   6.263   1.796
 5403SOL     OW17107   5.779   2.971   5.381
 5403SOL    HW117108   5.720   2.901   5.422
 5403SOL    HW217109   5.873   2.957   5.412
 5404SOL     OW17110   0.663   0.533   3.151
 5404SOL    HW117111   0.744   0.579   3.188
 5404SOL    HW217112   0.605   0.600   3.105
 5405SOL     OW17113   5.730   5.780   0.326
 5405SOL    HW117114   5.733   5.689   0.286
 5405SOL    HW217115   5.643   5.793   0.373
 5406SOL     OW17116   1.789   7.010   5.521
 5406SOL    HW117117   1.721   6.957   5.571
 5406SOL    HW217118   1.880   6.996   5.562
 5407SOL     OW17119   3.637   1.701   1.276
 5407SOL    HW117120   3.601   1.713   1.369
 5407SOL    HW217121   3.676   1.609   1.267
 5408SOL     OW17122   3.492   0.479   6.002
 5408SOL    HW117123   3.588   0.486   6.030
 5408SOL    HW217124   3.467   0.562   5.951
 5409SOL     OW17125   0.054   1.615   3.287
 5409SOL    HW117126   0.013   1.614   3.379
 5409SOL    HW217127   7.017   1.667   3.225
 5410SOL     OW17128   1.157   2.484   6.573
 5410SOL    HW117129   1.236   2.424   6.574
 5410SOL    HW217130   1.157   2.539   6.489
 5411SOL     OW17131   6.023   5.282   6.051
 5411SOL    HW117132   6.072   5.272   6.137
 5411SOL    HW217133   5.932   5.240   6.059
 5412SOL     OW17134   3.650   1.060   6.836
 5412SOL    HW117135   3.703   1.079   6.919
 5412SOL    HW217136   3.641   0.962   6.824
 5413SOL     OW17137   0.208   0.337   0.763
 5413SOL    HW117138   0.109   0.324   0.758
 5413SOL    HW217139   0.252   0.250   0.786
 5414SOL     OW17140   6.033   3.703   4.714
 5414SOL    HW117141   6.034   3.666   4.807
 5414SOL    HW217142   6.122   3.686   4.671
 5415SOL     OW17143   1.316   6.033   1.974
 5415SOL    HW117144   1.285   6.102   2.039
 5415SOL    HW217145   1.251   5.956   1.975
 5416SOL     OW17146   3.222   5.282   5.583
 5416SOL    HW117147   3.262   5.295   5.674
 5416SOL    HW217148   3.262   5.348   5.519
 5417SOL     OW17149   4.468   6.568   4.652
 5417SOL    HW117150   4.432   6.475   4.661
 5417SOL    HW217151   4.435   6.609   4.567
 5418SOL     OW17152   4.841   0.818   4.220
 5418SOL    HW117153   4.886   0.730   4.232
 5418SOL    HW217154   4.910   0.889   4.209
 5419SOL     OW17155   3.721   5.590   6.942
 5419SOL    HW117156   3.801   5.531   6.958
 5419SOL    HW217157   3.688   5.575   6.849
 5420SOL     OW17158   1.846   3.192   1.875
 5420SOL    HW117159   1.937   3.233   1.864
 5420SOL    HW217160   1.850   3.095   1.852
 5421SOL     OW17161   2.942   4.876   3.289
 5421SOL    HW117162   2.853   4.897   3.249
 5421SOL    HW217163   2.961   4.938   3.364
 5422SOL     OW17164   1.175   5.397   4.737
 5422SOL    HW117165   1.120   5.325   4.780
 5422SOL    HW217166   1.158   5.397   4.638
 5423SOL     OW17167   6.105   3.999   0.025
 5423SOL    HW117168   6.184   3.979   6.990
 5423SOL    HW217169   6.064   4.085   7.018
 5424SOL     OW17170   5.575   3.974   4.201
 5424SOL    HW117171   5.579   3.940   4.107
 5424SOL    HW217172   5.514   3.915   4.255
 5425SOL     OW17173   5.322   2.156   4.289
 5425SOL    HW117174   5.332   2.250   4.322
 5425SOL    HW217175   5.366   2.093   4.353
 5426SOL     OW17176   6.457   5.077   3.814
 5426SOL    HW117177   6.483   5.135   3.891
 5426SOL    HW217178   6.358   5.071   3.808
 5427SOL     OW17179   5.422   4.466   0.711
 5427SOL    HW117180   5.409   4.367   0.704
 5427SOL    HW217181   5.499   4.494   0.653
 5428SOL     OW17182   6.110   6.967   1.955
 5428SOL    HW117183   6.140   0.038   1.973
 5428SOL    HW217184   6.183   6.918   1.907
 5429SOL     OW17185   1.241   0.854   5.204
 5429SOL    HW117186   1.209   0.876   5.112
 5429SOL    HW217187   1.195   0.912   5.271
 5430SOL     OW17188   2.407   2.772   6.471
 5430SOL    HW117189   2.409   2.860   6.423
 5430SOL    HW217190   2.364   2.703   6.412
 5431SOL     OW17191   3.396   4.569   5.983
 5431SOL    HW117192   3.445   4.617   6.057
 5431SOL    HW217193   3.415   4.614   5.896
 5432SOL     OW17194   3.418   5.763   6.379
 5432SOL    HW117195   3.449   5.772   6.285
 5432SOL    HW217196   3.478   5.817   6.439
 5433SOL     OW17197   0.204   1.182   3.266
 5433SOL    HW117198   0.299   1.161   3.245
 5433SOL    HW217199   0.183   1.152   3.359
 5434SOL     OW17200   4.682   1.215   4.940
 5434SOL    HW117201   4.731   1.226   4.854
 5434SOL    HW217202   4.742   1.242   5.016
 5435SOL     OW17203   6.205   2.169   1.298
 5435SOL    HW117204   6.201   2.072   1.272
 5435SOL    HW217205   6.249   2.177   1.388
 5436SOL     OW17206   5.725   4.428   4.424
 5436SOL    HW117207   5.725   4.329   4.414
 5436SOL    HW217208   5.787   4.455   4.497
 5437SOL     OW17209   2.972   5.309   5.689
 5437SOL    HW117210   3.049   5.284   5.630
 5437SOL    HW217211   2.950   5.231   5.748
 5438SOL     OW17212   6.571   3.777   1.889
 5438SOL    HW117213   6.486   3.769   1.940
 5438SOL    HW217214   6.635   3.836   1.939
 5439SOL     OW17215   6.832   2.319   0.097
 5439SOL    HW117216   6.832   2.374   0.180
 5439SOL    HW217217   6.746   2.332   0.048
 5440SOL     OW17218   6.544   0.458   3.435
 5440SOL    HW117219   6.611   0.487   3.366
 5440SOL    HW217220   6.490   0.383   3.398
 5441SOL     OW17221   4.663   2.739   3.405
 5441SOL    HW117222   4.667   2.762   3.503
 5441SOL    HW217223   4.654   2.640   3.395
 5442SOL     OW17224   2.713   6.959   3.500
 5442SOL    HW117225   2.805   6.924   3.480
 5442SOL    HW217226   2.662   6.968   3.414
 5443SOL     OW17227   3.035   5.784   4.155
 5443SOL    HW117228   3.095   5.858   4.125
 5443SOL    HW217229   2.993   5.808   4.242
 5444SOL     OW17230   0.208   0.798   3.210
 5444SOL    HW117231   0.292   0.796   3.263
 5444SOL    HW217232   0.141   0.858   3.254
 5445SOL     OW17233   6.414   4.161   4.102
 5445SOL    HW117234   6.466   4.211   4.171
 5445SOL    HW217235   6.471   4.148   4.020
 5446SOL     OW17236   5.675   5.400   4.754
 5446SOL    HW117237   5.741   5.427   4.685
 5446SOL    HW217238   5.700   5.440   4.842
 5447SOL     OW17239   1.125   1.694   0.623
 5447SOL    HW117240   1.054   1.761   0.599
 5447SOL    HW217241   1.082   1.606   0.641
 5448SOL     OW17242   5.941   4.586   4.356
 5448SOL    HW117243   6.016   4.521   4.363
 5448SOL    HW217244   5.857   4.536   4.333
 5449SOL     OW17245   1.817   1.776   0.514
 5449SOL    HW117246   1.847   1.782   0.609
 5449SOL    HW217247   1.720   1.756   0.511
 5450SOL     OW17248   3.099   0.488   0.764
 5450SOL    HW117249   3.058   0.538   0.688
 5450SOL    HW217250   3.035   0.419   0.797
 5451SOL     OW17251   2.482   6.241   3.951
 5451SOL    HW117252   2.467   6.261   3.854
 5451SOL    HW217253   2.411   6.285   4.006
 5452SOL     OW17254   3.165   3.938   6.502
 5452SOL    HW117255   3.224   3.862   6.529
 5452SOL    HW217256   3.069   3.908   6.504
 5453SOL     OW17257   5.517   3.988   1.948
 5453SOL    HW117258   5.572   3.936   1.883
 5453SOL    HW217259   5.558   4.078   1.963
 5454SOL     OW17260   5.139   5.234   6.120
 5454SOL    HW117261   5.163   5.236   6.217
 5454SOL    HW217262   5.087   5.151   6.100
 5455SOL     OW17263   0.350   2.099   3.070
 5455SOL    HW117264   0.295   2.028   3.115
 5455SOL    HW217265   0.447   2.074   3.076
 5456SOL     OW17266   2.869   0.082   0.276
 5456SOL    HW117267   2.779   0.052   0.310
 5456SOL    HW217268   2.925   0.002   0.255
 5457SOL     OW17269   6.808   2.252   1.827
 5457SOL    HW117270   6.862   2.213   1.752
 5457SOL    HW217271   6.836   2.210   1.914
 5458SOL     OW17272   0.711   4.989   0.595
 5458SOL    HW117273   0.768   4.965   0.674
 5458SOL    HW217274   0.768   4.997   0.514
 5459SOL     OW17275   3.617   3.825   6.415
 5459SOL    HW117276   3.622   3.834   6.315
 5459SOL    HW217277   3.529   3.859   6.447
 5460SOL     OW17278   3.166   6.536   3.093
 5460SOL    HW117279   3.134   6.448   3.058
 5460SOL    HW217280   3.247   6.565   3.042
 5461SOL     OW17281   0.334   1.068   5.561
 5461SOL    HW117282   0.395   1.072   5.482
 5461SOL    HW217283   0.285   1.155   5.569
 5462SOL     OW17284   5.670   6.612   0.148
 5462SOL    HW117285   5.764   6.581   0.133
 5462SOL    HW217286   5.671   6.700   0.195
 5463SOL     OW17287   0.111   1.536   6.897
 5463SOL    HW117288   0.109   1.481   6.813
 5463SOL    HW217289   0.183   1.501   6.958
 5464SOL     OW17290   6.287   0.258   4.322
 5464SOL    HW117291   6.291   0.195   4.400
 5464SOL    HW217292   6.323   0.347   4.349
 5465SOL     OW17293   4.693   0.408   4.390
 5465SOL    HW117294   4.635   0.433   4.312
 5465SOL    HW217295   4.637   0.367   4.461
 5466SOL     OW17296   4.881   2.944   4.663
 5466SOL    HW117297   4.856   2.974   4.756
 5466SOL    HW217298   4.871   3.021   4.600
 5467SOL     OW17299   5.153   3.911   3.636
 5467SOL    HW117300   5.165   3.996   3.585
 5467SOL    HW217301   5.182   3.834   3.579
 5468SOL     OW17302   6.651   2.853   3.765
 5468SOL    HW117303   6.662   2.903   3.680
 5468SOL    HW217304   6.651   2.754   3.746
 5469SOL     OW17305   2.609   6.783   5.755
 5469SOL    HW117306   2.622   6.870   5.706
 5469SOL    HW217307   2.689   6.725   5.742
 5470SOL     OW17308   3.714   5.467   3.499
 5470SOL    HW117309   3.640   5.519   3.457
 5470SOL    HW217310   3.681   5.425   3.584
 5471SOL     OW17311   6.089   0.171   3.319
 5471SOL    HW117312   5.992   0.162   3.340
 5471SOL    HW217313   6.141   0.179   3.404
 5472SOL     OW17314   2.800   3.620   6.650
 5472SOL    HW117315   2.788   3.637   6.748
 5472SOL    HW217316   2.764   3.530   6.628
 5473SOL     OW17317   1.191   3.314   1.790
 5473SOL    HW117318   1.263   3.314   1.720
 5473SOL    HW217319   1.231   3.339   1.878
 5474SOL     OW17320   1.014   4.397   4.220
 5474SOL    HW117321   0.963   4.476   4.186
 5474SOL    HW217322   1.043   4.414   4.314
 5475SOL     OW17323   1.972   2.780   0.939
 5475SOL    HW117324   1.972   2.711   1.011
 5475SOL    HW217325   2.062   2.825   0.936
 5476SOL     OW17326   2.083   4.565   4.916
 5476SOL    HW117327   2.153   4.496   4.897
 5476SOL    HW217328   2.124   4.656   4.912
 5477SOL     OW17329   2.308   4.281   2.310
 5477SOL    HW117330   2.256   4.228   2.377
 5477SOL    HW217331   2.371   4.342   2.358
 5478SOL     OW17332   3.271   6.373   4.438
 5478SOL    HW117333   3.172   6.374   4.446
 5478SOL    HW217334   3.297   6.385   4.342
 5479SOL     OW17335   5.432   1.293   6.325
 5479SOL    HW117336   5.513   1.349   6.344
 5479SOL    HW217337   5.356   1.325   6.381
 5480SOL     OW17338   5.800   5.709   3.909
 5480SOL    HW117339   5.886   5.716   3.959
 5480SOL    HW217340   5.796   5.622   3.860
 5481SOL     OW17341   4.352   1.717   4.327
 5481SOL    HW117342   4.409   1.789   4.366
 5481SOL    HW217343   4.255   1.737   4.345
 5482SOL     OW17344   3.883   4.516   1.658
 5482SOL    HW117345   3.840   4.565   1.582
 5482SOL    HW217346   3.849   4.552   1.745
 5483SOL     OW17347   6.966   2.155   5.353
 5483SOL    HW117348   6.868   2.169   5.366
 5483SOL    HW217349   6.999   2.216   5.281
 5484SOL     OW17350   3.718   1.349   3.986
 5484SOL    HW117351   3.818   1.356   3.982
 5484SOL    HW217352   3.688   1.349   4.082
 5485SOL     OW17353   3.841   6.715   4.206
 5485SOL    HW117354   3.865   6.674   4.295
 5485SOL    HW217355   3.768   6.782   4.219
 5486SOL     OW17356   1.738   6.028   5.407
 5486SOL    HW117357   1.672   5.983   5.347
 5486SOL    HW217358   1.821   5.973   5.414
 5487SOL     OW17359   5.858   2.960   6.728
 5487SOL    HW117360   5.902   3.036   6.776
 5487SOL    HW217361   5.917   2.879   6.733
 5488SOL     OW17362   5.950   0.286   1.294
 5488SOL    HW117363   6.046   0.264   1.307
 5488SOL    HW217364   5.932   0.378   1.330
 5489SOL     OW17365   0.738   4.386   1.490
 5489SOL    HW117366   0.670   4.456   1.466
 5489SOL    HW217367   0.713   4.345   1.578
 5490SOL     OW17368   3.330   6.707   1.395
 5490SOL    HW117369   3.301   6.636   1.460
 5490SOL    HW217370   3.386   6.775   1.443
 5491SOL     OW17371   1.505   3.940   0.887
 5491SOL    HW117372   1.500   4.037   0.909
 5491SOL    HW217373   1.423   3.913   0.836
 5492SOL     OW17374   0.135   3.148   5.804
 5492SOL    HW117375   0.085   3.207   5.741
 5492SOL    HW217376   0.194   3.203   5.862
 5493SOL     OW17377   3.000   3.871   4.231
 5493SOL    HW117378   2.934   3.798   4.212
 5493SOL    HW217379   2.988   3.902   4.325
 5494SOL     OW17380   6.881   2.968   6.218
 5494SOL    HW117381   6.855   3.034   6.148
 5494SOL    HW217382   6.929   3.015   6.293
 5495SOL     OW17383   3.882   1.112   1.008
 5495SOL    HW117384   3.922   1.173   0.939
 5495SOL    HW217385   3.790   1.087   0.980
 5496SOL     OW17386   3.609   1.082   3.878
 5496SOL    HW117387   3.599   1.002   3.938
 5496SOL    HW217388   3.636   1.161   3.933
 5497SOL     OW17389   0.182   1.734   4.925
 5497SOL    HW117390   0.179   1.654   4.865
 5497SOL    HW217391   0.200   1.816   4.870
 5498SOL     OW17392   6.425   5.981   1.185
 5498SOL    HW117393   6.470   6.069   1.170
 5498SOL    HW217394   6.385   5.979   1.276
 5499SOL     OW17395   0.417   0.463   4.578
 5499SOL    HW117396   0.429   0.534   4.509
 5499SOL    HW217397   0.407   0.505   4.668
 5500SOL     OW17398   1.228   0.540   0.634
 5500SOL    HW117399   1.140   0.571   0.668
 5500SOL    HW217400   1.301   0.579   0.691
 5501SOL     OW17401   3.726   1.034   0.533
 5501SOL    HW117402   3.629   1.021   0.551
 5501SOL    HW217403   3.750   0.987   0.448
 5502SOL     OW17404   5.299   3.674   0.112
 5502SOL    HW117405   5.267   3.697   0.020
 5502SOL    HW217406   5.276   3.579   0.132
 5503SOL     OW17407   0.478   4.574   2.347
 5503SOL    HW117408   0.568   4.564   2.304
 5503SOL    HW217409   0.416   4.504   2.313
 5504SOL     OW17410   4.219   1.112   5.448
 5504SOL    HW117411   4.197   1.207   5.472
 5504SOL    HW217412   4.265   1.068   5.525
 5505SOL     OW17413   2.052   4.993   3.958
 5505SOL    HW117414   1.965   4.986   4.008
 5505SOL    HW217415   2.094   4.903   3.952
 5506SOL     OW17416   0.927   2.540   0.339
 5506SOL    HW117417   0.960   2.610   0.274
 5506SOL    HW217418   0.859   2.581   0.399
 5507SOL     OW17419   3.651   1.303   4.511
 5507SOL    HW117420   3.748   1.307   4.488
 5507SOL    HW217421   3.598   1.352   4.441
 5508SOL     OW17422   1.399   0.885   0.165
 5508SOL    HW117423   1.334   0.862   0.094
 5508SOL    HW217424   1.491   0.860   0.136
 5509SOL     OW17425   0.268   6.338   6.880
 5509SOL    HW117426   0.338   6.340   6.950
 5509SOL    HW217427   0.310   6.319   6.791
 5510SOL     OW17428   4.766   5.499   0.215
 5510SOL    HW117429   4.761   5.575   0.151
 5510SOL    HW217430   4.831   5.521   0.288
 5511SOL     OW17431   1.819   0.856   3.740
 5511SOL    HW117432   1.860   0.822   3.824
 5511SOL    HW217433   1.802   0.954   3.748
 5512SOL     OW17434   5.384   2.543   1.039
 5512SOL    HW117435   5.326   2.469   1.073
 5512SOL    HW217436   5.371   2.555   0.941
 5513SOL     OW17437   4.487   4.393   5.927
 5513SOL    HW117438   4.495   4.373   6.025
 5513SOL    HW217439   4.440   4.481   5.915
 5514SOL     OW17440   4.000   6.882   3.744
 5514SOL    HW117441   4.054   6.967   3.749
 5514SOL    HW217442   3.967   6.859   3.835
 5515SOL     OW17443   0.885   5.809   2.234
 5515SOL    HW117444   0.939   5.733   2.198
 5515SOL    HW217445   0.885   5.884   2.168
 5516SOL     OW17446   1.967   4.291   6.519
 5516SOL    HW117447   1.872   4.265   6.502
 5516SOL    HW217448   2.016   4.212   6.556
 5517SOL     OW17449   2.265   2.842   1.869
 5517SOL    HW117450   2.306   2.894   1.793
 5517SOL    HW217451   2.195   2.898   1.914
 5518SOL     OW17452   6.018   6.520   6.618
 5518SOL    HW117453   6.073   6.602   6.603
 5518SOL    HW217454   5.980   6.489   6.531
 5519SOL     OW17455   5.905   3.855   3.357
 5519SOL    HW117456   5.856   3.890   3.437
 5519SOL    HW217457   5.949   3.768   3.380
 5520SOL     OW17458   6.504   0.307   2.535
 5520SOL    HW117459   6.456   0.226   2.569
 5520SOL    HW217460   6.473   0.388   2.584
 5521SOL     OW17461   5.607   6.111   1.849
 5521SOL    HW117462   5.575   6.024   1.889
 5521SOL    HW217463   5.689   6.142   1.897
 5522SOL     OW17464   6.133   5.091   0.764
 5522SOL    HW117465   6.171   5.167   0.817
 5522SOL    HW217466   6.199   5.016   0.760
 5523SOL     OW17467   3.334   1.072   2.312
 5523SOL    HW117468   3.373   0.992   2.357
 5523SOL    HW217469   3.306   1.139   2.380
 5524SOL     OW17470   5.100   0.557   4.602
 5524SOL    HW117471   5.123   0.638   4.548
 5524SOL    HW217472   5.171   0.542   4.672
 5525SOL     OW17473   0.320   1.891   0.696
 5525SOL    HW117474   0.341   1.973   0.749
 5525SOL    HW217475   0.221   1.880   0.689
 5526SOL     OW17476   4.693   5.880   3.584
 5526SOL    HW117477   4.773   5.850   3.635
 5526SOL    HW217478   4.653   5.802   3.535
 5527SOL     OW17479   4.985   3.728   4.193
 5527SOL    HW117480   4.965   3.663   4.119
 5527SOL    HW217481   4.982   3.680   4.281
 5528SOL     OW17482   1.204   1.091   6.889
 5528SOL    HW117483   1.249   1.114   6.976
 5528SOL    HW217484   1.273   1.059   6.824
 5529SOL     OW17485   2.949   6.840   3.374
 5529SOL    HW117486   3.027   6.779   3.357
 5529SOL    HW217487   2.973   6.905   3.446
 5530SOL     OW17488   5.851   2.385   1.355
 5530SOL    HW117489   5.879   2.381   1.259
 5530SOL    HW217490   5.915   2.332   1.411
 5531SOL     OW17491   3.090   3.522   1.946
 5531SOL    HW117492   3.035   3.493   1.867
 5531SOL    HW217493   3.156   3.451   1.969
 5532SOL     OW17494   1.089   3.645   0.674
 5532SOL    HW117495   1.089   3.722   0.737
 5532SOL    HW217496   1.134   3.567   0.716
 5533SOL     OW17497   3.597   1.834   3.130
 5533SOL    HW117498   3.603   1.830   3.030
 5533SOL    HW217499   3.620   1.926   3.161
 5534SOL     OW17500   0.150   1.581   6.485
 5534SOL    HW117501   0.176   1.622   6.398
 5534SOL    HW217502   0.145   1.481   6.475
 5535SOL     OW17503   0.409   2.959   3.148
 5535SOL    HW117504   0.339   2.913   3.094
 5535SOL    HW217505   0.367   3.030   3.204
 5536SOL     OW17506   3.043   0.942   4.412
 5536SOL    HW117507   3.035   0.919   4.315
 5536SOL    HW217508   3.131   0.987   4.429
 5537SOL     OW17509   2.719   1.091   2.472
 5537SOL    HW117510   2.722   1.187   2.501
 5537SOL    HW217511   2.642   1.078   2.411
 5538SOL     OW17512   2.322   5.916   5.688
 5538SOL    HW117513   2.399   5.933   5.749
 5538SOL    HW217514   2.350   5.932   5.593
 5539SOL     OW17515   1.346   3.345   1.578
 5539SOL    HW117516   1.303   3.427   1.541
 5539SOL    HW217517   1.332   3.269   1.515
 5540SOL     OW17518   4.627   4.655   3.505
 5540SOL    HW117519   4.529   4.678   3.501
 5540SOL    HW217520   4.653   4.636   3.600
 5541SOL     OW17521   5.688   0.112   6.192
 5541SOL    HW117522   5.599   0.074   6.167
 5541SOL    HW217523   5.703   0.198   6.143
 5542SOL     OW17524   5.224   3.617   6.186
 5542SOL    HW117525   5.165   3.562   6.244
 5542SOL    HW217526   5.169   3.669   6.121
 5543SOL     OW17527   3.638   5.120   5.760
 5543SOL    HW117528   3.574   5.044   5.775
 5543SOL    HW217529   3.635   5.181   5.839
 5544SOL     OW17530   4.629   5.813   6.069
 5544SOL    HW117531   4.554   5.815   6.003
 5544SOL    HW217532   4.697   5.745   6.041
 5545SOL     OW17533   4.197   1.366   2.115
 5545SOL    HW117534   4.290   1.365   2.080
 5545SOL    HW217535   4.133   1.390   2.042
 5546SOL     OW17536   0.543   5.302   4.775
 5546SOL    HW117537   0.635   5.339   4.759
 5546SOL    HW217538   0.550   5.202   4.786
 5547SOL     OW17539   2.349   6.224   5.114
 5547SOL    HW117540   2.406   6.306   5.119
 5547SOL    HW217541   2.347   6.190   5.020
 5548SOL     OW17542   6.371   2.454   4.827
 5548SOL    HW117543   6.347   2.524   4.759
 5548SOL    HW217544   6.288   2.426   4.876
 5549SOL     OW17545   4.563   4.505   6.442
 5549SOL    HW117546   4.468   4.534   6.457
 5549SOL    HW217547   4.599   4.466   6.526
 5550SOL     OW17548   2.609   5.723   2.033
 5550SOL    HW117549   2.656   5.686   1.954
 5550SOL    HW217550   2.539   5.659   2.064
 5551SOL     OW17551   2.173   0.736   3.139
 5551SOL    HW117552   2.104   0.700   3.202
 5551SOL    HW217553   2.217   0.816   3.181
 5552SOL     OW17554   6.461   0.924   6.767
 5552SOL    HW117555   6.388   0.884   6.710
 5552SOL    HW217556   6.548   0.919   6.717
 5553SOL     OW17557   4.420   6.032   0.170
 5553SOL    HW117558   4.497   6.032   0.106
 5553SOL    HW217559   4.446   5.986   0.254
 5554SOL     OW17560   3.301   1.342   5.597
 5554SOL    HW117561   3.218   1.393   5.576
 5554SOL    HW217562   3.334   1.295   5.515
 5555SOL     OW17563   0.880   4.321   3.843
 5555SOL    HW117564   0.853   4.408   3.801
 5555SOL    HW217565   0.865   4.247   3.778
 5556SOL     OW17566   0.601   2.543   4.114
 5556SOL    HW117567   0.506   2.516   4.101
 5556SOL    HW217568   0.635   2.505   4.200
 5557SOL     OW17569   3.414   5.868   2.843
 5557SOL    HW117570   3.408   5.802   2.767
 5557SOL    HW217571   3.420   5.961   2.806
 5558SOL     OW17572   5.007   3.651   6.543
 5558SOL    HW117573   4.969   3.665   6.634
 5558SOL    HW217574   4.935   3.657   6.475
 5559SOL     OW17575   2.257   6.825   2.086
 5559SOL    HW117576   2.289   6.731   2.094
 5559SOL    HW217577   2.174   6.827   2.030
 5560SOL     OW17578   0.605   6.801   3.678
 5560SOL    HW117579   0.592   6.855   3.596
 5560SOL    HW217580   0.634   6.860   3.754
 5561SOL     OW17581   2.280   2.395   4.030
 5561SOL    HW117582   2.354   2.461   4.041
 5561SOL    HW217583   2.210   2.411   4.100
 5562SOL     OW17584   2.637   2.527   0.250
 5562SOL    HW117585   2.699   2.605   0.242
 5562SOL    HW217586   2.596   2.506   0.161
 5563SOL     OW17587   4.580   6.420   2.350
 5563SOL    HW117588   4.534   6.421   2.261
 5563SOL    HW217589   4.644   6.343   2.354
 5564SOL     OW17590   4.287   1.682   2.049
 5564SOL    HW117591   4.271   1.593   2.005
 5564SOL    HW217592   4.202   1.735   2.046
 5565SOL     OW17593   4.863   1.863   6.729
 5565SOL    HW117594   4.887   1.774   6.769
 5565SOL    HW217595   4.859   1.855   6.630
 5566SOL     OW17596   1.612   5.131   0.794
 5566SOL    HW117597   1.554   5.112   0.715
 5566SOL    HW217598   1.562   5.107   0.878
 5567SOL     OW17599   0.702   4.499   2.118
 5567SOL    HW117600   0.788   4.528   2.160
 5567SOL    HW217601   0.721   4.438   2.041
 5568SOL     OW17602   4.841   2.471   2.490
 5568SOL    HW117603   4.795   2.390   2.527
 5568SOL    HW217604   4.938   2.469   2.515
 5569SOL     OW17605   3.096   1.233   1.788
 5569SOL    HW117606   3.168   1.259   1.723
 5569SOL    HW217607   3.133   1.169   1.855
 5570SOL     OW17608   5.570   4.328   4.879
 5570SOL    HW117609   5.544   4.423   4.863
 5570SOL    HW217610   5.489   4.270   4.867
 5571SOL     OW17611   0.513   6.981   6.860
 5571SOL    HW117612   0.482   0.047   6.827
 5571SOL    HW217613   0.606   6.990   6.897
 5572SOL     OW17614   2.080   2.826   6.120
 5572SOL    HW117615   1.989   2.866   6.133
 5572SOL    HW217616   2.074   2.727   6.132
 5573SOL     OW17617   1.901   2.866   6.947
 5573SOL    HW117618   1.917   2.829   6.856
 5573SOL    HW217619   1.824   2.818   6.990
 5574SOL     OW17620   6.488   1.015   3.790
 5574SOL    HW117621   6.416   1.083   3.798
 5574SOL    HW217622   6.577   1.060   3.792
 5575SOL     OW17623   0.538   1.422   1.789
 5575SOL    HW117624   0.460   1.484   1.794
 5575SOL    HW217625   0.578   1.425   1.697
 5576SOL     OW17626   6.659   5.959   2.024
 5576SOL    HW117627   6.679   6.049   2.062
 5576SOL    HW217628   6.720   5.941   1.946
 5577SOL     OW17629   3.062   2.805   6.337
 5577SOL    HW117630   3.099   2.822   6.429
 5577SOL    HW217631   2.964   2.787   6.344
 5578SOL     OW17632   4.393   3.576   0.820
 5578SOL    HW117633   4.450   3.534   0.750
 5578SOL    HW217634   4.369   3.508   0.889
 5579SOL     OW17635   6.341   3.973   6.888
 5579SOL    HW117636   6.296   3.956   6.800
 5579SOL    HW217637   6.439   3.961   6.879
 5580SOL     OW17638   4.528   2.140   6.458
 5580SOL    HW117639   4.505   2.166   6.365
 5580SOL    HW217640   4.444   2.122   6.510
 5581SOL     OW17641   2.281   6.830   1.215
 5581SOL    HW117642   2.320   6.919   1.237
 5581SOL    HW217643   2.255   6.828   1.118
 5582SOL     OW17644   3.412   3.289   3.713
 5582SOL    HW117645   3.507   3.281   3.742
 5582SOL    HW217646   3.385   3.205   3.665
 5583SOL     OW17647   3.703   6.547   2.651
 5583SOL    HW117648   3.700   6.514   2.556
 5583SOL    HW217649   3.683   6.645   2.653
 5584SOL     OW17650   5.747   4.136   4.326
 5584SOL    HW117651   5.682   4.065   4.297
 5584SOL    HW217652   5.786   4.111   4.415
 5585SOL     OW17653   4.790   0.531   3.599
 5585SOL    HW117654   4.804   0.435   3.622
 5585SOL    HW217655   4.804   0.588   3.681
 5586SOL     OW17656   1.242   2.475   0.116
 5586SOL    HW117657   1.305   2.403   0.088
 5586SOL    HW217658   1.224   2.469   0.214
 5587SOL     OW17659   4.487   6.598   1.848
 5587SOL    HW117660   4.521   6.586   1.942
 5587SOL    HW217661   4.394   6.561   1.841
 5588SOL     OW17662   0.978   6.464   4.202
 5588SOL    HW117663   0.885   6.430   4.216
 5588SOL    HW217664   1.044   6.392   4.226
 5589SOL     OW17665   5.036   2.879   6.736
 5589SOL    HW117666   5.134   2.879   6.757
 5589SOL    HW217667   4.992   2.801   6.781
 5590SOL     OW17668   6.928   5.467   2.821
 5590SOL    HW117669   6.897   5.559   2.846
 5590SOL    HW217670   7.008   5.443   2.875
 5591SOL     OW17671   5.592   0.582   6.216
 5591SOL    HW117672   5.593   0.597   6.315
 5591SOL    HW217673   5.567   0.666   6.170
 5592SOL     OW17674   2.476   5.078   2.683
 5592SOL    HW117675   2.496   5.176   2.678
 5592SOL    HW217676   2.540   5.027   2.626
 5593SOL     OW17677   0.256   2.525   5.625
 5593SOL    HW117678   0.274   2.622   5.638
 5593SOL    HW217679   0.177   2.497   5.679
 5594SOL     OW17680   2.866   1.141   6.713
 5594SOL    HW117681   2.896   1.235   6.697
 5594SOL    HW217682   2.814   1.136   6.798
 5595SOL     OW17683   6.006   0.981   5.103
 5595SOL    HW117684   5.953   0.920   5.162
 5595SOL    HW217685   6.075   0.929   5.054
 5596SOL     OW17686   4.994   0.522   3.008
 5596SOL    HW117687   4.917   0.459   3.015
 5596SOL    HW217688   5.067   0.479   2.956
 5597SOL     OW17689   5.166   2.132   5.221
 5597SOL    HW117690   5.165   2.151   5.320
 5597SOL    HW217691   5.226   2.197   5.175
 5598SOL     OW17692   5.338   2.750   4.062
 5598SOL    HW117693   5.416   2.794   4.017
 5598SOL    HW217694   5.343   2.651   4.046
 5599SOL     OW17695   6.429   3.863   2.354
 5599SOL    HW117696   6.452   3.848   2.450
 5599SOL    HW217697   6.477   3.796   2.298
 5600SOL     OW17698   2.361   0.408   2.426
 5600SOL    HW117699   2.385   0.435   2.332
 5600SOL    HW217700   2.330   0.314   2.426
 5601SOL     OW17701   4.375   2.207   5.920
 5601SOL    HW117702   4.454   2.243   5.870
 5601SOL    HW217703   4.359   2.112   5.893
 5602SOL     OW17704   6.837   0.934   3.153
 5602SOL    HW117705   6.805   1.009   3.095
 5602SOL    HW217706   6.763   0.903   3.212
 5603SOL     OW17707   4.802   2.248   4.968
 5603SOL    HW117708   4.835   2.286   5.054
 5603SOL    HW217709   4.807   2.318   4.896
 5604SOL     OW17710   1.404   1.957   4.832
 5604SOL    HW117711   1.340   2.034   4.835
 5604SOL    HW217712   1.442   1.950   4.739
 5605SOL     OW17713   1.283   0.093   5.255
 5605SOL    HW117714   1.227   0.059   5.330
 5605SOL    HW217715   1.242   0.176   5.218
 5606SOL     OW17716   4.103   1.077   0.514
 5606SOL    HW117717   4.202   1.070   0.527
 5606SOL    HW217718   4.060   1.088   0.604
 5607SOL     OW17719   5.954   2.252   3.573
 5607SOL    HW117720   5.931   2.161   3.607
 5607SOL    HW217721   5.882   2.284   3.511
 5608SOL     OW17722   6.055   1.337   3.103
 5608SOL    HW117723   6.146   1.313   3.069
 5608SOL    HW217724   5.991   1.340   3.027
 5609SOL     OW17725   4.909   6.028   0.434
 5609SOL    HW117726   4.901   6.063   0.341
 5609SOL    HW217727   5.005   6.035   0.465
 5610SOL     OW17728   5.868   3.734   0.786
 5610SOL    HW117729   5.797   3.776   0.843
 5610SOL    HW217730   5.955   3.778   0.805
 5611SOL     OW17731   1.031   4.937   2.226
 5611SOL    HW117732   1.121   4.899   2.244
 5611SOL    HW217733   0.990   4.969   2.312
 5612SOL     OW17734   3.309   2.744   0.611
 5612SOL    HW117735   3.262   2.687   0.679
 5612SOL    HW217736   3.287   2.840   0.627
 5613SOL     OW17737   6.939   4.785   5.289
 5613SOL    HW117738   6.877   4.795   5.212
 5613SOL    HW217739   6.911   4.847   5.363
 5614SOL     OW17740   6.236   2.531   4.595
 5614SOL    HW117741   6.156   2.573   4.638
 5614SOL    HW217742   6.276   2.596   4.530
 5615SOL     OW17743   0.045   1.501   3.017
 5615SOL    HW117744   0.073   1.410   2.986
 5615SOL    HW217745   0.063   1.509   3.115
 5616SOL     OW17746   2.470   2.318   5.114
 5616SOL    HW117747   2.411   2.259   5.060
 5616SOL    HW217748   2.495   2.399   5.061
 5617SOL     OW17749   1.794   4.137   4.698
 5617SOL    HW117750   1.872   4.182   4.742
 5617SOL    HW217751   1.811   4.131   4.600
 5618SOL     OW17752   6.758   5.363   3.165
 5618SOL    HW117753   6.777   5.328   3.074
 5618SOL    HW217754   6.740   5.287   3.227
 5619SOL     OW17755   3.519   2.909   3.646
 5619SOL    HW117756   3.478   2.887   3.735
 5619SOL    HW217757   3.598   2.968   3.659
 5620SOL     OW17758   4.869   3.852   6.089
 5620SOL    HW117759   4.853   3.892   5.998
 5620SOL    HW217760   4.967   3.839   6.103
 5621SOL     OW17761   1.041   3.308   6.381
 5621SOL    HW117762   0.951   3.328   6.342
 5621SOL    HW217763   1.095   3.255   6.316
 5622SOL     OW17764   4.461   6.637   5.295
 5622SOL    HW117765   4.419   6.579   5.365
 5622SOL    HW217766   4.552   6.603   5.274
 5623SOL     OW17767   4.728   6.809   5.162
 5623SOL    HW117768   4.687   6.852   5.081
 5623SOL    HW217769   4.699   6.714   5.168
 5624SOL     OW17770   1.071   5.253   3.620
 5624SOL    HW117771   1.062   5.203   3.707
 5624SOL    HW217772   0.980   5.268   3.581
 5625SOL     OW17773   0.725   4.824   5.051
 5625SOL    HW117774   0.681   4.866   5.131
 5625SOL    HW217775   0.698   4.728   5.045
 5626SOL     OW17776   2.499   4.863   4.379
 5626SOL    HW117777   2.490   4.846   4.478
 5626SOL    HW217778   2.460   4.786   4.329
 5627SOL     OW17779   6.700   5.761   6.043
 5627SOL    HW117780   6.711   5.858   6.025
 5627SOL    HW217781   6.789   5.715   6.034
 5628SOL     OW17782   3.201   3.016   1.537
 5628SOL    HW117783   3.225   3.007   1.633
 5628SOL    HW217784   3.154   2.933   1.506
 5629SOL     OW17785   4.069   2.939   1.715
 5629SOL    HW117786   4.149   2.993   1.738
 5629SOL    HW217787   4.097   2.849   1.680
 5630SOL     OW17788   1.784   4.073   6.207
 5630SOL    HW117789   1.867   4.018   6.209
 5630SOL    HW217790   1.794   4.150   6.270
 5631SOL     OW17791   5.476   0.975   1.889
 5631SOL    HW117792   5.519   0.914   1.956
 5631SOL    HW217793   5.440   1.056   1.935
 5632SOL     OW17794   4.992   1.683   5.828
 5632SOL    HW117795   4.919   1.687   5.896
 5632SOL    HW217796   4.959   1.722   5.742
 5633SOL     OW17797   6.818   4.995   4.654
 5633SOL    HW117798   6.732   5.045   4.669
 5633SOL    HW217799   6.885   5.056   4.612
 5634SOL     OW17800   1.765   4.584   3.549
 5634SOL    HW117801   1.704   4.549   3.620
 5634SOL    HW217802   1.740   4.678   3.527
 5635SOL     OW17803   2.521   6.309   6.895
 5635SOL    HW117804   2.569   6.348   6.816
 5635SOL    HW217805   2.529   6.371   6.973
 5636SOL     OW17806   5.352   0.749   5.656
 5636SOL    HW117807   5.367   0.845   5.636
 5636SOL    HW217808   5.276   0.715   5.600
 5637SOL     OW17809   5.118   0.254   3.929
 5637SOL    HW117810   5.129   0.255   4.028
 5637SOL    HW217811   5.049   0.322   3.902
 5638SOL     OW17812   5.908   5.621   0.934
 5638SOL    HW117813   6.008   5.622   0.945
 5638SOL    HW217814   5.886   5.613   0.837
 5639SOL     OW17815   1.255   0.771   1.906
 5639SOL    HW117816   1.346   0.763   1.947
 5639SOL    HW217817   1.210   0.682   1.908
 5640SOL     OW17818   2.893   0.004   2.366
 5640SOL    HW117819   2.824   0.073   2.344
 5640SOL    HW217820   2.950   7.010   2.286
 5641SOL     OW17821   0.407   4.279   6.242
 5641SOL    HW117822   0.421   4.221   6.322
 5641SOL    HW217823   0.441   4.371   6.262
 5642SOL     OW17824   1.174   4.993   5.557
 5642SOL    HW117825   1.169   4.936   5.475
 5642SOL    HW217826   1.226   5.076   5.536
 5643SOL     OW17827   3.378   0.607   5.130
 5643SOL    HW117828   3.398   0.620   5.032
 5643SOL    HW217829   3.431   0.672   5.184
 5644SOL     OW17830   3.855   0.461   3.960
 5644SOL    HW117831   3.902   0.536   3.913
 5644SOL    HW217832   3.756   0.475   3.953
 5645SOL     OW17833   6.806   4.384   3.266
 5645SOL    HW117834   6.708   4.406   3.270
 5645SOL    HW217835   6.823   4.327   3.186
 5646SOL     OW17836   2.238   5.544   3.522
 5646SOL    HW117837   2.262   5.618   3.585
 5646SOL    HW217838   2.165   5.574   3.461
 5647SOL     OW17839   5.943   6.874   0.038
 5647SOL    HW117840   5.983   6.783   0.050
 5647SOL    HW217841   5.999   6.941   0.086
 5648SOL     OW17842   1.391   1.668   2.784
 5648SOL    HW117843   1.372   1.740   2.851
 5648SOL    HW217844   1.467   1.697   2.725
 5649SOL     OW17845   0.839   6.652   5.892
 5649SOL    HW117846   0.837   6.742   5.937
 5649SOL    HW217847   0.801   6.661   5.800
 5650SOL     OW17848   0.536   5.529   1.164
 5650SOL    HW117849   0.507   5.621   1.192
 5650SOL    HW217850   0.635   5.523   1.167
 5651SOL     OW17851   0.374   0.987   1.926
 5651SOL    HW117852   0.345   0.919   1.858
 5651SOL    HW217853   0.469   0.969   1.953
 5652SOL     OW17854   5.872   6.550   1.889
 5652SOL    HW117855   5.783   6.523   1.925
 5652SOL    HW217856   5.891   6.644   1.915
 5653SOL     OW17857   0.467   6.522   6.490
 5653SOL    HW117858   0.421   6.457   6.551
 5653SOL    HW217859   0.565   6.505   6.491
 5654SOL     OW17860   6.520   6.593   5.347
 5654SOL    HW117861   6.516   6.659   5.273
 5654SOL    HW217862   6.608   6.601   5.394
 5655SOL     OW17863   1.293   3.510   4.484
 5655SOL    HW117864   1.308   3.575   4.558
 5655SOL    HW217865   1.318   3.418   4.514
 5656SOL     OW17866   1.779   4.144   0.368
 5656SOL    HW117867   1.837   4.075   0.326
 5656SOL    HW217868   1.799   4.233   0.329
 5657SOL     OW17869   5.462   0.596   0.991
 5657SOL    HW117870   5.419   0.665   1.048
 5657SOL    HW217871   5.449   0.506   1.032
 5658SOL     OW17872   3.486   5.778   5.838
 5658SOL    HW117873   3.538   5.706   5.792
 5658SOL    HW217874   3.521   5.790   5.931
 5659SOL     OW17875   3.638   4.131   3.478
 5659SOL    HW117876   3.647   4.097   3.385
 5659SOL    HW217877   3.710   4.198   3.496
 5660SOL     OW17878   5.743   0.019   5.612
 5660SOL    HW117879   5.683   0.092   5.644
 5660SOL    HW217880   5.838   0.052   5.612
 5661SOL     OW17881   6.997   4.165   5.887
 5661SOL    HW117882   0.042   4.130   5.952
 5661SOL    HW217883   0.016   4.237   5.831
 5662SOL     OW17884   2.747   5.443   3.576
 5662SOL    HW117885   2.715   5.492   3.495
 5662SOL    HW217886   2.686   5.463   3.653
 5663SOL     OW17887   2.018   3.805   0.002
 5663SOL    HW117888   2.055   3.852   0.082
 5663SOL    HW217889   1.920   3.824   7.017
 5664SOL     OW17890   7.009   3.968   4.277
 5664SOL    HW117891   0.012   4.008   4.189
 5664SOL    HW217892   6.918   3.999   4.303
 5665SOL     OW17893   1.893   1.839   6.899
 5665SOL    HW117894   1.878   1.914   6.964
 5665SOL    HW217895   1.874   1.871   6.807
 5666SOL     OW17896   5.530   6.188   0.681
 5666SOL    HW117897   5.488   6.098   0.681
 5666SOL    HW217898   5.628   6.180   0.698
 5667SOL     OW17899   1.299   4.057   3.769
 5667SOL    HW117900   1.241   4.102   3.838
 5667SOL    HW217901   1.346   4.126   3.716
 5668SOL     OW17902   5.638   1.909   5.407
 5668SOL    HW117903   5.717   1.862   5.445
 5668SOL    HW217904   5.579   1.844   5.359
 5669SOL     OW17905   0.348   2.566   6.722
 5669SOL    HW117906   0.313   2.612   6.804
 5669SOL    HW217907   0.413   2.626   6.675
 5670SOL     OW17908   0.270   3.147   3.985
 5670SOL    HW117909   0.247   3.207   4.062
 5670SOL    HW217910   0.187   3.128   3.932
 5671SOL     OW17911   1.021   6.780   6.309
 5671SOL    HW117912   1.006   6.827   6.222
 5671SOL    HW217913   0.945   6.800   6.371
 5672SOL     OW17914   4.379   4.274   6.775
 5672SOL    HW117915   4.423   4.244   6.690
 5672SOL    HW217916   4.340   4.365   6.761
 5673SOL     OW17917   1.031   6.051   1.766
 5673SOL    HW117918   0.932   6.041   1.757
 5673SOL    HW217919   1.077   5.981   1.712
 5674SOL     OW17920   6.636   4.135   3.894
 5674SOL    HW117921   6.709   4.200   3.874
 5674SOL    HW217922   6.631   4.067   3.821
 5675SOL     OW17923   4.137   2.350   6.039
 5675SOL    HW117924   4.211   2.310   5.985
 5675SOL    HW217925   4.174   2.425   6.094
 5676SOL     OW17926   2.071   2.062   2.088
 5676SOL    HW117927   2.026   2.149   2.068
 5676SOL    HW217928   2.013   2.006   2.146
 5677SOL     OW17929   0.650   2.623   2.773
 5677SOL    HW117930   0.596   2.645   2.854
 5677SOL    HW217931   0.744   2.655   2.787
 5678SOL     OW17932   2.336   6.506   2.860
 5678SOL    HW117933   2.365   6.433   2.798
 5678SOL    HW217934   2.407   6.520   2.930
 5679SOL     OW17935   1.141   0.615   3.406
 5679SOL    HW117936   1.169   0.523   3.379
 5679SOL    HW217937   1.216   0.679   3.389
 5680SOL     OW17938   1.034   5.649   0.528
 5680SOL    HW117939   1.079   5.589   0.594
 5680SOL    HW217940   1.008   5.734   0.573
 5681SOL     OW17941   0.466   3.728   0.041
 5681SOL    HW117942   0.389   3.742   7.001
 5681SOL    HW217943   0.465   3.800   0.111
 5682SOL     OW17944   2.133   4.826   5.178
 5682SOL    HW117945   2.185   4.823   5.264
 5682SOL    HW217946   2.177   4.767   5.110
 5683SOL     OW17947   3.592   1.311   0.062
 5683SOL    HW117948   3.639   1.227   0.089
 5683SOL    HW217949   3.536   1.293   7.004
 5684SOL     OW17950   3.746   2.924   4.808
 5684SOL    HW117951   3.763   2.932   4.710
 5684SOL    HW217952   3.805   2.854   4.847
 5685SOL     OW17953   1.405   3.346   2.009
 5685SOL    HW117954   1.476   3.335   2.078
 5685SOL    HW217955   1.445   3.330   1.918
 5686SOL     OW17956   2.560   7.010   6.349
 5686SOL    HW117957   2.487   0.010   6.414
 5686SOL    HW217958   2.522   6.955   6.274
 5687SOL     OW17959   0.655   3.762   5.472
 5687SOL    HW117960   0.612   3.852   5.477
 5687SOL    HW217961   0.605   3.698   5.529
 5688SOL     OW17962   6.493   1.872   6.950
 5688SOL    HW117963   6.469   1.805   7.021
 5688SOL    HW217964   6.572   1.926   6.980
 5689SOL     OW17965   4.626   0.376   0.432
 5689SOL    HW117966   4.722   0.359   0.413
 5689SOL    HW217967   4.616   0.465   0.477
 5690SOL     OW17968   2.476   6.237   0.412
 5690SOL    HW117969   2.497   6.272   0.504
 5690SOL    HW217970   2.390   6.187   0.414
 5691SOL     OW17971   2.477   5.869   1.773
 5691SOL    HW117972   2.501   5.821   1.858
 5691SOL    HW217973   2.549   5.854   1.705
 5692SOL     OW17974   6.826   3.162   6.042
 5692SOL    HW117975   6.795   3.249   6.080
 5692SOL    HW217976   6.821   3.165   5.943
 5693SOL     OW17977   6.010   2.478   2.607
 5693SOL    HW117978   6.068   2.554   2.578
 5693SOL    HW217979   6.017   2.403   2.540
 5694SOL     OW17980   1.071   1.633   3.763
 5694SOL    HW117981   1.000   1.597   3.825
 5694SOL    HW217982   1.064   1.732   3.758
 5695SOL     OW17983   1.006   2.938   3.388
 5695SOL    HW117984   1.025   2.996   3.467
 5695SOL    HW217985   1.089   2.927   3.334
 5696SOL     OW17986   1.347   0.558   3.063
 5696SOL    HW117987   1.356   0.526   3.157
 5696SOL    HW217988   1.251   0.556   3.036
 5697SOL     OW17989   6.527   2.063   0.912
 5697SOL    HW117990   6.518   1.964   0.917
 5697SOL    HW217991   6.477   2.105   0.987
 5698SOL     OW17992   0.457   3.109   2.286
 5698SOL    HW117993   0.378   3.060   2.324
 5698SOL    HW217994   0.453   3.106   2.186
 5699SOL     OW17995   6.144   1.964   3.096
 5699SOL    HW117996   6.207   1.976   3.019
 5699SOL    HW217997   6.051   1.989   3.067
 5700SOL     OW17998   6.530   6.542   4.474
 5700SOL    HW117999   6.445   6.574   4.432
 5700SOL    HW218000   6.602   6.609   4.459
 5701SOL     OW18001   1.216   6.321   3.436
 5701SOL    HW118002   1.226   6.263   3.518
 5701SOL    HW218003   1.119   6.340   3.421
 5702SOL     OW18004   1.663   0.091   5.285
 5702SOL    HW118005   1.564   0.107   5.278
 5702SOL    HW218006   1.681   0.033   5.364
 5703SOL     OW18007   5.446   4.156   1.335
 5703SOL    HW118008   5.545   4.161   1.322
 5703SOL    HW218009   5.407   4.247   1.325
 5704SOL     OW18010   4.265   5.572   1.881
 5704SOL    HW118011   4.236   5.489   1.834
 5704SOL    HW218012   4.339   5.615   1.829
 5705SOL     OW18013   5.054   1.276   0.721
 5705SOL    HW118014   5.037   1.271   0.820
 5705SOL    HW218015   5.116   1.353   0.703
 5706SOL     OW18016   0.808   1.959   0.307
 5706SOL    HW118017   0.744   1.895   0.265
 5706SOL    HW218018   0.764   2.004   0.385
 5707SOL     OW18019   0.412   0.157   0.561
 5707SOL    HW118020   0.512   0.157   0.562
 5707SOL    HW218021   0.380   0.071   0.520
 5708SOL     OW18022   5.035   6.469   1.178
 5708SOL    HW118023   5.037   6.558   1.134
 5708SOL    HW218024   5.040   6.397   1.109
 5709SOL     OW18025   1.382   0.163   3.507
 5709SOL    HW118026   1.402   0.243   3.451
 5709SOL    HW218027   1.420   0.081   3.465
 5710SOL     OW18028   2.727   3.377   6.560
 5710SOL    HW118029   2.632   3.387   6.587
 5710SOL    HW218030   2.733   3.355   6.463
 5711SOL     OW18031   4.131   0.610   2.941
 5711SOL    HW118032   4.053   0.560   2.980
 5711SOL    HW218033   4.190   0.642   3.015
 5712SOL     OW18034   0.827   5.619   5.929
 5712SOL    HW118035   0.829   5.520   5.946
 5712SOL    HW218036   0.741   5.657   5.963
 5713SOL     OW18037   1.416   1.996   1.966
 5713SOL    HW118038   1.378   1.962   1.880
 5713SOL    HW218039   1.416   2.096   1.966
 5714SOL     OW18040   0.312   6.294   6.598
 5714SOL    HW118041   0.235   6.309   6.536
 5714SOL    HW218042   0.348   6.202   6.586
 5715SOL     OW18043   1.334   6.513   3.603
 5715SOL    HW118044   1.366   6.449   3.674
 5715SOL    HW218045   1.326   6.464   3.516
 5716SOL     OW18046   1.387   4.726   6.864
 5716SOL    HW118047   1.327   4.679   6.799
 5716SOL    HW218048   1.418   4.813   6.825
 5717SOL     OW18049   1.953   6.327   0.982
 5717SOL    HW118050   2.001   6.388   1.044
 5717SOL    HW218051   1.969   6.232   1.009
 5718SOL     OW18052   1.108   3.447   6.088
 5718SOL    HW118053   1.144   3.354   6.082
 5718SOL    HW218054   1.026   3.456   6.031
 5719SOL     OW18055   2.197   1.356   6.098
 5719SOL    HW118056   2.264   1.337   6.026
 5719SOL    HW218057   2.218   1.443   6.141
 5720SOL     OW18058   0.804   4.865   4.244
 5720SOL    HW118059   0.809   4.848   4.343
 5720SOL    HW218060   0.896   4.877   4.208
 5721SOL     OW18061   0.422   3.613   0.637
 5721SOL    HW118062   0.466   3.677   0.699
 5721SOL    HW218063   0.425   3.649   0.544
 5722SOL     OW18064   6.230   2.087   4.962
 5722SOL    HW118065   6.307   2.075   4.900
 5722SOL    HW218066   6.144   2.068   4.914
 5723SOL     OW18067   4.310   3.685   0.078
 5723SOL    HW118068   4.345   3.699   0.171
 5723SOL    HW218069   4.310   3.772   0.030
 5724SOL     OW18070   4.056   2.695   5.315
 5724SOL    HW118071   3.965   2.715   5.279
 5724SOL    HW218072   4.091   2.611   5.274
 5725SOL     OW18073   6.145   5.521   3.881
 5725SOL    HW118074   6.120   5.470   3.963
 5725SOL    HW218075   6.230   5.571   3.898
 5726SOL     OW18076   6.218   3.827   3.782
 5726SOL    HW118077   6.294   3.784   3.831
 5726SOL    HW218078   6.170   3.890   3.843
 5727SOL     OW18079   0.967   2.664   4.117
 5727SOL    HW118080   0.984   2.573   4.155
 5727SOL    HW218081   0.942   2.655   4.020
 5728SOL     OW18082   4.623   1.205   6.888
 5728SOL    HW118083   4.612   1.263   6.968
 5728SOL    HW218084   4.606   1.258   6.805
 5729SOL     OW18085   0.658   1.542   0.118
 5729SOL    HW118086   0.676   1.521   0.022
 5729SOL    HW218087   0.586   1.481   0.152
 5730SOL     OW18088   4.373   5.245   5.681
 5730SOL    HW118089   4.358   5.167   5.620
 5730SOL    HW218090   4.344   5.329   5.635
 5731SOL     OW18091   1.985   6.505   4.169
 5731SOL    HW118092   1.975   6.557   4.254
 5731SOL    HW218093   1.899   6.508   4.118
 5732SOL     OW18094   6.792   4.994   5.436
 5732SOL    HW118095   6.694   4.996   5.453
 5732SOL    HW218096   6.827   5.088   5.436
 5733SOL     OW18097   3.093   0.352   5.704
 5733SOL    HW118098   3.161   0.377   5.773
 5733SOL    HW218099   3.001   0.356   5.744
 5734SOL     OW18100   1.432   6.097   6.016
 5734SOL    HW118101   1.479   6.074   6.102
 5734SOL    HW218102   1.464   6.035   5.944
 5735SOL     OW18103   4.144   0.964   2.491
 5735SOL    HW118104   4.120   1.010   2.405
 5735SOL    HW218105   4.170   0.870   2.471
 5736SOL     OW18106   5.714   4.245   1.324
 5736SOL    HW118107   5.680   4.280   1.237
 5736SOL    HW218108   5.759   4.156   1.309
 5737SOL     OW18109   5.582   5.611   6.865
 5737SOL    HW118110   5.487   5.636   6.846
 5737SOL    HW218111   5.615   5.548   6.795
 5738SOL     OW18112   3.407   2.380   6.680
 5738SOL    HW118113   3.318   2.379   6.726
 5738SOL    HW218114   3.452   2.291   6.692
 5739SOL     OW18115   0.775   6.284   5.376
 5739SOL    HW118116   0.736   6.305   5.466
 5739SOL    HW218117   0.703   6.257   5.313
 5740SOL     OW18118   4.083   4.164   1.137
 5740SOL    HW118119   4.136   4.079   1.140
 5740SOL    HW218120   4.036   4.177   1.224
 5741SOL     OW18121   6.860   3.689   4.700
 5741SOL    HW118122   6.832   3.731   4.786
 5741SOL    HW218123   6.792   3.621   4.673
 5742SOL     OW18124   4.479   6.317   2.065
 5742SOL    HW118125   4.454   6.226   2.096
 5742SOL    HW218126   4.494   6.316   1.966
 5743SOL     OW18127   2.014   5.912   5.671
 5743SOL    HW118128   2.110   5.938   5.678
 5743SOL    HW218129   1.956   5.993   5.685
 5744SOL     OW18130   4.845   1.687   1.359
 5744SOL    HW118131   4.749   1.710   1.341
 5744SOL    HW218132   4.895   1.769   1.384
 5745SOL     OW18133   1.934   1.306   3.188
 5745SOL    HW118134   1.936   1.370   3.264
 5745SOL    HW218135   2.019   1.252   3.187
 5746SOL     OW18136   4.797   0.346   1.937
 5746SOL    HW118137   4.760   0.424   1.986
 5746SOL    HW218138   4.819   0.273   2.003
 5747SOL     OW18139   1.757   5.454   1.856
 5747SOL    HW118140   1.733   5.535   1.909
 5747SOL    HW218141   1.804   5.388   1.914
 5748SOL     OW18142   1.305   0.401   1.268
 5748SOL    HW118143   1.376   0.365   1.329
 5748SOL    HW218144   1.228   0.337   1.266
 5749SOL     OW18145   1.347   6.246   4.993
 5749SOL    HW118146   1.410   6.171   4.973
 5749SOL    HW218147   1.255   6.223   4.960
 5750SOL     OW18148   6.175   6.087   4.964
 5750SOL    HW118149   6.175   6.060   5.060
 5750SOL    HW218150   6.269   6.097   4.932
 5751SOL     OW18151   2.206   3.009   4.726
 5751SOL    HW118152   2.292   3.059   4.730
 5751SOL    HW218153   2.155   3.025   4.810
 5752SOL     OW18154   5.432   0.417   0.002
 5752SOL    HW118155   5.334   0.399   7.021
 5752SOL    HW218156   5.469   0.418   6.931
 5753SOL     OW18157   3.986   3.965   4.503
 5753SOL    HW118158   4.015   4.048   4.552
 5753SOL    HW218159   3.899   3.933   4.540
 5754SOL     OW18160   7.010   5.530   2.314
 5754SOL    HW118161   6.961   5.471   2.250
 5754SOL    HW218162   0.003   5.620   2.271
 5755SOL     OW18163   1.968   2.386   6.742
 5755SOL    HW118164   1.875   2.423   6.737
 5755SOL    HW218165   1.976   2.328   6.823
 5756SOL     OW18166   6.757   0.431   2.911
 5756SOL    HW118167   6.847   0.397   2.937
 5756SOL    HW218168   6.697   0.354   2.888
 5757SOL     OW18169   0.422   5.576   2.961
 5757SOL    HW118170   0.466   5.501   3.011
 5757SOL    HW218171   0.401   5.545   2.868
 5758SOL     OW18172   2.389   1.303   3.693
 5758SOL    HW118173   2.487   1.284   3.702
 5758SOL    HW218174   2.376   1.399   3.665
 5759SOL     OW18175   5.018   0.639   6.757
 5759SOL    HW118176   5.050   0.731   6.734
 5759SOL    HW218177   5.005   0.632   6.856
 5760SOL     OW18178   6.729   2.891   0.892
 5760SOL    HW118179   6.760   2.843   0.974
 5760SOL    HW218180   6.695   2.981   0.917
 5761SOL     OW18181   5.712   5.156   5.925
 5761SOL    HW118182   5.791   5.191   5.875
 5761SOL    HW218183   5.728   5.061   5.952
 5762SOL     OW18184   5.115   3.846   1.232
 5762SOL    HW118185   5.099   3.751   1.204
 5762SOL    HW218186   5.057   3.907   1.179
 5763SOL     OW18187   6.611   5.832   0.620
 5763SOL    HW118188   6.665   5.914   0.602
 5763SOL    HW218189   6.518   5.858   0.646
 5764SOL     OW18190   5.376   4.827   5.240
 5764SOL    HW118191   5.410   4.773   5.317
 5764SOL    HW218192   5.373   4.924   5.266
 5765SOL     OW18193   6.523   3.091   0.961
 5765SOL    HW118194   6.563   3.181   0.976
 5765SOL    HW218195   6.426   3.100   0.940
 5766SOL     OW18196   1.725   1.613   5.783
 5766SOL    HW118197   1.804   1.671   5.800
 5766SOL    HW218198   1.642   1.659   5.816
 5767SOL     OW18199   2.085   0.684   0.803
 5767SOL    HW118200   2.010   0.679   0.738
 5767SOL    HW218201   2.163   0.630   0.769
 5768SOL     OW18202   1.274   5.955   4.059
 5768SOL    HW118203   1.282   6.054   4.067
 5768SOL    HW218204   1.177   5.929   4.067
 5769SOL     OW18205   2.057   5.381   4.398
 5769SOL    HW118206   2.156   5.381   4.411
 5769SOL    HW218207   2.013   5.428   4.475
 5770SOL     OW18208   6.551   6.050   6.357
 5770SOL    HW118209   6.490   5.971   6.352
 5770SOL    HW218210   6.512   6.118   6.419
 5771SOL     OW18211   1.185   6.819   4.252
 5771SOL    HW118212   1.103   6.826   4.196
 5771SOL    HW218213   1.183   6.733   4.304
 5772SOL     OW18214   5.385   1.165   2.060
 5772SOL    HW118215   5.333   1.249   2.070
 5772SOL    HW218216   5.413   1.131   2.149
 5773SOL     OW18217   3.794   0.448   3.493
 5773SOL    HW118218   3.792   0.545   3.518
 5773SOL    HW218219   3.832   0.395   3.569
 5774SOL     OW18220   3.162   6.600   4.067
 5774SOL    HW118221   3.115   6.593   3.980
 5774SOL    HW218222   3.180   6.508   4.103
 5775SOL     OW18223   1.532   0.927   2.560
 5775SOL    HW118224   1.517   1.015   2.605
 5775SOL    HW218225   1.630   0.917   2.539
 5776SOL     OW18226   0.109   0.575   4.113
 5776SOL    HW118227   0.204   0.574   4.082
 5776SOL    HW218228   0.103   0.533   4.203
 5777SOL     OW18229   6.797   0.473   4.963
 5777SOL    HW118230   6.722   0.494   4.901
 5777SOL    HW218231   6.762   0.421   5.041
 5778SOL     OW18232   1.427   0.413   1.003
 5778SOL    HW118233   1.501   0.480   1.009
 5778SOL    HW218234   1.408   0.378   1.095
 5779SOL     OW18235   3.929   2.683   0.929
 5779SOL    HW118236   4.008   2.708   0.984
 5779SOL    HW218237   3.869   2.763   0.919
 5780SOL     OW18238   6.243   5.818   4.167
 5780SOL    HW118239   6.293   5.764   4.099
 5780SOL    HW218240   6.290   5.810   4.255
 5781SOL     OW18241   6.588   5.103   4.462
 5781SOL    HW118242   6.528   5.026   4.485
 5781SOL    HW218243   6.662   5.070   4.403
 5782SOL     OW18244   1.770   1.376   0.421
 5782SOL    HW118245   1.820   1.449   0.375
 5782SOL    HW218246   1.706   1.415   0.487
 5783SOL     OW18247   1.340   0.367   1.664
 5783SOL    HW118248   1.389   0.406   1.741
 5783SOL    HW218249   1.252   0.331   1.696
 5784SOL     OW18250   6.787   5.878   6.382
 5784SOL    HW118251   6.752   5.798   6.333
 5784SOL    HW218252   6.716   5.947   6.387
 5785SOL     OW18253   2.484   1.669   0.546
 5785SOL    HW118254   2.470   1.580   0.503
 5785SOL    HW218255   2.568   1.710   0.511
 5786SOL     OW18256   1.208   3.878   0.212
 5786SOL    HW118257   1.146   3.937   0.161
 5786SOL    HW218258   1.154   3.821   0.275
 5787SOL     OW18259   3.612   2.100   4.812
 5787SOL    HW118260   3.579   2.116   4.719
 5787SOL    HW218261   3.535   2.102   4.876
 5788SOL     OW18262   3.178   1.194   0.980
 5788SOL    HW118263   3.109   1.137   0.936
 5788SOL    HW218264   3.138   1.283   1.003
 5789SOL     OW18265   3.400   4.578   6.591
 5789SOL    HW118266   3.442   4.652   6.538
 5789SOL    HW218267   3.319   4.612   6.638
 5790SOL     OW18268   1.029   4.627   4.556
 5790SOL    HW118269   1.105   4.684   4.588
 5790SOL    HW218270   1.065   4.549   4.505
 5791SOL     OW18271   3.476   1.489   2.698
 5791SOL    HW118272   3.411   1.509   2.770
 5791SOL    HW218273   3.432   1.500   2.608
 5792SOL     OW18274   6.256   3.077   2.514
 5792SOL    HW118275   6.238   2.993   2.565
 5792SOL    HW218276   6.265   3.055   2.416
 5793SOL     OW18277   4.699   0.961   3.931
 5793SOL    HW118278   4.688   1.060   3.930
 5793SOL    HW218279   4.795   0.938   3.918
 5794SOL     OW18280   2.213   0.865   6.831
 5794SOL    HW118281   2.215   0.959   6.864
 5794SOL    HW218282   2.143   0.814   6.882
 5795SOL     OW18283   6.465   0.098   6.777
 5795SOL    HW118284   6.493   0.005   6.799
 5795SOL    HW218285   6.368   0.111   6.800
 5796SOL     OW18286   5.151   1.387   6.075
 5796SOL    HW118287   5.202   1.310   6.113
 5796SOL    HW218288   5.168   1.469   6.130
 5797SOL     OW18289   4.698   2.513   6.615
 5797SOL    HW118290   4.722   2.421   6.582
 5797SOL    HW218291   4.642   2.504   6.697
 5798SOL     OW18292   0.924   4.895   4.838
 5798SOL    HW118293   0.992   4.830   4.804
 5798SOL    HW218294   0.856   4.847   4.893
 5799SOL     OW18295   0.306   0.680   3.540
 5799SOL    HW118296   0.371   0.620   3.493
 5799SOL    HW218297   0.218   0.678   3.492
 5800SOL     OW18298   6.350   6.498   2.362
 5800SOL    HW118299   6.287   6.427   2.391
 5800SOL    HW218300   6.437   6.457   2.335
 5801SOL     OW18301   1.723   2.448   3.357
 5801SOL    HW118302   1.676   2.363   3.380
 5801SOL    HW218303   1.807   2.426   3.307
 5802SOL     OW18304   0.454   3.911   2.247
 5802SOL    HW118305   0.527   3.846   2.225
 5802SOL    HW218306   0.393   3.920   2.168
 5803SOL     OW18307   2.415   5.434   1.836
 5803SOL    HW118308   2.421   5.500   1.911
 5803SOL    HW218309   2.497   5.444   1.779
 5804SOL     OW18310   0.556   5.810   3.718
 5804SOL    HW118311   0.541   5.860   3.803
 5804SOL    HW218312   0.607   5.868   3.654
 5805SOL     OW18313   2.352   3.286   0.270
 5805SOL    HW118314   2.346   3.380   0.306
 5805SOL    HW218315   2.263   3.241   0.279
 5806SOL     OW18316   6.557   5.266   5.010
 5806SOL    HW118317   6.639   5.303   5.054
 5806SOL    HW218318   6.581   5.229   4.921
 5807SOL     OW18319   0.845   3.854   1.689
 5807SOL    HW118320   0.859   3.755   1.689
 5807SOL    HW218321   0.929   3.899   1.658
 5808SOL     OW18322   6.514   5.483   4.754
 5808SOL    HW118323   6.549   5.522   4.669
 5808SOL    HW218324   6.568   5.516   4.831
 5809SOL     OW18325   5.794   2.130   4.403
 5809SOL    HW118326   5.888   2.143   4.371
 5809SOL    HW218327   5.736   2.203   4.365
 5810SOL     OW18328   3.897   1.727   4.770
 5810SOL    HW118329   3.964   1.654   4.762
 5810SOL    HW218330   3.930   1.808   4.722
 5811SOL     OW18331   3.090   0.833   5.299
 5811SOL    HW118332   3.136   0.885   5.228
 5811SOL    HW218333   3.113   0.872   5.389
 5812SOL     OW18334   6.396   2.681   4.417
 5812SOL    HW118335   6.473   2.620   4.439
 5812SOL    HW218336   6.428   2.754   4.357
 5813SOL     OW18337   1.571   1.757   0.873
 5813SOL    HW118338   1.648   1.706   0.834
 5813SOL    HW218339   1.550   1.836   0.816
 5814SOL     OW18340   6.593   4.085   2.347
 5814SOL    HW118341   6.536   4.003   2.341
 5814SOL    HW218342   6.628   4.108   2.257
 5815SOL     OW18343   4.153   1.911   4.829
 5815SOL    HW118344   4.156   1.855   4.912
 5815SOL    HW218345   4.120   2.002   4.850
 5816SOL     OW18346   4.551   5.063   0.225
 5816SOL    HW118347   4.556   5.145   0.281
 5816SOL    HW218348   4.582   5.085   0.132
 5817SOL     OW18349   6.007   3.800   5.655
 5817SOL    HW118350   5.941   3.860   5.610
 5817SOL    HW218351   5.980   3.705   5.641
 5818SOL     OW18352   6.940   5.920   4.873
 5818SOL    HW118353   6.844   5.922   4.843
 5818SOL    HW218354   6.948   5.964   4.963
 5819SOL     OW18355   3.278   7.001   6.423
 5819SOL    HW118356   3.258   6.950   6.507
 5819SOL    HW218357   3.339   0.055   6.444
 5820SOL     OW18358   4.793   5.305   3.534
 5820SOL    HW118359   4.713   5.327   3.479
 5820SOL    HW218360   4.811   5.380   3.597
 5821SOL     OW18361   0.050   6.809   1.401
 5821SOL    HW118362   7.019   6.766   1.329
 5821SOL    HW218363   7.019   6.816   1.484
 5822SOL     OW18364   1.580   2.333   1.224
 5822SOL    HW118365   1.498   2.303   1.175
 5822SOL    HW218366   1.632   2.396   1.167
 5823SOL     OW18367   1.726   0.311   5.402
 5823SOL    HW118368   1.672   0.381   5.357
 5823SOL    HW218369   1.716   0.224   5.354
 5824SOL     OW18370   6.919   5.850   2.272
 5824SOL    HW118371   6.828   5.851   2.314
 5824SOL    HW218372   6.911   5.875   2.175
 5825SOL     OW18373   0.136   1.696   5.469
 5825SOL    HW118374   0.093   1.664   5.553
 5825SOL    HW218375   0.180   1.618   5.423
 5826SOL     OW18376   0.099   4.650   6.217
 5826SOL    HW118377   0.008   4.612   6.228
 5826SOL    HW218378   0.109   4.689   6.126
 5827SOL     OW18379   2.142   3.858   4.836
 5827SOL    HW118380   2.099   3.881   4.748
 5827SOL    HW218381   2.195   3.936   4.868
 5828SOL     OW18382   6.331   1.765   1.575
 5828SOL    HW118383   6.381   1.848   1.599
 5828SOL    HW218384   6.252   1.755   1.635
 5829SOL     OW18385   0.900   0.718   3.318
 5829SOL    HW118386   0.978   0.673   3.361
 5829SOL    HW218387   0.839   0.752   3.389
 5830SOL     OW18388   4.904   6.440   5.927
 5830SOL    HW118389   4.858   6.510   5.872
 5830SOL    HW218390   4.837   6.376   5.964
 5831SOL     OW18391   1.444   1.462   5.460
 5831SOL    HW118392   1.407   1.434   5.549
 5831SOL    HW218393   1.371   1.461   5.392
 5832SOL     OW18394   2.689   4.414   6.637
 5832SOL    HW118395   2.738   4.411   6.724
 5832SOL    HW218396   2.590   4.418   6.654
 5833SOL     OW18397   3.749   3.752   4.994
 5833SOL    HW118398   3.829   3.809   4.974
 5833SOL    HW218399   3.749   3.728   5.091
 5834SOL     OW18400   0.051   2.808   0.568
 5834SOL    HW118401   0.059   2.801   0.469
 5834SOL    HW218402   0.101   2.889   0.600
 5835SOL     OW18403   5.466   2.963   3.336
 5835SOL    HW118404   5.498   2.954   3.242
 5835SOL    HW218405   5.374   3.002   3.336
 5836SOL     OW18406   2.493   6.952   2.159
 5836SOL    HW118407   2.406   6.903   2.158
 5836SOL    HW218408   2.509   6.993   2.069
 5837SOL     OW18409   3.813   4.076   6.140
 5837SOL    HW118410   3.747   4.006   6.169
 5837SOL    HW218411   3.802   4.094   6.042
 5838SOL     OW18412   2.750   1.747   0.490
 5838SOL    HW118413   2.848   1.733   0.475
 5838SOL    HW218414   2.736   1.837   0.532
 5839SOL     OW18415   0.686   2.136   2.548
 5839SOL    HW118416   0.755   2.198   2.511
 5839SOL    HW218417   0.714   2.105   2.639
 5840SOL     OW18418   0.197   5.402   6.420
 5840SOL    HW118419   0.132   5.445   6.483
 5840SOL    HW218420   0.203   5.304   6.440
 5841SOL     OW18421   5.082   1.888   2.463
 5841SOL    HW118422   5.107   1.963   2.524
 5841SOL    HW218423   5.069   1.923   2.370
 5842SOL     OW18424   4.375   2.841   1.535
 5842SOL    HW118425   4.463   2.888   1.538
 5842SOL    HW218426   4.301   2.907   1.551
 5843SOL     OW18427   1.494   3.924   3.313
 5843SOL    HW118428   1.458   3.890   3.400
 5843SOL    HW218429   1.502   4.024   3.318
 5844SOL     OW18430   1.944   6.105   5.967
 5844SOL    HW118431   1.987   6.193   5.987
 5844SOL    HW218432   2.014   6.035   5.959
 5845SOL     OW18433   0.761   0.258   2.799
 5845SOL    HW118434   0.775   0.200   2.879
 5845SOL    HW218435   0.705   0.337   2.824
 5846SOL     OW18436   6.449   3.022   4.750
 5846SOL    HW118437   6.510   3.003   4.674
 5846SOL    HW218438   6.369   3.073   4.716
 5847SOL     OW18439   3.006   2.062   1.710
 5847SOL    HW118440   2.914   2.098   1.723
 5847SOL    HW218441   3.020   2.039   1.614
 5848SOL     OW18442   1.304   6.076   3.087
 5848SOL    HW118443   1.275   6.010   3.157
 5848SOL    HW218444   1.300   6.032   2.997
 5849SOL     OW18445   0.891   0.748   6.074
 5849SOL    HW118446   0.805   0.708   6.107
 5849SOL    HW218447   0.935   0.798   6.149
 5850SOL     OW18448   6.892   3.545   1.872
 5850SOL    HW118449   6.940   3.633   1.870
 5850SOL    HW218450   6.813   3.552   1.933
 5851SOL     OW18451   4.852   3.894   2.928
 5851SOL    HW118452   4.778   3.851   2.877
 5851SOL    HW218453   4.875   3.838   3.007
 5852SOL     OW18454   6.213   5.967   3.097
 5852SOL    HW118455   6.267   6.030   3.040
 5852SOL    HW218456   6.118   5.998   3.101
 5853SOL     OW18457   3.537   5.582   4.358
 5853SOL    HW118458   3.556   5.580   4.456
 5853SOL    HW218459   3.611   5.628   4.310
 5854SOL     OW18460   4.555   4.370   6.204
 5854SOL    HW118461   4.514   4.419   6.281
 5854SOL    HW218462   4.627   4.426   6.163
 5855SOL     OW18463   0.788   1.924   4.873
 5855SOL    HW118464   0.791   1.840   4.819
 5855SOL    HW218465   0.801   1.903   4.970
 5856SOL     OW18466   1.990   5.929   3.726
 5856SOL    HW118467   1.901   5.949   3.768
 5856SOL    HW218468   2.039   6.015   3.711
 5857SOL     OW18469   6.269   2.141   5.990
 5857SOL    HW118470   6.322   2.120   6.072
 5857SOL    HW218471   6.316   2.103   5.910
 5858SOL     OW18472   2.820   1.926   2.310
 5858SOL    HW118473   2.750   1.995   2.329
 5858SOL    HW218474   2.908   1.971   2.296
 5859SOL     OW18475   5.859   6.376   1.354
 5859SOL    HW118476   5.914   6.298   1.323
 5859SOL    HW218477   5.864   6.382   1.454
 5860SOL     OW18478   0.802   3.556   1.711
 5860SOL    HW118479   0.811   3.536   1.808
 5860SOL    HW218480   0.801   3.471   1.659
 5861SOL     OW18481   4.256   1.866   4.562
 5861SOL    HW118482   4.215   1.895   4.648
 5861SOL    HW218483   4.292   1.773   4.572
 5862SOL     OW18484   6.199   5.322   1.318
 5862SOL    HW118485   6.213   5.226   1.294
 5862SOL    HW218486   6.283   5.360   1.356
 5863SOL     OW18487   3.429   1.999   5.258
 5863SOL    HW118488   3.338   1.985   5.299
 5863SOL    HW218489   3.456   2.094   5.268
 5864SOL     OW18490   4.113   3.634   2.291
 5864SOL    HW118491   4.074   3.714   2.337
 5864SOL    HW218492   4.093   3.552   2.344
 5865SOL     OW18493   5.996   0.388   4.631
 5865SOL    HW118494   6.009   0.290   4.646
 5865SOL    HW218495   6.010   0.410   4.535
 5866SOL     OW18496   4.157   4.547   0.013
 5866SOL    HW118497   4.192   4.622   6.979
 5866SOL    HW218498   4.093   4.584   0.080
 5867SOL     OW18499   1.962   3.554   0.418
 5867SOL    HW118500   1.976   3.534   0.321
 5867SOL    HW218501   1.914   3.478   0.462
 5868SOL     OW18502   0.902   1.827   5.425
 5868SOL    HW118503   0.949   1.739   5.423
 5868SOL    HW218504   0.804   1.812   5.414
 5869SOL     OW18505   1.453   6.071   3.406
 5869SOL    HW118506   1.508   6.109   3.332
 5869SOL    HW218507   1.483   6.110   3.493
 5870SOL     OW18508   4.879   5.776   4.496
 5870SOL    HW118509   4.884   5.768   4.596
 5870SOL    HW218510   4.787   5.751   4.465
 5871SOL     OW18511   3.723   2.971   1.417
 5871SOL    HW118512   3.766   2.888   1.453
 5871SOL    HW218513   3.624   2.965   1.432
 5872SOL     OW18514   3.873   5.988   0.924
 5872SOL    HW118515   3.784   5.955   0.893
 5872SOL    HW218516   3.869   6.006   1.023
 5873SOL     OW18517   3.142   1.725   1.530
 5873SOL    HW118518   3.195   1.786   1.589
 5873SOL    HW218519   3.074   1.676   1.584
 5874SOL     OW18520   3.300   3.673   6.527
 5874SOL    HW118521   3.217   3.616   6.526
 5874SOL    HW218522   3.376   3.622   6.487
 5875SOL     OW18523   4.391   0.738   0.047
 5875SOL    HW118524   4.415   0.695   0.134
 5875SOL    HW218525   4.440   0.693   6.995
 5876SOL     OW18526   3.611   3.636   0.665
 5876SOL    HW118527   3.700   3.679   0.680
 5876SOL    HW218528   3.550   3.701   0.620
 5877SOL     OW18529   0.502   0.685   1.046
 5877SOL    HW118530   0.443   0.644   1.115
 5877SOL    HW218531   0.509   0.624   0.967
 5878SOL     OW18532   6.041   5.076   4.067
 5878SOL    HW118533   5.974   5.014   4.108
 5878SOL    HW218534   6.128   5.027   4.056
 5879SOL     OW18535   2.097   3.709   6.777
 5879SOL    HW118536   2.072   3.756   6.862
 5879SOL    HW218537   2.169   3.761   6.730
 5880SOL     OW18538   5.299   4.485   6.727
 5880SOL    HW118539   5.373   4.476   6.660
 5880SOL    HW218540   5.213   4.458   6.684
 5881SOL     OW18541   0.820   6.674   2.374
 5881SOL    HW118542   0.887   6.607   2.405
 5881SOL    HW218543   0.755   6.629   2.312
 5882SOL     OW18544   0.014   5.524   6.569
 5882SOL    HW118545   6.956   5.483   6.613
 5882SOL    HW218546   0.017   5.622   6.590
 5883SOL     OW18547   0.286   1.728   6.675
 5883SOL    HW118548   0.233   1.672   6.611
 5883SOL    HW218549   0.244   1.819   6.681
 5884SOL     OW18550   4.983   1.226   3.914
 5884SOL    HW118551   4.944   1.304   3.963
 5884SOL    HW218552   4.932   1.210   3.829
 5885SOL     OW18553   0.126   5.882   2.443
 5885SOL    HW118554   0.049   5.866   2.382
 5885SOL    HW218555   0.181   5.958   2.409
 5886SOL     OW18556   0.638   2.091   3.717
 5886SOL    HW118557   0.639   2.191   3.728
 5886SOL    HW218558   0.632   2.048   3.807
 5887SOL     OW18559   2.245   2.660   1.556
 5887SOL    HW118560   2.288   2.673   1.467
 5887SOL    HW218561   2.308   2.608   1.615
 5888SOL     OW18562   1.618   0.659   1.348
 5888SOL    HW118563   1.564   0.610   1.418
 5888SOL    HW218564   1.709   0.679   1.385
 5889SOL     OW18565   0.171   1.031   0.355
 5889SOL    HW118566   0.259   0.983   0.356
 5889SOL    HW218567   0.101   0.972   0.314
 5890SOL     OW18568   1.896   1.117   2.736
 5890SOL    HW118569   1.986   1.131   2.695
 5890SOL    HW218570   1.835   1.191   2.708
 5891SOL     OW18571   3.236   3.974   0.035
 5891SOL    HW118572   3.240   3.960   6.959
 5891SOL    HW218573   3.245   3.885   0.081
 5892SOL     OW18574   1.147   5.204   2.226
 5892SOL    HW118575   1.146   5.141   2.149
 5892SOL    HW218576   1.122   5.155   2.310
 5893SOL     OW18577   1.916   4.327   3.106
 5893SOL    HW118578   1.975   4.362   3.034
 5893SOL    HW218579   1.912   4.227   3.101
 5894SOL     OW18580   0.505   5.764   4.435
 5894SOL    HW118581   0.429   5.821   4.467
 5894SOL    HW218582   0.585   5.821   4.418
 5895SOL     OW18583   5.201   3.440   3.732
 5895SOL    HW118584   5.254   3.484   3.805
 5895SOL    HW218585   5.105   3.465   3.741
 5896SOL     OW18586   3.811   1.492   1.227
 5896SOL    HW118587   3.893   1.505   1.171
 5896SOL    HW218588   3.761   1.412   1.194
 5897SOL     OW18589   4.020   0.513   1.763
 5897SOL    HW118590   3.983   0.533   1.673
 5897SOL    HW218591   4.082   0.587   1.790
 5898SOL     OW18592   2.505   0.670   4.930
 5898SOL    HW118593   2.555   0.648   4.846
 5898SOL    HW218594   2.534   0.608   5.003
 5899SOL     OW18595   6.572   5.374   0.019
 5899SOL    HW118596   6.616   5.454   6.999
 5899SOL    HW218597   6.577   5.384   0.119
 5900SOL     OW18598   6.550   4.723   3.605
 5900SOL    HW118599   6.454   4.698   3.588
 5900SOL    HW218600   6.570   4.713   3.703
 5901SOL     OW18601   3.328   0.354   0.643
 5901SOL    HW118602   3.263   0.406   0.698
 5901SOL    HW218603   3.338   0.398   0.554
 5902SOL     OW18604   6.119   3.245   5.485
 5902SOL    HW118605   6.176   3.255   5.403
 5902SOL    HW218606   6.024   3.267   5.463
 5903SOL     OW18607   4.743   4.075   6.279
 5903SOL    HW118608   4.651   4.097   6.246
 5903SOL    HW218609   4.787   4.010   6.217
 5904SOL     OW18610   1.331   4.896   0.929
 5904SOL    HW118611   1.374   4.963   0.990
 5904SOL    HW218612   1.235   4.922   0.914
 5905SOL     OW18613   6.074   0.515   4.363
 5905SOL    HW118614   5.988   0.480   4.327
 5905SOL    HW218615   6.149   0.490   4.301
 5906SOL     OW18616   4.081   2.004   3.625
 5906SOL    HW118617   4.027   1.933   3.579
 5906SOL    HW218618   4.056   2.007   3.722
 5907SOL     OW18619   0.913   5.981   0.263
 5907SOL    HW118620   0.816   5.960   0.274
 5907SOL    HW218621   0.963   5.897   0.247
 5908SOL     OW18622   6.578   3.072   0.425
 5908SOL    HW118623   6.642   3.001   0.453
 5908SOL    HW218624   6.620   3.129   0.354
 5909SOL     OW18625   6.674   5.093   0.138
 5909SOL    HW118626   6.613   5.089   0.217
 5909SOL    HW218627   6.735   5.172   0.146
 5910SOL     OW18628   0.241   4.329   2.321
 5910SOL    HW118629   0.199   4.419   2.327
 5910SOL    HW218630   0.169   4.260   2.311
 5911SOL     OW18631   6.546   4.511   6.517
 5911SOL    HW118632   6.595   4.438   6.565
 5911SOL    HW218633   6.588   4.599   6.538
 5912SOL     OW18634   5.763   3.151   6.496
 5912SOL    HW118635   5.803   3.112   6.412
 5912SOL    HW218636   5.817   3.122   6.575
 5913SOL     OW18637   4.130   3.516   6.670
 5913SOL    HW118638   4.122   3.563   6.758
 5913SOL    HW218639   4.112   3.418   6.682
 5914SOL     OW18640   2.295   5.064   6.470
 5914SOL    HW118641   2.263   5.087   6.378
 5914SOL    HW218642   2.395   5.053   6.468
 5915SOL     OW18643   5.874   4.677   1.623
 5915SOL    HW118644   5.864   4.627   1.537
 5915SOL    HW218645   5.787   4.723   1.644
 5916SOL     OW18646   4.191   5.510   4.881
 5916SOL    HW118647   4.250   5.498   4.960
 5916SOL    HW218648   4.156   5.603   4.879
 5917SOL     OW18649   3.589   3.559   3.614
 5917SOL    HW118650   3.489   3.569   3.607
 5917SOL    HW218651   3.617   3.581   3.707
 5918SOL     OW18652   1.949   3.227   5.580
 5918SOL    HW118653   2.007   3.286   5.523
 5918SOL    HW218654   1.929   3.142   5.531
 5919SOL     OW18655   4.422   3.129   1.107
 5919SOL    HW118656   4.352   3.058   1.109
 5919SOL    HW218657   4.472   3.129   1.193
 5920SOL     OW18658   3.582   0.599   6.984
 5920SOL    HW118659   3.608   0.675   6.924
 5920SOL    HW218660   3.492   0.564   6.955
 5921SOL     OW18661   4.236   5.299   5.929
 5921SOL    HW118662   4.263   5.283   5.835
 5921SOL    HW218663   4.254   5.395   5.953
 5922SOL     OW18664   6.651   5.598   3.215
 5922SOL    HW118665   6.702   5.670   3.168
 5922SOL    HW218666   6.691   5.509   3.193
 5923SOL     OW18667   5.419   1.347   1.102
 5923SOL    HW118668   5.459   1.280   1.040
 5923SOL    HW218669   5.320   1.341   1.099
 5924SOL     OW18670   0.022   1.146   3.875
 5924SOL    HW118671   0.105   1.188   3.912
 5924SOL    HW218672   7.011   1.201   3.799
 5925SOL     OW18673   3.838   5.393   1.986
 5925SOL    HW118674   3.790   5.308   1.963
 5925SOL    HW218675   3.781   5.471   1.960
 5926SOL     OW18676   3.717   5.189   1.405
 5926SOL    HW118677   3.646   5.196   1.475
 5926SOL    HW218678   3.769   5.274   1.401
 5927SOL     OW18679   1.302   4.159   3.003
 5927SOL    HW118680   1.400   4.178   3.004
 5927SOL    HW218681   1.286   4.062   3.021
 5928SOL     OW18682   3.624   0.053   0.518
 5928SOL    HW118683   3.589   0.129   0.463
 5928SOL    HW218684   3.563   0.036   0.595
 5929SOL     OW18685   0.317   6.404   6.234
 5929SOL    HW118686   0.240   6.449   6.280
 5929SOL    HW218687   0.321   6.308   6.262
 5930SOL     OW18688   6.870   2.639   3.487
 5930SOL    HW118689   6.904   2.579   3.414
 5930SOL    HW218690   6.890   2.597   3.576
 5931SOL     OW18691   0.116   5.416   3.653
 5931SOL    HW118692   0.097   5.353   3.728
 5931SOL    HW218693   0.040   5.481   3.643
 5932SOL     OW18694   2.148   6.944   0.658
 5932SOL    HW118695   2.140   0.021   0.647
 5932SOL    HW218696   2.072   6.900   0.612
 5933SOL     OW18697   0.193   6.152   3.796
 5933SOL    HW118698   0.154   6.209   3.867
 5933SOL    HW218699   0.224   6.209   3.720
 5934SOL     OW18700   4.033   3.587   4.391
 5934SOL    HW118701   3.997   3.514   4.449
 5934SOL    HW218702   4.086   3.547   4.317
 5935SOL     OW18703   4.589   3.992   5.982
 5935SOL    HW118704   4.684   3.991   5.951
 5935SOL    HW218705   4.557   3.898   5.993
 5936SOL     OW18706   4.208   3.313   0.959
 5936SOL    HW118707   4.225   3.232   0.904
 5936SOL    HW218708   4.111   3.337   0.954
 5937SOL     OW18709   0.786   5.006   2.896
 5937SOL    HW118710   0.880   5.036   2.880
 5937SOL    HW218711   0.746   4.975   2.809
 5938SOL     OW18712   0.605   4.956   4.085
 5938SOL    HW118713   0.670   4.929   4.156
 5938SOL    HW218714   0.631   4.913   3.998
 5939SOL     OW18715   2.874   6.681   3.118
 5939SOL    HW118716   2.876   6.781   3.124
 5939SOL    HW218717   2.962   6.649   3.083
 5940SOL     OW18718   4.551   5.690   0.894
 5940SOL    HW118719   4.489   5.676   0.817
 5940SOL    HW218720   4.517   5.766   0.950
 5941SOL     OW18721   5.704   3.097   1.860
 5941SOL    HW118722   5.614   3.140   1.869
 5941SOL    HW218723   5.753   3.137   1.782
 5942SOL     OW18724   5.369   2.876   0.338
 5942SOL    HW118725   5.329   2.784   0.347
 5942SOL    HW218726   5.421   2.881   0.253
 5943SOL     OW18727   3.699   5.490   0.254
 5943SOL    HW118728   3.760   5.467   0.179
 5943SOL    HW218729   3.721   5.582   0.287
 5944SOL     OW18730   6.467   2.768   1.449
 5944SOL    HW118731   6.531   2.705   1.493
 5944SOL    HW218732   6.492   2.779   1.353
 5945SOL     OW18733   6.132   5.381   5.312
 5945SOL    HW118734   6.163   5.286   5.311
 5945SOL    HW218735   6.065   5.394   5.385
 5946SOL     OW18736   3.400   3.619   5.753
 5946SOL    HW118737   3.457   3.690   5.713
 5946SOL    HW218738   3.452   3.534   5.761
 5947SOL     OW18739   3.738   3.857   1.835
 5947SOL    HW118740   3.833   3.867   1.863
 5947SOL    HW218741   3.682   3.923   1.886
 5948SOL     OW18742   4.003   5.302   3.070
 5948SOL    HW118743   3.969   5.279   2.979
 5948SOL    HW218744   4.008   5.220   3.126
 5949SOL     OW18745   4.826   3.402   1.827
 5949SOL    HW118746   4.790   3.495   1.821
 5949SOL    HW218747   4.917   3.399   1.786
 5950SOL     OW18748   4.450   2.375   5.559
 5950SOL    HW118749   4.508   2.441   5.511
 5950SOL    HW218750   4.493   2.349   5.646
 5951SOL     OW18751   0.705   5.911   4.432
 5951SOL    HW118752   0.688   6.008   4.448
 5951SOL    HW218753   0.802   5.896   4.417
 5952SOL     OW18754   5.508   4.573   4.375
 5952SOL    HW118755   5.476   4.536   4.287
 5952SOL    HW218756   5.591   4.525   4.403
 5953SOL     OW18757   6.291   2.744   5.170
 5953SOL    HW118758   6.296   2.843   5.159
 5953SOL    HW218759   6.234   2.705   5.098
 5954SOL     OW18760   0.888   4.239   5.630
 5954SOL    HW118761   0.939   4.307   5.683
 5954SOL    HW218762   0.854   4.168   5.691
 5955SOL     OW18763   5.490   5.607   2.642
 5955SOL    HW118764   5.497   5.672   2.717
 5955SOL    HW218765   5.581   5.575   2.616
 5956SOL     OW18766   4.232   1.194   6.199
 5956SOL    HW118767   4.180   1.123   6.152
 5956SOL    HW218768   4.301   1.231   6.137
 5957SOL     OW18769   3.894   0.937   5.577
 5957SOL    HW118770   3.963   0.871   5.605
 5957SOL    HW218771   3.933   0.999   5.508
 5958SOL     OW18772   6.125   6.580   2.627
 5958SOL    HW118773   6.172   6.639   2.693
 5958SOL    HW218774   6.079   6.636   2.559
 5959SOL     OW18775   4.106   2.184   5.366
 5959SOL    HW118776   4.049   2.104   5.390
 5959SOL    HW218777   4.050   2.267   5.371
 5960SOL     OW18778   3.284   5.523   4.294
 5960SOL    HW118779   3.308   5.446   4.234
 5960SOL    HW218780   3.365   5.578   4.312
 5961SOL     OW18781   5.367   1.185   3.197
 5961SOL    HW118782   5.456   1.209   3.159
 5961SOL    HW218783   5.354   1.232   3.284
 5962SOL     OW18784   4.911   6.144   0.815
 5962SOL    HW118785   4.878   6.175   0.726
 5962SOL    HW218786   4.849   6.075   0.851
 5963SOL     OW18787   3.370   3.335   5.309
 5963SOL    HW118788   3.445   3.313   5.372
 5963SOL    HW218789   3.366   3.434   5.295
 5964SOL     OW18790   0.181   5.509   5.613
 5964SOL    HW118791   0.167   5.545   5.706
 5964SOL    HW218792   0.279   5.492   5.600
 5965SOL     OW18793   1.261   2.198   6.785
 5965SOL    HW118794   1.250   2.225   6.881
 5965SOL    HW218795   1.171   2.192   6.741
 5966SOL     OW18796   2.455   5.926   5.455
 5966SOL    HW118797   2.486   5.831   5.451
 5966SOL    HW218798   2.534   5.988   5.449
 5967SOL     OW18799   4.440   6.480   6.978
 5967SOL    HW118800   4.412   6.423   6.901
 5967SOL    HW218801   4.417   6.434   0.041
 5968SOL     OW18802   4.682   1.016   1.675
 5968SOL    HW118803   4.633   1.093   1.635
 5968SOL    HW218804   4.624   0.971   1.743
 5969SOL     OW18805   0.276   0.189   6.950
 5969SOL    HW118806   0.185   0.210   6.987
 5969SOL    HW218807   0.278   0.093   6.922
 5970SOL     OW18808   0.903   4.632   2.772
 5970SOL    HW118809   0.827   4.640   2.708
 5970SOL    HW218810   0.870   4.649   2.865
 5971SOL     OW18811   0.973   0.856   2.161
 5971SOL    HW118812   0.898   0.919   2.145
 5971SOL    HW218813   0.950   0.796   2.238
 5972SOL     OW18814   5.415   5.767   0.204
 5972SOL    HW118815   5.356   5.690   0.181
 5972SOL    HW218816   5.465   5.796   0.122
 5973SOL     OW18817   2.155   3.006   2.306
 5973SOL    HW118818   2.196   2.949   2.234
 5973SOL    HW218819   2.228   3.043   2.363
 5974SOL     OW18820   5.691   5.059   6.234
 5974SOL    HW118821   5.628   5.125   6.195
 5974SOL    HW218822   5.673   4.969   6.194
 5975SOL     OW18823   3.550   1.468   0.545
 5975SOL    HW118824   3.531   1.384   0.495
 5975SOL    HW218825   3.649   1.477   0.559
 5976SOL     OW18826   2.864   3.211   5.165
 5976SOL    HW118827   2.846   3.203   5.067
 5976SOL    HW218828   2.960   3.233   5.180
 5977SOL     OW18829   2.603   5.624   0.084
 5977SOL    HW118830   2.527   5.562   0.102
 5977SOL    HW218831   2.670   5.579   0.026
 5978SOL     OW18832   5.527   5.563   2.958
 5978SOL    HW118833   5.623   5.566   2.928
 5978SOL    HW218834   5.522   5.523   3.049
 5979SOL     OW18835   5.824   0.287   2.894
 5979SOL    HW118836   5.741   0.327   2.855
 5979SOL    HW218837   5.901   0.301   2.831
 5980SOL     OW18838   4.143   3.556   0.714
 5980SOL    HW118839   4.072   3.506   0.763
 5980SOL    HW218840   4.228   3.554   0.767
 5981SOL     OW18841   5.958   1.635   1.386
 5981SOL    HW118842   5.948   1.730   1.414
 5981SOL    HW218843   6.041   1.597   1.427
 5982SOL     OW18844   6.472   3.192   1.979
 5982SOL    HW118845   6.458   3.264   1.911
 5982SOL    HW218846   6.465   3.231   2.070
 5983SOL     OW18847   1.394   1.524   4.589
 5983SOL    HW118848   1.446   1.592   4.537
 5983SOL    HW218849   1.452   1.484   4.659
 5984SOL     OW18850   6.686   5.579   4.980
 5984SOL    HW118851   6.669   5.634   5.062
 5984SOL    HW218852   6.784   5.572   4.964
 5985SOL     OW18853   0.222   3.285   4.235
 5985SOL    HW118854   0.183   3.370   4.199
 5985SOL    HW218855   0.166   3.251   4.310
 5986SOL     OW18856   3.136   3.285   5.190
 5986SOL    HW118857   3.229   3.280   5.224
 5986SOL    HW218858   3.120   3.376   5.151
 5987SOL     OW18859   4.022   0.118   4.577
 5987SOL    HW118860   3.992   0.196   4.522
 5987SOL    HW218861   3.993   0.033   4.534
 5988SOL     OW18862   4.985   6.793   5.406
 5988SOL    HW118863   4.998   6.839   5.493
 5988SOL    HW218864   4.963   6.860   5.335
 5989SOL     OW18865   2.776   5.842   6.991
 5989SOL    HW118866   2.691   5.875   6.950
 5989SOL    HW218867   2.755   5.778   0.042
 5990SOL     OW18868   3.680   4.534   0.393
 5990SOL    HW118869   3.750   4.473   0.356
 5990SOL    HW218870   3.593   4.484   0.401
 5991SOL     OW18871   3.267   5.426   6.695
 5991SOL    HW118872   3.364   5.419   6.715
 5991SOL    HW218873   3.248   5.513   6.649
 5992SOL     OW18874   3.468   0.155   2.812
 5992SOL    HW118875   3.424   0.140   2.900
 5992SOL    HW218876   3.446   0.079   2.750
 5993SOL     OW18877   2.701   6.336   6.223
 5993SOL    HW118878   2.786   6.386   6.238
 5993SOL    HW218879   2.623   6.397   6.236
 5994SOL     OW18880   6.155   2.289   2.439
 5994SOL    HW118881   6.154   2.347   2.358
 5994SOL    HW218882   6.212   2.209   2.422
 5995SOL     OW18883   5.550   4.666   3.431
 5995SOL    HW118884   5.561   4.623   3.521
 5995SOL    HW218885   5.604   4.615   3.363
 5996SOL     OW18886   1.057   6.479   0.643
 5996SOL    HW118887   0.994   6.401   0.635
 5996SOL    HW218888   1.011   6.562   0.612
 5997SOL     OW18889   0.844   5.857   2.498
 5997SOL    HW118890   0.841   5.856   2.398
 5997SOL    HW218891   0.863   5.765   2.532
 5998SOL     OW18892   5.911   2.142   2.665
 5998SOL    HW118893   5.848   2.218   2.683
 5998SOL    HW218894   5.929   2.135   2.567
 5999SOL     OW18895   1.650   1.754   2.338
 5999SOL    HW118896   1.604   1.842   2.329
 5999SOL    HW218897   1.714   1.742   2.262
 6000SOL     OW18898   4.191   6.499   1.307
 6000SOL    HW118899   4.247   6.529   1.230
 6000SOL    HW218900   4.162   6.578   1.360
 6001SOL     OW18901   0.681   3.601   6.986
 6001SOL    HW118902   0.735   3.664   6.930
 6001SOL    HW218903   0.596   3.645   7.014
 6002SOL     OW18904   5.895   0.229   0.981
 6002SOL    HW118905   5.878   0.292   1.057
 6002SOL    HW218906   5.982   0.183   0.996
 6003SOL     OW18907   0.211   2.098   3.751
 6003SOL    HW118908   0.128   2.081   3.699
 6003SOL    HW218909   0.192   2.165   3.823
 6004SOL     OW18910   0.510   3.969   3.182
 6004SOL    HW118911   0.442   3.897   3.197
 6004SOL    HW218912   0.583   3.960   3.250
 6005SOL     OW18913   4.997   5.396   4.414
 6005SOL    HW118914   5.015   5.323   4.348
 6005SOL    HW218915   5.082   5.444   4.434
 6006SOL     OW18916   2.875   0.542   6.600
 6006SOL    HW118917   2.917   0.464   6.554
 6006SOL    HW218918   2.798   0.510   6.655
 6007SOL     OW18919   4.969   3.716   5.326
 6007SOL    HW118920   4.927   3.666   5.250
 6007SOL    HW218921   4.949   3.669   5.412
 6008SOL     OW18922   1.766   5.084   5.255
 6008SOL    HW118923   1.784   5.135   5.339
 6008SOL    HW218924   1.674   5.046   5.257
 6009SOL     OW18925   3.424   0.677   4.209
 6009SOL    HW118926   3.488   0.629   4.269
 6009SOL    HW218927   3.359   0.611   4.170
 6010SOL     OW18928   1.815   4.220   3.756
 6010SOL    HW118929   1.912   4.225   3.733
 6010SOL    HW218930   1.805   4.193   3.852
 6011SOL     OW18931   5.275   3.078   2.756
 6011SOL    HW118932   5.214   3.117   2.826
 6011SOL    HW218933   5.247   2.985   2.735
 6012SOL     OW18934   5.189   1.172   0.006
 6012SOL    HW118935   5.147   1.165   6.939
 6012SOL    HW218936   5.285   1.142   0.000
 6013SOL     OW18937   5.559   2.654   3.248
 6013SOL    HW118938   5.539   2.752   3.245
 6013SOL    HW218939   5.641   2.635   3.194
 6014SOL     OW18940   4.225   3.734   1.208
 6014SOL    HW118941   4.251   3.640   1.184
 6014SOL    HW218942   4.293   3.772   1.271
 6015SOL     OW18943   5.521   2.725   4.593
 6015SOL    HW118944   5.446   2.704   4.656
 6015SOL    HW218945   5.600   2.755   4.645
 6016SOL     OW18946   6.180   1.551   6.097
 6016SOL    HW118947   6.112   1.601   6.151
 6016SOL    HW218948   6.173   1.453   6.117
 6017SOL     OW18949   7.002   4.306   2.741
 6017SOL    HW118950   6.943   4.229   2.767
 6017SOL    HW218951   7.005   4.372   2.815
 6018SOL     OW18952   2.766   0.623   6.112
 6018SOL    HW118953   2.769   0.658   6.206
 6018SOL    HW218954   2.705   0.544   6.108
 6019SOL     OW18955   6.656   1.578   4.107
 6019SOL    HW118956   6.628   1.644   4.038
 6019SOL    HW218957   6.751   1.597   4.134
 6020SOL     OW18958   2.107   5.240   0.962
 6020SOL    HW118959   2.178   5.281   0.906
 6020SOL    HW218960   2.141   5.154   1.002
 6021SOL     OW18961   4.494   0.699   2.365
 6021SOL    HW118962   4.549   0.764   2.417
 6021SOL    HW218963   4.443   0.748   2.294
 6022SOL     OW18964   4.339   2.139   3.835
 6022SOL    HW118965   4.379   2.179   3.918
 6022SOL    HW218966   4.240   2.138   3.843
 6023SOL     OW18967   6.539   0.338   2.113
 6023SOL    HW118968   6.442   0.338   2.139
 6023SOL    HW218969   6.547   0.325   2.014
 6024SOL     OW18970   1.072   4.992   3.056
 6024SOL    HW118971   1.032   5.047   3.129
 6024SOL    HW218972   1.107   4.907   3.095
 6025SOL     OW18973   3.759   1.556   2.893
 6025SOL    HW118974   3.735   1.544   2.989
 6025SOL    HW218975   3.742   1.470   2.844
 6026SOL     OW18976   0.090   4.365   5.224
 6026SOL    HW118977   0.168   4.309   5.197
 6026SOL    HW218978   0.010   4.307   5.235
 6027SOL     OW18979   1.694   4.241   6.445
 6027SOL    HW118980   1.645   4.268   6.362
 6027SOL    HW218981   1.677   4.145   6.464
 6028SOL     OW18982   0.672   4.679   6.864
 6028SOL    HW118983   0.681   4.671   6.964
 6028SOL    HW218984   0.762   4.669   6.822
 6029SOL     OW18985   2.601   5.989   4.851
 6029SOL    HW118986   2.634   5.965   4.760
 6029SOL    HW218987   2.501   5.982   4.854
 6030SOL     OW18988   3.926   5.951   2.859
 6030SOL    HW118989   3.876   5.891   2.920
 6030SOL    HW218990   3.931   6.043   2.899
 6031SOL     OW18991   3.515   5.164   2.796
 6031SOL    HW118992   3.506   5.230   2.721
 6031SOL    HW218993   3.501   5.211   2.883
 6032SOL     OW18994   2.755   4.698   3.078
 6032SOL    HW118995   2.843   4.663   3.108
 6032SOL    HW218996   2.737   4.787   3.121
 6033SOL     OW18997   3.033   1.434   2.631
 6033SOL    HW118998   3.116   1.476   2.595
 6033SOL    HW218999   2.962   1.504   2.642
 6034SOL     OW19000   0.805   5.147   4.447
 6034SOL    HW119001   0.844   5.071   4.499
 6034SOL    HW219002   0.714   5.170   4.482
 6035SOL     OW19003   6.759   0.919   2.717
 6035SOL    HW119004   6.817   0.876   2.787
 6035SOL    HW219005   6.795   1.010   2.696
 6036SOL     OW19006   6.371   5.789   4.410
 6036SOL    HW119007   6.416   5.721   4.467
 6036SOL    HW219008   6.417   5.877   4.421
 6037SOL     OW19009   4.508   4.883   6.229
 6037SOL    HW119010   4.598   4.862   6.266
 6037SOL    HW219011   4.516   4.908   6.132
 6038SOL     OW19012   1.629   2.700   6.201
 6038SOL    HW119013   1.548   2.710   6.259
 6038SOL    HW219014   1.660   2.605   6.204
 6039SOL     OW19015   3.205   3.011   2.204
 6039SOL    HW119016   3.140   3.012   2.280
 6039SOL    HW219017   3.298   3.017   2.241
 6040SOL     OW19018   0.658   1.913   6.302
 6040SOL    HW119019   0.559   1.930   6.298
 6040SOL    HW219020   0.704   1.972   6.235
 6041SOL     OW19021   2.189   0.432   5.258
 6041SOL    HW119022   2.200   0.466   5.351
 6041SOL    HW219023   2.122   0.358   5.257
 6042SOL     OW19024   5.475   5.909   2.031
 6042SOL    HW119025   5.528   5.863   2.103
 6042SOL    HW219026   5.436   5.993   2.068
 6043SOL     OW19027   1.028   4.460   5.734
 6043SOL    HW119028   1.054   4.479   5.829
 6043SOL    HW219029   0.944   4.510   5.712
 6044SOL     OW19030   1.097   1.757   1.663
 6044SOL    HW119031   1.089   1.758   1.762
 6044SOL    HW219032   1.102   1.850   1.628
 6045SOL     OW19033   6.530   4.904   1.892
 6045SOL    HW119034   6.545   4.899   1.794
 6045SOL    HW219035   6.592   4.973   1.932
 6046SOL     OW19036   3.832   2.126   6.739
 6046SOL    HW119037   3.867   2.060   6.805
 6046SOL    HW219038   3.881   2.115   6.652
 6047SOL     OW19039   5.478   2.311   2.247
 6047SOL    HW119040   5.445   2.384   2.188
 6047SOL    HW219041   5.569   2.282   2.216
 6048SOL     OW19042   4.687   5.635   4.092
 6048SOL    HW119043   4.714   5.721   4.049
 6048SOL    HW219044   4.616   5.591   4.038
 6049SOL     OW19045   5.812   3.198   6.029
 6049SOL    HW119046   5.839   3.134   5.957
 6049SOL    HW219047   5.755   3.269   5.990
 6050SOL     OW19048   2.730   5.272   4.368
 6050SOL    HW119049   2.797   5.292   4.440
 6050SOL    HW219050   2.675   5.353   4.351
 6051SOL     OW19051   2.820   1.561   4.685
 6051SOL    HW119052   2.726   1.534   4.662
 6051SOL    HW219053   2.862   1.490   4.741
 6052SOL     OW19054   5.963   0.015   0.621
 6052SOL    HW119055   5.870   0.041   0.595
 6052SOL    HW219056   6.026   0.042   0.548
 6053SOL     OW19057   3.894   0.968   6.375
 6053SOL    HW119058   3.877   0.966   6.277
 6053SOL    HW219059   3.895   1.062   6.407
 6054SOL     OW19060   2.686   3.820   0.465
 6054SOL    HW119061   2.656   3.864   0.380
 6054SOL    HW219062   2.607   3.806   0.525
 6055SOL     OW19063   4.948   1.095   5.407
 6055SOL    HW119064   4.927   1.126   5.500
 6055SOL    HW219065   4.934   0.996   5.402
 6056SOL     OW19066   4.662   2.739   4.578
 6056SOL    HW119067   4.737   2.792   4.619
 6056SOL    HW219068   4.672   2.740   4.479
 6057SOL     OW19069   5.021   2.556   3.962
 6057SOL    HW119070   5.080   2.532   4.040
 6057SOL    HW219071   5.052   2.642   3.922
 6058SOL     OW19072   4.803   3.077   1.285
 6058SOL    HW119073   4.709   3.056   1.260
 6058SOL    HW219074   4.863   3.002   1.257
 6059SOL     OW19075   5.155   4.774   5.094
 6059SOL    HW119076   5.170   4.800   4.999
 6059SOL    HW219077   5.233   4.802   5.149
 6060SOL     OW19078   3.335   3.952   6.272
 6060SOL    HW119079   3.281   3.991   6.346
 6060SOL    HW219080   3.283   3.880   6.227
 6061SOL     OW19081   3.601   2.316   1.334
 6061SOL    HW119082   3.515   2.275   1.366
 6061SOL    HW219083   3.673   2.299   1.401
 6062SOL     OW19084   2.259   1.528   4.811
 6062SOL    HW119085   2.348   1.574   4.817
 6062SOL    HW219086   2.188   1.596   4.793
 6063SOL     OW19087   3.628   1.678   6.628
 6063SOL    HW119088   3.669   1.605   6.573
 6063SOL    HW219089   3.610   1.645   6.720
 6064SOL     OW19090   2.063   6.118   1.127
 6064SOL    HW119091   2.122   6.044   1.157
 6064SOL    HW219092   1.981   6.121   1.184
 6065SOL     OW19093   5.491   6.803   2.213
 6065SOL    HW119094   5.399   6.820   2.247
 6065SOL    HW219095   5.557   6.825   2.285
 6066SOL     OW19096   4.799   2.268   6.001
 6066SOL    HW119097   4.805   2.293   6.097
 6066SOL    HW219098   4.870   2.315   5.949
 6067SOL     OW19099   5.409   1.612   5.900
 6067SOL    HW119100   5.327   1.596   5.844
 6067SOL    HW219101   5.383   1.655   5.986
 6068SOL     OW19102   6.021   3.343   4.793
 6068SOL    HW119103   6.009   3.271   4.724
 6068SOL    HW219104   5.932   3.380   4.819
 6069SOL     OW19105   6.957   3.480   4.897
 6069SOL    HW119106   6.926   3.543   4.825
 6069SOL    HW219107   6.983   3.393   4.856
 6070SOL     OW19108   2.230   1.931   0.751
 6070SOL    HW119109   2.280   2.012   0.781
 6070SOL    HW219110   2.270   1.897   0.666
 6071SOL     OW19111   5.745   4.986   4.638
 6071SOL    HW119112   5.809   4.909   4.641
 6071SOL    HW219113   5.700   4.996   4.727
 6072SOL     OW19114   0.302   6.720   1.761
 6072SOL    HW119115   0.231   6.791   1.767
 6072SOL    HW219116   0.300   6.664   1.844
 6073SOL     OW19117   6.260   4.329   0.846
 6073SOL    HW119118   6.353   4.340   0.811
 6073SOL    HW219119   6.263   4.276   0.930
 6074SOL     OW19120   1.416   5.850   4.273
 6074SOL    HW119121   1.501   5.897   4.298
 6074SOL    HW219122   1.385   5.882   4.183
 6075SOL     OW19123   6.995   1.800   6.593
 6075SOL    HW119124   0.023   1.884   6.574
 6075SOL    HW219125   0.004   1.728   6.532
 6076SOL     OW19126   1.837   5.726   4.292
 6076SOL    HW119127   1.873   5.793   4.357
 6076SOL    HW219128   1.913   5.678   4.247
 6077SOL     OW19129   5.422   5.843   1.596
 6077SOL    HW119130   5.336   5.895   1.605
 6077SOL    HW219131   5.430   5.780   1.673
 6078SOL     OW19132   3.375   5.214   0.867
 6078SOL    HW119133   3.442   5.177   0.931
 6078SOL    HW219134   3.422   5.262   0.794
 6079SOL     OW19135   3.771   2.839   6.378
 6079SOL    HW119136   3.705   2.886   6.319
 6079SOL    HW219137   3.738   2.747   6.398
 6080SOL     OW19138   6.829   0.600   1.668
 6080SOL    HW119139   6.779   0.629   1.749
 6080SOL    HW219140   6.919   0.645   1.666
 6081SOL     OW19141   6.511   3.324   4.823
 6081SOL    HW119142   6.420   3.295   4.852
 6081SOL    HW219143   6.576   3.250   4.838
 6082SOL     OW19144   2.422   1.833   3.403
 6082SOL    HW119145   2.484   1.905   3.372
 6082SOL    HW219146   2.353   1.871   3.463
 6083SOL     OW19147   0.513   4.530   0.125
 6083SOL    HW119148   0.430   4.559   0.077
 6083SOL    HW219149   0.508   4.558   0.221
 6084SOL     OW19150   0.416   5.871   3.231
 6084SOL    HW119151   0.360   5.788   3.236
 6084SOL    HW219152   0.395   5.922   3.148
 6085SOL     OW19153   0.912   4.386   7.020
 6085SOL    HW119154   0.826   4.438   0.000
 6085SOL    HW219155   0.893   4.290   0.014
 6086SOL     OW19156   3.738   1.236   6.028
 6086SOL    HW119157   3.792   1.319   6.043
 6086SOL    HW219158   3.643   1.260   6.013
 6087SOL     OW19159   3.872   5.692   0.354
 6087SOL    HW119160   3.830   5.766   0.301
 6087SOL    HW219161   3.864   5.713   0.451
 6088SOL     OW19162   5.616   6.254   4.502
 6088SOL    HW119163   5.594   6.337   4.452
 6088SOL    HW219164   5.635   6.180   4.438
 6089SOL     OW19165   6.579   3.346   0.984
 6089SOL    HW119166   6.517   3.411   0.940
 6089SOL    HW219167   6.608   3.382   1.072
 6090SOL     OW19168   2.261   5.982   5.211
 6090SOL    HW119169   2.294   5.953   5.301
 6090SOL    HW219170   2.282   6.078   5.198
 6091SOL     OW19171   1.375   1.574   1.895
 6091SOL    HW119172   1.420   1.508   1.956
 6091SOL    HW219173   1.371   1.536   1.803
 6092SOL     OW19174   3.302   0.185   3.043
 6092SOL    HW119175   3.204   0.189   3.058
 6092SOL    HW219176   3.344   0.273   3.067
 6093SOL     OW19177   1.845   2.826   2.789
 6093SOL    HW119178   1.897   2.870   2.863
 6093SOL    HW219179   1.757   2.871   2.780
 6094SOL     OW19180   3.709   0.850   1.624
 6094SOL    HW119181   3.699   0.872   1.527
 6094SOL    HW219182   3.624   0.808   1.657
 6095SOL     OW19183   4.276   3.333   6.897
 6095SOL    HW119184   4.271   3.427   6.862
 6095SOL    HW219185   4.356   3.324   6.955
 6096SOL     OW19186   5.834   0.585   3.775
 6096SOL    HW119187   5.842   0.492   3.739
 6096SOL    HW219188   5.801   0.647   3.704
 6097SOL     OW19189   2.215   0.087   2.159
 6097SOL    HW119190   2.230   7.017   2.125
 6097SOL    HW219191   2.259   0.097   2.248
 6098SOL     OW19192   1.318   2.828   6.219
 6098SOL    HW119193   1.262   2.899   6.260
 6098SOL    HW219194   1.354   2.860   6.131
 6099SOL     OW19195   6.922   5.899   0.599
 6099SOL    HW119196   7.011   5.928   0.565
 6099SOL    HW219197   6.851   5.961   0.565
 6100SOL     OW19198   5.213   3.653   0.569
 6100SOL    HW119199   5.304   3.614   0.574
 6100SOL    HW219200   5.151   3.589   0.523
 6101SOL     OW19201   5.975   1.916   4.181
 6101SOL    HW119202   6.000   1.820   4.165
 6101SOL    HW219203   6.023   1.949   4.262
 6102SOL     OW19204   3.063   6.471   3.543
 6102SOL    HW119205   3.100   6.378   3.538
 6102SOL    HW219206   3.119   6.526   3.605
 6103SOL     OW19207   0.037   2.299   2.647
 6103SOL    HW119208   6.986   2.347   2.693
 6103SOL    HW219209   0.091   2.249   2.714
 6104SOL     OW19210   5.811   0.979   5.484
 6104SOL    HW119211   5.882   1.048   5.474
 6104SOL    HW219212   5.721   1.021   5.471
 6105SOL     OW19213   1.605   0.562   5.302
 6105SOL    HW119214   1.514   0.538   5.334
 6105SOL    HW219215   1.599   0.640   5.239
 6106SOL     OW19216   2.252   4.034   5.493
 6106SOL    HW119217   2.257   4.088   5.409
 6106SOL    HW219218   2.335   3.980   5.504
 6107SOL     OW19219   2.605   4.616   4.535
 6107SOL    HW119220   2.509   4.636   4.514
 6107SOL    HW219221   2.655   4.597   4.451
 6108SOL     OW19222   0.640   2.600   1.963
 6108SOL    HW119223   0.600   2.665   2.028
 6108SOL    HW219224   0.567   2.556   1.910
 6109SOL     OW19225   5.078   3.020   6.437
 6109SOL    HW119226   5.092   2.992   6.532
 6109SOL    HW219227   5.153   2.984   6.381
 6110SOL     OW19228   4.439   3.435   0.299
 6110SOL    HW119229   4.488   3.387   0.372
 6110SOL    HW219230   4.353   3.470   0.334
 6111SOL     OW19231   2.156   4.091   2.146
 6111SOL    HW119232   2.059   4.105   2.164
 6111SOL    HW219233   2.203   4.071   2.232
 6112SOL     OW19234   3.210   6.981   2.823
 6112SOL    HW119235   3.218   0.009   2.908
 6112SOL    HW219236   3.121   7.000   2.781
 6113SOL     OW19237   1.517   1.070   5.963
 6113SOL    HW119238   1.425   1.043   5.991
 6113SOL    HW219239   1.512   1.131   5.885
 6114SOL     OW19240   5.244   5.149   1.181
 6114SOL    HW119241   5.193   5.126   1.264
 6114SOL    HW219242   5.306   5.225   1.200
 6115SOL     OW19243   4.914   0.139   3.729
 6115SOL    HW119244   5.001   0.140   3.779
 6115SOL    HW219245   4.918   0.071   3.656
 6116SOL     OW19246   2.704   0.241   0.492
 6116SOL    HW119247   2.669   0.289   0.411
 6116SOL    HW219248   2.794   0.278   0.516
 6117SOL     OW19249   0.401   0.585   5.717
 6117SOL    HW119250   0.434   0.590   5.811
 6117SOL    HW219251   0.449   0.512   5.669
 6118SOL     OW19252   6.054   0.364   1.745
 6118SOL    HW119253   5.976   0.425   1.751
 6118SOL    HW219254   6.023   0.269   1.748
 6119SOL     OW19255   1.424   3.782   5.405
 6119SOL    HW119256   1.338   3.735   5.421
 6119SOL    HW219257   1.407   3.878   5.384
 6120SOL     OW19258   3.852   6.926   3.988
 6120SOL    HW119259   3.873   6.846   4.044
 6120SOL    HW219260   3.782   6.903   3.921
 6121SOL     OW19261   1.015   3.208   5.026
 6121SOL    HW119262   1.088   3.194   4.959
 6121SOL    HW219263   0.947   3.271   4.988
 6122SOL     OW19264   3.588   6.940   1.763
 6122SOL    HW119265   3.607   0.011   1.794
 6122SOL    HW219266   3.654   6.877   1.805
 6123SOL     OW19267   6.329   0.578   6.104
 6123SOL    HW119268   6.343   0.484   6.072
 6123SOL    HW219269   6.356   0.642   6.032
 6124SOL     OW19270   2.444   1.112   6.740
 6124SOL    HW119271   2.503   1.060   6.678
 6124SOL    HW219272   2.366   1.149   6.689
 6125SOL     OW19273   1.646   5.700   0.146
 6125SOL    HW119274   1.651   5.699   0.246
 6125SOL    HW219275   1.686   5.785   0.112
 6126SOL     OW19276   0.115   6.867   4.119
 6126SOL    HW119277   0.143   6.800   4.051
 6126SOL    HW219278   0.166   6.852   4.204
 6127SOL     OW19279   3.266   6.973   2.350
 6127SOL    HW119280   3.222   6.923   2.424
 6127SOL    HW219281   3.333   0.015   2.388
 6128SOL     OW19282   6.870   2.958   0.068
 6128SOL    HW119283   6.869   3.032   0.136
 6128SOL    HW219284   6.805   2.887   0.095
 6129SOL     OW19285   6.626   3.765   2.637
 6129SOL    HW119286   6.536   3.731   2.662
 6129SOL    HW219287   6.668   3.811   2.715
 6130SOL     OW19288   6.623   2.349   3.598
 6130SOL    HW119289   6.697   2.281   3.590
 6130SOL    HW219290   6.548   2.323   3.538
 6131SOL     OW19291   6.868   1.443   5.368
 6131SOL    HW119292   6.780   1.487   5.348
 6131SOL    HW219293   6.906   1.482   5.452
 6132SOL     OW19294   4.824   1.144   0.610
 6132SOL    HW119295   4.913   1.182   0.636
 6132SOL    HW219296   4.789   1.088   0.685
 6133SOL     OW19297   0.939   2.356   2.265
 6133SOL    HW119298   0.988   2.345   2.352
 6133SOL    HW219299   0.899   2.447   2.260
 6134SOL     OW19300   4.071   4.278   6.592
 6134SOL    HW119301   4.111   4.298   6.503
 6134SOL    HW219302   4.080   4.180   6.611
 6135SOL     OW19303   0.601   0.287   1.987
 6135SOL    HW119304   0.583   0.197   2.028
 6135SOL    HW219305   0.698   0.309   1.996
 6136SOL     OW19306   1.030   2.759   2.119
 6136SOL    HW119307   1.083   2.839   2.091
 6136SOL    HW219308   0.992   2.713   2.039
 6137SOL     OW19309   5.653   2.631   3.720
 6137SOL    HW119310   5.635   2.546   3.768
 6137SOL    HW219311   5.654   2.614   3.621
 6138SOL     OW19312   4.865   6.251   2.118
 6138SOL    HW119313   4.845   6.235   2.215
 6138SOL    HW219314   4.827   6.340   2.091
 6139SOL     OW19315   1.915   1.685   5.473
 6139SOL    HW119316   1.818   1.708   5.482
 6139SOL    HW219317   1.965   1.716   5.553
 6140SOL     OW19318   0.619   6.664   1.698
 6140SOL    HW119319   0.642   6.592   1.764
 6140SOL    HW219320   0.520   6.676   1.695
 6141SOL     OW19321   6.084   5.310   6.546
 6141SOL    HW119322   6.032   5.232   6.580
 6141SOL    HW219323   6.048   5.394   6.586
 6142SOL     OW19324   0.375   5.345   1.037
 6142SOL    HW119325   0.421   5.418   1.087
 6142SOL    HW219326   0.277   5.346   1.057
 6143SOL     OW19327   6.588   4.355   0.633
 6143SOL    HW119328   6.672   4.395   0.599
 6143SOL    HW219329   6.543   4.304   0.560
 6144SOL     OW19330   6.902   4.984   3.215
 6144SOL    HW119331   6.816   4.998   3.166
 6144SOL    HW219332   6.889   5.002   3.312
 6145SOL     OW19333   4.313   5.652   3.811
 6145SOL    HW119334   4.299   5.738   3.762
 6145SOL    HW219335   4.323   5.578   3.745
 6146SOL     OW19336   3.329   6.940   3.771
 6146SOL    HW119337   3.346   6.873   3.843
 6146SOL    HW219338   3.413   6.955   3.719
 6147SOL     OW19339   1.342   3.648   4.698
 6147SOL    HW119340   1.402   3.649   4.778
 6147SOL    HW219341   1.252   3.685   4.722
 6148SOL     OW19342   6.633   0.256   4.768
 6148SOL    HW119343   6.582   0.342   4.773
 6148SOL    HW219344   6.633   0.224   4.673
 6149SOL     OW19345   3.087   5.104   1.433
 6149SOL    HW119346   3.061   5.100   1.530
 6149SOL    HW219347   3.129   5.016   1.407
 6150SOL     OW19348   4.263   4.754   6.788
 6150SOL    HW119349   4.232   4.670   6.742
 6150SOL    HW219350   4.333   4.798   6.732
 6151SOL     OW19351   5.890   4.183   5.533
 6151SOL    HW119352   5.852   4.270   5.565
 6151SOL    HW219353   5.988   4.193   5.517
 6152SOL     OW19354   6.089   5.752   5.048
 6152SOL    HW119355   6.016   5.817   5.071
 6152SOL    HW219356   6.177   5.800   5.049
 6153SOL     OW19357   5.258   3.885   1.960
 6153SOL    HW119358   5.345   3.933   1.961
 6153SOL    HW219359   5.187   3.944   1.999
 6154SOL     OW19360   5.537   1.722   2.351
 6154SOL    HW119361   5.482   1.656   2.299
 6154SOL    HW219362   5.603   1.766   2.289
 6155SOL     OW19363   2.027   2.434   4.473
 6155SOL    HW119364   1.930   2.411   4.483
 6155SOL    HW219365   2.076   2.356   4.434
 6156SOL     OW19366   4.543   4.772   1.822
 6156SOL    HW119367   4.556   4.683   1.866
 6156SOL    HW219368   4.600   4.778   1.740
 6157SOL     OW19369   1.184   0.957   4.644
 6157SOL    HW119370   1.128   1.040   4.646
 6157SOL    HW219371   1.246   0.961   4.566
 6158SOL     OW19372   4.372   1.023   5.950
 6158SOL    HW119373   4.434   0.983   6.017
 6158SOL    HW219374   4.278   1.016   5.983
 6159SOL     OW19375   4.997   1.869   1.731
 6159SOL    HW119376   4.922   1.862   1.797
 6159SOL    HW219377   5.048   1.783   1.729
 6160SOL     OW19378   4.902   0.345   6.395
 6160SOL    HW119379   4.924   0.365   6.299
 6160SOL    HW219380   4.966   0.275   6.429
 6161SOL     OW19381   5.245   1.409   4.406
 6161SOL    HW119382   5.180   1.455   4.467
 6161SOL    HW219383   5.337   1.447   4.420
 6162SOL     OW19384   1.108   6.370   3.915
 6162SOL    HW119385   1.083   6.442   3.850
 6162SOL    HW219386   1.026   6.326   3.950
 6163SOL     OW19387   6.037   6.234   1.600
 6163SOL    HW119388   6.030   6.170   1.524
 6163SOL    HW219389   6.133   6.250   1.622
 6164SOL     OW19390   2.986   2.323   1.628
 6164SOL    HW119391   3.031   2.234   1.636
 6164SOL    HW219392   2.956   2.354   1.718
 6165SOL     OW19393   4.623   0.612   6.465
 6165SOL    HW119394   4.688   0.570   6.529
 6165SOL    HW219395   4.581   0.692   6.508
 6166SOL     OW19396   4.493   1.428   6.714
 6166SOL    HW119397   4.504   1.504   6.777
 6166SOL    HW219398   4.402   1.389   6.723
 6167SOL     OW19399   0.742   3.928   3.306
 6167SOL    HW119400   0.721   3.999   3.373
 6167SOL    HW219401   0.737   3.839   3.350
 6168SOL     OW19402   0.909   3.388   0.662
 6168SOL    HW119403   0.886   3.335   0.744
 6168SOL    HW219404   0.997   3.434   0.675
 6169SOL     OW19405   1.895   2.948   1.736
 6169SOL    HW119406   1.972   2.991   1.689
 6169SOL    HW219407   1.907   2.849   1.737
 6170SOL     OW19408   1.244   3.452   5.139
 6170SOL    HW119409   1.274   3.477   5.047
 6170SOL    HW219410   1.148   3.478   5.151
 6171SOL     OW19411   0.510   2.699   0.375
 6171SOL    HW119412   0.582   2.759   0.408
 6171SOL    HW219413   0.441   2.687   0.446
 6172SOL     OW19414   1.843   2.994   2.309
 6172SOL    HW119415   1.832   2.956   2.217
 6172SOL    HW219416   1.935   2.976   2.341
 6173SOL     OW19417   0.500   5.429   2.597
 6173SOL    HW119418   0.418   5.442   2.653
 6173SOL    HW219419   0.580   5.457   2.650
 6174SOL     OW19420   5.084   5.838   3.809
 6174SOL    HW119421   5.121   5.846   3.717
 6174SOL    HW219422   5.078   5.929   3.851
 6175SOL     OW19423   3.936   1.032   3.944
 6175SOL    HW119424   3.887   0.994   4.022
 6175SOL    HW219425   3.871   1.054   3.871
 6176SOL     OW19426   5.250   4.572   5.566
 6176SOL    HW119427   5.195   4.588   5.483
 6176SOL    HW219428   5.307   4.491   5.553
 6177SOL     OW19429   5.958   1.884   1.488
 6177SOL    HW119430   5.862   1.902   1.506
 6177SOL    HW219431   6.005   1.865   1.574
 6178SOL     OW19432   5.611   4.926   1.950
 6178SOL    HW119433   5.515   4.952   1.948
 6178SOL    HW219434   5.667   5.007   1.972
 6179SOL     OW19435   6.316   4.155   3.578
 6179SOL    HW119436   6.341   4.065   3.542
 6179SOL    HW219437   6.398   4.214   3.579
 6180SOL     OW19438   2.576   4.735   0.481
 6180SOL    HW119439   2.612   4.645   0.457
 6180SOL    HW219440   2.650   4.790   0.521
 6181SOL     OW19441   4.753   6.284   6.096
 6181SOL    HW119442   4.799   6.202   6.131
 6181SOL    HW219443   4.714   6.336   6.172
 6182SOL     OW19444   4.612   3.016   5.944
 6182SOL    HW119445   4.571   2.953   6.011
 6182SOL    HW219446   4.675   2.965   5.885
 6183SOL     OW19447   1.437   2.345   3.679
 6183SOL    HW119448   1.487   2.408   3.738
 6183SOL    HW219449   1.364   2.395   3.632
 6184SOL     OW19450   3.051   6.307   6.474
 6184SOL    HW119451   3.011   6.398   6.459
 6184SOL    HW219452   3.037   6.280   6.569
 6185SOL     OW19453   6.956   3.598   6.223
 6185SOL    HW119454   6.911   3.539   6.290
 6185SOL    HW219455   0.003   3.654   6.270
 6186SOL     OW19456   6.527   0.937   0.299
 6186SOL    HW119457   6.575   0.941   0.386
 6186SOL    HW219458   6.576   0.992   0.231
 6187SOL     OW19459   5.200   4.038   4.362
 6187SOL    HW119460   5.188   4.071   4.268
 6187SOL    HW219461   5.292   4.061   4.394
 6188SOL     OW19462   1.487   1.298   5.769
 6188SOL    HW119463   1.440   1.335   5.849
 6188SOL    HW219464   1.580   1.334   5.765
 6189SOL     OW19465   4.075   5.182   2.387
 6189SOL    HW119466   4.091   5.239   2.306
 6189SOL    HW219467   4.157   5.130   2.409
 6190SOL     OW19468   0.544   3.997   5.486
 6190SOL    HW119469   0.535   4.016   5.584
 6190SOL    HW219470   0.629   4.038   5.452
 6191SOL     OW19471   3.070   2.605   6.914
 6191SOL    HW119472   3.124   2.532   6.872
 6191SOL    HW219473   2.990   2.625   6.857
 6192SOL     OW19474   2.920   2.144   6.242
 6192SOL    HW119475   2.986   2.213   6.213
 6192SOL    HW219476   2.920   2.139   6.342
 6193SOL     OW19477   4.869   6.344   1.483
 6193SOL    HW119478   4.791   6.287   1.507
 6193SOL    HW219479   4.837   6.431   1.446
 6194SOL     OW19480   0.034   0.693   6.526
 6194SOL    HW119481   0.098   0.634   6.576
 6194SOL    HW219482   6.963   0.665   6.546
 6195SOL     OW19483   4.474   5.255   4.524
 6195SOL    HW119484   4.500   5.301   4.439
 6195SOL    HW219485   4.443   5.323   4.591
 6196SOL     OW19486   5.402   4.308   1.744
 6196SOL    HW119487   5.407   4.219   1.700
 6196SOL    HW219488   5.453   4.375   1.691
 6197SOL     OW19489   2.290   6.049   1.420
 6197SOL    HW119490   2.347   6.046   1.338
 6197SOL    HW219491   2.252   6.141   1.430
 6198SOL     OW19492   4.328   7.016   0.817
 6198SOL    HW119493   4.408   6.990   0.763
 6198SOL    HW219494   4.269   0.054   0.762
 6199SOL     OW19495   0.461   0.888   0.408
 6199SOL    HW119496   0.457   0.811   0.345
 6199SOL    HW219497   0.441   0.857   0.501
 6200SOL     OW19498   1.246   1.534   5.732
 6200SOL    HW119499   1.242   1.626   5.694
 6200SOL    HW219500   1.154   1.496   5.738
 6201SOL     OW19501   0.786   3.354   5.654
 6201SOL    HW119502   0.742   3.350   5.564
 6201SOL    HW219503   0.776   3.446   5.691
 6202SOL     OW19504   4.857   1.415   1.765
 6202SOL    HW119505   4.789   1.460   1.822
 6202SOL    HW219506   4.874   1.323   1.799
 6203SOL     OW19507   6.304   6.162   2.077
 6203SOL    HW119508   6.325   6.095   2.006
 6203SOL    HW219509   6.336   6.128   2.165
 6204SOL     OW19510   1.035   5.707   4.583
 6204SOL    HW119511   0.991   5.750   4.662
 6204SOL    HW219512   1.131   5.687   4.606
 6205SOL     OW19513   6.098   5.371   1.693
 6205SOL    HW119514   6.084   5.469   1.680
 6205SOL    HW219515   6.195   5.349   1.684
 6206SOL     OW19516   6.045   1.682   2.366
 6206SOL    HW119517   6.115   1.627   2.319
 6206SOL    HW219518   6.070   1.693   2.462
 6207SOL     OW19519   1.789   5.544   5.297
 6207SOL    HW119520   1.784   5.591   5.386
 6207SOL    HW219521   1.783   5.612   5.224
 6208SOL     OW19522   3.933   2.418   5.327
 6208SOL    HW119523   4.010   2.441   5.266
 6208SOL    HW219524   3.947   2.462   5.416
 6209SOL     OW19525   2.788   5.520   6.657
 6209SOL    HW119526   2.871   5.572   6.639
 6209SOL    HW219527   2.709   5.564   6.614
 6210SOL     OW19528   4.922   4.155   3.048
 6210SOL    HW119529   4.916   4.071   2.994
 6210SOL    HW219530   5.003   4.206   3.022
 6211SOL     OW19531   2.628   6.211   5.655
 6211SOL    HW119532   2.632   6.140   5.725
 6211SOL    HW219533   2.585   6.293   5.692
 6212SOL     OW19534   2.759   4.981   4.399
 6212SOL    HW119535   2.663   4.951   4.395
 6212SOL    HW219536   2.763   5.081   4.401
 6213SOL     OW19537   4.967   6.791   6.735
 6213SOL    HW119538   4.895   6.822   6.674
 6213SOL    HW219539   5.011   6.710   6.697
 6214SOL     OW19540   5.399   5.778   5.277
 6214SOL    HW119541   5.330   5.804   5.209
 6214SOL    HW219542   5.398   5.678   5.288
 6215SOL     OW19543   3.968   2.666   6.968
 6215SOL    HW119544   3.964   2.718   0.031
 6215SOL    HW219545   3.881   2.675   6.919
 6216SOL     OW19546   6.183   2.692   2.524
 6216SOL    HW119547   6.206   2.699   2.427
 6216SOL    HW219548   6.257   2.732   2.579
 6217SOL     OW19549   0.879   3.965   2.594
 6217SOL    HW119550   0.812   4.039   2.595
 6217SOL    HW219551   0.881   3.920   2.683
 6218SOL     OW19552   3.755   6.776   6.910
 6218SOL    HW119553   3.689   6.705   6.935
 6218SOL    HW219554   3.848   6.739   6.915
 6219SOL     OW19555   0.795   1.649   4.788
 6219SOL    HW119556   0.703   1.611   4.792
 6219SOL    HW219557   0.845   1.610   4.711
 6220SOL     OW19558   3.001   1.693   5.414
 6220SOL    HW119559   3.018   1.691   5.316
 6220SOL    HW219560   2.964   1.783   5.439
 6221SOL     OW19561   5.707   0.502   6.859
 6221SOL    HW119562   5.789   0.471   6.811
 6221SOL    HW219563   5.733   0.563   6.933
 6222SOL     OW19564   1.383   0.374   2.111
 6222SOL    HW119565   1.435   0.376   2.196
 6222SOL    HW219566   1.304   0.435   2.118
 6223SOL     OW19567   1.334   5.205   2.907
 6223SOL    HW119568   1.331   5.212   3.007
 6223SOL    HW219569   1.405   5.140   2.880
 6224SOL     OW19570   4.408   1.488   5.920
 6224SOL    HW119571   4.468   1.561   5.887
 6224SOL    HW219572   4.364   1.443   5.842
 6225SOL     OW19573   3.629   2.562   6.633
 6225SOL    HW119574   3.619   2.582   6.535
 6225SOL    HW219575   3.546   2.519   6.667
 6226SOL     OW19576   1.239   1.587   4.219
 6226SOL    HW119577   1.325   1.591   4.270
 6226SOL    HW219578   1.246   1.516   4.148
 6227SOL     OW19579   3.513   5.268   5.534
 6227SOL    HW119580   3.500   5.225   5.623
 6227SOL    HW219581   3.549   5.360   5.545
 6228SOL     OW19582   0.489   2.783   2.325
 6228SOL    HW119583   0.479   2.788   2.425
 6228SOL    HW219584   0.569   2.836   2.297
 6229SOL     OW19585   0.923   2.868   5.375
 6229SOL    HW119586   1.016   2.903   5.377
 6229SOL    HW219587   0.921   2.774   5.408
 6230SOL     OW19588   1.063   1.901   3.730
 6230SOL    HW119589   0.988   1.929   3.670
 6230SOL    HW219590   1.142   1.962   3.715
 6231SOL     OW19591   5.993   4.908   0.496
 6231SOL    HW119592   6.051   4.975   0.448
 6231SOL    HW219593   5.897   4.926   0.475
 6232SOL     OW19594   0.040   1.415   0.259
 6232SOL    HW119595   0.098   1.369   0.327
 6232SOL    HW219596   7.007   1.347   0.211
 6233SOL     OW19597   5.810   2.668   1.613
 6233SOL    HW119598   5.903   2.636   1.595
 6233SOL    HW219599   5.787   2.652   1.709
 6234SOL     OW19600   6.511   0.027   5.424
 6234SOL    HW119601   6.570   6.984   5.470
 6234SOL    HW219602   6.508   0.008   5.326
 6235SOL     OW19603   0.107   0.318   1.444
 6235SOL    HW119604   0.165   0.276   1.514
 6235SOL    HW219605   0.160   0.388   1.395
 6236SOL     OW19606   0.420   4.287   0.776
 6236SOL    HW119607   0.371   4.302   0.691
 6236SOL    HW219608   0.363   4.314   0.854
 6237SOL     OW19609   3.074   0.290   0.226
 6237SOL    HW119610   2.997   0.226   0.223
 6237SOL    HW219611   3.039   0.384   0.224
 6238SOL     OW19612   4.785   6.292   2.845
 6238SOL    HW119613   4.845   6.247   2.911
 6238SOL    HW219614   4.841   6.347   2.782
 6239SOL     OW19615   3.658   0.901   1.320
 6239SOL    HW119616   3.747   0.930   1.284
 6239SOL    HW219617   3.619   0.832   1.259
 6240SOL     OW19618   3.012   3.789   5.259
 6240SOL    HW119619   3.049   3.810   5.169
 6240SOL    HW219620   3.084   3.800   5.328
 6241SOL     OW19621   3.300   0.620   3.430
 6241SOL    HW119622   3.350   0.697   3.470
 6241SOL    HW219623   3.223   0.654   3.376
 6242SOL     OW19624   3.459   6.971   3.070
 6242SOL    HW119625   3.428   6.903   3.137
 6242SOL    HW219626   3.415   0.036   3.089
 6243SOL     OW19627   6.797   0.080   5.299
 6243SOL    HW119628   6.727   0.066   5.229
 6243SOL    HW219629   6.848   7.018   5.313
 6244SOL     OW19630   5.497   3.743   3.699
 6244SOL    HW119631   5.455   3.674   3.758
 6244SOL    HW219632   5.483   3.833   3.738
 6245SOL     OW19633   1.632   3.927   1.693
 6245SOL    HW119634   1.688   3.875   1.628
 6245SOL    HW219635   1.579   3.863   1.749
 6246SOL     OW19636   1.014   1.252   4.999
 6246SOL    HW119637   1.001   1.351   5.013
 6246SOL    HW219638   1.066   1.215   5.076
 6247SOL     OW19639   1.601   6.165   3.648
 6247SOL    HW119640   1.686   6.217   3.653
 6247SOL    HW219641   1.615   6.074   3.685
 6248SOL     OW19642   3.496   3.836   0.075
 6248SOL    HW119643   3.513   3.928   0.041
 6248SOL    HW219644   3.514   3.832   0.173
 6249SOL     OW19645   6.961   3.082   0.760
 6249SOL    HW119646   6.891   3.022   0.799
 6249SOL    HW219647   0.029   3.046   0.781
 6250SOL     OW19648   6.289   6.860   1.240
 6250SOL    HW119649   6.246   6.852   1.150
 6250SOL    HW219650   6.222   6.898   1.305
 6251SOL     OW19651   4.398   6.756   4.830
 6251SOL    HW119652   4.298   6.758   4.830
 6251SOL    HW219653   4.430   6.674   4.784
 6252SOL     OW19654   2.616   4.606   6.016
 6252SOL    HW119655   2.705   4.568   6.038
 6252SOL    HW219656   2.554   4.533   5.987
 6253SOL     OW19657   2.581   4.724   4.046
 6253SOL    HW119658   2.482   4.716   4.058
 6253SOL    HW219659   2.605   4.819   4.025
 6254SOL     OW19660   5.816   0.318   0.659
 6254SOL    HW119661   5.812   0.249   0.586
 6254SOL    HW219662   5.840   0.274   0.745
 6255SOL     OW19663   2.753   1.631   1.063
 6255SOL    HW119664   2.800   1.712   1.099
 6255SOL    HW219665   2.698   1.658   0.984
 6256SOL     OW19666   4.048   5.323   2.144
 6256SOL    HW119667   3.962   5.335   2.094
 6256SOL    HW219668   4.081   5.412   2.176
 6257SOL     OW19669   4.183   3.076   0.170
 6257SOL    HW119670   4.176   3.115   0.078
 6257SOL    HW219671   4.134   3.135   0.235
 6258SOL     OW19672   3.171   6.538   4.852
 6258SOL    HW119673   3.102   6.608   4.835
 6258SOL    HW219674   3.181   6.523   4.950
 6259SOL     OW19675   2.105   0.610   6.542
 6259SOL    HW119676   2.033   0.551   6.578
 6259SOL    HW219677   2.087   0.705   6.568
 6260SOL     OW19678   3.609   6.566   0.017
 6260SOL    HW119679   3.661   6.572   0.102
 6260SOL    HW219680   3.551   6.484   0.020
 6261SOL     OW19681   5.166   0.078   0.328
 6261SOL    HW119682   5.069   0.066   0.309
 6261SOL    HW219683   5.202   7.018   0.371
 6262SOL     OW19684   2.050   6.037   2.135
 6262SOL    HW119685   1.958   6.074   2.128
 6262SOL    HW219686   2.115   6.112   2.148
 6263SOL     OW19687   1.122   6.589   4.770
 6263SOL    HW119688   1.213   6.550   4.784
 6263SOL    HW219689   1.067   6.526   4.716
 6264SOL     OW19690   2.030   0.470   1.487
 6264SOL    HW119691   2.125   0.500   1.482
 6264SOL    HW219692   1.978   0.534   1.545
 6265SOL     OW19693   4.571   3.461   0.654
 6265SOL    HW119694   4.573   3.363   0.674
 6265SOL    HW219695   4.630   3.480   0.576
 6266SOL     OW19696   4.584   6.893   3.388
 6266SOL    HW119697   4.551   6.915   3.480
 6266SOL    HW219698   4.599   6.977   3.337
 6267SOL     OW19699   2.177   6.928   5.023
 6267SOL    HW119700   2.268   6.888   5.035
 6267SOL    HW219701   2.167   6.961   4.929
 6268SOL     OW19702   2.440   0.837   1.901
 6268SOL    HW119703   2.476   0.891   1.977
 6268SOL    HW219704   2.508   0.771   1.871
 6269SOL     OW19705   6.322   0.099   2.518
 6269SOL    HW119706   6.240   0.061   2.561
 6269SOL    HW219707   6.295   0.162   2.445
 6270SOL     OW19708   6.888   6.943   0.380
 6270SOL    HW119709   6.855   0.005   0.420
 6270SOL    HW219710   6.986   6.951   0.359
 6271SOL     OW19711   6.392   2.645   5.582
 6271SOL    HW119712   6.329   2.704   5.531
 6271SOL    HW219713   6.419   2.567   5.525
 6272SOL     OW19714   0.613   1.824   0.184
 6272SOL    HW119715   0.643   1.740   0.138
 6272SOL    HW219716   0.539   1.865   0.131
 6273SOL     OW19717   0.436   5.841   2.932
 6273SOL    HW119718   0.422   5.742   2.941
 6273SOL    HW219719   0.349   5.886   2.915
 6274SOL     OW19720   3.062   0.027   4.748
 6274SOL    HW119721   2.995   0.049   4.678
 6274SOL    HW219722   3.035   0.068   4.835
 6275SOL     OW19723   1.754   5.960   0.423
 6275SOL    HW119724   1.701   6.022   0.366
 6275SOL    HW219725   1.726   5.866   0.405
 6276SOL     OW19726   3.016   5.518   3.466
 6276SOL    HW119727   3.003   5.594   3.402
 6276SOL    HW219728   2.928   5.479   3.490
 6277SOL     OW19729   4.834   2.608   0.741
 6277SOL    HW119730   4.871   2.566   0.823
 6277SOL    HW219731   4.812   2.704   0.759
 6278SOL     OW19732   3.780   0.705   4.862
 6278SOL    HW119733   3.770   0.696   4.961
 6278SOL    HW219734   3.849   0.640   4.830
 6279SOL     OW19735   3.955   5.975   0.556
 6279SOL    HW119736   3.994   6.036   0.625
 6279SOL    HW219737   4.007   5.985   0.471
 6280SOL     OW19738   0.013   0.975   6.547
 6280SOL    HW119739   0.112   0.987   6.544
 6280SOL    HW219740   7.011   0.888   6.505
 6281SOL     OW19741   0.029   4.745   4.426
 6281SOL    HW119742   6.995   4.666   4.404
 6281SOL    HW219743   0.120   4.733   4.386
 6282SOL     OW19744   5.816   3.493   4.880
 6282SOL    HW119745   5.892   3.546   4.920
 6282SOL    HW219746   5.757   3.459   4.953
 6283SOL     OW19747   0.624   4.015   4.413
 6283SOL    HW119748   0.590   3.935   4.463
 6283SOL    HW219749   0.608   4.002   4.315
 6284SOL     OW19750   1.330   5.686   6.501
 6284SOL    HW119751   1.327   5.647   6.409
 6284SOL    HW219752   1.417   5.663   6.545
 6285SOL     OW19753   1.063   3.070   3.032
 6285SOL    HW119754   1.142   3.116   2.994
 6285SOL    HW219755   1.029   3.121   3.111
 6286SOL     OW19756   0.167   3.452   4.697
 6286SOL    HW119757   0.121   3.537   4.674
 6286SOL    HW219758   0.252   3.472   4.745
 6287SOL     OW19759   3.435   4.867   5.193
 6287SOL    HW119760   3.438   4.950   5.249
 6287SOL    HW219761   3.404   4.891   5.101
 6288SOL     OW19762   5.772   4.938   1.424
 6288SOL    HW119763   5.783   4.930   1.523
 6288SOL    HW219764   5.851   4.897   1.379
 6289SOL     OW19765   2.108   4.565   6.989
 6289SOL    HW119766   2.046   4.506   0.017
 6289SOL    HW219767   2.201   4.553   0.002
 6290SOL     OW19768   5.774   5.663   6.392
 6290SOL    HW119769   5.740   5.755   6.374
 6290SOL    HW219770   5.733   5.599   6.328
 6291SOL     OW19771   3.127   4.035   3.770
 6291SOL    HW119772   3.136   3.944   3.731
 6291SOL    HW219773   3.052   4.083   3.724
 6292SOL     OW19774   2.555   2.192   5.554
 6292SOL    HW119775   2.576   2.203   5.457
 6292SOL    HW219776   2.481   2.125   5.565
 6293SOL     OW19777   4.890   1.588   0.936
 6293SOL    HW119778   4.814   1.525   0.952
 6293SOL    HW219779   4.856   1.669   0.889
 6294SOL     OW19780   4.403   0.230   3.677
 6294SOL    HW119781   4.497   0.263   3.685
 6294SOL    HW219782   4.373   0.237   3.582
 6295SOL     OW19783   5.204   4.793   4.833
 6295SOL    HW119784   5.261   4.845   4.769
 6295SOL    HW219785   5.181   4.705   4.793
 6296SOL     OW19786   6.797   4.307   5.990
 6296SOL    HW119787   6.849   4.232   5.951
 6296SOL    HW219788   6.736   4.345   5.921
 6297SOL     OW19789   6.235   0.518   5.427
 6297SOL    HW119790   6.235   0.457   5.348
 6297SOL    HW219791   6.295   0.595   5.410
 6298SOL     OW19792   0.354   3.222   6.392
 6298SOL    HW119793   0.446   3.237   6.429
 6298SOL    HW219794   0.324   3.130   6.416
 6299SOL     OW19795   5.795   3.264   2.130
 6299SOL    HW119796   5.738   3.254   2.048
 6299SOL    HW219797   5.835   3.176   2.154
 6300SOL     OW19798   6.325   1.181   6.788
 6300SOL    HW119799   6.396   1.111   6.781
 6300SOL    HW219800   6.366   1.266   6.823
 6301SOL     OW19801   2.583   6.050   6.812
 6301SOL    HW119802   2.562   6.141   6.848
 6301SOL    HW219803   2.498   5.998   6.803
 6302SOL     OW19804   2.108   2.052   5.455
 6302SOL    HW119805   2.027   2.032   5.509
 6302SOL    HW219806   2.133   1.971   5.402
 6303SOL     OW19807   0.255   6.950   6.072
 6303SOL    HW119808   0.340   6.899   6.080
 6303SOL    HW219809   0.265   0.016   6.117
 6304SOL     OW19810   3.298   1.601   2.939
 6304SOL    HW119811   3.230   1.653   2.887
 6304SOL    HW219812   3.272   1.504   2.938
 6305SOL     OW19813   6.080   6.104   0.408
 6305SOL    HW119814   6.018   6.101   0.330
 6305SOL    HW219815   6.102   6.199   0.431
 6306SOL     OW19816   0.147   4.102   4.073
 6306SOL    HW119817   0.205   4.022   4.089
 6306SOL    HW219818   0.200   4.186   4.091
 6307SOL     OW19819   2.946   3.255   4.086
 6307SOL    HW119820   3.004   3.205   4.021
 6307SOL    HW219821   2.850   3.238   4.065
 6308SOL     OW19822   1.360   2.322   5.027
 6308SOL    HW119823   1.286   2.356   5.086
 6308SOL    HW219824   1.388   2.232   5.059
 6309SOL     OW19825   0.210   6.814   4.388
 6309SOL    HW119826   0.266   6.740   4.425
 6309SOL    HW219827   0.231   6.900   4.434
 6310SOL     OW19828   2.063   6.473   2.489
 6310SOL    HW119829   2.116   6.412   2.429
 6310SOL    HW219830   2.032   6.422   2.569
 6311SOL     OW19831   4.902   2.278   5.646
 6311SOL    HW119832   4.948   2.197   5.682
 6311SOL    HW219833   4.946   2.360   5.682
 6312SOL     OW19834   0.517   6.941   5.632
 6312SOL    HW119835   0.430   6.949   5.681
 6312SOL    HW219836   0.517   7.001   5.552
 6313SOL     OW19837   6.349   6.370   3.142
 6313SOL    HW119838   6.259   6.378   3.186
 6313SOL    HW219839   6.399   6.294   3.182
 6314SOL     OW19840   3.176   6.505   2.330
 6314SOL    HW119841   3.185   6.593   2.285
 6314SOL    HW219842   3.105   6.451   2.285
 6315SOL     OW19843   3.255   1.666   4.973
 6315SOL    HW119844   3.346   1.692   5.006
 6315SOL    HW219845   3.246   1.690   4.876
 6316SOL     OW19846   4.740   2.253   5.438
 6316SOL    HW119847   4.726   2.161   5.402
 6316SOL    HW219848   4.820   2.254   5.497
 6317SOL     OW19849   5.056   4.082   2.033
 6317SOL    HW119850   5.097   4.173   2.041
 6317SOL    HW219851   4.975   4.077   2.092
 6318SOL     OW19852   4.376   0.372   6.379
 6318SOL    HW119853   4.344   0.417   6.296
 6318SOL    HW219854   4.475   0.358   6.373
 6319SOL     OW19855   6.640   2.217   5.317
 6319SOL    HW119856   6.656   2.149   5.245
 6319SOL    HW219857   6.592   2.296   5.278
 6320SOL     OW19858   6.710   6.446   5.111
 6320SOL    HW119859   6.740   6.399   5.193
 6320SOL    HW219860   6.778   6.434   5.038
 6321SOL     OW19861   4.942   3.104   0.632
 6321SOL    HW119862   5.001   3.036   0.676
 6321SOL    HW219863   4.930   3.081   0.536
 6322SOL     OW19864   3.019   2.844   0.635
 6322SOL    HW119865   3.052   2.774   0.698
 6322SOL    HW219866   2.972   2.800   0.559
 6323SOL     OW19867   1.456   2.065   1.657
 6323SOL    HW119868   1.515   1.985   1.647
 6323SOL    HW219869   1.392   2.069   1.580
 6324SOL     OW19870   4.269   1.486   0.502
 6324SOL    HW119871   4.282   1.407   0.443
 6324SOL    HW219872   4.300   1.568   0.455
 6325SOL     OW19873   1.970   2.959   3.001
 6325SOL    HW119874   1.978   2.998   3.093
 6325SOL    HW219875   1.992   3.028   2.933
 6326SOL     OW19876   5.776   5.121   0.304
 6326SOL    HW119877   5.872   5.139   0.322
 6326SOL    HW219878   5.764   5.025   0.277
 6327SOL     OW19879   0.516   1.832   3.674
 6327SOL    HW119880   0.570   1.911   3.706
 6327SOL    HW219881   0.512   1.833   3.574
 6328SOL     OW19882   4.583   3.694   6.885
 6328SOL    HW119883   4.513   3.635   6.844
 6328SOL    HW219884   4.587   3.780   6.834
 6329SOL     OW19885   1.607   2.789   4.904
 6329SOL    HW119886   1.668   2.789   4.983
 6329SOL    HW219887   1.659   2.767   4.822
 6330SOL     OW19888   5.902   6.791   1.967
 6330SOL    HW119889   5.983   6.848   1.954
 6330SOL    HW219890   5.824   6.833   1.921
 6331SOL     OW19891   0.096   3.759   4.653
 6331SOL    HW119892   0.003   3.750   4.689
 6331SOL    HW219893   0.145   3.828   4.707
 6332SOL     OW19894   0.710   2.508   0.926
 6332SOL    HW119895   0.714   2.585   0.990
 6332SOL    HW219896   0.704   2.422   0.977
 6333SOL     OW19897   4.555   0.438   5.425
 6333SOL    HW119898   4.636   0.458   5.370
 6333SOL    HW219899   4.536   0.516   5.485
 6334SOL     OW19900   2.739   1.325   2.208
 6334SOL    HW119901   2.737   1.361   2.115
 6334SOL    HW219902   2.647   1.330   2.248
 6335SOL     OW19903   4.387   0.076   0.465
 6335SOL    HW119904   4.422   0.159   0.421
 6335SOL    HW219905   4.303   0.097   0.514
 6336SOL     OW19906   0.862   1.880   6.509
 6336SOL    HW119907   0.770   1.861   6.475
 6336SOL    HW219908   0.858   1.949   6.581
 6337SOL     OW19909   4.223   5.049   4.629
 6337SOL    HW119910   4.166   5.129   4.650
 6337SOL    HW219911   4.191   4.971   4.684
 6338SOL     OW19912   2.577   2.549   4.364
 6338SOL    HW119913   2.539   2.638   4.389
 6338SOL    HW219914   2.676   2.551   4.372
 6339SOL     OW19915   0.967   3.249   4.203
 6339SOL    HW119916   0.964   3.265   4.301
 6339SOL    HW219917   0.930   3.158   4.183
 6340SOL     OW19918   2.239   3.558   1.264
 6340SOL    HW119919   2.316   3.505   1.299
 6340SOL    HW219920   2.172   3.497   1.223
 6341SOL     OW19921   6.637   3.508   4.681
 6341SOL    HW119922   6.586   3.456   4.750
 6341SOL    HW219923   6.636   3.458   4.595
 6342SOL     OW19924   3.407   1.051   0.516
 6342SOL    HW119925   3.349   1.122   0.556
 6342SOL    HW219926   3.370   1.023   0.427
 6343SOL     OW19927   3.687   0.409   0.104
 6343SOL    HW119928   3.640   0.323   0.087
 6343SOL    HW219929   3.646   0.482   0.049
 6344SOL     OW19930   5.433   1.971   4.458
 6344SOL    HW119931   5.510   1.919   4.421
 6344SOL    HW219932   5.352   1.912   4.462
 6345SOL     OW19933   5.090   3.105   1.810
 6345SOL    HW119934   5.076   3.136   1.716
 6345SOL    HW219935   5.015   3.139   1.867
 6346SOL     OW19936   0.283   5.273   4.903
 6346SOL    HW119937   0.377   5.258   4.872
 6346SOL    HW219938   0.284   5.322   4.990
 6347SOL     OW19939   1.697   1.461   0.773
 6347SOL    HW119940   1.638   1.462   0.692
 6347SOL    HW219941   1.783   1.508   0.752
 6348SOL     OW19942   0.733   3.097   6.363
 6348SOL    HW119943   0.739   3.194   6.340
 6348SOL    HW219944   0.777   3.081   6.452
 6349SOL     OW19945   2.348   1.273   0.791
 6349SOL    HW119946   2.282   1.221   0.736
 6349SOL    HW219947   2.439   1.232   0.782
 6350SOL     OW19948   0.574   5.209   4.067
 6350SOL    HW119949   0.582   5.237   3.972
 6350SOL    HW219950   0.590   5.111   4.075
 6351SOL     OW19951   6.415   3.479   3.530
 6351SOL    HW119952   6.500   3.526   3.507
 6351SOL    HW219953   6.423   3.437   3.620
 6352SOL     OW19954   2.120   0.408   4.956
 6352SOL    HW119955   2.054   0.457   5.012
 6352SOL    HW219956   2.175   0.473   4.904
 6353SOL     OW19957   1.366   6.159   6.520
 6353SOL    HW119958   1.446   6.158   6.460
 6353SOL    HW219959   1.395   6.159   6.616
 6354SOL     OW19960   3.753   6.092   2.351
 6354SOL    HW119961   3.727   6.085   2.447
 6354SOL    HW219962   3.851   6.111   2.343
 6355SOL     OW19963   2.786   5.504   6.948
 6355SOL    HW119964   2.777   5.520   6.850
 6355SOL    HW219965   2.876   5.534   6.979
 6356SOL     OW19966   5.659   4.582   0.590
 6356SOL    HW119967   5.640   4.645   0.515
 6356SOL    HW219968   5.716   4.628   0.658
 6357SOL     OW19969   5.578   3.407   2.335
 6357SOL    HW119970   5.613   3.326   2.287
 6357SOL    HW219971   5.480   3.396   2.352
 6358SOL     OW19972   0.369   1.885   6.239
 6358SOL    HW119973   0.332   1.842   6.157
 6358SOL    HW219974   0.334   1.978   6.247
 6359SOL     OW19975   5.954   6.151   0.175
 6359SOL    HW119976   5.888   6.226   0.174
 6359SOL    HW219977   5.913   6.069   0.135
 6360SOL     OW19978   1.105   3.734   4.721
 6360SOL    HW119979   1.076   3.825   4.752
 6360SOL    HW219980   1.024   3.677   4.705
 6361SOL     OW19981   1.236   0.965   0.887
 6361SOL    HW119982   1.310   1.031   0.900
 6361SOL    HW219983   1.229   0.941   0.790
 6362SOL     OW19984   0.796   5.787   6.305
 6362SOL    HW119985   0.781   5.693   6.336
 6362SOL    HW219986   0.892   5.799   6.280
 6363SOL     OW19987   2.885   5.736   3.740
 6363SOL    HW119988   2.786   5.739   3.724
 6363SOL    HW219989   2.914   5.640   3.742
 6364SOL     OW19990   2.950   2.887   5.690
 6364SOL    HW119991   3.014   2.908   5.616
 6364SOL    HW219992   2.862   2.859   5.651
 6365SOL     OW19993   5.504   6.300   3.770
 6365SOL    HW119994   5.433   6.350   3.720
 6365SOL    HW219995   5.461   6.228   3.824
 6366SOL     OW19996   0.680   6.001   5.633
 6366SOL    HW119997   0.582   5.988   5.641
 6366SOL    HW219998   0.726   5.912   5.633
 6367SOL     OW19999   3.366   2.127   3.199
 6367SOL    HW120000   3.381   2.102   3.103
 6367SOL    HW220001   3.274   2.165   3.209
 6368SOL     OW20002   4.040   4.787   4.290
 6368SOL    HW120003   4.093   4.738   4.359
 6368SOL    HW220004   4.103   4.836   4.229
 6369SOL     OW20005   1.399   0.508   4.552
 6369SOL    HW120006   1.424   0.602   4.576
 6369SOL    HW220007   1.477   0.463   4.509
 6370SOL     OW20008   4.972   4.097   3.313
 6370SOL    HW120009   4.891   4.084   3.370
 6370SOL    HW220010   4.945   4.146   3.229
 6371SOL     OW20011   5.376   4.412   2.613
 6371SOL    HW120012   5.405   4.506   2.600
 6371SOL    HW220013   5.404   4.357   2.535
 6372SOL     OW20014   1.145   0.574   2.188
 6372SOL    HW120015   1.178   0.667   2.205
 6372SOL    HW220016   1.085   0.545   2.263
 6373SOL     OW20017   5.466   4.285   3.057
 6373SOL    HW120018   5.406   4.349   3.009
 6373SOL    HW220019   5.511   4.225   2.991
 6374SOL     OW20020   4.464   3.738   1.369
 6374SOL    HW120021   4.559   3.740   1.335
 6374SOL    HW220022   4.444   3.648   1.407
 6375SOL     OW20023   6.825   2.526   2.265
 6375SOL    HW120024   6.771   2.598   2.309
 6375SOL    HW220025   6.901   2.566   2.214
 6376SOL     OW20026   4.190   1.988   6.259
 6376SOL    HW120027   4.273   2.039   6.235
 6376SOL    HW220028   4.216   1.904   6.307
 6377SOL     OW20029   6.569   1.493   5.628
 6377SOL    HW120030   6.471   1.473   5.632
 6377SOL    HW220031   6.595   1.513   5.534
 6378SOL     OW20032   5.700   4.927   3.637
 6378SOL    HW120033   5.727   4.854   3.573
 6378SOL    HW220034   5.635   4.988   3.592
 6379SOL     OW20035   0.569   4.350   5.552
 6379SOL    HW120036   0.475   4.320   5.573
 6379SOL    HW220037   0.615   4.377   5.637
 6380SOL     OW20038   0.196   2.134   4.672
 6380SOL    HW120039   0.100   2.131   4.700
 6380SOL    HW220040   0.216   2.053   4.616
 6381SOL     OW20041   4.695   3.326   0.953
 6381SOL    HW120042   4.695   3.279   0.865
 6381SOL    HW220043   4.629   3.282   1.014
 6382SOL     OW20044   3.179   2.055   0.247
 6382SOL    HW120045   3.173   2.133   0.185
 6382SOL    HW220046   3.149   2.082   0.338
 6383SOL     OW20047   2.286   2.821   2.159
 6383SOL    HW120048   2.319   2.744   2.213
 6383SOL    HW220049   2.281   2.796   2.063
 6384SOL     OW20050   6.117   3.341   2.926
 6384SOL    HW120051   6.030   3.309   2.889
 6384SOL    HW220052   6.112   3.344   3.025
 6385SOL     OW20053   6.731   3.797   2.909
 6385SOL    HW120054   6.635   3.819   2.923
 6385SOL    HW220055   6.753   3.710   2.951
 6386SOL     OW20056   2.522   3.394   6.956
 6386SOL    HW120057   2.476   3.459   7.018
 6386SOL    HW220058   2.595   3.347   7.005
 6387SOL     OW20059   5.939   1.776   6.928
 6387SOL    HW120060   5.963   1.693   6.978
 6387SOL    HW220061   5.861   1.758   6.869
 6388SOL     OW20062   5.149   5.595   1.704
 6388SOL    HW120063   5.103   5.629   1.786
 6388SOL    HW220064   5.103   5.630   1.623
 6389SOL     OW20065   1.059   6.921   0.596
 6389SOL    HW120066   1.046   7.002   0.539
 6389SOL    HW220067   1.114   6.854   0.547
 6390SOL     OW20068   6.269   0.142   5.439
 6390SOL    HW120069   6.277   0.242   5.442
 6390SOL    HW220070   6.354   0.100   5.471
 6391SOL     OW20071   1.647   1.159   6.192
 6391SOL    HW120072   1.744   1.148   6.174
 6391SOL    HW220073   1.594   1.123   6.115
 6392SOL     OW20074   3.189   5.351   3.278
 6392SOL    HW120075   3.176   5.272   3.338
 6392SOL    HW220076   3.196   5.434   3.333
 6393SOL     OW20077   6.510   5.729   1.936
 6393SOL    HW120078   6.529   5.825   1.961
 6393SOL    HW220079   6.432   5.696   1.987
 6394SOL     OW20080   1.960   5.454   0.818
 6394SOL    HW120081   1.986   5.376   0.875
 6394SOL    HW220082   1.860   5.465   0.819
 6395SOL     OW20083   6.533   3.413   1.832
 6395SOL    HW120084   6.508   3.501   1.791
 6395SOL    HW220085   6.545   3.424   1.931
 6396SOL     OW20086   6.493   3.672   6.318
 6396SOL    HW120087   6.434   3.730   6.262
 6396SOL    HW220088   6.585   3.670   6.279
 6397SOL     OW20089   5.876   1.325   1.986
 6397SOL    HW120090   5.954   1.314   2.048
 6397SOL    HW220091   5.898   1.283   1.898
 6398SOL     OW20092   2.028   0.175   1.496
 6398SOL    HW120093   1.956   0.147   1.559
 6398SOL    HW220094   2.028   0.275   1.489
 6399SOL     OW20095   1.535   0.443   6.471
 6399SOL    HW120096   1.581   0.371   6.524
 6399SOL    HW220097   1.492   0.402   6.391
 6400SOL     OW20098   1.653   4.901   2.369
 6400SOL    HW120099   1.730   4.851   2.410
 6400SOL    HW220100   1.664   4.903   2.270
 6401SOL     OW20101   5.561   5.197   3.071
 6401SOL    HW120102   5.543   5.209   3.168
 6401SOL    HW220103   5.486   5.237   3.018
 6402SOL     OW20104   2.243   2.994   3.765
 6402SOL    HW120105   2.180   2.925   3.730
 6402SOL    HW220106   2.330   2.987   3.717
 6403SOL     OW20107   6.028   5.900   5.698
 6403SOL    HW120108   6.124   5.921   5.678
 6403SOL    HW220109   5.972   5.980   5.680
 6404SOL     OW20110   4.404   0.930   2.827
 6404SOL    HW120111   4.423   0.968   2.737
 6404SOL    HW220112   4.318   0.968   2.861
 6405SOL     OW20113   4.518   0.948   4.665
 6405SOL    HW120114   4.486   0.962   4.571
 6405SOL    HW220115   4.484   1.023   4.722
 6406SOL     OW20116   0.853   2.641   2.285
 6406SOL    HW120117   0.851   2.676   2.378
 6406SOL    HW220118   0.921   2.692   2.232
 6407SOL     OW20119   2.348   0.207   4.657
 6407SOL    HW120120   2.295   0.278   4.612
 6407SOL    HW220121   2.330   0.119   4.613
 6408SOL     OW20122   5.502   1.445   1.349
 6408SOL    HW120123   5.449   1.398   1.420
 6408SOL    HW220124   5.487   1.401   1.261
 6409SOL     OW20125   0.065   4.787   3.145
 6409SOL    HW120126   0.002   4.850   3.189
 6409SOL    HW220127   0.045   4.782   3.047
 6410SOL     OW20128   2.010   0.973   6.185
 6410SOL    HW120129   2.094   0.946   6.139
 6410SOL    HW220130   1.974   1.056   6.142
 6411SOL     OW20131   0.725   2.435   2.602
 6411SOL    HW120132   0.648   2.444   2.539
 6411SOL    HW220133   0.720   2.507   2.672
 6412SOL     OW20134   1.935   0.725   6.083
 6412SOL    HW120135   1.974   0.816   6.094
 6412SOL    HW220136   1.889   0.697   6.167
 6413SOL     OW20137   3.466   4.907   4.004
 6413SOL    HW120138   3.368   4.890   3.993
 6413SOL    HW220139   3.484   4.945   4.095
 6414SOL     OW20140   5.231   0.500   6.695
 6414SOL    HW120141   5.154   0.546   6.738
 6414SOL    HW220142   5.229   0.514   6.596
 6415SOL     OW20143   1.471   3.240   3.906
 6415SOL    HW120144   1.391   3.252   3.963
 6415SOL    HW220145   1.551   3.279   3.951
 6416SOL     OW20146   2.260   6.655   6.105
 6416SOL    HW120147   2.165   6.686   6.094
 6416SOL    HW220148   2.304   6.652   6.016
 6417SOL     OW20149   5.410   3.381   0.723
 6417SOL    HW120150   5.405   3.315   0.799
 6417SOL    HW220151   5.405   3.332   0.636
 6418SOL     OW20152   5.120   4.249   2.854
 6418SOL    HW120153   5.074   4.283   2.772
 6418SOL    HW220154   5.213   4.285   2.857
 6419SOL     OW20155   1.388   5.534   3.080
 6419SOL    HW120156   1.328   5.580   3.146
 6419SOL    HW220157   1.426   5.452   3.121
 6420SOL     OW20158   2.447   1.063   3.912
 6420SOL    HW120159   2.475   1.158   3.902
 6420SOL    HW220160   2.493   1.007   3.843
 6421SOL     OW20161   4.342   0.340   1.443
 6421SOL    HW120162   4.336   0.430   1.399
 6421SOL    HW220163   4.254   0.293   1.436
 6422SOL     OW20164   6.546   1.799   5.089
 6422SOL    HW120165   6.496   1.807   5.176
 6422SOL    HW220166   6.644   1.797   5.107
 6423SOL     OW20167   4.945   5.164   4.661
 6423SOL    HW120168   4.919   5.083   4.609
 6423SOL    HW220169   4.986   5.231   4.599
 6424SOL     OW20170   0.991   4.226   4.962
 6424SOL    HW120171   0.954   4.214   5.054
 6424SOL    HW220172   0.919   4.261   4.901
 6425SOL     OW20173   6.847   5.870   3.200
 6425SOL    HW120174   6.770   5.920   3.159
 6425SOL    HW220175   6.832   5.860   3.298
 6426SOL     OW20176   6.402   5.532   3.288
 6426SOL    HW120177   6.334   5.511   3.218
 6426SOL    HW220178   6.488   5.558   3.243
 6427SOL     OW20179   3.431   4.177   3.266
 6427SOL    HW120180   3.432   4.203   3.169
 6427SOL    HW220181   3.391   4.252   3.320
 6428SOL     OW20182   6.202   3.433   0.243
 6428SOL    HW120183   6.140   3.374   0.295
 6428SOL    HW220184   6.284   3.449   0.298
 6429SOL     OW20185   0.071   1.270   5.726
 6429SOL    HW120186   0.083   1.205   5.801
 6429SOL    HW220187   7.021   1.239   5.665
 6430SOL     OW20188   6.468   1.192   4.359
 6430SOL    HW120189   6.398   1.121   4.356
 6430SOL    HW220190   6.433   1.276   4.318
 6431SOL     OW20191   4.330   6.171   3.586
 6431SOL    HW120192   4.421   6.146   3.621
 6431SOL    HW220193   4.339   6.209   3.495
 6432SOL     OW20194   4.201   4.850   5.931
 6432SOL    HW120195   4.297   4.875   5.917
 6432SOL    HW220196   4.149   4.865   5.847
 6433SOL     OW20197   3.088   4.800   6.801
 6433SOL    HW120198   3.153   4.762   6.866
 6433SOL    HW220199   3.075   4.898   6.819
 6434SOL     OW20200   3.209   0.427   6.310
 6434SOL    HW120201   3.129   0.460   6.260
 6434SOL    HW220202   3.181   0.354   6.372
 6435SOL     OW20203   5.749   6.665   0.728
 6435SOL    HW120204   5.675   6.732   0.735
 6435SOL    HW220205   5.837   6.710   0.747
 6436SOL     OW20206   1.373   3.532   2.782
 6436SOL    HW120207   1.342   3.488   2.697
 6436SOL    HW220208   1.395   3.627   2.764
 6437SOL     OW20209   1.732   2.233   0.510
 6437SOL    HW120210   1.698   2.324   0.488
 6437SOL    HW220211   1.658   2.167   0.504
 6438SOL     OW20212   0.677   4.849   5.920
 6438SOL    HW120213   0.617   4.799   5.858
 6438SOL    HW220214   0.688   4.943   5.888
 6439SOL     OW20215   5.209   0.516   2.642
 6439SOL    HW120216   5.157   0.502   2.558
 6439SOL    HW220217   5.296   0.560   2.621
 6440SOL     OW20218   3.014   1.074   5.733
 6440SOL    HW120219   2.944   1.127   5.780
 6440SOL    HW220220   3.025   1.108   5.640
 6441SOL     OW20221   0.252   0.917   1.677
 6441SOL    HW120222   0.250   0.817   1.684
 6441SOL    HW220223   0.200   0.946   1.596
 6442SOL     OW20224   3.252   1.765   4.700
 6442SOL    HW120225   3.155   1.773   4.679
 6442SOL    HW220226   3.286   1.853   4.735
 6443SOL     OW20227   3.242   3.099   5.691
 6443SOL    HW120228   3.201   3.069   5.606
 6443SOL    HW220229   3.176   3.088   5.766
 6444SOL     OW20230   5.806   2.549   4.304
 6444SOL    HW120231   5.904   2.531   4.297
 6444SOL    HW220232   5.759   2.465   4.331
 6445SOL     OW20233   3.810   3.335   3.278
 6445SOL    HW120234   3.800   3.418   3.223
 6445SOL    HW220235   3.778   3.352   3.371
 6446SOL     OW20236   0.304   1.526   0.341
 6446SOL    HW120237   0.280   1.436   0.378
 6446SOL    HW220238   0.253   1.541   0.256
 6447SOL     OW20239   0.180   4.597   2.370
 6447SOL    HW120240   0.278   4.620   2.366
 6447SOL    HW220241   0.126   4.675   2.339
 6448SOL     OW20242   6.061   4.849   1.375
 6448SOL    HW120243   6.076   4.894   1.463
 6448SOL    HW220244   6.067   4.750   1.386
 6449SOL     OW20245   3.181   5.453   1.918
 6449SOL    HW120246   3.239   5.463   1.999
 6449SOL    HW220247   3.232   5.404   1.847
 6450SOL     OW20248   1.210   3.395   0.326
 6450SOL    HW120249   1.188   3.430   0.417
 6450SOL    HW220250   1.193   3.467   0.258
 6451SOL     OW20251   2.133   1.059   5.506
 6451SOL    HW120252   2.115   1.138   5.447
 6451SOL    HW220253   2.138   1.090   5.601
 6452SOL     OW20254   4.832   4.210   2.409
 6452SOL    HW120255   4.869   4.120   2.384
 6452SOL    HW220256   4.889   4.250   2.481
 6453SOL     OW20257   2.493   0.640   1.587
 6453SOL    HW120258   2.449   0.722   1.551
 6453SOL    HW220259   2.550   0.664   1.665
 6454SOL     OW20260   0.988   0.974   2.891
 6454SOL    HW120261   0.970   0.893   2.947
 6454SOL    HW220262   0.998   1.054   2.950
 6455SOL     OW20263   6.870   3.083   3.584
 6455SOL    HW120264   6.770   3.081   3.580
 6455SOL    HW220265   6.905   2.991   3.568
 6456SOL     OW20266   1.389   0.830   3.744
 6456SOL    HW120267   1.430   0.739   3.753
 6456SOL    HW220268   1.445   0.897   3.793
 6457SOL     OW20269   5.606   0.533   1.559
 6457SOL    HW120270   5.512   0.533   1.592
 6457SOL    HW220271   5.628   0.621   1.518
 6458SOL     OW20272   1.473   4.860   4.336
 6458SOL    HW120273   1.397   4.869   4.400
 6458SOL    HW220274   1.560   4.863   4.387
 6459SOL     OW20275   6.259   2.949   2.241
 6459SOL    HW120276   6.254   2.993   2.151
 6459SOL    HW220277   6.258   2.850   2.230
 6460SOL     OW20278   5.973   6.141   6.332
 6460SOL    HW120279   5.916   6.106   6.258
 6460SOL    HW220280   5.960   6.240   6.340
 6461SOL     OW20281   2.929   4.405   6.790
 6461SOL    HW120282   3.027   4.397   6.771
 6461SOL    HW220283   2.898   4.321   6.835
 6462SOL     OW20284   1.375   2.739   4.655
 6462SOL    HW120285   1.458   2.795   4.656
 6462SOL    HW220286   1.386   2.664   4.719
 6463SOL     OW20287   5.499   0.457   0.243
 6463SOL    HW120288   5.475   0.451   0.146
 6463SOL    HW220289   5.431   0.406   0.297
 6464SOL     OW20290   1.960   5.330   5.056
 6464SOL    HW120291   1.905   5.249   5.035
 6464SOL    HW220292   1.963   5.344   5.155
 6465SOL     OW20293   0.130   2.993   3.052
 6465SOL    HW120294   0.110   2.975   2.956
 6465SOL    HW220295   0.153   3.090   3.064
 6466SOL     OW20296   5.945   0.889   6.302
 6466SOL    HW120297   5.906   0.820   6.240
 6466SOL    HW220298   5.911   0.980   6.275
 6467SOL     OW20299   3.686   0.319   0.981
 6467SOL    HW120300   3.732   0.357   1.062
 6467SOL    HW220301   3.609   0.376   0.956
 6468SOL     OW20302   3.571   6.616   1.607
 6468SOL    HW120303   3.488   6.671   1.608
 6468SOL    HW220304   3.609   6.612   1.700
 6469SOL     OW20305   4.069   2.240   3.510
 6469SOL    HW120306   4.105   2.161   3.559
 6469SOL    HW220307   4.141   2.309   3.502
 6470SOL     OW20308   6.240   3.055   0.868
 6470SOL    HW120309   6.187   3.048   0.783
 6470SOL    HW220310   6.199   2.995   0.937
 6471SOL     OW20311   0.416   6.721   5.534
 6471SOL    HW120312   0.471   6.802   5.554
 6471SOL    HW220313   0.373   6.688   5.618
 6472SOL     OW20314   6.543   6.073   2.487
 6472SOL    HW120315   6.642   6.066   2.499
 6472SOL    HW220316   6.497   6.034   2.567
 6473SOL     OW20317   2.448   1.738   4.713
 6473SOL    HW120318   2.515   1.782   4.654
 6473SOL    HW220319   2.494   1.676   4.776
 6474SOL     OW20320   4.336   5.949   5.549
 6474SOL    HW120321   4.420   5.947   5.604
 6474SOL    HW220322   4.334   6.032   5.494
 6475SOL     OW20323   5.943   4.282   3.967
 6475SOL    HW120324   5.849   4.295   3.998
 6475SOL    HW220325   6.006   4.317   4.037
 6476SOL     OW20326   5.367   2.999   0.605
 6476SOL    HW120327   5.367   3.098   0.590
 6476SOL    HW220328   5.347   2.952   0.518
 6477SOL     OW20329   6.434   5.244   0.315
 6477SOL    HW120330   6.430   5.326   0.373
 6477SOL    HW220331   6.499   5.179   0.355
 6478SOL     OW20332   2.724   6.629   2.734
 6478SOL    HW120333   2.669   6.570   2.675
 6478SOL    HW220334   2.797   6.671   2.681
 6479SOL     OW20335   3.912   5.593   4.510
 6479SOL    HW120336   3.839   5.662   4.513
 6479SOL    HW220337   4.001   5.639   4.505
 6480SOL     OW20338   2.654   1.063   6.917
 6480SOL    HW120339   2.561   1.060   6.879
 6480SOL    HW220340   2.689   0.970   6.928
 6481SOL     OW20341   3.407   2.270   1.764
 6481SOL    HW120342   3.342   2.210   1.812
 6481SOL    HW220343   3.491   2.276   1.817
 6482SOL     OW20344   6.003   1.976   6.355
 6482SOL    HW120345   5.946   2.021   6.424
 6482SOL    HW220346   6.041   1.892   6.392
 6483SOL     OW20347   6.737   0.220   3.172
 6483SOL    HW120348   6.764   0.176   3.257
 6483SOL    HW220349   6.818   0.245   3.120
 6484SOL     OW20350   3.050   0.977   2.333
 6484SOL    HW120351   3.122   1.046   2.348
 6484SOL    HW220352   3.025   0.936   2.421
 6485SOL     OW20353   2.197   5.084   3.728
 6485SOL    HW120354   2.165   5.058   3.819
 6485SOL    HW220355   2.119   5.115   3.673
 6486SOL     OW20356   1.049   4.685   2.455
 6486SOL    HW120357   1.053   4.743   2.536
 6486SOL    HW220358   1.122   4.711   2.392
 6487SOL     OW20359   1.259   6.873   5.427
 6487SOL    HW120360   1.356   6.864   5.409
 6487SOL    HW220361   1.207   6.814   5.365
 6488SOL     OW20362   4.164   5.767   4.585
 6488SOL    HW120363   4.218   5.851   4.599
 6488SOL    HW220364   4.123   5.740   4.672
 6489SOL     OW20365   3.806   3.299   6.325
 6489SOL    HW120366   3.718   3.267   6.290
 6489SOL    HW220367   3.797   3.324   6.421
 6490SOL     OW20368   3.827   0.979   6.083
 6490SOL    HW120369   3.787   1.069   6.064
 6490SOL    HW220370   3.756   0.909   6.074
 6491SOL     OW20371   3.127   0.471   1.235
 6491SOL    HW120372   3.076   0.385   1.237
 6491SOL    HW220373   3.109   0.518   1.148
 6492SOL     OW20374   3.763   3.948   5.479
 6492SOL    HW120375   3.843   3.918   5.427
 6492SOL    HW220376   3.769   4.047   5.495
 6493SOL     OW20377   1.227   4.345   6.445
 6493SOL    HW120378   1.152   4.300   6.395
 6493SOL    HW220379   1.294   4.381   6.381
 6494SOL     OW20380   0.255   6.911   2.741
 6494SOL    HW120381   0.299   6.995   2.775
 6494SOL    HW220382   0.247   6.916   2.642
 6495SOL     OW20383   0.002   0.899   4.312
 6495SOL    HW120384   6.956   0.829   4.328
 6495SOL    HW220385   6.985   0.973   4.258
 6496SOL     OW20386   5.772   0.942   2.652
 6496SOL    HW120387   5.804   0.922   2.559
 6496SOL    HW220388   5.673   0.958   2.650
 6497SOL     OW20389   0.594   0.731   1.504
 6497SOL    HW120390   0.672   0.670   1.520
 6497SOL    HW220391   0.617   0.797   1.433
 6498SOL     OW20392   0.713   3.547   4.489
 6498SOL    HW120393   0.722   3.510   4.396
 6498SOL    HW220394   0.619   3.577   4.504
 6499SOL     OW20395   5.465   3.841   5.596
 6499SOL    HW120396   5.522   3.887   5.663
 6499SOL    HW220397   5.505   3.852   5.505
 6500SOL     OW20398   6.773   3.995   3.679
 6500SOL    HW120399   6.867   3.980   3.706
 6500SOL    HW220400   6.770   4.061   3.603
 6501SOL     OW20401   6.659   1.286   0.770
 6501SOL    HW120402   6.630   1.223   0.842
 6501SOL    HW220403   6.729   1.242   0.713
 6502SOL     OW20404   0.067   4.111   2.316
 6502SOL    HW120405   0.087   4.020   2.352
 6502SOL    HW220406   6.996   4.137   2.342
 6503SOL     OW20407   5.495   1.133   3.819
 6503SOL    HW120408   5.443   1.170   3.896
 6503SOL    HW220409   5.593   1.152   3.834
 6504SOL     OW20410   3.430   6.605   6.077
 6504SOL    HW120411   3.455   6.511   6.100
 6504SOL    HW220412   3.433   6.661   6.160
 6505SOL     OW20413   5.548   6.414   6.403
 6505SOL    HW120414   5.533   6.464   6.489
 6505SOL    HW220415   5.633   6.445   6.361
 6506SOL     OW20416   0.117   2.830   3.270
 6506SOL    HW120417   0.143   2.735   3.249
 6506SOL    HW220418   0.107   2.881   3.185
 6507SOL     OW20419   2.481   5.968   6.464
 6507SOL    HW120420   2.467   5.900   6.392
 6507SOL    HW220421   2.569   6.014   6.449
 6508SOL     OW20422   1.581   0.673   2.908
 6508SOL    HW120423   1.494   0.631   2.935
 6508SOL    HW220424   1.568   0.772   2.899
 6509SOL     OW20425   4.725   2.224   4.560
 6509SOL    HW120426   4.743   2.282   4.480
 6509SOL    HW220427   4.632   2.242   4.593
 6510SOL     OW20428   6.446   4.899   6.770
 6510SOL    HW120429   6.486   4.986   6.799
 6510SOL    HW220430   6.353   4.915   6.736
 6511SOL     OW20431   4.428   1.180   4.821
 6511SOL    HW120432   4.349   1.170   4.882
 6511SOL    HW220433   4.511   1.191   4.876
 6512SOL     OW20434   3.712   6.816   2.163
 6512SOL    HW120435   3.744   6.851   2.251
 6512SOL    HW220436   3.689   6.719   2.171
 6513SOL     OW20437   2.483   5.481   3.425
 6513SOL    HW120438   2.465   5.438   3.513
 6513SOL    HW220439   2.425   5.562   3.415
 6514SOL     OW20440   5.700   1.378   4.417
 6514SOL    HW120441   5.689   1.419   4.508
 6514SOL    HW220442   5.611   1.344   4.385
 6515SOL     OW20443   1.409   3.263   3.370
 6515SOL    HW120444   1.367   3.172   3.379
 6515SOL    HW220445   1.351   3.331   3.416
 6516SOL     OW20446   0.578   3.271   1.164
 6516SOL    HW120447   0.665   3.305   1.199
 6516SOL    HW220448   0.528   3.345   1.120
 6517SOL     OW20449   6.664   1.679   1.963
 6517SOL    HW120450   6.668   1.778   1.978
 6517SOL    HW220451   6.744   1.649   1.911
 6518SOL     OW20452   0.419   0.562   1.289
 6518SOL    HW120453   0.486   0.608   1.346
 6518SOL    HW220454   0.462   0.484   1.243
 6519SOL     OW20455   0.299   1.444   2.631
 6519SOL    HW120456   0.319   1.458   2.535
 6519SOL    HW220457   0.336   1.357   2.662
 6520SOL     OW20458   0.268   4.986   6.948
 6520SOL    HW120459   0.356   4.949   6.917
 6520SOL    HW220460   0.254   4.963   0.021
 6521SOL     OW20461   2.092   2.861   4.518
 6521SOL    HW120462   2.138   2.772   4.517
 6521SOL    HW220463   2.131   2.918   4.590
 6522SOL     OW20464   3.247   4.952   5.802
 6522SOL    HW120465   3.187   4.966   5.723
 6522SOL    HW220466   3.195   4.970   5.886
 6523SOL     OW20467   3.814   0.851   0.213
 6523SOL    HW120468   3.894   0.902   0.243
 6523SOL    HW220469   3.842   0.760   0.182
 6524SOL     OW20470   2.407   3.190   1.185
 6524SOL    HW120471   2.454   3.208   1.272
 6524SOL    HW220472   2.323   3.244   1.181
 6525SOL     OW20473   2.220   4.551   2.564
 6525SOL    HW120474   2.136   4.534   2.616
 6525SOL    HW220475   2.299   4.516   2.615
 6526SOL     OW20476   1.137   0.271   1.832
 6526SOL    HW120477   1.043   0.241   1.822
 6526SOL    HW220478   1.199   0.194   1.815
 6527SOL     OW20479   6.626   2.090   6.722
 6527SOL    HW120480   6.619   2.096   6.622
 6527SOL    HW220481   6.596   2.000   6.753
 6528SOL     OW20482   5.879   1.264   5.473
 6528SOL    HW120483   5.969   1.247   5.432
 6528SOL    HW220484   5.808   1.248   5.405
 6529SOL     OW20485   2.046   0.593   2.469
 6529SOL    HW120486   2.085   0.581   2.560
 6529SOL    HW220487   2.017   0.504   2.433
 6530SOL     OW20488   0.178   2.192   0.999
 6530SOL    HW120489   0.092   2.226   0.962
 6530SOL    HW220490   0.206   2.248   1.077
 6531SOL     OW20491   4.886   3.228   4.841
 6531SOL    HW120492   4.910   3.287   4.918
 6531SOL    HW220493   4.862   3.137   4.874
 6532SOL     OW20494   0.887   1.216   1.046
 6532SOL    HW120495   0.824   1.286   1.011
 6532SOL    HW220496   0.957   1.259   1.102
 6533SOL     OW20497   4.068   6.106   0.309
 6533SOL    HW120498   4.097   6.184   0.365
 6533SOL    HW220499   4.092   6.123   0.214
 6534SOL     OW20500   5.241   5.005   1.534
 6534SOL    HW120501   5.146   5.018   1.504
 6534SOL    HW220502   5.293   5.089   1.518
 6535SOL     OW20503   6.871   4.536   4.328
 6535SOL    HW120504   6.846   4.485   4.246
 6535SOL    HW220505   6.789   4.578   4.367
 6536SOL     OW20506   0.625   2.120   4.962
 6536SOL    HW120507   0.528   2.100   4.955
 6536SOL    HW220508   0.678   2.054   4.908
 6537SOL     OW20509   7.021   4.431   6.538
 6537SOL    HW120510   6.935   4.478   6.520
 6537SOL    HW220511   0.073   4.477   6.491
 6538SOL     OW20512   2.044   3.969   5.680
 6538SOL    HW120513   2.137   3.994   5.652
 6538SOL    HW220514   1.994   3.933   5.601
 6539SOL     OW20515   4.871   0.922   6.990
 6539SOL    HW120516   4.965   0.889   6.983
 6539SOL    HW220517   4.865   0.992   0.038
 6540SOL     OW20518   3.841   2.915   6.032
 6540SOL    HW120519   3.861   2.899   6.128
 6540SOL    HW220520   3.899   2.989   5.997
 6541SOL     OW20521   5.324   1.425   5.139
 6541SOL    HW120522   5.255   1.386   5.200
 6541SOL    HW220523   5.299   1.519   5.115
 6542SOL     OW20524   0.561   2.699   3.872
 6542SOL    HW120525   0.652   2.735   3.850
 6542SOL    HW220526   0.564   2.653   3.961
 6543SOL     OW20527   4.430   3.071   5.400
 6543SOL    HW120528   4.418   2.979   5.363
 6543SOL    HW220529   4.354   3.129   5.371
 6544SOL     OW20530   1.392   6.798   3.557
 6544SOL    HW120531   1.387   6.863   3.633
 6544SOL    HW220532   1.346   6.713   3.584
 6545SOL     OW20533   4.224   0.486   1.115
 6545SOL    HW120534   4.257   0.535   1.035
 6545SOL    HW220535   4.272   0.519   1.197
 6546SOL     OW20536   2.588   3.888   5.904
 6546SOL    HW120537   2.641   3.898   5.820
 6546SOL    HW220538   2.497   3.852   5.882
 6547SOL     OW20539   4.699   0.980   6.755
 6547SOL    HW120540   4.777   0.931   6.794
 6547SOL    HW220541   4.665   1.047   6.821
 6548SOL     OW20542   1.469   4.023   1.252
 6548SOL    HW120543   1.476   4.097   1.185
 6548SOL    HW220544   1.546   4.029   1.316
 6549SOL     OW20545   4.524   0.945   2.073
 6549SOL    HW120546   4.498   0.885   1.997
 6549SOL    HW220547   4.609   0.913   2.114
 6550SOL     OW20548   6.909   6.570   4.563
 6550SOL    HW120549   6.925   6.648   4.623
 6550SOL    HW220550   6.897   6.603   4.469
 6551SOL     OW20551   2.040   3.608   2.193
 6551SOL    HW120552   2.109   3.546   2.155
 6551SOL    HW220553   2.048   3.697   2.148
 6552SOL     OW20554   1.143   0.336   0.151
 6552SOL    HW120555   1.202   0.410   0.184
 6552SOL    HW220556   1.162   0.318   0.054
 6553SOL     OW20557   0.187   2.104   3.346
 6553SOL    HW120558   0.244   2.130   3.424
 6553SOL    HW220559   0.239   2.044   3.285
 6554SOL     OW20560   1.306   0.111   4.190
 6554SOL    HW120561   1.217   0.127   4.146
 6554SOL    HW220562   1.294   0.052   4.270
 6555SOL     OW20563   4.867   2.283   2.893
 6555SOL    HW120564   4.804   2.273   2.816
 6555SOL    HW220565   4.875   2.195   2.941
 6556SOL     OW20566   5.848   4.497   3.589
 6556SOL    HW120567   5.926   4.467   3.644
 6556SOL    HW220568   5.861   4.593   3.563
 6557SOL     OW20569   2.271   0.488   3.227
 6557SOL    HW120570   2.331   0.527   3.297
 6557SOL    HW220571   2.213   0.559   3.188
 6558SOL     OW20572   6.830   4.917   0.438
 6558SOL    HW120573   6.797   4.831   0.398
 6558SOL    HW220574   6.924   4.934   0.407
 6559SOL     OW20575   0.943   3.849   0.076
 6559SOL    HW120576   0.884   3.788   0.129
 6559SOL    HW220577   0.936   3.826   7.002
 6560SOL     OW20578   4.138   4.974   1.672
 6560SOL    HW120579   4.148   4.877   1.691
 6560SOL    HW220580   4.152   4.991   1.574
 6561SOL     OW20581   3.655   4.180   1.334
 6561SOL    HW120582   3.585   4.108   1.338
 6561SOL    HW220583   3.676   4.201   1.239
 6562SOL     OW20584   5.931   1.901   0.949
 6562SOL    HW120585   5.949   1.990   0.907
 6562SOL    HW220586   5.932   1.910   1.048
 6563SOL     OW20587   4.982   5.455   6.153
 6563SOL    HW120588   5.037   5.535   6.177
 6563SOL    HW220589   5.042   5.380   6.124
 6564SOL     OW20590   6.575   3.493   2.428
 6564SOL    HW120591   6.486   3.482   2.385
 6564SOL    HW220592   6.636   3.545   2.368
 6565SOL     OW20593   5.871   0.944   2.375
 6565SOL    HW120594   5.866   0.913   2.280
 6565SOL    HW220595   5.962   0.981   2.393
 6566SOL     OW20596   3.975   6.657   2.089
 6566SOL    HW120597   3.972   6.752   2.120
 6566SOL    HW220598   4.014   6.653   1.997
 6567SOL     OW20599   4.733   0.622   2.315
 6567SOL    HW120600   4.638   0.620   2.348
 6567SOL    HW220601   4.792   0.575   2.381
 6568SOL     OW20602   3.347   1.690   4.138
 6568SOL    HW120603   3.300   1.755   4.197
 6568SOL    HW220604   3.421   1.646   4.189
 6569SOL     OW20605   2.895   3.144   0.428
 6569SOL    HW120606   2.827   3.120   0.497
 6569SOL    HW220607   2.875   3.235   0.391
 6570SOL     OW20608   2.950   0.643   2.291
 6570SOL    HW120609   2.971   0.714   2.359
 6570SOL    HW220610   2.884   0.579   2.330
 6571SOL     OW20611   3.140   5.040   1.938
 6571SOL    HW120612   3.051   5.045   1.982
 6571SOL    HW220613   3.164   4.945   1.921
 6572SOL     OW20614   0.186   4.168   4.489
 6572SOL    HW120615   0.192   4.106   4.410
 6572SOL    HW220616   0.278   4.197   4.515
 6573SOL     OW20617   0.505   1.927   2.653
 6573SOL    HW120618   0.559   1.989   2.597
 6573SOL    HW220619   0.543   1.921   2.745
 6574SOL     OW20620   2.102   5.705   2.852
 6574SOL    HW120621   2.099   5.646   2.771
 6574SOL    HW220622   2.162   5.664   2.921
 6575SOL     OW20623   0.975   6.880   4.090
 6575SOL    HW120624   0.893   6.936   4.103
 6575SOL    HW220625   0.950   6.795   4.045
 6576SOL     OW20626   2.560   6.465   0.102
 6576SOL    HW120627   2.645   6.421   0.133
 6576SOL    HW220628   2.501   6.481   0.181
 6577SOL     OW20629   1.103   1.830   3.387
 6577SOL    HW120630   1.124   1.736   3.412
 6577SOL    HW220631   1.170   1.891   3.428
 6578SOL     OW20632   0.765   6.320   2.566
 6578SOL    HW120633   0.739   6.224   2.575
 6578SOL    HW220634   0.848   6.326   2.510
 6579SOL     OW20635   0.006   3.358   3.370
 6579SOL    HW120636   7.016   3.420   3.447
 6579SOL    HW220637   0.081   3.295   3.389
 6580SOL     OW20638   0.097   1.658   0.534
 6580SOL    HW120639   0.151   1.573   0.530
 6580SOL    HW220640   0.121   1.716   0.457
 6581SOL     OW20641   2.454   0.559   0.415
 6581SOL    HW120642   2.374   0.500   0.410
 6581SOL    HW220643   2.436   0.645   0.368
 6582SOL     OW20644   6.936   1.323   3.314
 6582SOL    HW120645   6.918   1.411   3.359
 6582SOL    HW220646   6.886   1.318   3.228
 6583SOL     OW20647   5.084   0.106   6.003
 6583SOL    HW120648   5.008   0.053   6.041
 6583SOL    HW220649   5.054   0.154   5.921
 6584SOL     OW20650   4.420   2.329   0.395
 6584SOL    HW120651   4.464   2.310   0.307
 6584SOL    HW220652   4.489   2.359   0.461
 6585SOL     OW20653   6.391   5.708   0.265
 6585SOL    HW120654   6.352   5.747   0.348
 6585SOL    HW220655   6.324   5.715   0.190
 6586SOL     OW20656   5.954   1.127   6.036
 6586SOL    HW120657   5.886   1.133   6.109
 6586SOL    HW220658   5.928   1.053   5.973
 6587SOL     OW20659   1.813   4.963   5.540
 6587SOL    HW120660   1.719   4.998   5.531
 6587SOL    HW220661   1.865   5.023   5.600
 6588SOL     OW20662   0.360   2.753   1.884
 6588SOL    HW120663   0.370   2.655   1.904
 6588SOL    HW220664   0.267   2.770   1.850
 6589SOL     OW20665   4.707   0.115   1.414
 6589SOL    HW120666   4.805   0.128   1.431
 6589SOL    HW220667   4.656   0.192   1.452
 6590SOL     OW20668   6.968   0.848   6.822
 6590SOL    HW120669   0.003   0.901   6.885
 6590SOL    HW220670   6.994   0.869   6.728
 6591SOL     OW20671   6.317   5.741   3.483
 6591SOL    HW120672   6.334   5.657   3.431
 6591SOL    HW220673   6.218   5.749   3.500
 6592SOL     OW20674   5.167   6.750   3.039
 6592SOL    HW120675   5.261   6.772   3.013
 6592SOL    HW220676   5.126   6.829   3.083
 6593SOL     OW20677   2.391   2.221   2.737
 6593SOL    HW120678   2.475   2.275   2.732
 6593SOL    HW220679   2.387   2.173   2.824
 6594SOL     OW20680   4.079   1.388   6.366
 6594SOL    HW120681   3.992   1.355   6.401
 6594SOL    HW220682   4.122   1.317   6.311
 6595SOL     OW20683   1.516   4.236   6.879
 6595SOL    HW120684   1.603   4.223   6.927
 6595SOL    HW220685   1.531   4.289   6.796
 6596SOL     OW20686   3.399   6.981   4.210
 6596SOL    HW120687   3.413   6.965   4.113
 6596SOL    HW220688   3.323   6.925   4.243
 6597SOL     OW20689   1.184   5.795   0.967
 6597SOL    HW120690   1.170   5.818   1.063
 6597SOL    HW220691   1.128   5.854   0.909
 6598SOL     OW20692   1.943   4.434   4.000
 6598SOL    HW120693   1.851   4.413   4.033
 6598SOL    HW220694   1.957   4.533   4.003
 6599SOL     OW20695   4.259   6.321   6.293
 6599SOL    HW120696   4.309   6.396   6.337
 6599SOL    HW220697   4.173   6.356   6.256
 6600SOL     OW20698   3.533   6.262   5.520
 6600SOL    HW120699   3.453   6.317   5.546
 6600SOL    HW220700   3.583   6.310   5.448
 6601SOL     OW20701   1.695   2.160   5.087
 6601SOL    HW120702   1.684   2.248   5.041
 6601SOL    HW220703   1.605   2.119   5.101
 6602SOL     OW20704   1.961   0.702   1.623
 6602SOL    HW120705   1.928   0.770   1.558
 6602SOL    HW220706   2.030   0.744   1.683
 6603SOL     OW20707   0.351   3.153   3.313
 6603SOL    HW120708   0.423   3.153   3.382
 6603SOL    HW220709   0.262   3.148   3.358
 6604SOL     OW20710   1.263   6.714   1.202
 6604SOL    HW120711   1.166   6.729   1.181
 6604SOL    HW220712   1.272   6.690   1.299
 6605SOL     OW20713   5.747   5.537   1.721
 6605SOL    HW120714   5.804   5.619   1.713
 6605SOL    HW220715   5.698   5.539   1.808
 6606SOL     OW20716   0.299   5.603   2.407
 6606SOL    HW120717   0.359   5.544   2.461
 6606SOL    HW220718   0.297   5.695   2.447
 6607SOL     OW20719   1.341   4.511   3.077
 6607SOL    HW120720   1.408   4.503   3.003
 6607SOL    HW220721   1.305   4.421   3.099
 6608SOL     OW20722   6.336   6.794   0.158
 6608SOL    HW120723   6.360   6.772   0.063
 6608SOL    HW220724   6.302   6.713   0.204
 6609SOL     OW20725   5.700   1.008   0.172
 6609SOL    HW120726   5.626   0.949   0.206
 6609SOL    HW220727   5.671   1.103   0.175
 6610SOL     OW20728   2.130   6.457   6.661
 6610SOL    HW120729   2.138   6.364   6.625
 6610SOL    HW220730   2.221   6.489   6.690
 6611SOL     OW20731   4.814   3.093   3.271
 6611SOL    HW120732   4.805   2.994   3.276
 6611SOL    HW220733   4.763   3.127   3.192
 6612SOL     OW20734   6.127   1.768   6.479
 6612SOL    HW120735   6.143   1.786   6.576
 6612SOL    HW220736   6.206   1.721   6.440
 6613SOL     OW20737   6.375   6.158   5.373
 6613SOL    HW120738   6.456   6.163   5.315
 6613SOL    HW220739   6.300   6.114   5.322
 6614SOL     OW20740   4.739   4.877   6.899
 6614SOL    HW120741   4.736   4.777   6.899
 6614SOL    HW220742   4.648   4.913   6.916
 6615SOL     OW20743   1.431   5.781   1.464
 6615SOL    HW120744   1.430   5.827   1.375
 6615SOL    HW220745   1.388   5.839   1.533
 6616SOL     OW20746   4.559   0.026   6.367
 6616SOL    HW120747   4.462   0.049   6.368
 6616SOL    HW220748   4.609   0.087   6.428
 6617SOL     OW20749   4.458   5.483   3.152
 6617SOL    HW120750   4.457   5.418   3.076
 6617SOL    HW220751   4.393   5.557   3.134
 6618SOL     OW20752   1.458   2.269   2.505
 6618SOL    HW120753   1.442   2.195   2.570
 6618SOL    HW220754   1.443   2.237   2.412
 6619SOL     OW20755   5.431   6.846   3.262
 6619SOL    HW120756   5.470   6.855   3.170
 6619SOL    HW220757   5.389   6.932   3.289
 6620SOL     OW20758   1.836   2.472   5.304
 6620SOL    HW120759   1.873   2.507   5.390
 6620SOL    HW220760   1.849   2.373   5.300
 6621SOL     OW20761   3.475   3.429   6.017
 6621SOL    HW120762   3.474   3.330   6.006
 6621SOL    HW220763   3.396   3.457   6.072
 6622SOL     OW20764   5.826   6.091   2.032
 6622SOL    HW120765   5.909   6.143   2.051
 6622SOL    HW220766   5.850   6.002   1.993
 6623SOL     OW20767   3.457   2.849   4.870
 6623SOL    HW120768   3.452   2.749   4.876
 6623SOL    HW220769   3.546   2.876   4.834
 6624SOL     OW20770   0.079   4.328   5.652
 6624SOL    HW120771   0.011   4.398   5.627
 6624SOL    HW220772   0.085   4.260   5.578
 6625SOL     OW20773   5.087   1.926   5.072
 6625SOL    HW120774   5.005   1.953   5.021
 6625SOL    HW220775   5.128   2.007   5.115
 6626SOL     OW20776   3.372   6.730   5.517
 6626SOL    HW120777   3.399   6.740   5.613
 6626SOL    HW220778   3.445   6.685   5.466
 6627SOL     OW20779   1.849   6.595   5.337
 6627SOL    HW120780   1.760   6.571   5.298
 6627SOL    HW220781   1.860   6.549   5.425
 6628SOL     OW20782   6.013   4.806   4.709
 6628SOL    HW120783   5.955   4.735   4.749
 6628SOL    HW220784   6.109   4.781   4.720
 6629SOL     OW20785   4.716   6.536   6.573
 6629SOL    HW120786   4.666   6.451   6.592
 6629SOL    HW220787   4.652   6.613   6.579
 6630SOL     OW20788   3.369   2.217   1.476
 6630SOL    HW120789   3.388   2.128   1.434
 6630SOL    HW220790   3.411   2.221   1.566
 6631SOL     OW20791   2.226   5.780   3.668
 6631SOL    HW120792   2.137   5.824   3.682
 6631SOL    HW220793   2.245   5.719   3.745
 6632SOL     OW20794   1.190   0.724   1.062
 6632SOL    HW120795   1.274   0.748   1.111
 6632SOL    HW220796   1.168   0.795   0.995
 6633SOL     OW20797   2.485   5.060   6.095
 6633SOL    HW120798   2.574   5.098   6.122
 6633SOL    HW220799   2.486   4.961   6.106
 6634SOL     OW20800   5.122   1.577   4.625
 6634SOL    HW120801   5.175   1.503   4.666
 6634SOL    HW220802   5.076   1.630   4.697
 6635SOL     OW20803   4.688   4.357   2.977
 6635SOL    HW120804   4.664   4.336   2.882
 6635SOL    HW220805   4.710   4.272   3.025
 6636SOL     OW20806   4.655   1.841   6.920
 6636SOL    HW120807   4.727   1.852   6.852
 6636SOL    HW220808   4.691   1.796   7.001
 6637SOL     OW20809   0.755   0.006   6.970
 6637SOL    HW120810   0.802   6.943   6.993
 6637SOL    HW220811   0.791   0.041   6.883
 6638SOL     OW20812   3.096   3.662   3.126
 6638SOL    HW120813   3.014   3.605   3.131
 6638SOL    HW220814   3.079   3.739   3.064
 6639SOL     OW20815   5.064   4.711   6.676
 6639SOL    HW120816   5.052   4.636   6.741
 6639SOL    HW220817   5.122   4.782   6.716
 6640SOL     OW20818   6.495   2.227   4.784
 6640SOL    HW120819   6.444   2.166   4.724
 6640SOL    HW220820   6.433   2.293   4.825
 6641SOL     OW20821   2.943   1.415   6.789
 6641SOL    HW120822   2.911   1.506   6.817
 6641SOL    HW220823   3.039   1.405   6.814
 6642SOL     OW20824   2.382   5.882   6.736
 6642SOL    HW120825   2.296   5.932   6.728
 6642SOL    HW220826   2.438   5.900   6.655
 6643SOL     OW20827   5.156   6.336   0.156
 6643SOL    HW120828   5.213   6.280   0.217
 6643SOL    HW220829   5.214   6.399   0.105
 6644SOL     OW20830   2.843   5.312   1.162
 6644SOL    HW120831   2.915   5.253   1.125
 6644SOL    HW220832   2.883   5.385   1.216
 6645SOL     OW20833   5.728   4.091   0.776
 6645SOL    HW120834   5.740   4.177   0.725
 6645SOL    HW220835   5.632   4.082   0.803
 6646SOL     OW20836   4.291   1.023   5.197
 6646SOL    HW120837   4.254   1.015   5.290
 6646SOL    HW220838   4.368   0.961   5.187
 6647SOL     OW20839   4.772   0.476   1.291
 6647SOL    HW120840   4.764   0.377   1.279
 6647SOL    HW220841   4.718   0.505   1.370
 6648SOL     OW20842   3.656   6.738   3.812
 6648SOL    HW120843   3.730   6.670   3.816
 6648SOL    HW220844   3.586   6.707   3.748
 6649SOL     OW20845   5.638   1.473   6.394
 6649SOL    HW120846   5.625   1.503   6.488
 6649SOL    HW220847   5.620   1.550   6.332
 6650SOL     OW20848   3.874   1.513   5.993
 6650SOL    HW120849   3.916   1.598   6.025
 6650SOL    HW220850   3.920   1.481   5.910
 6651SOL     OW20851   2.108   0.491   5.686
 6651SOL    HW120852   2.090   0.398   5.718
 6651SOL    HW220853   2.194   0.524   5.724
 6652SOL     OW20854   0.289   3.957   6.759
 6652SOL    HW120855   0.382   3.989   6.774
 6652SOL    HW220856   0.273   3.872   6.810
 6653SOL     OW20857   4.067   4.303   1.631
 6653SOL    HW120858   4.021   4.215   1.618
 6653SOL    HW220859   4.000   4.373   1.655
 6654SOL     OW20860   2.259   5.414   1.455
 6654SOL    HW120861   2.194   5.388   1.382
 6654SOL    HW220862   2.218   5.485   1.512
 6655SOL     OW20863   0.559   6.769   3.987
 6655SOL    HW120864   0.527   6.696   4.048
 6655SOL    HW220865   0.487   6.790   3.921
 6656SOL     OW20866   5.805   2.165   3.060
 6656SOL    HW120867   5.743   2.152   3.138
 6656SOL    HW220868   5.760   2.223   2.991
 6657SOL     OW20869   5.531   4.656   5.971
 6657SOL    HW120870   5.511   4.708   6.054
 6657SOL    HW220871   5.481   4.570   5.973
 6658SOL     OW20872   5.170   1.028   4.947
 6658SOL    HW120873   5.223   1.075   5.017
 6658SOL    HW220874   5.103   1.092   4.908
 6659SOL     OW20875   2.400   2.710   0.689
 6659SOL    HW120876   2.437   2.681   0.602
 6659SOL    HW220877   2.322   2.652   0.713
 6660SOL     OW20878   1.913   4.444   1.405
 6660SOL    HW120879   1.914   4.365   1.466
 6660SOL    HW220880   1.914   4.412   1.310
 6661SOL     OW20881   1.502   0.270   5.034
 6661SOL    HW120882   1.545   0.193   4.988
 6661SOL    HW220883   1.485   0.344   4.968
 6662SOL     OW20884   1.267   0.501   0.369
 6662SOL    HW120885   1.189   0.549   0.330
 6662SOL    HW220886   1.261   0.501   0.468
 6663SOL     OW20887   6.409   5.982   4.688
 6663SOL    HW120888   6.378   6.032   4.769
 6663SOL    HW220889   6.450   6.045   4.624
 6664SOL     OW20890   2.510   6.824   0.735
 6664SOL    HW120891   2.533   6.834   0.832
 6664SOL    HW220892   2.588   6.785   0.687
 6665SOL     OW20893   1.587   6.164   4.561
 6665SOL    HW120894   1.602   6.151   4.463
 6665SOL    HW220895   1.575   6.074   4.604
 6666SOL     OW20896   6.189   6.422   6.320
 6666SOL    HW120897   6.272   6.395   6.271
 6666SOL    HW220898   6.214   6.473   6.402
 6667SOL     OW20899   6.873   6.495   5.806
 6667SOL    HW120900   6.860   6.408   5.758
 6667SOL    HW220901   6.802   6.506   5.874
 6668SOL     OW20902   6.974   6.058   1.055
 6668SOL    HW120903   6.897   6.035   0.995
 6668SOL    HW220904   0.020   5.986   1.050
 6669SOL     OW20905   2.733   2.001   2.037
 6669SOL    HW120906   2.789   1.940   2.092
 6669SOL    HW220907   2.720   2.088   2.086
 6670SOL     OW20908   3.235   1.498   5.191
 6670SOL    HW120909   3.310   1.543   5.240
 6670SOL    HW220910   3.202   1.558   5.119
 6671SOL     OW20911   4.382   6.688   0.562
 6671SOL    HW120912   4.344   6.752   0.495
 6671SOL    HW220913   4.324   6.607   0.568
 6672SOL     OW20914   6.450   2.753   6.798
 6672SOL    HW120915   6.446   2.758   6.898
 6672SOL    HW220916   6.450   2.657   6.770
 6673SOL     OW20917   4.715   4.254   3.805
 6673SOL    HW120918   4.750   4.174   3.853
 6673SOL    HW220919   4.717   4.333   3.867
 6674SOL     OW20920   0.649   3.334   0.032
 6674SOL    HW120921   0.731   3.283   0.058
 6674SOL    HW220922   0.668   3.432   0.038
 6675SOL     OW20923   5.754   3.419   0.525
 6675SOL    HW120924   5.763   3.329   0.481
 6675SOL    HW220925   5.772   3.411   0.623
 6676SOL     OW20926   0.567   3.683   5.174
 6676SOL    HW120927   0.633   3.710   5.104
 6676SOL    HW220928   0.597   3.717   5.263
 6677SOL     OW20929   1.019   2.018   6.130
 6677SOL    HW120930   0.982   2.038   6.040
 6677SOL    HW220931   0.957   2.053   6.200
 6678SOL     OW20932   3.959   3.740   0.617
 6678SOL    HW120933   3.985   3.767   0.525
 6678SOL    HW220934   4.020   3.667   0.648
 6679SOL     OW20935   3.235   0.583   4.479
 6679SOL    HW120936   3.334   0.588   4.465
 6679SOL    HW220937   3.213   0.611   4.572
 6680SOL     OW20938   4.532   6.732   6.588
 6680SOL    HW120939   4.595   6.789   6.535
 6680SOL    HW220940   4.478   6.790   6.649
 6681SOL     OW20941   4.242   5.371   0.792
 6681SOL    HW120942   4.162   5.423   0.763
 6681SOL    HW220943   4.268   5.307   0.719
 6682SOL     OW20944   2.175   4.599   1.114
 6682SOL    HW120945   2.106   4.666   1.142
 6682SOL    HW220946   2.170   4.584   1.016
 6683SOL     OW20947   6.014   3.276   5.117
 6683SOL    HW120948   6.035   3.262   5.021
 6683SOL    HW220949   5.945   3.211   5.147
 6684SOL     OW20950   3.393   6.363   2.020
 6684SOL    HW120951   3.458   6.318   2.081
 6684SOL    HW220952   3.382   6.458   2.048
 6685SOL     OW20953   5.269   2.880   6.309
 6685SOL    HW120954   5.355   2.914   6.271
 6685SOL    HW220955   5.278   2.782   6.328
 6686SOL     OW20956   4.911   5.383   4.038
 6686SOL    HW120957   4.933   5.444   4.114
 6686SOL    HW220958   4.883   5.294   4.073
 6687SOL     OW20959   0.664   3.223   1.732
 6687SOL    HW120960   0.638   3.150   1.669
 6687SOL    HW220961   0.750   3.199   1.778
 6688SOL     OW20962   5.723   4.451   1.517
 6688SOL    HW120963   5.798   4.423   1.577
 6688SOL    HW220964   5.706   4.381   1.449
 6689SOL     OW20965   3.862   3.654   6.240
 6689SOL    HW120966   3.934   3.672   6.173
 6689SOL    HW220967   3.902   3.644   6.331
 6690SOL     OW20968   0.117   0.175   1.189
 6690SOL    HW120969   0.122   0.220   1.279
 6690SOL    HW220970   0.028   0.192   1.148
 6691SOL     OW20971   2.461   0.441   1.898
 6691SOL    HW120972   2.391   0.431   1.828
 6691SOL    HW220973   2.421   0.421   1.988
 6692SOL     OW20974   3.873   3.813   3.815
 6692SOL    HW120975   3.930   3.808   3.897
 6692SOL    HW220976   3.846   3.908   3.799
 6693SOL     OW20977   3.740   2.235   5.249
 6693SOL    HW120978   3.800   2.314   5.262
 6693SOL    HW220979   3.648   2.257   5.280
 6694SOL     OW20980   3.917   5.424   1.415
 6694SOL    HW120981   4.011   5.452   1.430
 6694SOL    HW220982   3.855   5.488   1.460
 6695SOL     OW20983   3.153   2.113   6.901
 6695SOL    HW120984   3.197   2.024   6.912
 6695SOL    HW220985   3.148   2.159   6.990
 6696SOL     OW20986   3.277   2.928   4.436
 6696SOL    HW120987   3.245   2.947   4.529
 6696SOL    HW220988   3.271   2.830   4.419
 6697SOL     OW20989   4.805   1.644   3.107
 6697SOL    HW120990   4.851   1.600   3.183
 6697SOL    HW220991   4.708   1.654   3.129
 6698SOL     OW20992   3.283   2.252   0.634
 6698SOL    HW120993   3.226   2.175   0.606
 6698SOL    HW220994   3.289   2.318   0.559
 6699SOL     OW20995   2.849   5.858   5.536
 6699SOL    HW120996   2.800   5.935   5.495
 6699SOL    HW220997   2.784   5.784   5.556
 6700SOL     OW20998   0.005   1.058   1.359
 6700SOL    HW120999   6.930   1.071   1.348
 6700SOL    HW221000   0.041   1.125   1.424
 6701SOL     OW21001   5.782   5.266   1.779
 6701SOL    HW121002   5.783   5.360   1.743
 6701SOL    HW221003   5.788   5.201   1.703
 6702SOL     OW21004   2.793   2.260   1.099
 6702SOL    HW121005   2.784   2.251   1.199
 6702SOL    HW221006   2.800   2.169   1.058
 6703SOL     OW21007   5.902   0.589   0.671
 6703SOL    HW121008   5.846   0.651   0.616
 6703SOL    HW221009   5.876   0.494   0.651
 6704SOL     OW21010   3.675   2.104   3.198
 6704SOL    HW121011   3.594   2.158   3.221
 6704SOL    HW221012   3.743   2.115   3.270
 6705SOL     OW21013   6.224   3.755   1.576
 6705SOL    HW121014   6.292   3.828   1.578
 6705SOL    HW221015   6.251   3.685   1.509
 6706SOL     OW21016   1.570   4.940   1.634
 6706SOL    HW121017   1.480   4.897   1.635
 6706SOL    HW221018   1.565   5.027   1.585
 6707SOL     OW21019   6.132   6.782   3.204
 6707SOL    HW121020   6.160   6.877   3.188
 6707SOL    HW221021   6.090   6.745   3.121
 6708SOL     OW21022   6.554   4.720   0.566
 6708SOL    HW121023   6.612   4.663   0.509
 6708SOL    HW221024   6.527   4.802   0.515
 6709SOL     OW21025   1.971   6.627   2.229
 6709SOL    HW121026   1.991   6.571   2.310
 6709SOL    HW221027   1.998   6.577   2.147
 6710SOL     OW21028   4.230   1.271   6.695
 6710SOL    HW121029   4.187   1.235   6.778
 6710SOL    HW221030   4.181   1.354   6.667
 6711SOL     OW21031   4.886   6.532   5.488
 6711SOL    HW121032   4.921   6.504   5.578
 6711SOL    HW221033   4.928   6.620   5.463
 6712SOL     OW21034   5.654   4.299   0.359
 6712SOL    HW121035   5.612   4.214   0.390
 6712SOL    HW221036   5.678   4.355   0.439
 6713SOL     OW21037   2.162   0.608   2.732
 6713SOL    HW121038   2.191   0.550   2.808
 6713SOL    HW221039   2.236   0.671   2.707
 6714SOL     OW21040   6.455   0.729   5.910
 6714SOL    HW121041   6.466   0.828   5.901
 6714SOL    HW221042   6.397   0.696   5.836
 6715SOL     OW21043   0.891   0.320   0.638
 6715SOL    HW121044   0.910   0.236   0.689
 6715SOL    HW221045   0.950   0.394   0.672
 6716SOL     OW21046   0.370   5.657   2.149
 6716SOL    HW121047   0.464   5.666   2.181
 6716SOL    HW221048   0.312   5.625   2.224
 6717SOL     OW21049   3.824   3.000   0.115
 6717SOL    HW121050   3.881   2.938   0.169
 6717SOL    HW221051   3.747   2.949   0.076
 6718SOL     OW21052   5.178   0.970   0.966
 6718SOL    HW121053   5.124   0.889   0.943
 6718SOL    HW221054   5.257   0.976   0.905
 6719SOL     OW21055   2.922   6.624   0.203
 6719SOL    HW121056   2.982   6.614   0.282
 6719SOL    HW221057   2.868   6.541   0.191
 6720SOL     OW21058   1.833   6.893   4.664
 6720SOL    HW121059   1.924   6.927   4.687
 6720SOL    HW221060   1.813   6.913   4.568
 6721SOL     OW21061   6.250   6.281   0.196
 6721SOL    HW121062   6.303   6.260   0.114
 6721SOL    HW221063   6.205   6.198   0.229
 6722SOL     OW21064   6.620   3.040   1.326
 6722SOL    HW121065   6.572   2.969   1.275
 6722SOL    HW221066   6.702   3.067   1.275
 6723SOL     OW21067   1.749   6.773   4.897
 6723SOL    HW121068   1.804   6.820   4.829
 6723SOL    HW221069   1.747   6.826   4.982
 6724SOL     OW21070   2.295   3.754   5.868
 6724SOL    HW121071   2.243   3.831   5.906
 6724SOL    HW221072   2.244   3.714   5.792
 6725SOL     OW21073   0.395   3.609   1.590
 6725SOL    HW121074   0.406   3.673   1.513
 6725SOL    HW221075   0.327   3.540   1.566
 6726SOL     OW21076   1.127   2.487   4.772
 6726SOL    HW121077   1.078   2.537   4.700
 6726SOL    HW221078   1.063   2.461   4.844
 6727SOL     OW21079   0.745   4.205   5.392
 6727SOL    HW121080   0.810   4.195   5.467
 6727SOL    HW221081   0.670   4.264   5.421
 6728SOL     OW21082   3.523   2.057   2.168
 6728SOL    HW121083   3.595   2.105   2.117
 6728SOL    HW221084   3.527   2.083   2.264
 6729SOL     OW21085   5.978   0.747   1.778
 6729SOL    HW121086   6.016   0.801   1.853
 6729SOL    HW221087   6.005   0.790   1.691
 6730SOL     OW21088   1.800   6.776   1.611
 6730SOL    HW121089   1.767   6.859   1.566
 6730SOL    HW221090   1.849   6.720   1.544
 6731SOL     OW21091   1.341   6.323   0.922
 6731SOL    HW121092   1.264   6.296   0.864
 6731SOL    HW221093   1.392   6.242   0.951
 6732SOL     OW21094   5.833   4.361   5.223
 6732SOL    HW121095   5.758   4.418   5.192
 6732SOL    HW221096   5.828   4.350   5.323
 6733SOL     OW21097   3.440   5.486   6.305
 6733SOL    HW121098   3.513   5.432   6.346
 6733SOL    HW221099   3.445   5.581   6.337
 6734SOL     OW21100   6.026   2.279   4.023
 6734SOL    HW121101   6.018   2.325   3.934
 6734SOL    HW221102   5.938   2.278   4.069
 6735SOL     OW21103   6.291   4.278   4.892
 6735SOL    HW121104   6.373   4.325   4.859
 6735SOL    HW221105   6.211   4.312   4.843
 6736SOL     OW21106   2.921   3.832   0.174
 6736SOL    HW121107   2.821   3.828   0.172
 6736SOL    HW221108   2.954   3.881   0.093
 6737SOL     OW21109   1.364   2.870   0.901
 6737SOL    HW121110   1.459   2.860   0.930
 6737SOL    HW221111   1.332   2.784   0.862
 6738SOL     OW21112   1.621   5.878   3.575
 6738SOL    HW121113   1.568   5.799   3.607
 6738SOL    HW221114   1.578   5.914   3.492
 6739SOL     OW21115   4.616   5.988   4.668
 6739SOL    HW121116   4.653   5.911   4.719
 6739SOL    HW221117   4.634   5.976   4.570
 6740SOL     OW21118   0.682   6.844   5.035
 6740SOL    HW121119   0.663   6.752   5.068
 6740SOL    HW221120   0.688   6.906   5.113
 6741SOL     OW21121   4.455   1.818   5.605
 6741SOL    HW121122   4.454   1.908   5.560
 6741SOL    HW221123   4.441   1.747   5.537
 6742SOL     OW21124   5.647   6.071   3.270
 6742SOL    HW121125   5.675   5.975   3.272
 6742SOL    HW221126   5.694   6.120   3.344
 6743SOL     OW21127   4.207   4.512   6.679
 6743SOL    HW121128   4.121   4.461   6.681
 6743SOL    HW221129   4.234   4.529   6.585
 6744SOL     OW21130   6.277   4.120   6.142
 6744SOL    HW121131   6.227   4.207   6.141
 6744SOL    HW221132   6.375   4.138   6.143
 6745SOL     OW21133   0.269   6.832   3.704
 6745SOL    HW121134   0.219   6.749   3.678
 6745SOL    HW221135   0.291   6.885   3.622
 6746SOL     OW21136   0.864   1.090   3.930
 6746SOL    HW121137   0.814   1.171   3.963
 6746SOL    HW221138   0.937   1.119   3.869
 6747SOL     OW21139   5.545   1.526   4.772
 6747SOL    HW121140   5.640   1.537   4.799
 6747SOL    HW221141   5.488   1.591   4.823
 6748SOL     OW21142   2.797   1.846   3.659
 6748SOL    HW121143   2.845   1.770   3.702
 6748SOL    HW221144   2.848   1.878   3.579
 6749SOL     OW21145   3.353   4.606   0.551
 6749SOL    HW121146   3.392   4.575   0.638
 6749SOL    HW221147   3.394   4.694   0.526
 6750SOL     OW21148   3.480   1.825   4.405
 6750SOL    HW121149   3.388   1.860   4.390
 6750SOL    HW221150   3.480   1.763   4.484
 6751SOL     OW21151   4.824   0.312   3.043
 6751SOL    HW121152   4.831   0.260   3.128
 6751SOL    HW221153   4.851   0.254   2.966
 6752SOL     OW21154   1.673   0.937   2.961
 6752SOL    HW121155   1.753   0.907   3.014
 6752SOL    HW221156   1.698   1.015   2.904
 6753SOL     OW21157   2.740   0.753   6.385
 6753SOL    HW121158   2.803   0.830   6.382
 6753SOL    HW221159   2.758   0.697   6.466
 6754SOL     OW21160   0.006   2.010   0.509
 6754SOL    HW121161   0.044   2.042   0.596
 6754SOL    HW221162   0.064   1.937   0.471
 6755SOL     OW21163   4.161   0.684   2.473
 6755SOL    HW121164   4.218   0.615   2.516
 6755SOL    HW221165   4.136   0.654   2.381
 6756SOL     OW21166   3.845   5.366   5.574
 6756SOL    HW121167   3.925   5.414   5.608
 6756SOL    HW221168   3.867   5.269   5.561
 6757SOL     OW21169   3.865   2.455   0.765
 6757SOL    HW121170   3.774   2.433   0.731
 6757SOL    HW221171   3.858   2.523   0.839
 6758SOL     OW21172   6.193   2.159   2.747
 6758SOL    HW121173   6.228   2.153   2.653
 6758SOL    HW221174   6.103   2.203   2.746
 6759SOL     OW21175   1.284   4.230   4.397
 6759SOL    HW121176   1.383   4.226   4.397
 6759SOL    HW221177   1.249   4.207   4.306
 6760SOL     OW21178   6.776   4.145   2.556
 6760SOL    HW121179   6.723   4.114   2.478
 6760SOL    HW221180   6.775   4.245   2.560
 6761SOL     OW21181   6.731   2.531   5.540
 6761SOL    HW121182   6.637   2.499   5.526
 6761SOL    HW221183   6.729   2.629   5.559
 6762SOL     OW21184   0.825   4.810   4.527
 6762SOL    HW121185   0.866   4.885   4.579
 6762SOL    HW221186   0.880   4.727   4.539
 6763SOL     OW21187   0.375   5.443   3.531
 6763SOL    HW121188   0.290   5.401   3.562
 6763SOL    HW221189   0.367   5.543   3.538
 6764SOL     OW21190   1.478   5.923   1.232
 6764SOL    HW121191   1.526   6.010   1.225
 6764SOL    HW221192   1.526   5.854   1.179
 6765SOL     OW21193   5.684   4.718   3.814
 6765SOL    HW121194   5.698   4.796   3.753
 6765SOL    HW221195   5.772   4.680   3.840
 6766SOL     OW21196   5.057   6.606   6.145
 6766SOL    HW121197   5.106   6.584   6.229
 6766SOL    HW221198   5.044   6.523   6.091
 6767SOL     OW21199   2.377   1.643   0.964
 6767SOL    HW121200   2.305   1.679   1.023
 6767SOL    HW221201   2.442   1.715   0.942
 6768SOL     OW21202   1.344   6.290   4.580
 6768SOL    HW121203   1.429   6.241   4.559
 6768SOL    HW221204   1.364   6.364   4.645
 6769SOL     OW21205   2.365   0.328   6.008
 6769SOL    HW121206   2.276   0.360   6.040
 6769SOL    HW221207   2.362   0.315   5.909
 6770SOL     OW21208   5.693   1.665   3.337
 6770SOL    HW121209   5.738   1.718   3.409
 6770SOL    HW221210   5.716   1.568   3.348
 6771SOL     OW21211   3.706   1.298   2.803
 6771SOL    HW121212   3.647   1.318   2.725
 6771SOL    HW221213   3.652   1.293   2.886
 6772SOL     OW21214   4.516   2.468   2.702
 6772SOL    HW121215   4.493   2.533   2.629
 6772SOL    HW221216   4.485   2.505   2.790
 6773SOL     OW21217   0.116   5.868   1.524
 6773SOL    HW121218   0.116   5.967   1.520
 6773SOL    HW221219   0.113   5.838   1.619
 6774SOL     OW21220   0.831   3.881   5.252
 6774SOL    HW121221   0.921   3.919   5.271
 6774SOL    HW221222   0.792   3.844   5.336
 6775SOL     OW21223   2.664   2.268   2.146
 6775SOL    HW121224   2.595   2.246   2.076
 6775SOL    HW221225   2.745   2.307   2.102
 6776SOL     OW21226   4.683   4.043   0.032
 6776SOL    HW121227   4.705   3.945   0.037
 6776SOL    HW221228   4.715   4.088   0.115
 6777SOL     OW21229   4.980   4.768   0.665
 6777SOL    HW121230   4.941   4.823   0.592
 6777SOL    HW221231   5.077   4.751   0.646
 6778SOL     OW21232   6.288   5.664   2.123
 6778SOL    HW121233   6.190   5.681   2.111
 6778SOL    HW221234   6.320   5.712   2.205
 6779SOL     OW21235   5.553   5.964   5.958
 6779SOL    HW121236   5.512   5.880   5.923
 6779SOL    HW221237   5.496   6.042   5.932
 6780SOL     OW21238   1.834   2.611   2.464
 6780SOL    HW121239   1.804   2.574   2.552
 6780SOL    HW221240   1.885   2.696   2.479
 6781SOL     OW21241   6.809   2.422   4.311
 6781SOL    HW121242   6.843   2.332   4.284
 6781SOL    HW221243   6.778   2.472   4.230
 6782SOL     OW21244   0.542   0.793   2.876
 6782SOL    HW121245   0.565   0.851   2.954
 6782SOL    HW221246   0.616   0.798   2.808
 6783SOL     OW21247   6.455   1.002   5.895
 6783SOL    HW121248   6.482   0.991   5.799
 6783SOL    HW221249   6.397   1.083   5.904
 6784SOL     OW21250   1.722   3.471   0.854
 6784SOL    HW121251   1.659   3.538   0.892
 6784SOL    HW221252   1.791   3.447   0.922
 6785SOL     OW21253   6.242   5.588   4.686
 6785SOL    HW121254   6.176   5.518   4.715
 6785SOL    HW221255   6.330   5.571   4.730
 6786SOL     OW21256   1.834   2.072   0.733
 6786SOL    HW121257   1.841   2.118   0.645
 6786SOL    HW221258   1.867   2.133   0.805
 6787SOL     OW21259   2.533   2.481   7.013
 6787SOL    HW121260   2.540   2.523   6.923
 6787SOL    HW221261   2.574   2.390   7.010
 6788SOL     OW21262   1.581   4.335   1.514
 6788SOL    HW121263   1.626   4.246   1.500
 6788SOL    HW221264   1.542   4.366   1.428
 6789SOL     OW21265   1.004   5.114   3.311
 6789SOL    HW121266   1.012   5.053   3.390
 6789SOL    HW221267   1.048   5.202   3.332
 6790SOL     OW21268   0.616   3.861   0.801
 6790SOL    HW121269   0.623   3.863   0.701
 6790SOL    HW221270   0.521   3.876   0.828
 6791SOL     OW21271   3.861   1.990   1.995
 6791SOL    HW121272   3.804   2.072   2.006
 6791SOL    HW221273   3.803   1.909   1.991
 6792SOL     OW21274   5.794   0.033   4.535
 6792SOL    HW121275   5.780   6.957   4.542
 6792SOL    HW221276   5.793   0.060   4.439
 6793SOL     OW21277   2.081   1.459   0.321
 6793SOL    HW121278   2.006   1.524   0.315
 6793SOL    HW221279   2.106   1.428   0.230
 6794SOL     OW21280   5.108   0.853   5.522
 6794SOL    HW121281   5.077   0.855   5.427
 6794SOL    HW221282   5.087   0.764   5.562
 6795SOL     OW21283   1.822   6.367   0.548
 6795SOL    HW121284   1.841   6.437   0.617
 6795SOL    HW221285   1.743   6.394   0.493
 6796SOL     OW21286   5.742   1.339   3.354
 6796SOL    HW121287   5.705   1.313   3.265
 6796SOL    HW221288   5.682   1.305   3.426
 6797SOL     OW21289   6.932   2.699   1.719
 6797SOL    HW121290   6.872   2.779   1.720
 6797SOL    HW221291   6.883   2.620   1.756
 6798SOL     OW21292   6.286   6.426   2.062
 6798SOL    HW121293   6.333   6.457   2.145
 6798SOL    HW221294   6.301   6.328   2.050
 6799SOL     OW21295   0.003   0.321   2.200
 6799SOL    HW121296   6.938   0.274   2.202
 6799SOL    HW221297   0.011   0.373   2.115
 6800SOL     OW21298   1.948   2.450   1.684
 6800SOL    HW121299   2.035   2.401   1.680
 6800SOL    HW221300   1.965   2.547   1.697
 6801SOL     OW21301   0.805   0.124   3.045
 6801SOL    HW121302   0.903   0.134   3.032
 6801SOL    HW221303   0.784   0.118   3.142
 6802SOL     OW21304   3.740   5.968   1.442
 6802SOL    HW121305   3.689   5.929   1.519
 6802SOL    HW221306   3.817   5.908   1.419
 6803SOL     OW21307   3.947   3.608   5.501
 6803SOL    HW121308   3.946   3.613   5.601
 6803SOL    HW221309   3.956   3.701   5.464
 6804SOL     OW21310   3.325   5.315   3.905
 6804SOL    HW121311   3.362   5.270   3.823
 6804SOL    HW221312   3.235   5.276   3.926
 6805SOL     OW21313   0.689   4.518   6.519
 6805SOL    HW121314   0.786   4.501   6.503
 6805SOL    HW221315   0.666   4.495   6.614
 6806SOL     OW21316   6.607   0.660   2.858
 6806SOL    HW121317   6.591   0.703   2.946
 6806SOL    HW221318   6.662   0.577   2.871
 6807SOL     OW21319   3.163   3.721   1.213
 6807SOL    HW121320   3.212   3.764   1.289
 6807SOL    HW221321   3.073   3.691   1.244
 6808SOL     OW21322   6.834   2.103   6.125
 6808SOL    HW121323   6.798   2.010   6.137
 6808SOL    HW221324   6.876   2.111   6.035
 6809SOL     OW21325   0.761   3.443   1.308
 6809SOL    HW121326   0.715   3.440   1.397
 6809SOL    HW221327   0.854   3.407   1.316
 6810SOL     OW21328   1.850   1.177   2.218
 6810SOL    HW121329   1.840   1.244   2.144
 6810SOL    HW221330   1.767   1.178   2.275
 6811SOL     OW21331   5.535   3.648   1.686
 6811SOL    HW121332   5.528   3.667   1.784
 6811SOL    HW221333   5.446   3.664   1.643
 6812SOL     OW21334   3.469   3.471   4.357
 6812SOL    HW121335   3.450   3.504   4.450
 6812SOL    HW221336   3.518   3.384   4.363
 6813SOL     OW21337   5.368   3.533   3.267
 6813SOL    HW121338   5.360   3.434   3.280
 6813SOL    HW221339   5.465   3.557   3.255
 6814SOL     OW21340   3.733   2.020   5.970
 6814SOL    HW121341   3.739   2.049   5.874
 6814SOL    HW221342   3.825   2.016   6.009
 6815SOL     OW21343   3.407   6.040   0.782
 6815SOL    HW121344   3.327   6.066   0.835
 6815SOL    HW221345   3.391   5.951   0.739
 6816SOL     OW21346   6.632   0.763   6.107
 6816SOL    HW121347   6.559   0.735   6.044
 6816SOL    HW221348   6.592   0.814   6.184
 6817SOL     OW21349   2.208   2.422   2.604
 6817SOL    HW121350   2.141   2.439   2.677
 6817SOL    HW221351   2.275   2.355   2.635
 6818SOL     OW21352   2.787   6.428   1.269
 6818SOL    HW121353   2.693   6.423   1.237
 6818SOL    HW221354   2.830   6.338   1.261
 6819SOL     OW21355   3.929   1.779   3.311
 6819SOL    HW121356   3.890   1.819   3.229
 6819SOL    HW221357   4.002   1.716   3.287
 6820SOL     OW21358   2.018   6.280   1.526
 6820SOL    HW121359   2.108   6.297   1.487
 6820SOL    HW221360   1.967   6.218   1.466
 6821SOL     OW21361   4.046   2.095   5.078
 6821SOL    HW121362   4.037   2.003   5.116
 6821SOL    HW221363   3.961   2.121   5.032
 6822SOL     OW21364   5.577   2.218   5.810
 6822SOL    HW121365   5.617   2.257   5.893
 6822SOL    HW221366   5.589   2.281   5.734
 6823SOL     OW21367   4.918   3.580   5.730
 6823SOL    HW121368   4.925   3.491   5.686
 6823SOL    HW221369   4.845   3.579   5.798
 6824SOL     OW21370   1.202   1.678   0.140
 6824SOL    HW121371   1.182   1.592   0.186
 6824SOL    HW221372   1.249   1.740   0.203
 6825SOL     OW21373   5.466   0.266   0.527
 6825SOL    HW121374   5.377   0.308   0.510
 6825SOL    HW221375   5.516   0.320   0.594
 6826SOL     OW21376   2.087   3.499   3.431
 6826SOL    HW121377   1.993   3.523   3.456
 6826SOL    HW221378   2.107   3.406   3.460
 6827SOL     OW21379   4.321   5.018   6.410
 6827SOL    HW121380   4.364   4.958   6.342
 6827SOL    HW221381   4.366   5.108   6.407
 6828SOL     OW21382   3.218   1.018   2.053
 6828SOL    HW121383   3.127   1.054   2.076
 6828SOL    HW221384   3.283   1.046   2.123
 6829SOL     OW21385   4.930   5.806   4.790
 6829SOL    HW121386   4.943   5.902   4.815
 6829SOL    HW221387   5.016   5.756   4.801
 6830SOL     OW21388   5.172   0.610   3.213
 6830SOL    HW121389   5.112   0.556   3.154
 6830SOL    HW221390   5.142   0.600   3.308
 6831SOL     OW21391   1.158   0.289   6.876
 6831SOL    HW121392   1.149   0.369   6.816
 6831SOL    HW221393   1.075   0.233   6.870
 6832SOL     OW21394   2.576   4.414   0.825
 6832SOL    HW121395   2.664   4.460   0.815
 6832SOL    HW221396   2.524   4.424   0.740
 6833SOL     OW21397   3.216   4.778   6.092
 6833SOL    HW121398   3.220   4.699   6.153
 6833SOL    HW221399   3.194   4.748   5.999
 6834SOL     OW21400   4.993   6.961   0.613
 6834SOL    HW121401   4.986   6.912   0.526
 6834SOL    HW221402   5.089   6.978   0.634
 6835SOL     OW21403   4.049   0.608   4.529
 6835SOL    HW121404   4.061   0.515   4.494
 6835SOL    HW221405   4.114   0.669   4.482
 6836SOL     OW21406   2.654   4.463   0.448
 6836SOL    HW121407   2.665   4.501   0.356
 6836SOL    HW221408   2.739   4.418   0.477
 6837SOL     OW21409   0.434   2.252   2.518
 6837SOL    HW121410   0.428   2.284   2.612
 6837SOL    HW221411   0.523   2.209   2.503
 6838SOL     OW21412   3.409   6.324   7.000
 6838SOL    HW121413   3.461   6.240   7.017
 6838SOL    HW221414   3.330   6.327   0.038
 6839SOL     OW21415   5.742   1.169   6.235
 6839SOL    HW121416   5.785   1.246   6.281
 6839SOL    HW221417   5.667   1.201   6.177
 6840SOL     OW21418   3.510   0.614   4.463
 6840SOL    HW121419   3.532   0.672   4.542
 6840SOL    HW221420   3.584   0.549   4.449
 6841SOL     OW21421   4.461   4.742   0.536
 6841SOL    HW121422   4.400   4.777   0.465
 6841SOL    HW221423   4.406   4.699   0.608
 6842SOL     OW21424   2.731   3.887   0.754
 6842SOL    HW121425   2.717   3.910   0.657
 6842SOL    HW221426   2.827   3.861   0.767
 6843SOL     OW21427   6.159   6.577   1.866
 6843SOL    HW121428   6.197   6.496   1.910
 6843SOL    HW221429   6.067   6.558   1.833
 6844SOL     OW21430   4.662   0.303   3.718
 6844SOL    HW121431   4.750   0.259   3.735
 6844SOL    HW221432   4.661   0.393   3.762
 6845SOL     OW21433   6.514   4.484   3.993
 6845SOL    HW121434   6.529   4.578   4.023
 6845SOL    HW221435   6.429   4.478   3.940
 6846SOL     OW21436   4.040   3.038   0.794
 6846SOL    HW121437   4.033   3.104   0.720
 6846SOL    HW221438   4.010   2.948   0.762
 6847SOL     OW21439   0.371   3.789   3.736
 6847SOL    HW121440   0.339   3.773   3.643
 6847SOL    HW221441   0.365   3.886   3.758
 6848SOL     OW21442   4.305   6.659   3.765
 6848SOL    HW121443   4.232   6.727   3.760
 6848SOL    HW221444   4.266   6.567   3.762
 6849SOL     OW21445   4.238   4.895   5.109
 6849SOL    HW121446   4.278   4.840   5.035
 6849SOL    HW221447   4.139   4.898   5.098
 6850SOL     OW21448   6.115   4.206   2.462
 6850SOL    HW121449   6.040   4.173   2.519
 6850SOL    HW221450   6.080   4.270   2.394
 6851SOL     OW21451   0.874   2.414   2.982
 6851SOL    HW121452   0.902   2.470   2.904
 6851SOL    HW221453   0.801   2.352   2.955
 6852SOL     OW21454   2.773   5.016   6.983
 6852SOL    HW121455   2.871   5.034   6.979
 6852SOL    HW221456   2.727   5.094   0.004
 6853SOL     OW21457   6.622   4.065   0.431
 6853SOL    HW121458   6.566   4.141   0.396
 6853SOL    HW221459   6.566   4.007   0.489
 6854SOL     OW21460   4.765   2.249   6.538
 6854SOL    HW121461   4.685   2.190   6.545
 6854SOL    HW221462   4.777   2.278   6.443
 6855SOL     OW21463   4.042   5.702   3.339
 6855SOL    HW121464   3.994   5.689   3.425
 6855SOL    HW221465   3.985   5.754   3.276
 6856SOL     OW21466   5.492   3.524   5.621
 6856SOL    HW121467   5.526   3.564   5.536
 6856SOL    HW221468   5.392   3.528   5.621
 6857SOL     OW21469   3.079   2.708   0.165
 6857SOL    HW121470   3.034   2.676   0.081
 6857SOL    HW221471   3.030   2.788   0.200
 6858SOL     OW21472   3.912   3.710   3.406
 6858SOL    HW121473   3.840   3.651   3.370
 6858SOL    HW221474   3.870   3.791   3.447
 6859SOL     OW21475   6.921   1.303   1.066
 6859SOL    HW121476   6.856   1.232   1.041
 6859SOL    HW221477   6.875   1.392   1.067
 6860SOL     OW21478   0.090   4.880   1.018
 6860SOL    HW121479   0.175   4.873   0.966
 6860SOL    HW221480   0.050   4.790   1.031
 6861SOL     OW21481   4.540   5.043   6.975
 6861SOL    HW121482   4.537   5.118   6.908
 6861SOL    HW221483   4.448   5.026   7.010
 6862SOL     OW21484   1.400   5.143   5.947
 6862SOL    HW121485   1.388   5.062   5.891
 6862SOL    HW221486   1.330   5.144   6.019
 6863SOL     OW21487   5.633   6.791   6.231
 6863SOL    HW121488   5.702   6.835   6.289
 6863SOL    HW221489   5.647   6.820   6.136
 6864SOL     OW21490   2.343   5.488   4.481
 6864SOL    HW121491   2.426   5.466   4.430
 6864SOL    HW221492   2.361   5.484   4.579
 6865SOL     OW21493   1.219   6.176   3.697
 6865SOL    HW121494   1.173   6.121   3.767
 6865SOL    HW221495   1.308   6.207   3.731
 6866SOL     OW21496   6.182   5.026   3.748
 6866SOL    HW121497   6.205   4.983   3.661
 6866SOL    HW221498   6.083   5.027   3.759
 6867SOL     OW21499   2.492   3.867   1.698
 6867SOL    HW121500   2.590   3.885   1.713
 6867SOL    HW221501   2.453   3.939   1.641
 6868SOL     OW21502   1.096   5.550   6.206
 6868SOL    HW121503   1.081   5.649   6.208
 6868SOL    HW221504   1.143   5.525   6.121
 6869SOL     OW21505   6.036   1.172   5.788
 6869SOL    HW121506   6.008   1.157   5.883
 6869SOL    HW221507   5.979   1.245   5.748
 6870SOL     OW21508   0.904   5.094   1.662
 6870SOL    HW121509   0.807   5.073   1.653
 6870SOL    HW221510   0.952   5.066   1.579
 6871SOL     OW21511   6.158   4.584   3.303
 6871SOL    HW121512   6.142   4.489   3.330
 6871SOL    HW221513   6.097   4.609   3.228
 6872SOL     OW21514   0.043   2.556   1.193
 6872SOL    HW121515   0.124   2.497   1.194
 6872SOL    HW221516   0.063   2.639   1.141
 6873SOL     OW21517   6.471   3.736   4.661
 6873SOL    HW121518   6.444   3.747   4.565
 6873SOL    HW221519   6.531   3.657   4.671
 6874SOL     OW21520   0.231   5.760   2.674
 6874SOL    HW121521   0.223   5.835   2.739
 6874SOL    HW221522   0.216   5.794   2.581
 6875SOL     OW21523   2.549   2.477   2.659
 6875SOL    HW121524   2.493   2.550   2.699
 6875SOL    HW221525   2.566   2.498   2.563
 6876SOL     OW21526   3.557   6.564   3.607
 6876SOL    HW121527   3.549   6.496   3.679
 6876SOL    HW221528   3.519   6.527   3.522
 6877SOL     OW21529   2.992   3.936   1.029
 6877SOL    HW121530   3.084   3.920   1.066
 6877SOL    HW221531   2.951   3.848   1.005
 6878SOL     OW21532   3.330   0.991   4.592
 6878SOL    HW121533   3.354   0.958   4.501
 6878SOL    HW221534   3.410   1.035   4.633
 6879SOL     OW21535   0.896   2.446   0.713
 6879SOL    HW121536   0.846   2.463   0.798
 6879SOL    HW221537   0.994   2.464   0.727
 6880SOL     OW21538   1.827   5.121   4.905
 6880SOL    HW121539   1.888   5.140   4.828
 6880SOL    HW221540   1.865   5.046   4.959
 6881SOL     OW21541   1.776   4.501   0.950
 6881SOL    HW121542   1.863   4.539   0.918
 6881SOL    HW221543   1.712   4.576   0.968
 6882SOL     OW21544   2.713   0.487   0.061
 6882SOL    HW121545   2.775   0.438   0.001
 6882SOL    HW221546   2.619   0.461   0.041
 6883SOL     OW21547   4.907   1.284   6.942
 6883SOL    HW121548   4.812   1.258   6.957
 6883SOL    HW221549   4.951   1.217   6.882
 6884SOL     OW21550   2.006   4.524   3.465
 6884SOL    HW121551   2.015   4.424   3.458
 6884SOL    HW221552   1.919   4.547   3.508
 6885SOL     OW21553   4.215   4.922   4.124
 6885SOL    HW121554   4.170   5.011   4.131
 6885SOL    HW221555   4.312   4.932   4.147
 6886SOL     OW21556   6.922   1.066   4.097
 6886SOL    HW121557   6.822   1.078   4.099
 6886SOL    HW221558   6.959   1.106   4.013
 6887SOL     OW21559   5.155   5.647   6.213
 6887SOL    HW121560   5.162   5.692   6.302
 6887SOL    HW221561   5.196   5.706   6.142
 6888SOL     OW21562   5.302   6.006   6.800
 6888SOL    HW121563   5.328   6.097   6.768
 6888SOL    HW221564   5.221   6.014   6.859
 6889SOL     OW21565   1.981   2.448   4.997
 6889SOL    HW121566   2.007   2.466   5.092
 6889SOL    HW221567   1.885   2.419   4.994
 6890SOL     OW21568   4.707   6.378   1.730
 6890SOL    HW121569   4.804   6.357   1.745
 6890SOL    HW221570   4.698   6.475   1.706
 6891SOL     OW21571   2.546   4.574   3.322
 6891SOL    HW121572   2.599   4.557   3.239
 6891SOL    HW221573   2.510   4.668   3.320
 6892SOL     OW21574   3.105   2.207   3.215
 6892SOL    HW121575   3.061   2.226   3.303
 6892SOL    HW221576   3.039   2.216   3.141
 6893SOL     OW21577   4.516   4.619   0.088
 6893SOL    HW121578   4.578   4.596   0.013
 6893SOL    HW221579   4.479   4.536   0.128
 6894SOL     OW21580   6.314   4.556   1.072
 6894SOL    HW121581   6.249   4.585   1.001
 6894SOL    HW221582   6.398   4.522   1.029
 6895SOL     OW21583   3.270   4.749   0.264
 6895SOL    HW121584   3.300   4.779   0.174
 6895SOL    HW221585   3.347   4.752   0.328
 6896SOL     OW21586   2.162   6.731   4.174
 6896SOL    HW121587   2.139   6.642   4.137
 6896SOL    HW221588   2.112   6.745   4.260
 6897SOL     OW21589   4.817   3.514   6.015
 6897SOL    HW121590   4.869   3.432   6.040
 6897SOL    HW221591   4.814   3.576   6.094
 6898SOL     OW21592   3.693   1.495   1.762
 6898SOL    HW121593   3.641   1.413   1.738
 6898SOL    HW221594   3.749   1.475   1.843
 6899SOL     OW21595   5.183   5.892   1.337
 6899SOL    HW121596   5.235   5.931   1.412
 6899SOL    HW221597   5.106   5.952   1.313
 6900SOL     OW21598   6.154   6.023   5.232
 6900SOL    HW121599   6.079   6.040   5.295
 6900SOL    HW221600   6.192   5.932   5.247
 6901SOL     OW21601   6.899   6.278   6.168
 6901SOL    HW121602   6.874   6.228   6.085
 6901SOL    HW221603   6.938   6.366   6.143
 6902SOL     OW21604   5.501   5.920   6.631
 6902SOL    HW121605   5.462   5.862   6.559
 6902SOL    HW221606   5.428   5.956   6.688
 6903SOL     OW21607   2.637   5.334   4.899
 6903SOL    HW121608   2.688   5.325   4.985
 6903SOL    HW221609   2.570   5.259   4.892
 6904SOL     OW21610   5.773   0.897   4.889
 6904SOL    HW121611   5.784   0.825   4.957
 6904SOL    HW221612   5.844   0.967   4.903
 6905SOL     OW21613   5.951   6.716   6.339
 6905SOL    HW121614   6.004   6.743   6.419
 6905SOL    HW221615   5.984   6.767   6.259
 6906SOL     OW21616   4.311   1.231   4.262
 6906SOL    HW121617   4.301   1.238   4.163
 6906SOL    HW221618   4.236   1.178   4.300
 6907SOL     OW21619   4.788   2.735   1.624
 6907SOL    HW121620   4.839   2.799   1.680
 6907SOL    HW221621   4.721   2.784   1.568
 6908SOL     OW21622   0.830   5.506   6.297
 6908SOL    HW121623   0.924   5.497   6.265
 6908SOL    HW221624   0.826   5.497   6.396
 6909SOL     OW21625   5.302   4.373   1.324
 6909SOL    HW121626   5.292   4.441   1.251
 6909SOL    HW221627   5.243   4.398   1.401
 6910SOL     OW21628   0.573   2.493   3.383
 6910SOL    HW121629   0.627   2.538   3.311
 6910SOL    HW221630   0.549   2.561   3.453
 6911SOL     OW21631   4.188   6.045   3.955
 6911SOL    HW121632   4.168   5.987   3.875
 6911SOL    HW221633   4.250   6.119   3.928
 6912SOL     OW21634   3.888   3.893   6.484
 6912SOL    HW121635   3.792   3.881   6.461
 6912SOL    HW221636   3.934   3.804   6.483
 6913SOL     OW21637   5.353   6.138   3.969
 6913SOL    HW121638   5.326   6.205   4.038
 6913SOL    HW221639   5.432   6.086   4.001
 6914SOL     OW21640   5.849   3.754   4.242
 6914SOL    HW121641   5.783   3.723   4.310
 6914SOL    HW221642   5.817   3.728   4.151
 6915SOL     OW21643   5.964   2.628   2.263
 6915SOL    HW121644   5.876   2.642   2.309
 6915SOL    HW221645   5.967   2.682   2.179
 6916SOL     OW21646   6.145   2.507   6.931
 6916SOL    HW121647   6.092   2.432   6.970
 6916SOL    HW221648   6.242   2.482   6.932
 6917SOL     OW21649   3.377   6.404   1.279
 6917SOL    HW121650   3.334   6.440   1.362
 6917SOL    HW221651   3.476   6.407   1.289
 6918SOL     OW21652   0.259   2.712   4.227
 6918SOL    HW121653   0.204   2.794   4.240
 6918SOL    HW221654   0.346   2.736   4.184
 6919SOL     OW21655   6.780   5.847   3.458
 6919SOL    HW121656   6.747   5.753   3.465
 6919SOL    HW221657   6.808   5.879   3.548
 6920SOL     OW21658   4.160   6.312   5.585
 6920SOL    HW121659   4.134   6.247   5.657
 6920SOL    HW221660   4.206   6.262   5.510
 6921SOL     OW21661   5.151   5.479   3.594
 6921SOL    HW121662   5.136   5.513   3.686
 6921SOL    HW221663   5.226   5.413   3.594
 6922SOL     OW21664   1.792   6.252   5.202
 6922SOL    HW121665   1.890   6.270   5.188
 6922SOL    HW221666   1.775   6.233   5.299
 6923SOL     OW21667   4.625   5.731   3.190
 6923SOL    HW121668   4.591   5.638   3.202
 6923SOL    HW221669   4.681   5.735   3.107
 6924SOL     OW21670   2.963   4.084   6.692
 6924SOL    HW121671   2.930   4.007   6.637
 6924SOL    HW221672   3.018   4.144   6.634
 6925SOL     OW21673   5.055   6.087   3.937
 6925SOL    HW121674   4.990   6.151   3.977
 6925SOL    HW221675   5.148   6.124   3.945
 6926SOL     OW21676   3.305   2.839   0.895
 6926SOL    HW121677   3.320   2.926   0.849
 6926SOL    HW221678   3.246   2.853   0.975
 6927SOL     OW21679   4.115   2.802   5.914
 6927SOL    HW121680   4.067   2.889   5.903
 6927SOL    HW221681   4.098   2.767   6.007
 6928SOL     OW21682   5.918   5.627   0.653
 6928SOL    HW121683   5.908   5.535   0.614
 6928SOL    HW221684   5.831   5.676   0.645
 6929SOL     OW21685   5.781   5.483   1.257
 6929SOL    HW121686   5.777   5.410   1.189
 6929SOL    HW221687   5.726   5.457   1.336
 6930SOL     OW21688   0.723   0.212   2.390
 6930SOL    HW121689   0.791   0.180   2.324
 6930SOL    HW221690   0.704   0.309   2.375
 6931SOL     OW21691   1.967   0.928   2.201
 6931SOL    HW121692   1.947   1.024   2.178
 6931SOL    HW221693   2.005   0.882   2.121
 6932SOL     OW21694   4.589   6.330   0.449
 6932SOL    HW121695   4.614   6.409   0.504
 6932SOL    HW221696   4.493   6.306   0.467
 6933SOL     OW21697   3.439   6.275   5.086
 6933SOL    HW121698   3.451   6.241   5.180
 6933SOL    HW221699   3.346   6.257   5.056
 6934SOL     OW21700   4.826   3.689   6.332
 6934SOL    HW121701   4.860   3.743   6.255
 6934SOL    HW221702   4.733   3.719   6.356
 6935SOL     OW21703   4.634   5.384   2.373
 6935SOL    HW121704   4.579   5.309   2.336
 6935SOL    HW221705   4.639   5.376   2.473
 6936SOL     OW21706   6.058   1.513   3.302
 6936SOL    HW121707   6.087   1.595   3.254
 6936SOL    HW221708   6.028   1.444   3.236
 6937SOL     OW21709   6.518   5.950   0.121
 6937SOL    HW121710   6.607   5.929   0.161
 6937SOL    HW221711   6.455   5.874   0.139
 6938SOL     OW21712   5.405   3.344   5.226
 6938SOL    HW121713   5.365   3.339   5.317
 6938SOL    HW221714   5.381   3.261   5.175
 6939SOL     OW21715   1.359   4.760   1.604
 6939SOL    HW121716   1.287   4.755   1.674
 6939SOL    HW221717   1.425   4.686   1.619
 6940SOL     OW21718   3.994   0.516   6.263
 6940SOL    HW121719   4.007   0.613   6.283
 6940SOL    HW221720   4.084   0.474   6.245
 6941SOL     OW21721   3.221   3.870   1.855
 6941SOL    HW121722   3.189   3.786   1.811
 6941SOL    HW221723   3.147   3.911   1.907
 6942SOL     OW21724   5.765   6.971   1.125
 6942SOL    HW121725   5.716   0.014   1.182
 6942SOL    HW221726   5.814   7.019   1.053
 6943SOL     OW21727   3.507   5.794   0.306
 6943SOL    HW121728   3.424   5.832   0.348
 6943SOL    HW221729   3.485   5.707   0.261
 6944SOL     OW21730   0.782   4.191   6.508
 6944SOL    HW121731   0.722   4.230   6.438
 6944SOL    HW221732   0.728   4.170   6.589
 6945SOL     OW21733   6.113   0.995   6.746
 6945SOL    HW121734   6.186   1.043   6.794
 6945SOL    HW221735   6.141   0.901   6.728
 6946SOL     OW21736   5.143   6.613   0.615
 6946SOL    HW121737   5.108   6.520   0.606
 6946SOL    HW221738   5.205   6.632   0.539
 6947SOL     OW21739   3.229   6.121   6.422
 6947SOL    HW121740   3.150   6.181   6.426
 6947SOL    HW221741   3.269   6.110   6.513
 6948SOL     OW21742   0.718   0.268   0.919
 6948SOL    HW121743   0.800   0.297   0.968
 6948SOL    HW221744   0.741   0.190   0.860
 6949SOL     OW21745   3.873   6.836   3.131
 6949SOL    HW121746   3.851   6.767   3.200
 6949SOL    HW221747   3.831   6.810   3.044
 6950SOL     OW21748   1.997   2.128   4.625
 6950SOL    HW121749   2.069   2.143   4.558
 6950SOL    HW221750   2.033   2.140   4.717
 6951SOL     OW21751   6.436   5.626   6.057
 6951SOL    HW121752   6.520   5.674   6.084
 6951SOL    HW221753   6.357   5.672   6.098
 6952SOL     OW21754   0.808   6.293   3.205
 6952SOL    HW121755   0.831   6.196   3.201
 6952SOL    HW221756   0.725   6.311   3.151
 6953SOL     OW21757   4.443   6.704   0.878
 6953SOL    HW121758   4.428   6.803   0.871
 6953SOL    HW221759   4.539   6.684   0.859
 6954SOL     OW21760   0.118   3.811   2.394
 6954SOL    HW121761   0.067   3.736   2.437
 6954SOL    HW221762   0.156   3.870   2.464
 6955SOL     OW21763   6.111   0.378   2.254
 6955SOL    HW121764   6.110   0.407   2.159
 6955SOL    HW221765   6.195   0.326   2.273
 6956SOL     OW21766   5.846   5.942   3.740
 6956SOL    HW121767   5.941   5.970   3.754
 6956SOL    HW221768   5.833   5.849   3.774
 6957SOL     OW21769   6.335   4.851   0.711
 6957SOL    HW121770   6.282   4.770   0.736
 6957SOL    HW221771   6.418   4.824   0.663
 6958SOL     OW21772   3.751   2.941   4.281
 6958SOL    HW121773   3.760   3.040   4.280
 6958SOL    HW221774   3.660   2.916   4.249
 6959SOL     OW21775   1.719   2.432   3.991
 6959SOL    HW121776   1.713   2.333   4.002
 6959SOL    HW221777   1.646   2.463   3.930
 6960SOL     OW21778   2.372   4.332   1.421
 6960SOL    HW121779   2.341   4.254   1.367
 6960SOL    HW221780   2.395   4.408   1.360
 6961SOL     OW21781   6.156   1.456   4.028
 6961SOL    HW121782   6.192   1.403   3.952
 6961SOL    HW221783   6.057   1.440   4.036
 6962SOL     OW21784   5.136   5.953   1.878
 6962SOL    HW121785   5.173   6.004   1.956
 6962SOL    HW221786   5.142   5.855   1.896
 6963SOL     OW21787   5.315   6.096   0.991
 6963SOL    HW121788   5.291   6.000   1.004
 6963SOL    HW221789   5.413   6.109   1.008
 6964SOL     OW21790   3.089   1.242   5.143
 6964SOL    HW121791   3.174   1.292   5.162
 6964SOL    HW221792   3.104   1.144   5.158
 6965SOL     OW21793   0.970   1.459   0.678
 6965SOL    HW121794   0.952   1.479   0.774
 6965SOL    HW221795   0.906   1.511   0.621
 6966SOL     OW21796   0.841   2.202   3.303
 6966SOL    HW121797   0.805   2.290   3.271
 6966SOL    HW221798   0.932   2.188   3.265
 6967SOL     OW21799   2.398   1.000   5.340
 6967SOL    HW121800   2.311   1.033   5.377
 6967SOL    HW221801   2.386   0.906   5.307
 6968SOL     OW21802   3.699   6.863   2.936
 6968SOL    HW121803   3.620   6.917   2.967
 6968SOL    HW221804   3.675   6.815   2.851
 6969SOL     OW21805   3.444   2.633   1.536
 6969SOL    HW121806   3.519   2.601   1.594
 6969SOL    HW221807   3.363   2.577   1.552
 6970SOL     OW21808   4.424   4.459   5.468
 6970SOL    HW121809   4.487   4.387   5.498
 6970SOL    HW221810   4.393   4.511   5.547
 6971SOL     OW21811   6.885   4.290   1.495
 6971SOL    HW121812   6.860   4.193   1.495
 6971SOL    HW221813   6.961   4.304   1.559
 6972SOL     OW21814   5.146   4.449   3.097
 6972SOL    HW121815   5.181   4.358   3.116
 6972SOL    HW221816   5.184   4.482   3.010
 6973SOL     OW21817   1.151   2.925   3.910
 6973SOL    HW121818   1.096   2.846   3.935
 6973SOL    HW221819   1.223   2.898   3.845
 6974SOL     OW21820   2.859   3.520   3.167
 6974SOL    HW121821   2.838   3.582   3.243
 6974SOL    HW221822   2.774   3.485   3.128
 6975SOL     OW21823   1.746   6.437   6.355
 6975SOL    HW121824   1.802   6.355   6.358
 6975SOL    HW221825   1.741   6.477   6.446
 6976SOL     OW21826   5.381   5.632   4.808
 6976SOL    HW121827   5.389   5.669   4.715
 6976SOL    HW221828   5.415   5.538   4.809
 6977SOL     OW21829   3.810   2.968   1.808
 6977SOL    HW121830   3.909   2.979   1.796
 6977SOL    HW221831   3.790   2.957   1.905
 6978SOL     OW21832   5.681   1.520   1.971
 6978SOL    HW121833   5.725   1.435   1.943
 6978SOL    HW221834   5.731   1.559   2.049
 6979SOL     OW21835   1.141   4.563   1.184
 6979SOL    HW121836   1.161   4.480   1.236
 6979SOL    HW221837   1.221   4.589   1.131
 6980SOL     OW21838   1.829   0.600   4.167
 6980SOL    HW121839   1.730   0.594   4.184
 6980SOL    HW221840   1.860   0.513   4.128
 6981SOL     OW21841   3.456   2.671   5.657
 6981SOL    HW121842   3.541   2.637   5.696
 6981SOL    HW221843   3.475   2.748   5.597
 6982SOL     OW21844   1.251   0.591   4.905
 6982SOL    HW121845   1.248   0.691   4.899
 6982SOL    HW221846   1.158   0.555   4.901
 6983SOL     OW21847   3.247   2.163   3.711
 6983SOL    HW121848   3.177   2.230   3.734
 6983SOL    HW221849   3.208   2.092   3.653
 6984SOL     OW21850   2.110   2.130   3.142
 6984SOL    HW121851   2.196   2.172   3.172
 6984SOL    HW221852   2.131   2.055   3.079
 6985SOL     OW21853   6.059   5.543   1.326
 6985SOL    HW121854   6.103   5.456   1.350
 6985SOL    HW221855   5.966   5.526   1.296
 6986SOL     OW21856   2.247   7.001   5.775
 6986SOL    HW121857   2.256   0.005   5.871
 6986SOL    HW221858   2.291   0.047   5.717
 6987SOL     OW21859   6.248   1.057   6.150
 6987SOL    HW121860   6.250   1.013   6.240
 6987SOL    HW221861   6.199   1.000   6.085
 6988SOL     OW21862   0.604   0.428   5.542
 6988SOL    HW121863   0.703   0.441   5.546
 6988SOL    HW221864   0.563   0.505   5.493
 6989SOL     OW21865   0.722   3.736   3.075
 6989SOL    HW121866   0.725   3.807   3.145
 6989SOL    HW221867   0.810   3.731   3.028
 6990SOL     OW21868   4.857   2.464   1.492
 6990SOL    HW121869   4.870   2.547   1.546
 6990SOL    HW221870   4.759   2.445   1.483
 6991SOL     OW21871   4.082   4.713   3.168
 6991SOL    HW121872   4.038   4.777   3.105
 6991SOL    HW221873   4.148   4.657   3.119
 6992SOL     OW21874   5.233   6.549   6.346
 6992SOL    HW121875   5.272   6.460   6.367
 6992SOL    HW221876   5.273   6.618   6.406
 6993SOL     OW21877   5.456   0.581   3.275
 6993SOL    HW121878   5.364   0.604   3.306
 6993SOL    HW221879   5.455   0.565   3.177
 6994SOL     OW21880   0.046   2.391   4.085
 6994SOL    HW121881   0.089   2.401   4.174
 6994SOL    HW221882   6.988   2.333   4.092
 6995SOL     OW21883   0.259   4.559   6.466
 6995SOL    HW121884   0.359   4.553   6.467
 6995SOL    HW221885   0.228   4.592   6.377
 6996SOL     OW21886   1.426   6.992   6.921
 6996SOL    HW121887   1.520   6.995   6.886
 6996SOL    HW221888   1.392   6.898   6.917
 6997SOL     OW21889   6.493   6.085   5.006
 6997SOL    HW121890   6.523   6.052   5.096
 6997SOL    HW221891   6.493   6.185   5.005
 6998SOL     OW21892   2.545   0.906   1.483
 6998SOL    HW121893   2.628   0.877   1.530
 6998SOL    HW221894   2.487   0.958   1.545
 6999SOL     OW21895   2.531   1.753   6.911
 6999SOL    HW121896   2.568   1.662   6.931
 6999SOL    HW221897   2.604   1.810   6.872
 7000SOL     OW21898   4.754   6.974   0.860
 7000SOL    HW121899   4.734   0.009   0.939
 7000SOL    HW221900   4.734   0.002   0.776
 7001SOL     OW21901   1.527   3.137   5.446
 7001SOL    HW121902   1.567   3.203   5.510
 7001SOL    HW221903   1.526   3.177   5.355
 7002SOL     OW21904   1.605   5.331   3.846
 7002SOL    HW121905   1.665   5.373   3.778
 7002SOL    HW221906   1.510   5.339   3.816
 7003SOL     OW21907   3.739   4.977   0.455
 7003SOL    HW121908   3.793   5.061   0.462
 7003SOL    HW221909   3.797   4.902   0.423
 7004SOL     OW21910   1.032   5.459   2.171
 7004SOL    HW121911   0.934   5.441   2.176
 7004SOL    HW221912   1.082   5.374   2.185
 7005SOL     OW21913   1.258   0.098   0.868
 7005SOL    HW121914   1.330   0.062   0.809
 7005SOL    HW221915   1.236   0.192   0.842
 7006SOL     OW21916   5.199   5.074   3.644
 7006SOL    HW121917   5.270   5.143   3.658
 7006SOL    HW221918   5.174   5.070   3.548
 7007SOL     OW21919   4.228   1.011   3.928
 7007SOL    HW121920   4.265   0.925   3.965
 7007SOL    HW221921   4.133   1.021   3.957
 7008SOL     OW21922   0.445   4.181   4.622
 7008SOL    HW121923   0.525   4.138   4.663
 7008SOL    HW221924   0.459   4.280   4.617
 7009SOL     OW21925   5.838   5.835   2.261
 7009SOL    HW121926   5.763   5.773   2.237
 7009SOL    HW221927   5.801   5.925   2.282
 7010SOL     OW21928   5.443   4.241   3.946
 7010SOL    HW121929   5.537   4.211   3.966
 7010SOL    HW221930   5.434   4.338   3.966
 7011SOL     OW21931   2.869   6.444   6.826
 7011SOL    HW121932   2.769   6.456   6.823
 7011SOL    HW221933   2.912   6.531   6.849
 7012SOL     OW21934   6.947   1.967   1.772
 7012SOL    HW121935   6.910   1.983   1.680
 7012SOL    HW221936   6.879   1.992   1.841
 7013SOL     OW21937   0.679   0.247   0.465
 7013SOL    HW121938   0.771   0.266   0.497
 7013SOL    HW221939   0.636   0.332   0.433
 7014SOL     OW21940   4.341   3.478   1.130
 7014SOL    HW121941   4.299   3.410   1.069
 7014SOL    HW221942   4.408   3.433   1.189
 7015SOL     OW21943   6.428   4.456   1.970
 7015SOL    HW121944   6.404   4.475   1.876
 7015SOL    HW221945   6.414   4.358   1.989
 7016SOL     OW21946   3.279   4.918   1.373
 7016SOL    HW121947   3.313   4.838   1.423
 7016SOL    HW221948   3.310   4.913   1.278
 7017SOL     OW21949   2.635   5.065   2.946
 7017SOL    HW121950   2.573   5.121   3.001
 7017SOL    HW221951   2.612   5.076   2.849
 7018SOL     OW21952   5.543   3.307   4.287
 7018SOL    HW121953   5.461   3.300   4.343
 7018SOL    HW221954   5.573   3.215   4.261
 7019SOL     OW21955   3.858   4.283   0.364
 7019SOL    HW121956   3.829   4.210   0.304
 7019SOL    HW221957   3.957   4.298   0.354
 7020SOL     OW21958   6.688   5.178   6.546
 7020SOL    HW121959   6.650   5.218   6.629
 7020SOL    HW221960   6.781   5.147   6.563
 7021SOL     OW21961   1.510   1.970   5.789
 7021SOL    HW121962   1.481   1.878   5.817
 7021SOL    HW221963   1.517   2.029   5.870
 7022SOL     OW21964   4.432   6.731   5.735
 7022SOL    HW121965   4.520   6.755   5.695
 7022SOL    HW221966   4.391   6.657   5.682
 7023SOL     OW21967   6.972   2.487   3.677
 7023SOL    HW121968   0.006   2.555   3.724
 7023SOL    HW221969   0.000   2.402   3.667
 7024SOL     OW21970   3.026   4.061   4.996
 7024SOL    HW121971   2.983   4.059   5.086
 7024SOL    HW221972   3.025   4.155   4.961
 7025SOL     OW21973   3.415   0.940   0.774
 7025SOL    HW121974   3.393   0.983   0.686
 7025SOL    HW221975   3.331   0.907   0.817
 7026SOL     OW21976   3.273   2.049   2.233
 7026SOL    HW121977   3.226   1.969   2.195
 7026SOL    HW221978   3.369   2.047   2.205
 7027SOL     OW21979   2.416   5.318   4.108
 7027SOL    HW121980   2.357   5.237   4.102
 7027SOL    HW221981   2.460   5.334   4.020
 7028SOL     OW21982   2.874   1.934   3.938
 7028SOL    HW121983   2.835   1.919   3.847
 7028SOL    HW221984   2.803   1.923   4.007
 7029SOL     OW21985   5.026   5.034   4.880
 7029SOL    HW121986   5.006   5.098   4.806
 7029SOL    HW221987   5.105   4.978   4.856
 7030SOL     OW21988   0.985   0.563   4.800
 7030SOL    HW121989   0.984   0.658   4.769
 7030SOL    HW221990   0.892   0.527   4.800
 7031SOL     OW21991   3.916   5.558   5.955
 7031SOL    HW121992   3.935   5.538   5.858
 7031SOL    HW221993   3.976   5.631   5.986
 7032SOL     OW21994   4.001   1.397   3.973
 7032SOL    HW121995   3.988   1.444   3.886
 7032SOL    HW221996   4.094   1.360   3.977
 7033SOL     OW21997   1.643   2.170   3.360
 7033SOL    HW121998   1.556   2.142   3.319
 7033SOL    HW221999   1.644   2.143   3.456
 7034SOL     OW22000   6.702   0.777   3.604
 7034SOL    HW122001   6.605   0.779   3.627
 7034SOL    HW222002   6.733   0.682   3.601
 7035SOL     OW22003   1.602   6.953   0.930
 7035SOL    HW122004   1.701   6.946   0.926
 7035SOL    HW222005   1.565   6.956   0.837
 7036SOL     OW22006   6.959   0.288   3.031
 7036SOL    HW122007   0.002   0.314   3.102
 7036SOL    HW222008   7.006   0.240   2.958
 7037SOL     OW22009   1.377   1.139   6.571
 7037SOL    HW122010   1.429   1.139   6.657
 7037SOL    HW222011   1.375   1.232   6.534
 7038SOL     OW22012   2.400   3.419   5.275
 7038SOL    HW122013   2.460   3.499   5.277
 7038SOL    HW222014   2.453   3.338   5.298
 7039SOL     OW22015   2.173   5.133   2.169
 7039SOL    HW122016   2.261   5.180   2.157
 7039SOL    HW222017   2.183   5.037   2.143
 7040SOL     OW22018   5.275   2.425   5.643
 7040SOL    HW122019   5.188   2.424   5.693
 7040SOL    HW222020   5.330   2.501   5.675
 7041SOL     OW22021   6.100   1.197   1.742
 7041SOL    HW122022   6.142   1.126   1.686
 7041SOL    HW222023   6.050   1.261   1.684
 7042SOL     OW22024   4.337   5.114   5.227
 7042SOL    HW122025   4.292   5.028   5.207
 7042SOL    HW222026   4.373   5.154   5.142
 7043SOL     OW22027   2.573   4.611   2.581
 7043SOL    HW122028   2.517   4.555   2.642
 7043SOL    HW222029   2.642   4.659   2.635
 7044SOL     OW22030   5.588   5.065   4.429
 7044SOL    HW122031   5.632   5.022   4.507
 7044SOL    HW222032   5.529   5.140   4.460
 7045SOL     OW22033   4.818   5.314   2.965
 7045SOL    HW122034   4.810   5.218   2.995
 7045SOL    HW222035   4.792   5.374   3.040
 7046SOL     OW22036   3.060   1.087   3.419
 7046SOL    HW122037   2.969   1.052   3.397
 7046SOL    HW222038   3.121   1.074   3.340
 7047SOL     OW22039   6.152   0.739   2.221
 7047SOL    HW122040   6.077   0.709   2.163
 7047SOL    HW222041   6.154   0.839   2.225
 7048SOL     OW22042   5.238   0.193   3.685
 7048SOL    HW122043   5.204   0.207   3.778
 7048SOL    HW222044   5.338   0.182   3.688
 7049SOL     OW22045   3.301   1.593   0.590
 7049SOL    HW122046   3.389   1.551   0.570
 7049SOL    HW222047   3.238   1.577   0.514
 7050SOL     OW22048   4.253   3.676   1.735
 7050SOL    HW122049   4.239   3.657   1.832
 7050SOL    HW222050   4.320   3.611   1.698
 7051SOL     OW22051   6.213   6.224   0.818
 7051SOL    HW122052   6.264   6.259   0.739
 7051SOL    HW222053   6.125   6.271   0.823
 7052SOL     OW22054   6.091   1.783   3.566
 7052SOL    HW122055   6.157   1.711   3.546
 7052SOL    HW222056   6.058   1.823   3.480
 7053SOL     OW22057   1.721   2.921   5.427
 7053SOL    HW122058   1.808   2.934   5.380
 7053SOL    HW222059   1.659   2.995   5.404
 7054SOL     OW22060   6.264   6.752   0.625
 7054SOL    HW122061   6.327   6.680   0.599
 7054SOL    HW222062   6.277   6.777   0.721
 7055SOL     OW22063   2.818   6.942   6.419
 7055SOL    HW122064   2.882   6.909   6.350
 7055SOL    HW222065   2.731   6.966   6.376
 7056SOL     OW22066   0.562   4.590   1.692
 7056SOL    HW122067   0.535   4.581   1.596
 7056SOL    HW222068   0.660   4.609   1.697
 7057SOL     OW22069   2.632   4.582   4.267
 7057SOL    HW122070   2.615   4.636   4.184
 7057SOL    HW222071   2.581   4.496   4.261
 7058SOL     OW22072   5.609   4.046   5.775
 7058SOL    HW122073   5.566   4.008   5.857
 7058SOL    HW222074   5.595   4.145   5.771
 7059SOL     OW22075   0.571   1.355   3.693
 7059SOL    HW122076   0.580   1.324   3.599
 7059SOL    HW222077   0.559   1.276   3.753
 7060SOL     OW22078   3.329   6.975   1.897
 7060SOL    HW122079   3.353   6.943   1.989
 7060SOL    HW222080   3.412   7.004   1.850
 7061SOL     OW22081   0.306   3.333   3.768
 7061SOL    HW122082   0.298   3.280   3.853
 7061SOL    HW222083   0.327   3.272   3.692
 7062SOL     OW22084   3.655   1.420   5.752
 7062SOL    HW122085   3.715   1.345   5.723
 7062SOL    HW222086   3.707   1.505   5.753
 7063SOL     OW22087   1.271   6.762   2.155
 7063SOL    HW122088   1.205   6.820   2.107
 7063SOL    HW222089   1.262   6.668   2.123
 7064SOL     OW22090   4.003   2.018   6.965
 7064SOL    HW122091   4.013   1.940   6.903
 7064SOL    HW222092   4.080   2.081   6.952
 7065SOL     OW22093   5.149   3.826   6.026
 7065SOL    HW122094   5.222   3.894   6.013
 7065SOL    HW222095   5.116   3.796   5.937
 7066SOL     OW22096   4.020   0.015   6.803
 7066SOL    HW122097   3.991   0.002   6.708
 7066SOL    HW222098   4.119   0.023   6.807
 7067SOL     OW22099   1.842   2.907   5.697
 7067SOL    HW122100   1.833   2.835   5.766
 7067SOL    HW222101   1.759   2.911   5.643
 7068SOL     OW22102   6.282   4.798   4.762
 7068SOL    HW122103   6.380   4.783   4.775
 7068SOL    HW222104   6.262   4.896   4.765
 7069SOL     OW22105   5.672   2.277   4.650
 7069SOL    HW122106   5.708   2.276   4.557
 7069SOL    HW222107   5.584   2.229   4.653
 7070SOL     OW22108   0.111   6.961   4.909
 7070SOL    HW122109   0.149   6.966   4.817
 7070SOL    HW222110   0.072   0.027   4.933
 7071SOL     OW22111   3.731   6.002   5.581
 7071SOL    HW122112   3.674   6.081   5.602
 7071SOL    HW222113   3.766   5.962   5.666
 7072SOL     OW22114   1.572   6.071   0.229
 7072SOL    HW122115   1.574   6.140   0.156
 7072SOL    HW222116   1.492   6.013   0.218
 7073SOL     OW22117   5.166   6.952   3.897
 7073SOL    HW122118   5.071   6.979   3.912
 7073SOL    HW222119   5.216   6.957   3.983
 7074SOL     OW22120   5.959   2.807   2.054
 7074SOL    HW122121   5.865   2.821   2.024
 7074SOL    HW222122   6.013   2.770   1.978
 7075SOL     OW22123   1.884   4.167   5.065
 7075SOL    HW122124   1.814   4.140   5.130
 7075SOL    HW222125   1.969   4.118   5.085
 7076SOL     OW22126   5.644   2.669   6.828
 7076SOL    HW122127   5.657   2.678   6.729
 7076SOL    HW222128   5.716   2.718   6.876
 7077SOL     OW22129   2.153   4.511   3.727
 7077SOL    HW122130   2.093   4.442   3.768
 7077SOL    HW222131   2.133   4.518   3.629
 7078SOL     OW22132   6.737   6.537   2.061
 7078SOL    HW122133   6.739   6.488   2.148
 7078SOL    HW222134   6.816   6.598   2.056
 7079SOL     OW22135   0.352   6.761   4.652
 7079SOL    HW122136   0.305   6.849   4.662
 7079SOL    HW222137   0.451   6.776   4.649
 7080SOL     OW22138   3.453   1.035   5.145
 7080SOL    HW122139   3.502   0.948   5.157
 7080SOL    HW222140   3.502   1.091   5.077
 7081SOL     OW22141   1.887   6.133   6.880
 7081SOL    HW122142   1.959   6.150   6.948
 7081SOL    HW222143   1.865   6.219   6.833
 7082SOL     OW22144   6.756   4.537   6.798
 7082SOL    HW122145   6.752   4.465   6.729
 7082SOL    HW222146   6.801   4.618   6.759
 7083SOL     OW22147   1.563   0.334   1.353
 7083SOL    HW122148   1.653   0.340   1.309
 7083SOL    HW222149   1.551   0.243   1.392
 7084SOL     OW22150   0.772   5.031   5.448
 7084SOL    HW122151   0.700   4.979   5.495
 7084SOL    HW222152   0.801   4.981   5.366
 7085SOL     OW22153   0.559   1.701   2.451
 7085SOL    HW122154   0.522   1.783   2.495
 7085SOL    HW222155   0.606   1.727   2.366
 7086SOL     OW22156   5.965   0.048   6.162
 7086SOL    HW122157   5.869   0.072   6.145
 7086SOL    HW222158   5.985   6.982   6.122
 7087SOL     OW22159   6.371   3.769   3.534
 7087SOL    HW122160   6.311   3.768   3.615
 7087SOL    HW222161   6.460   3.730   3.558
 7088SOL     OW22162   5.081   2.819   3.846
 7088SOL    HW122163   5.175   2.839   3.821
 7088SOL    HW222164   5.020   2.887   3.804
 7089SOL     OW22165   2.527   2.345   4.639
 7089SOL    HW122166   2.477   2.424   4.604
 7089SOL    HW222167   2.619   2.345   4.602
 7090SOL     OW22168   2.007   1.069   0.211
 7090SOL    HW122169   1.923   1.103   0.252
 7090SOL    HW222170   1.995   1.060   0.112
 7091SOL     OW22171   0.407   2.077   0.908
 7091SOL    HW122172   0.326   2.132   0.926
 7091SOL    HW222173   0.480   2.136   0.873
 7092SOL     OW22174   4.359   2.781   5.599
 7092SOL    HW122175   4.267   2.778   5.636
 7092SOL    HW222176   4.355   2.806   5.502
 7093SOL     OW22177   3.351   4.081   2.094
 7093SOL    HW122178   3.255   4.057   2.076
 7093SOL    HW222179   3.360   4.114   2.188
 7094SOL     OW22180   6.794   5.878   5.473
 7094SOL    HW122181   6.854   5.837   5.541
 7094SOL    HW222182   6.849   5.920   5.400
 7095SOL     OW22183   3.495   4.891   5.829
 7095SOL    HW122184   3.493   4.828   5.752
 7095SOL    HW222185   3.406   4.934   5.839
 7096SOL     OW22186   6.397   0.937   2.481
 7096SOL    HW122187   6.468   0.868   2.496
 7096SOL    HW222188   6.424   0.997   2.406
 7097SOL     OW22189   4.846   1.162   1.902
 7097SOL    HW122190   4.769   1.145   1.842
 7097SOL    HW222191   4.822   1.134   1.996
 7098SOL     OW22192   2.274   5.557   5.395
 7098SOL    HW122193   2.368   5.576   5.425
 7098SOL    HW222194   2.265   5.577   5.298
 7099SOL     OW22195   3.911   1.321   5.198
 7099SOL    HW122196   3.942   1.383   5.270
 7099SOL    HW222197   3.818   1.344   5.171
 7100SOL     OW22198   6.977   3.489   0.074
 7100SOL    HW122199   6.921   3.464   7.017
 7100SOL    HW222200   6.937   3.450   0.157
 7101SOL     OW22201   2.723   1.900   5.357
 7101SOL    HW122202   2.722   1.997   5.384
 7101SOL    HW222203   2.749   1.894   5.260
 7102SOL     OW22204   5.019   0.173   1.004
 7102SOL    HW122205   5.068   0.186   1.090
 7102SOL    HW222206   4.932   0.126   1.022
 7103SOL     OW22207   5.594   5.372   1.953
 7103SOL    HW122208   5.522   5.314   1.915
 7103SOL    HW222209   5.683   5.339   1.920
 7104SOL     OW22210   6.355   3.721   2.706
 7104SOL    HW122211   6.260   3.747   2.691
 7104SOL    HW222212   6.360   3.622   2.723
 7105SOL     OW22213   2.736   3.422   5.288
 7105SOL    HW122214   2.802   3.357   5.250
 7105SOL    HW222215   2.664   3.372   5.336
 7106SOL     OW22216   3.822   3.555   2.020
 7106SOL    HW122217   3.818   3.614   1.940
 7106SOL    HW222218   3.770   3.596   2.094
 7107SOL     OW22219   5.107   0.761   0.615
 7107SOL    HW122220   5.184   0.741   0.675
 7107SOL    HW222221   5.119   0.851   0.574
 7108SOL     OW22222   2.913   6.195   2.910
 7108SOL    HW122223   2.928   6.132   2.834
 7108SOL    HW222224   2.915   6.289   2.876
 7109SOL     OW22225   2.012   6.889   5.629
 7109SOL    HW122226   2.085   6.930   5.684
 7109SOL    HW222227   2.045   6.802   5.591
 7110SOL     OW22228   2.674   5.953   4.310
 7110SOL    HW122229   2.697   6.019   4.237
 7110SOL    HW222230   2.589   5.906   4.286
 7111SOL     OW22231   0.949   2.444   4.985
 7111SOL    HW122232   0.919   2.350   4.996
 7111SOL    HW222233   1.024   2.463   5.048
 7112SOL     OW22234   1.740   5.095   4.281
 7112SOL    HW122235   1.835   5.085   4.312
 7112SOL    HW222236   1.735   5.168   4.213
 7113SOL     OW22237   3.552   4.180   4.520
 7113SOL    HW122238   3.468   4.129   4.501
 7113SOL    HW222239   3.631   4.129   4.486
 7114SOL     OW22240   5.234   5.561   0.706
 7114SOL    HW122241   5.301   5.589   0.775
 7114SOL    HW222242   5.201   5.469   0.727
 7115SOL     OW22243   5.116   2.948   0.241
 7115SOL    HW122244   5.211   2.940   0.271
 7115SOL    HW222245   5.088   2.862   0.197
 7116SOL     OW22246   5.580   4.494   3.200
 7116SOL    HW122247   5.667   4.453   3.225
 7116SOL    HW222248   5.533   4.435   3.133
 7117SOL     OW22249   0.770   6.218   4.775
 7117SOL    HW122250   0.716   6.139   4.802
 7117SOL    HW222251   0.709   6.296   4.759
 7118SOL     OW22252   2.965   5.008   6.438
 7118SOL    HW122253   2.968   5.038   6.342
 7118SOL    HW222254   3.055   4.975   6.465
 7119SOL     OW22255   5.051   1.556   3.950
 7119SOL    HW122256   4.984   1.492   3.987
 7119SOL    HW222257   5.101   1.600   4.025
 7120SOL     OW22258   3.379   2.009   1.914
 7120SOL    HW122259   3.289   2.046   1.937
 7120SOL    HW222260   3.439   2.013   1.994
 7121SOL     OW22261   0.791   0.061   3.765
 7121SOL    HW122262   0.887   0.032   3.773
 7121SOL    HW222263   0.783   0.124   3.688
 7122SOL     OW22264   1.652   0.914   5.781
 7122SOL    HW122265   1.742   0.955   5.767
 7122SOL    HW222266   1.609   0.954   5.863
 7123SOL     OW22267   1.679   4.821   3.386
 7123SOL    HW122268   1.595   4.838   3.334
 7123SOL    HW222269   1.757   4.862   3.337
 7124SOL     OW22270   0.046   1.825   1.342
 7124SOL    HW122271   0.039   1.925   1.339
 7124SOL    HW222272   0.032   1.788   1.250
 7125SOL     OW22273   0.863   0.065   0.814
 7125SOL    HW122274   0.930   0.011   0.763
 7125SOL    HW222275   0.901   0.089   0.904
 7126SOL     OW22276   3.761   5.111   0.117
 7126SOL    HW122277   3.780   5.019   0.151
 7126SOL    HW222278   3.688   5.152   0.172
 7127SOL     OW22279   2.051   5.477   6.407
 7127SOL    HW122280   2.001   5.554   6.368
 7127SOL    HW222281   2.016   5.391   6.370
 7128SOL     OW22282   3.531   4.009   6.788
 7128SOL    HW122283   3.464   4.015   6.714
 7128SOL    HW222284   3.612   4.062   6.765
 7129SOL     OW22285   2.522   1.187   0.294
 7129SOL    HW122286   2.471   1.103   0.275
 7129SOL    HW222287   2.485   1.230   0.376
 7130SOL     OW22288   3.768   5.940   4.178
 7130SOL    HW122289   3.789   5.867   4.113
 7130SOL    HW222290   3.766   5.903   4.271
 7131SOL     OW22291   2.808   0.863   1.496
 7131SOL    HW122292   2.839   0.791   1.558
 7131SOL    HW222293   2.838   0.952   1.531
 7132SOL     OW22294   3.811   3.964   0.465
 7132SOL    HW122295   3.783   3.971   0.561
 7132SOL    HW222296   3.910   3.946   0.461
 7133SOL     OW22297   4.455   4.749   5.289
 7133SOL    HW122298   4.380   4.812   5.269
 7133SOL    HW222299   4.464   4.738   5.388
 7134SOL     OW22300   4.718   6.889   1.562
 7134SOL    HW122301   4.711   6.952   1.485
 7134SOL    HW222302   4.651   6.816   1.552
 7135SOL     OW22303   1.457   2.625   3.364
 7135SOL    HW122304   1.493   2.700   3.419
 7135SOL    HW222305   1.531   2.562   3.340
 7136SOL     OW22306   3.027   1.849   0.058
 7136SOL    HW122307   3.016   1.910   7.002
 7136SOL    HW222308   3.065   1.901   0.135
 7137SOL     OW22309   3.006   1.112   0.197
 7137SOL    HW122310   2.915   1.130   0.159
 7137SOL    HW222311   3.075   1.135   0.129
 7138SOL     OW22312   2.195   2.273   0.277
 7138SOL    HW122313   2.118   2.312   0.329
 7138SOL    HW222314   2.281   2.303   0.317
 7139SOL     OW22315   5.784   4.910   1.713
 7139SOL    HW122316   5.732   4.921   1.797
 7139SOL    HW222317   5.882   4.914   1.734
 7140SOL     OW22318   6.960   4.411   1.251
 7140SOL    HW122319   6.942   4.393   1.348
 7140SOL    HW222320   6.992   4.327   1.207
 7141SOL     OW22321   3.875   6.391   0.502
 7141SOL    HW122322   3.820   6.308   0.513
 7141SOL    HW222323   3.824   6.470   0.535
 7142SOL     OW22324   3.950   6.646   2.877
 7142SOL    HW122325   4.014   6.574   2.903
 7142SOL    HW222326   3.993   6.736   2.888
 7143SOL     OW22327   1.456   2.913   6.552
 7143SOL    HW122328   1.513   2.982   6.508
 7143SOL    HW222329   1.443   2.937   6.648
 7144SOL     OW22330   1.703   1.991   2.815
 7144SOL    HW122331   1.658   1.920   2.761
 7144SOL    HW222332   1.739   1.951   2.900
 7145SOL     OW22333   3.584   0.388   6.404
 7145SOL    HW122334   3.680   0.362   6.398
 7145SOL    HW222335   3.553   0.419   6.314
 7146SOL     OW22336   1.507   0.028   6.581
 7146SOL    HW122337   1.451   0.023   6.498
 7146SOL    HW222338   1.506   6.963   6.628
 7147SOL     OW22339   7.016   6.607   2.913
 7147SOL    HW122340   6.963   6.677   2.961
 7147SOL    HW222341   0.001   6.526   2.970
 7148SOL     OW22342   6.355   6.372   1.253
 7148SOL    HW122343   6.395   6.438   1.316
 7148SOL    HW222344   6.274   6.413   1.209
 7149SOL     OW22345   0.224   6.316   4.204
 7149SOL    HW122346   0.319   6.300   4.228
 7149SOL    HW222347   0.173   6.346   4.285
 7150SOL     OW22348   3.739   3.270   0.782
 7150SOL    HW122349   3.691   3.211   0.716
 7150SOL    HW222350   3.672   3.321   0.836
 7151SOL     OW22351   3.403   6.563   0.690
 7151SOL    HW122352   3.396   6.644   0.632
 7151SOL    HW222353   3.369   6.584   0.782
 7152SOL     OW22354   6.860   0.864   5.337
 7152SOL    HW122355   6.846   0.951   5.289
 7152SOL    HW222356   6.944   0.867   5.390
 7153SOL     OW22357   3.780   4.898   1.358
 7153SOL    HW122358   3.782   4.997   1.368
 7153SOL    HW222359   3.873   4.865   1.339
 7154SOL     OW22360   4.934   6.463   3.228
 7154SOL    HW122361   5.019   6.507   3.258
 7154SOL    HW222362   4.908   6.392   3.293
 7155SOL     OW22363   2.952   3.322   1.174
 7155SOL    HW122364   2.933   3.379   1.094
 7155SOL    HW222365   3.014   3.248   1.149
 7156SOL     OW22366   6.945   3.680   2.734
 7156SOL    HW122367   6.922   3.591   2.773
 7156SOL    HW222368   6.901   3.752   2.788
 7157SOL     OW22369   0.504   4.558   1.423
 7157SOL    HW122370   0.537   4.632   1.365
 7157SOL    HW222371   0.417   4.525   1.388
 7158SOL     OW22372   0.720   0.594   4.499
 7158SOL    HW122373   0.775   0.677   4.490
 7158SOL    HW222374   0.721   0.564   4.595
 7159SOL     OW22375   1.008   4.825   3.794
 7159SOL    HW122376   1.075   4.768   3.842
 7159SOL    HW222377   0.971   4.894   3.857
 7160SOL     OW22378   5.572   0.155   2.784
 7160SOL    HW122379   5.575   0.253   2.802
 7160SOL    HW222380   5.481   0.131   2.748
 7161SOL     OW22381   3.401   4.115   2.993
 7161SOL    HW122382   3.378   4.038   3.052
 7161SOL    HW222383   3.341   4.114   2.912
 7162SOL     OW22384   1.411   5.505   6.276
 7162SOL    HW122385   1.424   5.570   6.202
 7162SOL    HW222386   1.316   5.472   6.275
 7163SOL     OW22387   2.680   0.370   2.615
 7163SOL    HW122388   2.712   0.390   2.522
 7163SOL    HW222389   2.588   0.332   2.612
 7164SOL     OW22390   2.730   0.137   5.112
 7164SOL    HW122391   2.639   0.098   5.123
 7164SOL    HW222392   2.724   0.222   5.059
 7165SOL     OW22393   5.975   6.594   2.196
 7165SOL    HW122394   5.925   6.656   2.134
 7165SOL    HW222395   6.057   6.641   2.230
 7166SOL     OW22396   4.898   1.972   1.035
 7166SOL    HW122397   4.854   2.018   1.112
 7166SOL    HW222398   4.966   1.907   1.069
 7167SOL     OW22399   5.170   3.343   4.765
 7167SOL    HW122400   5.087   3.398   4.770
 7167SOL    HW222401   5.223   3.355   4.849
 7168SOL     OW22402   2.020   2.712   3.273
 7168SOL    HW122403   2.070   2.649   3.333
 7168SOL    HW222404   2.074   2.729   3.191
 7169SOL     OW22405   6.883   3.761   5.607
 7169SOL    HW122406   6.882   3.845   5.553
 7169SOL    HW222407   6.970   3.755   5.657
 7170SOL     OW22408   4.635   6.774   2.286
 7170SOL    HW122409   4.593   6.841   2.225
 7170SOL    HW222410   4.605   6.791   2.380
 7171SOL     OW22411   6.412   4.048   0.135
 7171SOL    HW122412   6.443   4.005   0.220
 7171SOL    HW222413   6.445   3.994   0.057
 7172SOL     OW22414   2.084   6.990   4.744
 7172SOL    HW122415   2.065   0.065   4.753
 7172SOL    HW222416   2.164   6.978   4.684
 7173SOL     OW22417   6.609   4.203   6.881
 7173SOL    HW122418   6.691   4.251   6.912
 7173SOL    HW222419   6.529   4.262   6.895
 7174SOL     OW22420   1.235   3.943   0.747
 7174SOL    HW122421   1.238   3.888   0.663
 7174SOL    HW222422   1.144   3.934   0.788
 7175SOL     OW22423   5.702   3.140   5.168
 7175SOL    HW122424   5.721   3.096   5.256
 7175SOL    HW222425   5.702   3.239   5.179
 7176SOL     OW22426   0.084   1.441   3.571
 7176SOL    HW122427   0.081   1.342   3.584
 7176SOL    HW222428   0.180   1.471   3.564
 7177SOL     OW22429   1.156   4.576   5.056
 7177SOL    HW122430   1.126   4.542   4.966
 7177SOL    HW222431   1.108   4.526   5.128
 7178SOL     OW22432   6.743   1.945   5.624
 7178SOL    HW122433   6.819   1.920   5.564
 7178SOL    HW222434   6.723   1.869   5.686
 7179SOL     OW22435   1.743   3.398   4.778
 7179SOL    HW122436   1.688   3.452   4.714
 7179SOL    HW222437   1.807   3.458   4.826
 7180SOL     OW22438   2.581   4.822   0.065
 7180SOL    HW122439   2.595   4.796   6.992
 7180SOL    HW222440   2.650   4.890   0.091
 7181SOL     OW22441   2.263   0.336   0.123
 7181SOL    HW122442   2.229   0.382   0.205
 7181SOL    HW222443   2.321   0.260   0.149
 7182SOL     OW22444   7.005   3.688   4.174
 7182SOL    HW122445   6.918   3.689   4.225
 7182SOL    HW222446   0.057   3.712   4.235
 7183SOL     OW22447   1.819   5.736   1.348
 7183SOL    HW122448   1.795   5.806   1.415
 7183SOL    HW222449   1.914   5.750   1.318
 7184SOL     OW22450   6.662   1.121   4.106
 7184SOL    HW122451   6.575   1.103   4.059
 7184SOL    HW222452   6.645   1.174   4.189
 7185SOL     OW22453   5.495   0.819   5.358
 7185SOL    HW122454   5.472   0.894   5.419
 7185SOL    HW222455   5.588   0.787   5.377
 7186SOL     OW22456   6.473   2.032   2.031
 7186SOL    HW122457   6.389   2.040   2.084
 7186SOL    HW222458   6.493   2.120   1.987
 7187SOL     OW22459   3.235   4.122   5.177
 7187SOL    HW122460   3.177   4.078   5.108
 7187SOL    HW222461   3.259   4.057   5.248
 7188SOL     OW22462   5.331   6.277   6.713
 7188SOL    HW122463   5.267   6.330   6.768
 7188SOL    HW222464   5.409   6.334   6.688
 7189SOL     OW22465   6.312   1.378   5.628
 7189SOL    HW122466   6.336   1.363   5.532
 7189SOL    HW222467   6.221   1.418   5.634
 7190SOL     OW22468   6.515   5.157   1.676
 7190SOL    HW122469   6.452   5.087   1.709
 7190SOL    HW222470   6.579   5.116   1.611
 7191SOL     OW22471   1.406   4.957   2.476
 7191SOL    HW122472   1.334   4.928   2.412
 7191SOL    HW222473   1.495   4.950   2.431
 7192SOL     OW22474   2.045   4.264   5.808
 7192SOL    HW122475   2.032   4.178   5.758
 7192SOL    HW222476   2.088   4.331   5.747
 7193SOL     OW22477   1.664   2.359   2.125
 7193SOL    HW122478   1.711   2.437   2.168
 7193SOL    HW222479   1.695   2.348   2.031
 7194SOL     OW22480   1.962   2.608   0.728
 7194SOL    HW122481   1.863   2.603   0.738
 7194SOL    HW222482   2.000   2.667   0.799
 7195SOL     OW22483   0.777   4.117   0.063
 7195SOL    HW122484   0.826   4.120   6.998
 7195SOL    HW222485   0.779   4.023   0.099
 7196SOL     OW22486   2.028   3.618   1.897
 7196SOL    HW122487   2.052   3.711   1.924
 7196SOL    HW222488   2.091   3.554   1.940
 7197SOL     OW22489   0.538   3.069   5.369
 7197SOL    HW122490   0.634   3.091   5.384
 7197SOL    HW222491   0.530   2.993   5.304
 7198SOL     OW22492   0.664   0.877   0.802
 7198SOL    HW122493   0.710   0.941   0.740
 7198SOL    HW222494   0.617   0.928   0.874
 7199SOL     OW22495   1.435   0.094   2.029
 7199SOL    HW122496   1.455   0.032   2.105
 7199SOL    HW222497   1.385   0.173   2.063
 7200SOL     OW22498   1.949   2.810   6.694
 7200SOL    HW122499   1.902   2.835   6.609
 7200SOL    HW222500   2.045   2.789   6.674
 7201SOL     OW22501   0.976   5.902   4.151
 7201SOL    HW122502   0.989   5.920   4.249
 7201SOL    HW222503   0.900   5.957   4.117
 7202SOL     OW22504   4.893   6.549   6.940
 7202SOL    HW122505   4.907   6.643   6.909
 7202SOL    HW222506   4.963   6.490   6.900
 7203SOL     OW22507   6.718   1.099   0.994
 7203SOL    HW122508   6.660   1.044   0.934
 7203SOL    HW222509   6.752   1.042   1.069
 7204SOL     OW22510   0.467   0.956   6.036
 7204SOL    HW122511   0.428   0.955   5.944
 7204SOL    HW222512   0.417   0.890   6.093
 7205SOL     OW22513   1.640   3.892   5.049
 7205SOL    HW122514   1.669   3.861   4.959
 7205SOL    HW222515   1.570   3.830   5.085
 7206SOL     OW22516   1.406   0.114   2.377
 7206SOL    HW122517   1.335   0.070   2.433
 7206SOL    HW222518   1.429   0.203   2.418
 7207SOL     OW22519   3.304   0.354   3.649
 7207SOL    HW122520   3.262   0.314   3.568
 7207SOL    HW222521   3.385   0.407   3.622
 7208SOL     OW22522   4.132   0.121   3.744
 7208SOL    HW122523   4.213   0.167   3.707
 7208SOL    HW222524   4.050   0.172   3.719
 7209SOL     OW22525   2.630   3.098   1.701
 7209SOL    HW122526   2.714   3.076   1.752
 7209SOL    HW222527   2.621   3.197   1.695
 7210SOL     OW22528   4.084   0.798   2.744
 7210SOL    HW122529   4.094   0.716   2.801
 7210SOL    HW222530   4.116   0.779   2.652
 7211SOL     OW22531   1.658   6.260   4.958
 7211SOL    HW122532   1.625   6.354   4.968
 7211SOL    HW222533   1.728   6.242   5.028
 7212SOL     OW22534   0.162   6.265   5.152
 7212SOL    HW122535   0.062   6.268   5.154
 7212SOL    HW222536   0.197   6.237   5.241
 7213SOL     OW22537   3.957   6.142   6.382
 7213SOL    HW122538   4.044   6.102   6.352
 7213SOL    HW222539   3.958   6.154   6.481
 7214SOL     OW22540   6.963   0.298   4.588
 7214SOL    HW122541   6.992   0.306   4.684
 7214SOL    HW222542   6.993   0.211   4.551
 7215SOL     OW22543   0.092   3.483   3.808
 7215SOL    HW122544   0.010   3.429   3.787
 7215SOL    HW222545   0.173   3.437   3.772
 7216SOL     OW22546   3.461   0.100   0.754
 7216SOL    HW122547   3.535   0.112   0.821
 7216SOL    HW222548   3.419   0.188   0.735
 7217SOL     OW22549   1.894   4.068   3.191
 7217SOL    HW122550   1.855   3.982   3.223
 7217SOL    HW222551   1.994   4.059   3.185
 7218SOL     OW22552   6.526   2.886   4.294
 7218SOL    HW122553   6.457   2.956   4.281
 7218SOL    HW222554   6.549   2.844   4.206
 7219SOL     OW22555   3.799   0.094   3.106
 7219SOL    HW122556   3.812   7.021   3.080
 7219SOL    HW222557   3.751   0.098   3.193
 7220SOL     OW22558   6.949   4.041   4.681
 7220SOL    HW122559   0.022   4.052   4.710
 7220SOL    HW222560   6.945   4.035   4.581
 7221SOL     OW22561   3.495   5.760   4.767
 7221SOL    HW122562   3.490   5.823   4.690
 7221SOL    HW222563   3.498   5.666   4.733
 7222SOL     OW22564   5.977   6.875   3.419
 7222SOL    HW122565   5.931   6.960   3.394
 7222SOL    HW222566   6.013   6.831   3.337
 7223SOL     OW22567   3.432   1.253   0.882
 7223SOL    HW122568   3.457   1.350   0.880
 7223SOL    HW222569   3.355   1.241   0.945
 7224SOL     OW22570   5.444   1.652   4.222
 7224SOL    HW122571   5.525   1.709   4.239
 7224SOL    HW222572   5.441   1.628   4.125
 7225SOL     OW22573   1.423   6.062   0.612
 7225SOL    HW122574   1.349   6.128   0.621
 7225SOL    HW222575   1.511   6.109   0.620
 7226SOL     OW22576   5.789   0.299   1.940
 7226SOL    HW122577   5.689   0.298   1.941
 7226SOL    HW222578   5.821   0.361   1.869
 7227SOL     OW22579   2.856   1.997   0.923
 7227SOL    HW122580   2.853   1.954   1.014
 7227SOL    HW222581   2.943   1.975   0.879
 7228SOL     OW22582   1.180   2.169   2.585
 7228SOL    HW122583   1.115   2.238   2.552
 7228SOL    HW222584   1.171   2.160   2.684
 7229SOL     OW22585   1.171   6.006   6.049
 7229SOL    HW122586   1.228   6.085   6.070
 7229SOL    HW222587   1.212   5.955   5.973
 7230SOL     OW22588   3.652   5.082   5.008
 7230SOL    HW122589   3.715   5.018   5.051
 7230SOL    HW222590   3.622   5.046   4.919
 7231SOL     OW22591   4.072   0.434   6.689
 7231SOL    HW122592   4.033   0.402   6.775
 7231SOL    HW222593   4.154   0.380   6.667
 7232SOL     OW22594   5.063   5.444   2.955
 7232SOL    HW122595   5.065   5.489   2.866
 7232SOL    HW222596   4.979   5.391   2.964
 7233SOL     OW22597   1.049   1.199   3.755
 7233SOL    HW122598   1.037   1.219   3.657
 7233SOL    HW222599   1.145   1.211   3.780
 7234SOL     OW22600   5.368   2.579   3.780
 7234SOL    HW122601   5.369   2.549   3.875
 7234SOL    HW222602   5.372   2.499   3.720
 7235SOL     OW22603   0.027   4.840   2.609
 7235SOL    HW122604   0.042   4.838   2.510
 7235SOL    HW222605   6.956   4.812   2.629
 7236SOL     OW22606   2.641   1.877   1.821
 7236SOL    HW122607   2.695   1.919   1.894
 7236SOL    HW222608   2.703   1.838   1.752
 7237SOL     OW22609   3.779   0.191   4.262
 7237SOL    HW122610   3.858   0.164   4.208
 7237SOL    HW222611   3.706   0.123   4.252
 7238SOL     OW22612   4.277   1.753   0.006
 7238SOL    HW122613   4.223   1.781   6.949
 7238SOL    HW222614   4.238   1.793   0.089
 7239SOL     OW22615   0.866   2.113   2.147
 7239SOL    HW122616   0.945   2.052   2.143
 7239SOL    HW222617   0.896   2.207   2.161
 7240SOL     OW22618   1.230   0.887   6.162
 7240SOL    HW122619   1.243   0.975   6.209
 7240SOL    HW222620   1.224   0.814   6.231
 7241SOL     OW22621   1.931   0.510   1.027
 7241SOL    HW122622   2.024   0.476   1.043
 7241SOL    HW222623   1.936   0.598   0.979
 7242SOL     OW22624   6.724   6.045   6.795
 7242SOL    HW122625   6.818   6.033   6.763
 7242SOL    HW222626   6.718   6.128   6.850
 7243SOL     OW22627   6.598   4.188   6.400
 7243SOL    HW122628   6.556   4.099   6.417
 7243SOL    HW222629   6.572   4.221   6.310
 7244SOL     OW22630   6.535   0.838   2.125
 7244SOL    HW122631   6.606   0.889   2.175
 7244SOL    HW222632   6.502   0.763   2.183
 7245SOL     OW22633   1.962   3.082   5.293
 7245SOL    HW122634   2.061   3.073   5.283
 7245SOL    HW222635   1.929   3.155   5.234
 7246SOL     OW22636   0.727   6.992   4.021
 7246SOL    HW122637   0.666   6.914   4.007
 7246SOL    HW222638   0.739   0.018   3.935
 7247SOL     OW22639   2.632   1.220   4.433
 7247SOL    HW122640   2.732   1.212   4.435
 7247SOL    HW222641   2.595   1.148   4.374
 7248SOL     OW22642   2.710   1.265   3.203
 7248SOL    HW122643   2.626   1.284   3.253
 7248SOL    HW222644   2.779   1.334   3.227
 7249SOL     OW22645   6.439   5.201   2.403
 7249SOL    HW122646   6.462   5.134   2.334
 7249SOL    HW222647   6.406   5.285   2.359
 7250SOL     OW22648   5.343   6.147   6.124
 7250SOL    HW122649   5.370   6.157   6.220
 7250SOL    HW222650   5.320   6.236   6.087
 7251SOL     OW22651   0.276   6.220   5.418
 7251SOL    HW122652   0.302   6.127   5.446
 7251SOL    HW222653   0.324   6.287   5.475
 7252SOL     OW22654   3.910   3.012   2.296
 7252SOL    HW122655   3.966   2.937   2.329
 7252SOL    HW222656   3.866   3.058   2.373
 7253SOL     OW22657   1.466   6.044   6.743
 7253SOL    HW122658   1.431   5.964   6.791
 7253SOL    HW222659   1.520   6.015   6.664
 7254SOL     OW22660   5.041   5.155   4.264
 7254SOL    HW122661   5.005   5.065   4.289
 7254SOL    HW222662   5.135   5.146   4.232
 7255SOL     OW22663   3.510   4.051   0.901
 7255SOL    HW122664   3.492   3.955   0.878
 7255SOL    HW222665   3.585   4.056   0.966
 7256SOL     OW22666   3.156   5.697   4.626
 7256SOL    HW122667   3.083   5.644   4.582
 7256SOL    HW222668   3.222   5.634   4.667
 7257SOL     OW22669   5.701   1.694   3.031
 7257SOL    HW122670   5.672   1.677   3.125
 7257SOL    HW222671   5.686   1.612   2.976
 7258SOL     OW22672   4.924   1.580   2.786
 7258SOL    HW122673   4.964   1.628   2.864
 7258SOL    HW222674   4.998   1.547   2.727
 7259SOL     OW22675   2.108   3.656   0.941
 7259SOL    HW122676   2.072   3.670   0.849
 7259SOL    HW222677   2.135   3.744   0.980
 7260SOL     OW22678   4.068   1.976   1.367
 7260SOL    HW122679   4.021   1.891   1.392
 7260SOL    HW222680   4.147   1.988   1.427
 7261SOL     OW22681   1.134   2.880   1.096
 7261SOL    HW122682   1.204   2.874   1.025
 7261SOL    HW222683   1.043   2.885   1.055
 7262SOL     OW22684   5.083   2.580   6.148
 7262SOL    HW122685   5.080   2.633   6.233
 7262SOL    HW222686   5.074   2.642   6.070
 7263SOL     OW22687   1.159   0.011   0.008
 7263SOL    HW122688   1.142   6.962   0.076
 7263SOL    HW222689   1.252   0.047   0.020
 7264SOL     OW22690   5.072   2.047   6.786
 7264SOL    HW122691   4.984   1.999   6.777
 7264SOL    HW222692   5.067   2.111   6.863
 7265SOL     OW22693   5.818   5.308   5.683
 7265SOL    HW122694   5.800   5.392   5.734
 7265SOL    HW222695   5.732   5.265   5.658
 7266SOL     OW22696   5.509   6.352   2.020
 7266SOL    HW122697   5.547   6.439   1.989
 7266SOL    HW222698   5.478   6.298   1.941
 7267SOL     OW22699   6.227   6.399   5.194
 7267SOL    HW122700   6.321   6.384   5.163
 7267SOL    HW222701   6.165   6.396   5.116
 7268SOL     OW22702   6.189   5.245   3.394
 7268SOL    HW122703   6.149   5.296   3.469
 7268SOL    HW222704   6.184   5.299   3.310
 7269SOL     OW22705   6.977   6.481   6.629
 7269SOL    HW122706   0.024   6.428   6.580
 7269SOL    HW222707   6.889   6.469   6.584
 7270SOL     OW22708   1.897   3.618   5.597
 7270SOL    HW122709   1.827   3.675   5.554
 7270SOL    HW222710   1.951   3.572   5.526
 7271SOL     OW22711   0.507   6.506   3.310
 7271SOL    HW122712   0.573   6.542   3.375
 7271SOL    HW222713   0.419   6.553   3.321
 7272SOL     OW22714   6.262   5.538   2.400
 7272SOL    HW122715   6.195   5.503   2.465
 7272SOL    HW222716   6.259   5.483   2.317
 7273SOL     OW22717   6.511   4.703   2.087
 7273SOL    HW122718   6.506   4.630   2.019
 7273SOL    HW222719   6.508   4.792   2.041
 7274SOL     OW22720   0.475   5.355   6.594
 7274SOL    HW122721   0.384   5.326   6.624
 7274SOL    HW222722   0.529   5.275   6.570
 7275SOL     OW22723   0.298   6.308   2.350
 7275SOL    HW122724   0.260   6.373   2.416
 7275SOL    HW222725   0.373   6.351   2.300
 7276SOL     OW22726   3.835   0.954   3.429
 7276SOL    HW122727   3.847   1.052   3.413
 7276SOL    HW222728   3.920   0.916   3.466
 7277SOL     OW22729   4.280   0.748   4.026
 7277SOL    HW122730   4.271   0.679   3.954
 7277SOL    HW222731   4.197   0.748   4.083
 7278SOL     OW22732   3.367   2.799   1.269
 7278SOL    HW122733   3.428   2.721   1.253
 7278SOL    HW222734   3.374   2.827   1.365
 7279SOL     OW22735   4.223   4.067   6.051
 7279SOL    HW122736   4.174   4.026   6.128
 7279SOL    HW222737   4.176   4.043   5.965
 7280SOL     OW22738   0.352   1.534   3.582
 7280SOL    HW122739   0.403   1.470   3.639
 7280SOL    HW222740   0.413   1.569   3.510
 7281SOL     OW22741   2.057   1.208   0.428
 7281SOL    HW122742   2.076   1.302   0.398
 7281SOL    HW222743   2.051   1.148   0.348
 7282SOL     OW22744   6.184   5.619   1.647
 7282SOL    HW122745   6.141   5.695   1.696
 7282SOL    HW222746   6.258   5.581   1.703
 7283SOL     OW22747   4.821   0.401   2.610
 7283SOL    HW122748   4.824   0.471   2.682
 7283SOL    HW222749   4.913   0.389   2.572
 7284SOL     OW22750   0.437   2.347   5.723
 7284SOL    HW122751   0.451   2.289   5.643
 7284SOL    HW222752   0.379   2.425   5.699
 7285SOL     OW22753   5.600   2.933   2.542
 7285SOL    HW122754   5.539   2.996   2.589
 7285SOL    HW222755   5.562   2.840   2.545
 7286SOL     OW22756   1.974   1.221   0.974
 7286SOL    HW122757   2.034   1.242   0.897
 7286SOL    HW222758   1.885   1.265   0.960
 7287SOL     OW22759   0.796   2.501   5.250
 7287SOL    HW122760   0.701   2.502   5.280
 7287SOL    HW222761   0.800   2.486   5.151
 7288SOL     OW22762   1.787   1.392   2.058
 7288SOL    HW122763   1.689   1.397   2.076
 7288SOL    HW222764   1.805   1.420   1.964
 7289SOL     OW22765   5.894   1.641   3.804
 7289SOL    HW122766   5.974   1.694   3.777
 7289SOL    HW222767   5.855   1.680   3.887
 7290SOL     OW22768   3.649   1.858   5.402
 7290SOL    HW122769   3.555   1.894   5.402
 7290SOL    HW222770   3.694   1.883   5.488
 7291SOL     OW22771   0.583   0.075   0.137
 7291SOL    HW122772   0.645   0.064   0.060
 7291SOL    HW222773   0.578   0.172   0.162
 7292SOL     OW22774   3.122   0.451   3.243
 7292SOL    HW122775   3.082   0.502   3.167
 7292SOL    HW222776   3.098   0.496   3.329
 7293SOL     OW22777   1.775   1.932   4.903
 7293SOL    HW122778   1.871   1.940   4.877
 7293SOL    HW222779   1.747   2.011   4.958
 7294SOL     OW22780   2.620   4.483   6.941
 7294SOL    HW122781   2.697   4.546   6.940
 7294SOL    HW222782   2.652   4.390   6.959
 7295SOL     OW22783   6.298   3.902   1.122
 7295SOL    HW122784   6.272   3.989   1.080
 7295SOL    HW222785   6.284   3.828   1.056
 7296SOL     OW22786   3.333   6.165   1.559
 7296SOL    HW122787   3.320   6.191   1.655
 7296SOL    HW222788   3.344   6.248   1.504
 7297SOL     OW22789   3.455   6.906   1.531
 7297SOL    HW122790   3.490   6.909   1.625
 7297SOL    HW222791   3.414   6.994   1.508
 7298SOL     OW22792   4.715   4.935   5.975
 7298SOL    HW122793   4.656   4.974   5.904
 7298SOL    HW222794   4.749   5.008   6.034
 7299SOL     OW22795   0.830   2.565   1.279
 7299SOL    HW122796   0.925   2.563   1.312
 7299SOL    HW222797   0.806   2.475   1.243
 7300SOL     OW22798   0.550   0.073   2.156
 7300SOL    HW122799   0.482   0.070   2.230
 7300SOL    HW222800   0.630   0.019   2.183
 7301SOL     OW22801   6.217   1.651   4.643
 7301SOL    HW122802   6.218   1.649   4.543
 7301SOL    HW222803   6.257   1.737   4.675
 7302SOL     OW22804   1.031   2.332   5.392
 7302SOL    HW122805   0.973   2.264   5.347
 7302SOL    HW222806   1.070   2.293   5.475
 7303SOL     OW22807   4.133   0.821   0.025
 7303SOL    HW122808   4.227   0.791   0.039
 7303SOL    HW222809   4.095   0.854   0.111
 7304SOL     OW22810   2.841   5.618   1.514
 7304SOL    HW122811   2.778   5.565   1.456
 7304SOL    HW222812   2.898   5.555   1.567
 7305SOL     OW22813   5.303   1.425   0.671
 7305SOL    HW122814   5.360   1.484   0.614
 7305SOL    HW222815   5.277   1.476   0.754
 7306SOL     OW22816   4.283   1.774   1.194
 7306SOL    HW122817   4.245   1.861   1.225
 7306SOL    HW222818   4.264   1.703   1.261
 7307SOL     OW22819   2.319   6.731   2.696
 7307SOL    HW122820   2.226   6.726   2.659
 7307SOL    HW222821   2.339   6.645   2.744
 7308SOL     OW22822   0.127   2.736   5.097
 7308SOL    HW122823   0.142   2.834   5.105
 7308SOL    HW222824   0.178   2.701   5.019
 7309SOL     OW22825   3.948   4.798   0.615
 7309SOL    HW122826   3.966   4.880   0.670
 7309SOL    HW222827   3.986   4.811   0.523
 7310SOL     OW22828   2.463   4.144   0.199
 7310SOL    HW122829   2.561   4.156   0.183
 7310SOL    HW222830   2.420   4.233   0.208
 7311SOL     OW22831   1.877   1.685   1.269
 7311SOL    HW122832   1.876   1.589   1.241
 7311SOL    HW222833   1.854   1.743   1.191
 7312SOL     OW22834   1.091   3.294   4.743
 7312SOL    HW122835   1.164   3.357   4.770
 7312SOL    HW222836   1.131   3.214   4.698
 7313SOL     OW22837   2.295   1.121   1.074
 7313SOL    HW122838   2.323   1.046   1.134
 7313SOL    HW222839   2.249   1.085   0.993
 7314SOL     OW22840   0.142   4.930   6.289
 7314SOL    HW122841   0.107   4.837   6.277
 7314SOL    HW222842   0.073   4.985   6.335
 7315SOL     OW22843   6.053   5.786   2.054
 7315SOL    HW122844   6.097   5.875   2.048
 7315SOL    HW222845   5.997   5.781   2.136
 7316SOL     OW22846   3.770   3.362   6.580
 7316SOL    HW122847   3.842   3.364   6.650
 7316SOL    HW222848   3.692   3.309   6.614
 7317SOL     OW22849   4.584   1.600   2.157
 7317SOL    HW122850   4.541   1.690   2.145
 7317SOL    HW222851   4.618   1.592   2.250
 7318SOL     OW22852   2.759   0.381   1.779
 7318SOL    HW122853   2.856   0.381   1.802
 7318SOL    HW222854   2.715   0.463   1.816
 7319SOL     OW22855   6.886   3.846   6.863
 7319SOL    HW122856   6.912   3.942   6.856
 7319SOL    HW222857   6.909   3.811   6.954
 7320SOL     OW22858   0.807   3.609   2.217
 7320SOL    HW122859   0.789   3.705   2.195
 7320SOL    HW222860   0.856   3.602   2.303
 7321SOL     OW22861   1.230   6.453   6.172
 7321SOL    HW122862   1.147   6.410   6.208
 7321SOL    HW222863   1.294   6.469   6.248
 7322SOL     OW22864   6.880   2.892   3.089
 7322SOL    HW122865   6.814   2.966   3.106
 7322SOL    HW222866   6.969   2.931   3.067
 7323SOL     OW22867   1.984   2.546   1.099
 7323SOL    HW122868   2.012   2.530   1.193
 7323SOL    HW222869   1.990   2.462   1.046
 7324SOL     OW22870   5.786   6.040   1.316
 7324SOL    HW122871   5.746   6.108   1.255
 7324SOL    HW222872   5.835   5.972   1.262
 7325SOL     OW22873   2.714   0.260   6.314
 7325SOL    HW122874   2.690   0.165   6.294
 7325SOL    HW222875   2.648   0.300   6.377
 7326SOL     OW22876   2.617   6.480   6.694
 7326SOL    HW122877   2.583   6.410   6.630
 7326SOL    HW222878   2.583   6.570   6.667
 7327SOL     OW22879   5.984   2.097   5.767
 7327SOL    HW122880   5.918   2.022   5.768
 7327SOL    HW222881   5.997   2.131   5.860
 7328SOL     OW22882   3.849   0.262   6.340
 7328SOL    HW122883   3.913   0.332   6.309
 7328SOL    HW222884   3.862   0.179   6.286
 7329SOL     OW22885   0.984   3.841   0.857
 7329SOL    HW122886   0.999   3.867   0.952
 7329SOL    HW222887   0.896   3.794   0.849
 7330SOL     OW22888   1.584   2.832   6.969
 7330SOL    HW122889   1.490   2.801   6.978
 7330SOL    HW222890   1.640   2.793   0.019
 7331SOL     OW22891   5.341   6.361   1.274
 7331SOL    HW122892   5.247   6.338   1.250
 7331SOL    HW222893   5.385   6.282   1.317
 7332SOL     OW22894   3.121   5.816   6.860
 7332SOL    HW122895   3.055   5.793   6.788
 7332SOL    HW222896   3.085   5.890   6.917
 7333SOL     OW22897   6.439   3.091   3.092
 7333SOL    HW122898   6.372   3.094   3.017
 7333SOL    HW222899   6.429   3.172   3.149
 7334SOL     OW22900   1.877   5.657   6.228
 7334SOL    HW122901   1.826   5.575   6.252
 7334SOL    HW222902   1.875   5.670   6.129
 7335SOL     OW22903   0.529   2.807   3.367
 7335SOL    HW122904   0.459   2.829   3.299
 7335SOL    HW222905   0.616   2.849   3.340
 7336SOL     OW22906   1.725   6.527   2.496
 7336SOL    HW122907   1.814   6.491   2.468
 7336SOL    HW222908   1.718   6.624   2.470
 7337SOL     OW22909   0.663   3.221   0.910
 7337SOL    HW122910   0.761   3.240   0.912
 7337SOL    HW222911   0.629   3.212   1.004
 7338SOL     OW22912   4.887   1.375   2.141
 7338SOL    HW122913   4.829   1.456   2.130
 7338SOL    HW222914   4.929   1.375   2.231
 7339SOL     OW22915   6.004   0.747   4.616
 7339SOL    HW122916   6.010   0.838   4.658
 7339SOL    HW222917   6.027   0.677   4.684
 7340SOL     OW22918   3.231   1.274   0.372
 7340SOL    HW122919   3.238   1.268   0.471
 7340SOL    HW222920   3.225   1.182   0.333
 7341SOL     OW22921   0.715   4.424   5.791
 7341SOL    HW122922   0.727   4.476   5.875
 7341SOL    HW222923   0.682   4.332   5.812
 7342SOL     OW22924   0.173   0.698   0.233
 7342SOL    HW122925   0.098   0.756   0.200
 7342SOL    HW222926   0.137   0.634   0.302
 7343SOL     OW22927   6.227   4.553   2.141
 7343SOL    HW122928   6.208   4.647   2.110
 7343SOL    HW222929   6.312   4.521   2.099
 7344SOL     OW22930   0.734   1.030   5.981
 7344SOL    HW122931   0.790   1.043   6.063
 7344SOL    HW222932   0.645   0.992   6.007
 7345SOL     OW22933   5.143   5.351   5.134
 7345SOL    HW122934   5.054   5.310   5.115
 7345SOL    HW222935   5.167   5.412   5.058
 7346SOL     OW22936   4.528   5.218   1.515
 7346SOL    HW122937   4.571   5.252   1.598
 7346SOL    HW222938   4.580   5.250   1.435
 7347SOL     OW22939   0.365   2.312   0.666
 7347SOL    HW122940   0.367   2.411   0.653
 7347SOL    HW222941   0.445   2.284   0.719
 7348SOL     OW22942   1.490   3.874   4.362
 7348SOL    HW122943   1.405   3.850   4.317
 7348SOL    HW222944   1.508   3.972   4.348
 7349SOL     OW22945   4.944   1.991   1.404
 7349SOL    HW122946   4.891   2.013   1.486
 7349SOL    HW222947   5.040   2.014   1.419
 7350SOL     OW22948   2.064   3.034   5.796
 7350SOL    HW122949   1.985   2.992   5.750
 7350SOL    HW222950   2.081   3.124   5.758
 7351SOL     OW22951   4.894   6.891   4.856
 7351SOL    HW122952   4.983   6.935   4.848
 7351SOL    HW222953   4.838   6.915   4.777
 7352SOL     OW22954   2.037   2.384   3.011
 7352SOL    HW122955   2.006   2.364   2.917
 7352SOL    HW222956   2.022   2.303   3.068
 7353SOL     OW22957   0.872   0.773   6.438
 7353SOL    HW122958   0.861   0.770   6.538
 7353SOL    HW222959   0.810   0.706   6.397
 7354SOL     OW22960   6.957   1.500   5.625
 7354SOL    HW122961   6.937   1.530   5.719
 7354SOL    HW222962   7.019   1.422   5.627
 7355SOL     OW22963   2.165   0.951   0.866
 7355SOL    HW122964   2.138   0.857   0.848
 7355SOL    HW222965   2.196   0.994   0.781
 7356SOL     OW22966   4.027   3.981   5.872
 7356SOL    HW122967   3.933   3.998   5.841
 7356SOL    HW222968   4.088   3.979   5.793
 7357SOL     OW22969   4.245   6.702   1.600
 7357SOL    HW122970   4.262   6.781   1.542
 7357SOL    HW222971   4.155   6.664   1.578
 7358SOL     OW22972   6.314   3.603   3.243
 7358SOL    HW122973   6.319   3.630   3.339
 7358SOL    HW222974   6.400   3.559   3.216
 7359SOL     OW22975   2.501   1.815   6.510
 7359SOL    HW122976   2.489   1.874   6.430
 7359SOL    HW222977   2.590   1.770   6.506
 7360SOL     OW22978   3.253   3.901   5.345
 7360SOL    HW122979   3.240   3.887   5.443
 7360SOL    HW222980   3.345   3.873   5.319
 7361SOL     OW22981   4.533   6.874   1.878
 7361SOL    HW122982   4.562   6.785   1.843
 7361SOL    HW222983   4.589   6.946   1.838
 7362SOL     OW22984   1.586   4.967   4.832
 7362SOL    HW122985   1.675   5.005   4.858
 7362SOL    HW222986   1.599   4.897   4.762
 7363SOL     OW22987   4.344   2.017   1.807
 7363SOL    HW122988   4.276   2.088   1.788
 7363SOL    HW222989   4.416   2.054   1.866
 7364SOL     OW22990   4.476   0.848   1.832
 7364SOL    HW122991   4.405   0.828   1.764
 7364SOL    HW222992   4.537   0.769   1.842
 7365SOL     OW22993   0.857   5.687   1.925
 7365SOL    HW122994   0.934   5.679   1.862
 7365SOL    HW222995   0.839   5.599   1.967
 7366SOL     OW22996   2.263   5.513   6.551
 7366SOL    HW122997   2.181   5.485   6.501
 7366SOL    HW222998   2.310   5.432   6.586
 7367SOL     OW22999   5.173   2.335   1.124
 7367SOL    HW123000   5.122   2.280   1.058
 7367SOL    HW223001   5.125   2.336   1.211
 7368SOL     OW23002   3.746   2.953   2.736
 7368SOL    HW123003   3.713   2.860   2.720
 7368SOL    HW223004   3.777   2.961   2.831
 7369SOL     OW23005   3.971   2.797   0.218
 7369SOL    HW123006   4.066   2.813   0.243
 7369SOL    HW223007   3.940   2.710   0.257
 7370SOL     OW23008   2.360   0.576   4.581
 7370SOL    HW123009   2.310   0.563   4.496
 7370SOL    HW223010   2.445   0.523   4.578
 7371SOL     OW23011   1.897   6.543   3.623
 7371SOL    HW123012   1.925   6.551   3.718
 7371SOL    HW223013   1.831   6.616   3.602
 7372SOL     OW23014   4.437   1.471   4.219
 7372SOL    HW123015   4.403   1.383   4.254
 7372SOL    HW223016   4.392   1.546   4.268
 7373SOL     OW23017   6.288   2.164   4.097
 7373SOL    HW123018   6.204   2.199   4.057
 7373SOL    HW223019   6.339   2.239   4.140
 7374SOL     OW23020   2.567   1.687   5.456
 7374SOL    HW123021   2.524   1.646   5.376
 7374SOL    HW223022   2.611   1.773   5.429
 7375SOL     OW23023   1.793   2.742   3.135
 7375SOL    HW123024   1.843   2.802   3.072
 7375SOL    HW223025   1.855   2.709   3.206
 7376SOL     OW23026   2.652   1.137   0.553
 7376SOL    HW123027   2.615   1.148   0.461
 7376SOL    HW223028   2.746   1.101   0.547
 7377SOL     OW23029   5.767   4.606   0.301
 7377SOL    HW123030   5.811   4.536   0.357
 7377SOL    HW223031   5.760   4.573   0.206
 7378SOL     OW23032   0.130   1.065   5.872
 7378SOL    HW123033   0.198   0.993   5.857
 7378SOL    HW223034   0.071   1.040   5.948
 7379SOL     OW23035   2.999   1.706   2.922
 7379SOL    HW123036   2.938   1.628   2.931
 7379SOL    HW223037   2.956   1.776   2.865
 7380SOL     OW23038   6.631   4.238   4.735
 7380SOL    HW123039   6.714   4.244   4.790
 7380SOL    HW223040   6.632   4.310   4.666
 7381SOL     OW23041   4.510   4.076   1.338
 7381SOL    HW123042   4.450   4.042   1.410
 7381SOL    HW223043   4.560   4.156   1.372
 7382SOL     OW23044   6.815   6.246   5.683
 7382SOL    HW123045   6.880   6.198   5.623
 7382SOL    HW223046   6.731   6.265   5.632
 7383SOL     OW23047   1.653   6.965   1.476
 7383SOL    HW123048   1.554   6.957   1.491
 7383SOL    HW223049   1.671   6.981   1.379
 7384SOL     OW23050   6.075   0.032   2.668
 7384SOL    HW123051   6.013   7.012   2.734
 7384SOL    HW223052   6.057   0.131   2.665
 7385SOL     OW23053   3.940   6.217   2.085
 7385SOL    HW123054   4.010   6.220   2.156
 7385SOL    HW223055   3.908   6.123   2.073
 7386SOL     OW23056   0.674   2.121   6.092
 7386SOL    HW123057   0.611   2.178   6.143
 7386SOL    HW223058   0.723   2.177   6.025
 7387SOL     OW23059   5.556   6.511   4.327
 7387SOL    HW123060   5.568   6.419   4.290
 7387SOL    HW223061   5.645   6.553   4.342
 7388SOL     OW23062   0.419   5.090   2.355
 7388SOL    HW123063   0.408   5.109   2.258
 7388SOL    HW223064   0.332   5.105   2.402
 7389SOL     OW23065   6.559   3.928   6.497
 7389SOL    HW123066   6.650   3.933   6.537
 7389SOL    HW223067   6.549   3.842   6.447
 7390SOL     OW23068   1.038   1.974   0.091
 7390SOL    HW123069   0.974   1.974   0.168
 7390SOL    HW223070   1.071   1.881   0.075
 7391SOL     OW23071   4.017   3.740   4.037
 7391SOL    HW123072   4.020   3.772   4.132
 7391SOL    HW223073   4.089   3.672   4.022
 7392SOL     OW23074   2.280   6.192   6.956
 7392SOL    HW123075   2.378   6.210   6.955
 7392SOL    HW223076   2.244   6.207   0.026
 7393SOL     OW23077   6.244   4.514   2.991
 7393SOL    HW123078   6.222   4.419   2.969
 7393SOL    HW223079   6.170   4.554   3.044
 7394SOL     OW23080   2.437   3.030   6.320
 7394SOL    HW123081   2.385   2.992   6.244
 7394SOL    HW223082   2.534   3.031   6.297
 7395SOL     OW23083   1.503   2.560   0.739
 7395SOL    HW123084   1.549   2.473   0.754
 7395SOL    HW223085   1.571   2.632   0.724
 7396SOL     OW23086   1.011   6.836   0.871
 7396SOL    HW123087   1.066   6.753   0.877
 7396SOL    HW223088   1.047   6.895   0.799
 7397SOL     OW23089   4.528   5.084   4.737
 7397SOL    HW123090   4.592   5.023   4.691
 7397SOL    HW223091   4.484   5.144   4.670
 7398SOL     OW23092   2.323   4.693   4.503
 7398SOL    HW123093   2.296   4.749   4.582
 7398SOL    HW223094   2.302   4.597   4.522
 7399SOL     OW23095   1.155   2.483   5.175
 7399SOL    HW123096   1.206   2.564   5.201
 7399SOL    HW223097   1.118   2.439   5.257
 7400SOL     OW23098   3.876   2.020   5.343
 7400SOL    HW123099   3.798   1.965   5.374
 7400SOL    HW223100   3.842   2.097   5.289
 7401SOL     OW23101   1.636   1.741   4.741
 7401SOL    HW123102   1.666   1.826   4.785
 7401SOL    HW223103   1.632   1.754   4.642
 7402SOL     OW23104   2.684   6.101   6.397
 7402SOL    HW123105   2.689   6.024   6.333
 7402SOL    HW223106   2.709   6.186   6.349
 7403SOL     OW23107   1.997   3.638   2.486
 7403SOL    HW123108   1.969   3.552   2.444
 7403SOL    HW223109   2.046   3.694   2.420
 7404SOL     OW23110   2.805   5.242   1.429
 7404SOL    HW123111   2.865   5.220   1.352
 7404SOL    HW223112   2.768   5.334   1.417
 7405SOL     OW23113   3.861   4.892   4.540
 7405SOL    HW123114   3.917   4.967   4.504
 7405SOL    HW223115   3.828   4.836   4.465
 7406SOL     OW23116   0.289   2.515   3.547
 7406SOL    HW123117   0.228   2.577   3.597
 7406SOL    HW223118   0.383   2.548   3.554
 7407SOL     OW23119   0.823   0.090   4.846
 7407SOL    HW123120   0.760   0.050   4.912
 7407SOL    HW223121   0.903   0.125   4.894
 7408SOL     OW23122   3.210   3.891   6.805
 7408SOL    HW123123   3.228   3.809   6.750
 7408SOL    HW223124   3.264   3.967   6.770
 7409SOL     OW23125   6.066   2.263   0.002
 7409SOL    HW123126   6.019   2.174   0.008
 7409SOL    HW223127   6.124   2.275   0.082
 7410SOL     OW23128   6.866   6.870   0.921
 7410SOL    HW123129   6.952   6.854   0.872
 7410SOL    HW223130   6.884   6.920   1.005
 7411SOL     OW23131   2.074   6.953   6.135
 7411SOL    HW123132   2.054   6.864   6.094
 7411SOL    HW223133   1.996   7.014   6.123
 7412SOL     OW23134   5.100   0.361   2.156
 7412SOL    HW123135   5.031   0.292   2.136
 7412SOL    HW223136   5.167   0.364   2.081
 7413SOL     OW23137   5.406   5.936   3.704
 7413SOL    HW123138   5.394   6.034   3.692
 7413SOL    HW223139   5.337   5.887   3.651
 7414SOL     OW23140   0.547   0.842   3.957
 7414SOL    HW123141   0.473   0.841   4.024
 7414SOL    HW223142   0.509   0.825   3.866
 7415SOL     OW23143   1.559   4.957   3.610
 7415SOL    HW123144   1.467   4.980   3.580
 7415SOL    HW223145   1.604   4.900   3.541
 7416SOL     OW23146   1.784   1.457   2.726
 7416SOL    HW123147   1.831   1.536   2.685
 7416SOL    HW223148   1.803   1.454   2.824
 7417SOL     OW23149   1.791   1.088   0.358
 7417SOL    HW123150   1.699   1.052   0.373
 7417SOL    HW223151   1.799   1.178   0.401
 7418SOL     OW23152   2.281   5.858   0.394
 7418SOL    HW123153   2.368   5.854   0.344
 7418SOL    HW223154   2.240   5.767   0.398
 7419SOL     OW23155   6.629   2.929   4.544
 7419SOL    HW123156   6.580   2.907   4.460
 7419SOL    HW223157   6.727   2.910   4.532
 7420SOL     OW23158   0.491   0.267   1.438
 7420SOL    HW123159   0.507   0.310   1.349
 7420SOL    HW223160   0.405   0.216   1.434
 7421SOL     OW23161   3.969   4.443   0.774
 7421SOL    HW123162   4.023   4.359   0.760
 7421SOL    HW223163   3.883   4.436   0.724
 7422SOL     OW23164   0.207   3.037   2.385
 7422SOL    HW123165   0.145   3.017   2.309
 7422SOL    HW223166   0.187   2.976   2.461
 7423SOL     OW23167   5.692   2.857   5.691
 7423SOL    HW123168   5.743   2.874   5.775
 7423SOL    HW223169   5.723   2.771   5.651
 7424SOL     OW23170   6.347   6.422   5.505
 7424SOL    HW123171   6.329   6.359   5.430
 7424SOL    HW223172   6.396   6.502   5.471
 7425SOL     OW23173   4.153   6.147   6.804
 7425SOL    HW123174   4.055   6.165   6.794
 7425SOL    HW223175   4.169   6.098   6.890
 7426SOL     OW23176   3.320   1.641   5.559
 7426SOL    HW123177   3.239   1.647   5.502
 7426SOL    HW223178   3.315   1.559   5.616
 7427SOL     OW23179   4.202   0.670   3.645
 7427SOL    HW123180   4.171   0.611   3.572
 7427SOL    HW223181   4.301   0.660   3.657
 7428SOL     OW23182   4.369   1.802   5.262
 7428SOL    HW123183   4.362   1.728   5.329
 7428SOL    HW223184   4.372   1.889   5.309
 7429SOL     OW23185   0.439   6.102   4.408
 7429SOL    HW123186   0.369   6.118   4.477
 7429SOL    HW223187   0.396   6.093   4.318
 7430SOL     OW23188   1.118   3.147   0.275
 7430SOL    HW123189   1.154   3.110   0.361
 7430SOL    HW223190   1.129   3.246   0.275
 7431SOL     OW23191   1.576   2.834   3.497
 7431SOL    HW123192   1.629   2.894   3.438
 7431SOL    HW223193   1.619   2.828   3.587
 7432SOL     OW23194   0.748   1.189   3.038
 7432SOL    HW123195   0.707   1.257   2.978
 7432SOL    HW223196   0.847   1.206   3.045
 7433SOL     OW23197   4.277   6.268   5.893
 7433SOL    HW123198   4.184   6.270   5.929
 7433SOL    HW223199   4.342   6.257   5.968
 7434SOL     OW23200   5.060   6.110   5.724
 7434SOL    HW123201   5.046   6.133   5.628
 7434SOL    HW223202   5.045   6.012   5.738
 7435SOL     OW23203   3.354   5.782   0.687
 7435SOL    HW123204   3.392   5.692   0.708
 7435SOL    HW223205   3.349   5.794   0.588
 7436SOL     OW23206   5.019   3.819   5.774
 7436SOL    HW123207   4.998   3.722   5.758
 7436SOL    HW223208   5.092   3.848   5.712
 7437SOL     OW23209   1.923   6.129   0.146
 7437SOL    HW123210   1.855   6.147   0.217
 7437SOL    HW223211   1.961   6.038   0.158
 7438SOL     OW23212   1.300   6.096   0.365
 7438SOL    HW123213   1.342   6.054   0.446
 7438SOL    HW223214   1.294   6.028   0.292
 7439SOL     OW23215   1.929   6.359   5.787
 7439SOL    HW123216   1.918   6.308   5.702
 7439SOL    HW223217   1.839   6.389   5.820
 7440SOL     OW23218   0.157   2.482   4.332
 7440SOL    HW123219   0.200   2.571   4.317
 7440SOL    HW223220   0.064   2.496   4.365
 7441SOL     OW23221   4.938   6.853   4.216
 7441SOL    HW123222   4.854   6.819   4.258
 7441SOL    HW223223   4.919   6.884   4.123
 7442SOL     OW23224   6.292   1.230   5.862
 7442SOL    HW123225   6.314   1.285   5.782
 7442SOL    HW223226   6.196   1.204   5.860
 7443SOL     OW23227   0.035   6.107   1.750
 7443SOL    HW123228   0.126   6.140   1.727
 7443SOL    HW223229   6.989   6.171   1.714
 7444SOL     OW23230   5.555   2.377   5.607
 7444SOL    HW123231   5.512   2.466   5.624
 7444SOL    HW223232   5.522   2.341   5.520
 7445SOL     OW23233   3.993   0.705   1.159
 7445SOL    HW123234   4.073   0.733   1.105
 7445SOL    HW223235   3.927   0.780   1.163
 7446SOL     OW23236   5.813   3.463   0.800
 7446SOL    HW123237   5.885   3.406   0.840
 7446SOL    HW223238   5.845   3.558   0.795
 7447SOL     OW23239   0.092   3.222   0.005
 7447SOL    HW123240   0.005   3.249   6.988
 7447SOL    HW223241   0.138   3.303   0.042
 7448SOL     OW23242   6.302   6.713   4.998
 7448SOL    HW123243   6.274   6.647   4.929
 7448SOL    HW223244   6.401   6.725   4.995
 7449SOL     OW23245   0.559   4.059   1.897
 7449SOL    HW123246   0.525   4.122   1.967
 7449SOL    HW223247   0.544   3.965   1.926
 7450SOL     OW23248   5.324   2.628   4.724
 7450SOL    HW123249   5.310   2.530   4.709
 7450SOL    HW223250   5.238   2.676   4.712
 7451SOL     OW23251   6.843   6.920   2.844
 7451SOL    HW123252   6.827   6.875   2.932
 7451SOL    HW223253   6.924   6.978   2.850
 7452SOL     OW23254   6.371   6.783   4.670
 7452SOL    HW123255   6.367   6.698   4.723
 7452SOL    HW223256   6.353   6.764   4.574
 7453SOL     OW23257   4.748   6.641   5.815
 7453SOL    HW123258   4.729   6.712   5.748
 7453SOL    HW223259   4.711   6.668   5.904
 7454SOL     OW23260   0.837   2.450   1.860
 7454SOL    HW123261   0.904   2.411   1.923
 7454SOL    HW223262   0.763   2.492   1.913
 7455SOL     OW23263   6.511   2.699   2.030
 7455SOL    HW123264   6.486   2.767   1.962
 7455SOL    HW223265   6.546   2.744   2.112
 7456SOL     OW23266   0.893   1.347   4.235
 7456SOL    HW123267   0.895   1.433   4.287
 7456SOL    HW223268   0.912   1.271   4.296
 7457SOL     OW23269   3.601   0.228   5.842
 7457SOL    HW123270   3.697   0.201   5.841
 7457SOL    HW223271   3.588   0.302   5.908
 7458SOL     OW23272   1.357   6.367   5.695
 7458SOL    HW123273   1.319   6.358   5.787
 7458SOL    HW223274   1.439   6.310   5.687
 7459SOL     OW23275   4.531   0.327   2.175
 7459SOL    HW123276   4.559   0.250   2.232
 7459SOL    HW223277   4.490   0.293   2.090
 7460SOL     OW23278   1.150   5.280   0.745
 7460SOL    HW123279   1.064   5.280   0.693
 7460SOL    HW223280   1.193   5.369   0.738
 7461SOL     OW23281   5.882   0.658   6.167
 7461SOL    HW123282   5.922   0.594   6.101
 7461SOL    HW223283   5.783   0.648   6.166
 7462SOL     OW23284   1.854   3.995   2.416
 7462SOL    HW123285   1.810   3.943   2.489
 7462SOL    HW223286   1.794   4.000   2.337
 7463SOL     OW23287   2.703   4.890   0.681
 7463SOL    HW123288   2.787   4.855   0.639
 7463SOL    HW223289   2.702   4.990   0.676
 7464SOL     OW23290   5.304   0.055   5.571
 7464SOL    HW123291   5.271   0.141   5.532
 7464SOL    HW223292   5.226   7.023   5.601
 7465SOL     OW23293   1.803   5.499   0.056
 7465SOL    HW123294   1.832   5.522   6.986
 7465SOL    HW223295   1.750   5.575   0.094
 7466SOL     OW23296   0.063   0.905   5.030
 7466SOL    HW123297   0.009   0.822   5.046
 7466SOL    HW223298   0.135   0.911   5.098
 7467SOL     OW23299   0.648   1.339   0.873
 7467SOL    HW123300   0.625   1.328   0.776
 7467SOL    HW223301   0.579   1.397   0.917
 7468SOL     OW23302   6.101   2.462   3.272
 7468SOL    HW123303   6.046   2.510   3.340
 7468SOL    HW223304   6.198   2.484   3.286
 7469SOL     OW23305   6.120   0.436   0.788
 7469SOL    HW123306   6.204   0.477   0.824
 7469SOL    HW223307   6.061   0.508   0.752
 7470SOL     OW23308   6.460   3.859   2.926
 7470SOL    HW123309   6.407   3.797   2.868
 7470SOL    HW223310   6.424   3.952   2.918
 7471SOL     OW23311   5.225   6.605   5.736
 7471SOL    HW123312   5.184   6.519   5.705
 7471SOL    HW223313   5.154   6.663   5.776
 7472SOL     OW23314   5.964   6.860   5.376
 7472SOL    HW123315   6.005   6.773   5.349
 7472SOL    HW223316   5.896   6.888   5.308
 7473SOL     OW23317   5.951   5.454   3.583
 7473SOL    HW123318   5.995   5.532   3.537
 7473SOL    HW223319   6.021   5.392   3.617
 7474SOL     OW23320   0.897   1.502   5.996
 7474SOL    HW123321   0.887   1.597   6.027
 7474SOL    HW223322   0.807   1.464   5.977
 7475SOL     OW23323   5.111   2.514   2.480
 7475SOL    HW123324   5.063   2.472   2.403
 7475SOL    HW223325   5.188   2.456   2.507
 7476SOL     OW23326   3.110   0.322   4.044
 7476SOL    HW123327   3.134   0.231   4.010
 7476SOL    HW223328   3.073   0.313   4.137
 7477SOL     OW23329   0.462   1.541   5.713
 7477SOL    HW123330   0.372   1.538   5.756
 7477SOL    HW223331   0.458   1.494   5.624
 7478SOL     OW23332   5.636   4.339   5.795
 7478SOL    HW123333   5.735   4.331   5.810
 7478SOL    HW223334   5.588   4.299   5.873
 7479SOL     OW23335   3.804   2.129   2.275
 7479SOL    HW123336   3.775   2.162   2.185
 7479SOL    HW223337   3.726   2.129   2.337
 7480SOL     OW23338   1.198   4.080   2.435
 7480SOL    HW123339   1.296   4.070   2.415
 7480SOL    HW223340   1.146   4.060   2.352
 7481SOL     OW23341   6.166   5.616   1.081
 7481SOL    HW123342   6.251   5.667   1.075
 7481SOL    HW223343   6.165   5.562   1.165
 7482SOL     OW23344   4.730   2.848   3.138
 7482SOL    HW123345   4.684   2.822   3.223
 7482SOL    HW223346   4.686   2.802   3.061
 7483SOL     OW23347   4.865   3.084   4.216
 7483SOL    HW123348   4.883   2.999   4.167
 7483SOL    HW223349   4.851   3.158   4.150
 7484SOL     OW23350   1.606   6.651   4.647
 7484SOL    HW123351   1.566   6.711   4.578
 7484SOL    HW223352   1.642   6.706   4.722
 7485SOL     OW23353   3.297   7.000   4.560
 7485SOL    HW123354   3.209   6.988   4.606
 7485SOL    HW223355   3.303   0.070   4.523
 7486SOL     OW23356   2.080   6.453   0.390
 7486SOL    HW123357   2.042   6.396   0.462
 7486SOL    HW223358   2.146   6.400   0.337
 7487SOL     OW23359   1.810   6.914   3.481
 7487SOL    HW123360   1.737   6.977   3.508
 7487SOL    HW223361   1.782   6.820   3.500
 7488SOL     OW23362   2.617   6.330   4.344
 7488SOL    HW123363   2.640   6.374   4.431
 7488SOL    HW223364   2.663   6.242   4.337
 7489SOL     OW23365   5.600   2.651   5.325
 7489SOL    HW123366   5.503   2.672   5.309
 7489SOL    HW223367   5.645   2.634   5.237
 7490SOL     OW23368   1.273   7.013   2.597
 7490SOL    HW123369   1.197   6.994   2.660
 7490SOL    HW223370   1.356   0.004   2.650
 7491SOL     OW23371   5.356   2.686   6.958
 7491SOL    HW123372   5.421   2.610   6.943
 7491SOL    HW223373   5.263   2.649   6.965
 7492SOL     OW23374   1.667   0.642   3.242
 7492SOL    HW123375   1.663   0.696   3.158
 7492SOL    HW223376   1.702   0.699   3.316
 7493SOL     OW23377   0.454   3.449   6.825
 7493SOL    HW123378   0.527   3.496   6.874
 7493SOL    HW223379   0.410   3.383   6.885
 7494SOL     OW23380   5.097   1.434   2.627
 7494SOL    HW123381   5.197   1.432   2.619
 7494SOL    HW223382   5.069   1.385   2.709
 7495SOL     OW23383   1.654   2.106   6.479
 7495SOL    HW123384   1.564   2.096   6.439
 7495SOL    HW223385   1.647   2.099   6.579
 7496SOL     OW23386   6.392   3.572   4.350
 7496SOL    HW123387   6.373   3.669   4.363
 7496SOL    HW223388   6.468   3.561   4.286
 7497SOL     OW23389   2.614   4.383   6.362
 7497SOL    HW123390   2.687   4.403   6.297
 7497SOL    HW223391   2.649   4.395   6.455
 7498SOL     OW23392   3.125   0.487   5.093
 7498SOL    HW123393   3.054   0.547   5.130
 7498SOL    HW223394   3.215   0.525   5.113
 7499SOL     OW23395   3.456   1.072   3.342
 7499SOL    HW123396   3.453   0.972   3.340
 7499SOL    HW223397   3.529   1.102   3.404
 7500SOL     OW23398   3.282   5.826   3.069
 7500SOL    HW123399   3.343   5.824   2.990
 7500SOL    HW223400   3.200   5.774   3.049
 7501SOL     OW23401   5.190   3.655   4.951
 7501SOL    HW123402   5.189   3.631   5.048
 7501SOL    HW223403   5.096   3.671   4.920
 7502SOL     OW23404   3.136   0.586   4.768
 7502SOL    HW123405   3.089   0.658   4.716
 7502SOL    HW223406   3.069   0.527   4.812
 7503SOL     OW23407   1.701   0.199   1.006
 7503SOL    HW123408   1.718   0.159   0.915
 7503SOL    HW223409   1.615   0.249   1.005
 7504SOL     OW23410   0.901   6.697   3.395
 7504SOL    HW123411   0.988   6.702   3.347
 7504SOL    HW223412   0.844   6.776   3.370
 7505SOL     OW23413   1.759   3.112   5.914
 7505SOL    HW123414   1.764   3.207   5.883
 7505SOL    HW223415   1.832   3.059   5.871
 7506SOL     OW23416   4.883   1.200   3.625
 7506SOL    HW123417   4.789   1.214   3.594
 7506SOL    HW223418   4.923   1.124   3.574
 7507SOL     OW23419   6.781   1.550   2.907
 7507SOL    HW123420   6.873   1.527   2.939
 7507SOL    HW223421   6.731   1.466   2.885
 7508SOL     OW23422   1.353   6.889   1.472
 7508SOL    HW123423   1.372   6.801   1.515
 7508SOL    HW223424   1.255   6.901   1.462
 7509SOL     OW23425   6.051   4.319   0.635
 7509SOL    HW123426   6.062   4.231   0.590
 7509SOL    HW223427   6.127   4.333   0.699
 7510SOL     OW23428   3.667   3.523   5.518
 7510SOL    HW123429   3.630   3.588   5.585
 7510SOL    HW223430   3.767   3.527   5.520
 7511SOL     OW23431   2.713   6.159   4.125
 7511SOL    HW123432   2.792   6.222   4.125
 7511SOL    HW223433   2.638   6.201   4.075
 7512SOL     OW23434   2.541   6.721   6.558
 7512SOL    HW123435   2.533   6.806   6.610
 7512SOL    HW223436   2.518   6.738   6.463
 7513SOL     OW23437   1.820   0.869   1.480
 7513SOL    HW123438   1.826   0.837   1.385
 7513SOL    HW223439   1.774   0.958   1.482
 7514SOL     OW23440   2.659   5.633   1.783
 7514SOL    HW123441   2.691   5.541   1.758
 7514SOL    HW223442   2.709   5.701   1.730
 7515SOL     OW23443   6.985   5.346   4.811
 7515SOL    HW123444   6.980   5.315   4.716
 7515SOL    HW223445   0.046   5.312   4.853
 7516SOL     OW23446   6.562   6.023   5.597
 7516SOL    HW123447   6.472   6.030   5.554
 7516SOL    HW223448   6.622   5.966   5.542
 7517SOL     OW23449   0.671   2.045   0.511
 7517SOL    HW123450   0.697   2.141   0.526
 7517SOL    HW223451   0.677   1.995   0.597
 7518SOL     OW23452   4.182   4.794   3.892
 7518SOL    HW123453   4.202   4.818   3.987
 7518SOL    HW223454   4.088   4.821   3.870
 7519SOL     OW23455   0.477   6.094   3.893
 7519SOL    HW123456   0.536   6.098   3.812
 7519SOL    HW223457   0.382   6.082   3.864
 7520SOL     OW23458   1.976   6.899   2.309
 7520SOL    HW123459   1.909   6.961   2.267
 7520SOL    HW223460   2.000   6.827   2.245
 7521SOL     OW23461   4.810   3.188   5.666
 7521SOL    HW123462   4.780   3.094   5.685
 7521SOL    HW223463   4.868   3.189   5.585
 7522SOL     OW23464   1.689   1.418   5.587
 7522SOL    HW123465   1.720   1.501   5.634
 7522SOL    HW223466   1.620   1.442   5.519
 7523SOL     OW23467   5.849   6.990   6.462
 7523SOL    HW123468   5.870   7.017   6.368
 7523SOL    HW223469   5.908   0.017   6.525
 7524SOL     OW23470   1.361   2.746   5.032
 7524SOL    HW123471   1.306   2.688   4.972
 7524SOL    HW223472   1.450   2.762   4.990
 7525SOL     OW23473   3.536   0.834   6.406
 7525SOL    HW123474   3.476   0.907   6.440
 7525SOL    HW223475   3.481   0.766   6.357
 7526SOL     OW23476   3.710   3.507   1.465
 7526SOL    HW123477   3.647   3.469   1.397
 7526SOL    HW223478   3.674   3.490   1.557
 7527SOL     OW23479   3.145   5.925   3.476
 7527SOL    HW123480   3.065   5.922   3.415
 7527SOL    HW223481   3.132   5.997   3.544
 7528SOL     OW23482   6.284   2.183   0.689
 7528SOL    HW123483   6.263   2.105   0.748
 7528SOL    HW223484   6.367   2.228   0.722
 7529SOL     OW23485   5.193   1.824   4.521
 7529SOL    HW123486   5.124   1.883   4.479
 7529SOL    HW223487   5.164   1.729   4.515
 7530SOL     OW23488   0.259   2.788   2.163
 7530SOL    HW123489   0.325   2.789   2.238
 7530SOL    HW223490   0.298   2.739   2.085
 7531SOL     OW23491   5.504   3.260   4.689
 7531SOL    HW123492   5.524   3.301   4.778
 7531SOL    HW223493   5.459   3.328   4.630
 7532SOL     OW23494   4.718   5.694   0.033
 7532SOL    HW123495   4.770   5.779   0.031
 7532SOL    HW223496   4.639   5.701   6.995
 7533SOL     OW23497   3.564   1.244   1.732
 7533SOL    HW123498   3.616   1.209   1.655
 7533SOL    HW223499   3.498   1.175   1.762
 7534SOL     OW23500   4.049   6.724   5.088
 7534SOL    HW123501   4.034   6.626   5.104
 7534SOL    HW223502   4.136   6.751   5.128
 7535SOL     OW23503   1.766   0.596   4.683
 7535SOL    HW123504   1.678   0.643   4.687
 7535SOL    HW223505   1.806   0.608   4.592
 7536SOL     OW23506   5.167   4.693   4.028
 7536SOL    HW123507   5.138   4.621   3.966
 7536SOL    HW223508   5.253   4.733   3.996
 7537SOL     OW23509   2.746   5.859   1.601
 7537SOL    HW123510   2.806   5.922   1.651
 7537SOL    HW223511   2.803   5.793   1.551
 7538SOL     OW23512   1.688   2.550   1.063
 7538SOL    HW123513   1.788   2.550   1.075
 7538SOL    HW223514   1.665   2.502   0.978
 7539SOL     OW23515   1.821   3.813   3.847
 7539SOL    HW123516   1.817   3.838   3.750
 7539SOL    HW223517   1.760   3.873   3.899
 7540SOL     OW23518   4.008   0.543   4.802
 7540SOL    HW123519   4.046   0.569   4.714
 7540SOL    HW223520   4.006   0.443   4.809
 7541SOL     OW23521   0.446   4.594   5.482
 7541SOL    HW123522   0.358   4.546   5.481
 7541SOL    HW223523   0.520   4.528   5.483
 7542SOL     OW23524   1.115   5.128   6.765
 7542SOL    HW123525   1.170   5.049   6.735
 7542SOL    HW223526   1.176   5.200   6.798
 7543SOL     OW23527   4.011   1.413   5.742
 7543SOL    HW123528   3.984   1.322   5.774
 7543SOL    HW223529   4.105   1.410   5.709
 7544SOL     OW23530   6.670   2.324   2.644
 7544SOL    HW123531   6.591   2.377   2.616
 7544SOL    HW223532   6.742   2.385   2.676
 7545SOL     OW23533   0.463   5.125   0.348
 7545SOL    HW123534   0.535   5.188   0.376
 7545SOL    HW223535   0.421   5.158   0.263
 7546SOL     OW23536   3.228   2.123   1.098
 7546SOL    HW123537   3.302   2.059   1.121
 7546SOL    HW223538   3.198   2.171   1.181
 7547SOL     OW23539   5.027   1.571   0.460
 7547SOL    HW123540   5.089   1.522   0.400
 7547SOL    HW223541   4.939   1.525   0.463
 7548SOL     OW23542   4.222   1.979   0.243
 7548SOL    HW123543   4.253   2.007   0.152
 7548SOL    HW223544   4.279   2.023   0.313
 7549SOL     OW23545   3.645   2.948   6.879
 7549SOL    HW123546   3.568   2.909   6.931
 7549SOL    HW223547   3.620   3.039   6.845
 7550SOL     OW23548   2.355   5.002   3.509
 7550SOL    HW123549   2.397   5.090   3.486
 7550SOL    HW223550   2.298   5.013   3.590
 7551SOL     OW23551   5.405   3.278   6.250
 7551SOL    HW123552   5.400   3.329   6.336
 7551SOL    HW223553   5.390   3.181   6.268
 7552SOL     OW23554   1.305   5.927   2.865
 7552SOL    HW123555   1.257   5.848   2.826
 7552SOL    HW223556   1.380   5.954   2.804
 7553SOL     OW23557   4.178   6.483   5.270
 7553SOL    HW123558   4.261   6.470   5.216
 7553SOL    HW223559   4.148   6.395   5.306
 7554SOL     OW23560   5.057   1.132   6.710
 7554SOL    HW123561   5.132   1.150   6.646
 7554SOL    HW223562   5.003   1.055   6.678
 7555SOL     OW23563   2.232   4.622   6.214
 7555SOL    HW123564   2.189   4.533   6.231
 7555SOL    HW223565   2.327   4.608   6.186
 7556SOL     OW23566   2.154   2.957   0.707
 7556SOL    HW123567   2.232   2.900   0.678
 7556SOL    HW223568   2.099   2.980   0.627
 7557SOL     OW23569   5.038   0.626   5.616
 7557SOL    HW123570   4.942   0.613   5.641
 7557SOL    HW223571   5.088   0.541   5.633
 7558SOL     OW23572   2.050   2.480   4.175
 7558SOL    HW123573   2.008   2.389   4.176
 7558SOL    HW223574   2.022   2.531   4.256
 7559SOL     OW23575   4.632   3.765   0.540
 7559SOL    HW123576   4.645   3.670   0.513
 7559SOL    HW223577   4.694   3.787   0.615
 7560SOL     OW23578   5.071   6.238   1.003
 7560SOL    HW123579   5.166   6.211   0.992
 7560SOL    HW223580   5.018   6.209   0.923
 7561SOL     OW23581   0.511   2.815   6.672
 7561SOL    HW123582   0.508   2.830   6.771
 7561SOL    HW223583   0.604   2.787   6.645
 7562SOL     OW23584   0.640   5.732   4.786
 7562SOL    HW123585   0.546   5.701   4.770
 7562SOL    HW223586   0.702   5.655   4.777
 7563SOL     OW23587   3.070   0.057   1.501
 7563SOL    HW123588   3.069   6.981   1.514
 7563SOL    HW223589   3.163   0.088   1.483
 7564SOL     OW23590   3.764   0.057   3.383
 7564SOL    HW123591   3.735   7.020   3.457
 7564SOL    HW223592   3.863   0.060   3.378
 7565SOL     OW23593   5.636   3.095   6.848
 7565SOL    HW123594   5.720   3.043   6.833
 7565SOL    HW223595   5.585   3.101   6.762
 7566SOL     OW23596   6.625   4.688   3.146
 7566SOL    HW123597   6.540   4.702   3.196
 7566SOL    HW223598   6.645   4.768   3.089
 7567SOL     OW23599   1.994   1.891   5.251
 7567SOL    HW123600   1.948   1.815   5.297
 7567SOL    HW223601   1.938   1.974   5.260
 7568SOL     OW23602   5.353   5.346   2.962
 7568SOL    HW123603   5.265   5.382   2.995
 7568SOL    HW223604   5.372   5.384   2.872
 7569SOL     OW23605   3.554   5.277   5.976
 7569SOL    HW123606   3.632   5.284   6.037
 7569SOL    HW223607   3.470   5.267   6.030
 7570SOL     OW23608   5.047   4.026   5.398
 7570SOL    HW123609   4.997   3.950   5.356
 7570SOL    HW223610   5.128   4.048   5.343
 7571SOL     OW23611   4.267   4.661   2.749
 7571SOL    HW123612   4.171   4.687   2.741
 7571SOL    HW223613   4.297   4.620   2.662
 7572SOL     OW23614   4.355   1.082   1.642
 7572SOL    HW123615   4.386   1.104   1.735
 7572SOL    HW223616   4.432   1.087   1.579
 7573SOL     OW23617   0.137   0.292   5.566
 7573SOL    HW123618   0.224   0.277   5.520
 7573SOL    HW223619   0.130   0.389   5.593
 7574SOL     OW23620   5.096   0.802   5.267
 7574SOL    HW123621   5.072   0.809   5.170
 7574SOL    HW223622   5.093   0.706   5.295
 7575SOL     OW23623   5.491   0.843   6.085
 7575SOL    HW123624   5.444   0.892   6.158
 7575SOL    HW223625   5.530   0.908   6.021
 7576SOL     OW23626   5.599   2.732   0.715
 7576SOL    HW123627   5.593   2.779   0.627
 7576SOL    HW223628   5.577   2.796   0.788
 7577SOL     OW23629   0.449   6.752   6.736
 7577SOL    HW123630   0.438   6.780   6.641
 7577SOL    HW223631   0.485   6.828   6.790
 7578SOL     OW23632   3.455   5.768   1.860
 7578SOL    HW123633   3.361   5.766   1.825
 7578SOL    HW223634   3.483   5.862   1.875
 7579SOL     OW23635   0.392   0.907   2.633
 7579SOL    HW123636   0.335   0.845   2.579
 7579SOL    HW223637   0.430   0.856   2.711
 7580SOL     OW23638   0.943   3.952   4.261
 7580SOL    HW123639   0.898   3.863   4.254
 7580SOL    HW223640   0.900   4.005   4.334
 7581SOL     OW23641   6.986   1.879   2.304
 7581SOL    HW123642   0.000   1.842   2.219
 7581SOL    HW223643   0.014   1.961   2.331
 7582SOL     OW23644   3.647   1.458   2.441
 7582SOL    HW123645   3.747   1.464   2.445
 7582SOL    HW223646   3.608   1.549   2.434
 7583SOL     OW23647   5.710   2.681   2.384
 7583SOL    HW123648   5.647   2.681   2.307
 7583SOL    HW223649   5.659   2.683   2.470
 7584SOL     OW23650   3.263   0.388   2.786
 7584SOL    HW123651   3.272   0.465   2.850
 7584SOL    HW223652   3.324   0.314   2.813
 7585SOL     OW23653   1.690   2.639   6.498
 7585SOL    HW123654   1.710   2.730   6.463
 7585SOL    HW223655   1.591   2.624   6.502
 7586SOL     OW23656   2.530   0.046   4.042
 7586SOL    HW123657   2.528   6.977   4.002
 7586SOL    HW223658   2.614   0.092   4.014
 7587SOL     OW23659   2.145   2.022   6.727
 7587SOL    HW123660   2.221   1.957   6.723
 7587SOL    HW223661   2.127   2.046   6.823
 7588SOL     OW23662   1.326   2.842   3.711
 7588SOL    HW123663   1.267   2.773   3.670
 7588SOL    HW223664   1.419   2.805   3.719
 7589SOL     OW23665   0.451   0.493   2.378
 7589SOL    HW123666   0.530   0.493   2.317
 7589SOL    HW223667   0.381   0.431   2.343
 7590SOL     OW23668   3.864   2.421   6.674
 7590SOL    HW123669   3.840   2.330   6.710
 7590SOL    HW223670   3.784   2.480   6.678
 7591SOL     OW23671   6.645   3.916   0.948
 7591SOL    HW123672   6.630   3.992   0.884
 7591SOL    HW223673   6.581   3.924   1.024
 7592SOL     OW23674   6.937   5.490   5.190
 7592SOL    HW123675   6.971   5.565   5.133
 7592SOL    HW223676   7.011   5.456   5.248
 7593SOL     OW23677   6.530   2.564   0.253
 7593SOL    HW123678   6.584   2.480   0.241
 7593SOL    HW223679   6.527   2.588   0.350
 7594SOL     OW23680   1.588   4.503   2.447
 7594SOL    HW123681   1.658   4.496   2.376
 7594SOL    HW223682   1.631   4.505   2.537
 7595SOL     OW23683   6.102   2.744   5.737
 7595SOL    HW123684   6.182   2.800   5.715
 7595SOL    HW223685   6.090   2.673   5.669
 7596SOL     OW23686   3.919   6.125   3.334
 7596SOL    HW123687   3.948   6.200   3.274
 7596SOL    HW223688   3.870   6.163   3.412
 7597SOL     OW23689   1.763   6.753   3.159
 7597SOL    HW123690   1.771   6.687   3.234
 7597SOL    HW223691   1.814   6.721   3.080
 7598SOL     OW23692   6.288   1.224   3.020
 7598SOL    HW123693   6.349   1.273   3.083
 7598SOL    HW223694   6.314   1.128   3.017
 7599SOL     OW23695   5.391   2.020   2.313
 7599SOL    HW123696   5.406   2.118   2.302
 7599SOL    HW223697   5.477   1.971   2.299
 7600SOL     OW23698   1.495   1.364   3.641
 7600SOL    HW123699   1.541   1.449   3.667
 7600SOL    HW223700   1.538   1.327   3.558
 7601SOL     OW23701   2.038   4.629   2.369
 7601SOL    HW123702   2.110   4.620   2.439
 7601SOL    HW223703   1.965   4.688   2.404
 7602SOL     OW23704   2.544   3.908   6.967
 7602SOL    HW123705   2.454   3.865   6.956
 7602SOL    HW223706   2.571   3.952   6.881
 7603SOL     OW23707   1.268   5.938   6.361
 7603SOL    HW123708   1.305   6.016   6.411
 7603SOL    HW223709   1.295   5.853   6.406
 7604SOL     OW23710   1.807   3.435   4.382
 7604SOL    HW123711   1.750   3.514   4.365
 7604SOL    HW223712   1.899   3.465   4.407
 7605SOL     OW23713   1.287   0.910   1.326
 7605SOL    HW123714   1.360   0.869   1.272
 7605SOL    HW223715   1.198   0.874   1.296
 7606SOL     OW23716   5.870   3.911   4.690
 7606SOL    HW123717   5.933   3.834   4.680
 7606SOL    HW223718   5.861   3.935   4.786
 7607SOL     OW23719   3.666   4.886   6.967
 7607SOL    HW123720   3.568   4.879   6.949
 7607SOL    HW223721   3.687   4.978   7.001
 7608SOL     OW23722   3.964   4.168   1.367
 7608SOL    HW123723   3.866   4.184   1.353
 7608SOL    HW223724   3.977   4.077   1.406
 7609SOL     OW23725   1.757   2.392   4.460
 7609SOL    HW123726   1.735   2.479   4.418
 7609SOL    HW223727   1.730   2.394   4.557
 7610SOL     OW23728   4.128   4.774   6.490
 7610SOL    HW123729   4.201   4.793   6.425
 7610SOL    HW223730   4.079   4.691   6.462
 7611SOL     OW23731   5.769   4.131   1.789
 7611SOL    HW123732   5.824   4.194   1.735
 7611SOL    HW223733   5.726   4.064   1.727
 7612SOL     OW23734   5.034   3.320   2.537
 7612SOL    HW123735   4.984   3.275   2.611
 7612SOL    HW223736   4.969   3.364   2.475
 7613SOL     OW23737   0.003   2.463   0.929
 7613SOL    HW123738   6.937   2.490   0.893
 7613SOL    HW223739   7.020   2.459   1.029
 7614SOL     OW23740   5.507   3.176   0.903
 7614SOL    HW123741   5.585   3.188   0.841
 7614SOL    HW223742   5.524   3.226   0.988
 7615SOL     OW23743   4.087   4.942   0.112
 7615SOL    HW123744   4.178   4.960   0.074
 7615SOL    HW223745   4.039   4.878   0.053
 7616SOL     OW23746   6.272   6.250   4.680
 7616SOL    HW123747   6.227   6.313   4.618
 7616SOL    HW223748   6.212   6.172   4.699
 7617SOL     OW23749   3.797   6.380   3.144
 7617SOL    HW123750   3.857   6.326   3.086
 7617SOL    HW223751   3.851   6.429   3.212
 7618SOL     OW23752   0.095   2.441   5.914
 7618SOL    HW123753   0.032   2.372   5.878
 7618SOL    HW223754   0.055   2.532   5.900
 7619SOL     OW23755   7.022   3.211   4.792
 7619SOL    HW123756   0.016   3.172   4.701
 7619SOL    HW223757   6.957   3.152   4.841
 7620SOL     OW23758   4.011   5.821   1.534
 7620SOL    HW123759   4.090   5.860   1.581
 7620SOL    HW223760   4.040   5.740   1.483
 7621SOL     OW23761   6.504   0.988   0.862
 7621SOL    HW123762   6.479   1.040   0.781
 7621SOL    HW223763   6.489   0.891   0.845
 7622SOL     OW23764   3.983   4.927   6.663
 7622SOL    HW123765   4.032   4.873   6.595
 7622SOL    HW223766   4.037   4.930   6.748
 7623SOL     OW23767   5.139   3.295   6.625
 7623SOL    HW123768   5.093   3.359   6.687
 7623SOL    HW223769   5.075   3.263   6.556
 7624SOL     OW23770   6.909   4.127   5.161
 7624SOL    HW123771   6.861   4.111   5.075
 7624SOL    HW223772   6.843   4.138   5.236
 7625SOL     OW23773   5.010   1.050   0.157
 7625SOL    HW123774   5.074   1.109   0.108
 7625SOL    HW223775   5.038   0.955   0.146
 7626SOL     OW23776   6.339   0.178   4.599
 7626SOL    HW123777   6.247   0.152   4.627
 7626SOL    HW223778   6.405   0.115   4.639
 7627SOL     OW23779   4.919   3.033   0.390
 7627SOL    HW123780   4.877   2.945   0.412
 7627SOL    HW223781   5.009   3.018   0.349
 7628SOL     OW23782   3.263   2.467   1.648
 7628SOL    HW123783   3.170   2.433   1.633
 7628SOL    HW223784   3.321   2.393   1.681
 7629SOL     OW23785   0.403   4.779   3.610
 7629SOL    HW123786   0.450   4.693   3.627
 7629SOL    HW223787   0.408   4.837   3.692
 7630SOL     OW23788   0.804   0.533   1.468
 7630SOL    HW123789   0.800   0.479   1.384
 7630SOL    HW223790   0.892   0.518   1.514
 7631SOL     OW23791   0.714   1.699   6.155
 7631SOL    HW123792   0.694   1.621   6.214
 7631SOL    HW223793   0.698   1.784   6.206
 7632SOL     OW23794   5.073   4.332   1.109
 7632SOL    HW123795   5.152   4.333   1.170
 7632SOL    HW223796   5.021   4.248   1.122
 7633SOL     OW23797   5.260   0.211   1.918
 7633SOL    HW123798   5.343   0.239   1.967
 7633SOL    HW223799   5.224   0.127   1.958
 7634SOL     OW23800   2.035   1.562   1.957
 7634SOL    HW123801   1.942   1.595   1.938
 7634SOL    HW223802   2.037   1.519   2.047
 7635SOL     OW23803   3.749   4.920   5.210
 7635SOL    HW123804   3.775   4.888   5.301
 7635SOL    HW223805   3.650   4.932   5.205
 7636SOL     OW23806   1.844   3.152   3.920
 7636SOL    HW123807   1.846   3.069   3.976
 7636SOL    HW223808   1.775   3.215   3.957
 7637SOL     OW23809   2.970   6.352   2.201
 7637SOL    HW123810   2.893   6.398   2.245
 7637SOL    HW223811   2.954   6.350   2.102
 7638SOL     OW23812   1.871   6.149   1.328
 7638SOL    HW123813   1.790   6.197   1.294
 7638SOL    HW223814   1.844   6.061   1.365
 7639SOL     OW23815   0.326   1.750   1.330
 7639SOL    HW123816   0.356   1.814   1.260
 7639SOL    HW223817   0.257   1.794   1.388
 7640SOL     OW23818   3.089   1.791   5.908
 7640SOL    HW123819   3.174   1.803   5.856
 7640SOL    HW223820   3.111   1.778   6.004
 7641SOL     OW23821   1.443   4.055   2.345
 7641SOL    HW123822   1.434   4.128   2.276
 7641SOL    HW223823   1.471   3.970   2.301
 7642SOL     OW23824   3.725   2.058   2.681
 7642SOL    HW123825   3.695   1.963   2.679
 7642SOL    HW223826   3.817   2.065   2.645
 7643SOL     OW23827   4.738   2.447   3.090
 7643SOL    HW123828   4.761   2.409   3.180
 7643SOL    HW223829   4.782   2.393   3.019
 7644SOL     OW23830   4.420   2.338   2.135
 7644SOL    HW123831   4.453   2.379   2.050
 7644SOL    HW223832   4.436   2.402   2.210
 7645SOL     OW23833   5.199   3.615   5.216
 7645SOL    HW123834   5.118   3.660   5.253
 7645SOL    HW223835   5.265   3.599   5.289
 7646SOL     OW23836   2.089   2.785   3.653
 7646SOL    HW123837   2.024   2.728   3.703
 7646SOL    HW223838   2.043   2.829   3.576
 7647SOL     OW23839   0.347   2.234   3.533
 7647SOL    HW123840   0.322   2.330   3.529
 7647SOL    HW223841   0.346   2.204   3.629
 7648SOL     OW23842   2.826   1.617   2.616
 7648SOL    HW123843   2.757   1.643   2.684
 7648SOL    HW223844   2.807   1.666   2.530
 7649SOL     OW23845   0.779   0.921   3.717
 7649SOL    HW123846   0.843   0.858   3.673
 7649SOL    HW223847   0.822   0.961   3.798
 7650SOL     OW23848   5.664   1.362   0.547
 7650SOL    HW123849   5.753   1.319   0.541
 7650SOL    HW223850   5.596   1.304   0.501
 7651SOL     OW23851   1.976   0.342   4.122
 7651SOL    HW123852   2.073   0.362   4.110
 7651SOL    HW223853   1.965   0.254   4.167
 7652SOL     OW23854   6.428   3.183   4.477
 7652SOL    HW123855   6.347   3.138   4.439
 7652SOL    HW223856   6.486   3.115   4.522
 7653SOL     OW23857   0.409   1.941   0.023
 7653SOL    HW123858   0.462   1.968   6.965
 7653SOL    HW223859   0.329   2.000   0.031
 7654SOL     OW23860   4.875   3.164   4.493
 7654SOL    HW123861   4.836   3.253   4.516
 7654SOL    HW223862   4.871   3.151   4.393
 7655SOL     OW23863   4.487   6.744   3.131
 7655SOL    HW123864   4.533   6.832   3.118
 7655SOL    HW223865   4.452   6.739   3.224
 7656SOL     OW23866   3.972   3.821   6.854
 7656SOL    HW123867   3.991   3.911   6.815
 7656SOL    HW223868   3.888   3.783   6.814
 7657SOL     OW23869   1.322   1.968   3.520
 7657SOL    HW123870   1.384   1.894   3.544
 7657SOL    HW223871   1.335   2.044   3.583
 7658SOL     OW23872   2.848   0.356   6.907
 7658SOL    HW123873   2.870   0.262   6.880
 7658SOL    HW223874   2.784   0.395   6.841
 7659SOL     OW23875   5.450   4.554   6.273
 7659SOL    HW123876   5.379   4.514   6.214
 7659SOL    HW223877   5.438   4.653   6.277
 7660SOL     OW23878   0.236   5.622   3.185
 7660SOL    HW123879   0.191   5.536   3.206
 7660SOL    HW223880   0.311   5.605   3.121
 7661SOL     OW23881   5.523   2.167   5.398
 7661SOL    HW123882   5.514   2.189   5.301
 7661SOL    HW223883   5.556   2.073   5.407
 7662SOL     OW23884   1.835   3.170   4.639
 7662SOL    HW123885   1.782   3.086   4.630
 7662SOL    HW223886   1.777   3.242   4.677
 7663SOL     OW23887   6.346   4.848   6.139
 7663SOL    HW123888   6.428   4.898   6.110
 7663SOL    HW223889   6.306   4.802   6.060
 7664SOL     OW23890   4.150   0.711   1.897
 7664SOL    HW123891   4.199   0.743   1.816
 7664SOL    HW223892   4.165   0.776   1.973
 7665SOL     OW23893   5.724   0.889   4.608
 7665SOL    HW123894   5.626   0.904   4.590
 7665SOL    HW223895   5.739   0.890   4.707
 7666SOL     OW23896   0.718   4.755   2.347
 7666SOL    HW123897   0.780   4.695   2.297
 7666SOL    HW223898   0.720   4.732   2.444
 7667SOL     OW23899   4.299   0.145   2.721
 7667SOL    HW123900   4.281   0.058   2.767
 7667SOL    HW223901   4.240   0.216   2.759
 7668SOL     OW23902   3.150   4.998   0.457
 7668SOL    HW123903   3.153   4.968   0.552
 7668SOL    HW223904   3.214   4.943   0.403
 7669SOL     OW23905   4.808   0.668   5.001
 7669SOL    HW123906   4.899   0.707   5.012
 7669SOL    HW223907   4.755   0.726   4.939
 7670SOL     OW23908   0.920   4.533   0.402
 7670SOL    HW123909   0.872   4.450   0.372
 7670SOL    HW223910   0.887   4.559   0.493
 7671SOL     OW23911   3.775   1.518   2.077
 7671SOL    HW123912   3.839   1.450   2.113
 7671SOL    HW223913   3.737   1.570   2.153
 7672SOL     OW23914   0.053   6.346   3.002
 7672SOL    HW123915   0.080   6.314   2.911
 7672SOL    HW223916   0.113   6.305   3.071
 7673SOL     OW23917   1.487   6.609   1.489
 7673SOL    HW123918   1.553   6.640   1.420
 7673SOL    HW223919   1.523   6.629   1.580
 7674SOL     OW23920   4.573   1.120   3.657
 7674SOL    HW123921   4.557   1.026   3.627
 7674SOL    HW223922   4.498   1.150   3.715
 7675SOL     OW23923   6.315   6.948   2.839
 7675SOL    HW123924   6.271   0.015   2.837
 7675SOL    HW223925   6.396   6.949   2.780
 7676SOL     OW23926   2.494   1.763   0.214
 7676SOL    HW123927   2.588   1.796   0.203
 7676SOL    HW223928   2.431   1.832   0.180
 7677SOL     OW23929   1.263   4.378   1.370
 7677SOL    HW123930   1.243   4.353   1.464
 7677SOL    HW223931   1.362   4.371   1.353
 7678SOL     OW23932   2.400   2.794   5.254
 7678SOL    HW123933   2.422   2.891   5.241
 7678SOL    HW223934   2.313   2.774   5.209
 7679SOL     OW23935   3.021   6.751   5.876
 7679SOL    HW123936   3.081   6.684   5.918
 7679SOL    HW223937   3.065   6.790   5.795
 7680SOL     OW23938   1.552   0.279   0.757
 7680SOL    HW123939   1.519   0.190   0.725
 7680SOL    HW223940   1.486   0.318   0.822
 7681SOL     OW23941   2.839   0.595   1.074
 7681SOL    HW123942   2.844   0.512   1.019
 7681SOL    HW223943   2.769   0.585   1.144
 7682SOL     OW23944   3.660   0.363   2.377
 7682SOL    HW123945   3.730   0.354   2.306
 7682SOL    HW223946   3.700   0.408   2.457
 7683SOL     OW23947   6.391   2.442   4.190
 7683SOL    HW123948   6.452   2.369   4.221
 7683SOL    HW223949   6.438   2.498   4.121
 7684SOL     OW23950   3.905   1.754   1.367
 7684SOL    HW123951   3.885   1.688   1.440
 7684SOL    HW223952   3.834   1.748   1.297
 7685SOL     OW23953   2.959   1.553   5.801
 7685SOL    HW123954   3.001   1.641   5.826
 7685SOL    HW223955   2.941   1.500   5.884
 7686SOL     OW23956   0.300   6.307   3.600
 7686SOL    HW123957   0.346   6.391   3.628
 7686SOL    HW223958   0.351   6.263   3.526
 7687SOL     OW23959   6.103   5.363   4.095
 7687SOL    HW123960   6.050   5.400   4.171
 7687SOL    HW223961   6.096   5.263   4.094
 7688SOL     OW23962   0.808   5.793   5.368
 7688SOL    HW123963   0.854   5.859   5.427
 7688SOL    HW223964   0.873   5.757   5.301
 7689SOL     OW23965   5.905   6.385   2.755
 7689SOL    HW123966   5.955   6.448   2.696
 7689SOL    HW223967   5.869   6.309   2.700
 7690SOL     OW23968   6.068   4.438   0.161
 7690SOL    HW123969   5.990   4.423   0.100
 7690SOL    HW223970   6.141   4.372   0.138
 7691SOL     OW23971   4.884   3.856   3.600
 7691SOL    HW123972   4.980   3.884   3.599
 7691SOL    HW223973   4.878   3.758   3.578
 7692SOL     OW23974   0.759   6.021   1.705
 7692SOL    HW123975   0.728   5.937   1.661
 7692SOL    HW223976   0.732   6.100   1.649
 7693SOL     OW23977   3.098   6.848   1.784
 7693SOL    HW123978   3.182   6.895   1.812
 7693SOL    HW223979   3.027   6.916   1.765
 7694SOL     OW23980   4.841   3.952   4.103
 7694SOL    HW123981   4.837   3.852   4.109
 7694SOL    HW223982   4.902   3.978   4.028
 7695SOL     OW23983   4.463   0.153   1.027
 7695SOL    HW123984   4.448   0.091   0.950
 7695SOL    HW223985   4.460   0.102   1.112
 7696SOL     OW23986   0.513   1.252   5.978
 7696SOL    HW123987   0.427   1.202   5.978
 7696SOL    HW223988   0.586   1.194   6.014
 7697SOL     OW23989   2.461   0.167   3.360
 7697SOL    HW123990   2.479   0.099   3.289
 7697SOL    HW223991   2.363   0.189   3.360
 7698SOL     OW23992   5.647   1.990   3.738
 7698SOL    HW123993   5.649   1.962   3.834
 7698SOL    HW223994   5.691   1.919   3.683
 7699SOL     OW23995   3.110   6.323   6.147
 7699SOL    HW123996   3.074   6.380   6.220
 7699SOL    HW223997   3.035   6.278   6.098
 7700SOL     OW23998   5.042   5.679   3.120
 7700SOL    HW123999   5.076   5.591   3.086
 7700SOL    HW224000   4.944   5.686   3.100
 7701SOL     OW24001   6.164   2.106   6.724
 7701SOL    HW124002   6.086   2.094   6.663
 7701SOL    HW224003   6.217   2.186   6.696
 7702SOL     OW24004   3.895   6.502   5.102
 7702SOL    HW124005   3.928   6.487   5.195
 7702SOL    HW224006   3.797   6.521   5.104
 7703SOL     OW24007   6.196   6.556   5.972
 7703SOL    HW124008   6.115   6.507   6.003
 7703SOL    HW224009   6.200   6.554   5.872
 7704SOL     OW24010   5.698   0.445   4.150
 7704SOL    HW124011   5.709   0.447   4.249
 7704SOL    HW224012   5.744   0.524   4.110
 7705SOL     OW24013   2.527   6.343   0.644
 7705SOL    HW124014   2.586   6.270   0.679
 7705SOL    HW224015   2.538   6.425   0.700
 7706SOL     OW24016   3.471   3.778   5.002
 7706SOL    HW124017   3.434   3.871   4.997
 7706SOL    HW224018   3.570   3.780   4.988
 7707SOL     OW24019   0.602   3.918   5.778
 7707SOL    HW124020   0.564   3.834   5.740
 7707SOL    HW224021   0.677   3.896   5.840
 7708SOL     OW24022   0.737   6.769   5.657
 7708SOL    HW124023   0.808   6.792   5.591
 7708SOL    HW224024   0.666   6.839   5.656
 7709SOL     OW24025   6.800   4.888   2.350
 7709SOL    HW124026   6.770   4.835   2.270
 7709SOL    HW224027   6.773   4.840   2.434
 7710SOL     OW24028   3.517   2.599   0.243
 7710SOL    HW124029   3.543   2.592   0.339
 7710SOL    HW224030   3.458   2.678   0.229
 7711SOL     OW24031   5.480   6.416   6.136
 7711SOL    HW124032   5.562   6.383   6.089
 7711SOL    HW224033   5.492   6.407   6.235
 7712SOL     OW24034   6.747   5.160   1.443
 7712SOL    HW124035   6.812   5.161   1.519
 7712SOL    HW224036   6.728   5.254   1.414
 7713SOL     OW24037   1.833   4.230   0.626
 7713SOL    HW124038   1.916   4.285   0.623
 7713SOL    HW224039   1.817   4.188   0.537
 7714SOL     OW24040   0.225   4.454   5.465
 7714SOL    HW124041   0.188   4.447   5.558
 7714SOL    HW224042   0.175   4.394   5.404
 7715SOL     OW24043   3.018   2.425   0.276
 7715SOL    HW124044   3.063   2.431   0.365
 7715SOL    HW224045   3.027   2.512   0.227
 7716SOL     OW24046   0.188   4.779   1.573
 7716SOL    HW124047   0.181   4.876   1.598
 7716SOL    HW224048   0.223   4.772   1.479
 7717SOL     OW24049   1.295   0.905   5.865
 7717SOL    HW124050   1.304   0.862   5.955
 7717SOL    HW224051   1.208   0.954   5.859
 7718SOL     OW24052   6.540   4.320   3.562
 7718SOL    HW124053   6.621   4.350   3.613
 7718SOL    HW224054   6.517   4.387   3.492
 7719SOL     OW24055   0.253   4.138   5.090
 7719SOL    HW124056   0.188   4.078   5.044
 7719SOL    HW224057   0.296   4.089   5.166
 7720SOL     OW24058   6.664   2.638   6.500
 7720SOL    HW124059   6.678   2.605   6.407
 7720SOL    HW224060   6.691   2.734   6.507
 7721SOL     OW24061   0.627   5.363   2.374
 7721SOL    HW124062   0.571   5.373   2.456
 7721SOL    HW224063   0.599   5.282   2.323
 7722SOL     OW24064   1.362   3.846   3.546
 7722SOL    HW124065   1.293   3.778   3.572
 7722SOL    HW224066   1.332   3.937   3.576
 7723SOL     OW24067   4.472   3.378   6.470
 7723SOL    HW124068   4.551   3.400   6.413
 7723SOL    HW224069   4.388   3.398   6.420
 7724SOL     OW24070   2.918   3.679   1.006
 7724SOL    HW124071   2.904   3.589   0.966
 7724SOL    HW224072   2.923   3.672   1.106
 7725SOL     OW24073   5.991   1.306   2.482
 7725SOL    HW124074   5.945   1.386   2.522
 7725SOL    HW224075   6.083   1.333   2.451
 7726SOL     OW24076   1.992   5.183   5.647
 7726SOL    HW124077   2.002   5.255   5.716
 7726SOL    HW224078   2.064   5.193   5.578
 7727SOL     OW24079   6.500   2.650   2.660
 7727SOL    HW124080   6.539   2.645   2.752
 7727SOL    HW224081   6.443   2.570   2.643
 7728SOL     OW24082   2.229   3.080   5.295
 7728SOL    HW124083   2.267   3.171   5.315
 7728SOL    HW224084   2.294   3.028   5.240
 7729SOL     OW24085   6.142   1.898   1.203
 7729SOL    HW124086   6.055   1.947   1.205
 7729SOL    HW224087   6.147   1.843   1.120
 7730SOL     OW24088   6.559   5.114   6.935
 7730SOL    HW124089   6.595   5.079   7.022
 7730SOL    HW224090   6.542   5.212   6.944
 7731SOL     OW24091   6.003   1.022   0.117
 7731SOL    HW124092   5.913   1.028   0.161
 7731SOL    HW224093   6.048   0.937   0.142
 7732SOL     OW24094   4.631   6.554   0.598
 7732SOL    HW124095   4.650   6.542   0.696
 7732SOL    HW224096   4.556   6.620   0.587
 7733SOL     OW24097   5.591   6.149   2.220
 7733SOL    HW124098   5.690   6.140   2.228
 7733SOL    HW224099   5.569   6.193   2.132
 7734SOL     OW24100   1.513   4.715   4.046
 7734SOL    HW124101   1.499   4.753   4.137
 7734SOL    HW224102   1.482   4.782   3.978
 7735SOL     OW24103   4.919   6.375   6.474
 7735SOL    HW124104   4.919   6.388   6.375
 7735SOL    HW224105   4.848   6.432   6.515
 7736SOL     OW24106   2.415   2.741   0.016
 7736SOL    HW124107   2.510   2.766   7.016
 7736SOL    HW224108   2.410   2.642   0.031
 7737SOL     OW24109   2.951   7.016   2.810
 7737SOL    HW124110   2.887   6.947   2.776
 7737SOL    HW224111   2.924   0.084   2.776
 7738SOL     OW24112   3.131   5.434   0.251
 7738SOL    HW124113   3.223   5.471   0.258
 7738SOL    HW224114   3.066   5.498   0.292
 7739SOL     OW24115   0.240   2.404   2.115
 7739SOL    HW124116   0.253   2.419   2.213
 7739SOL    HW224117   0.151   2.441   2.087
 7740SOL     OW24118   2.677   0.625   3.216
 7740SOL    HW124119   2.732   0.593   3.293
 7740SOL    HW224120   2.647   0.547   3.161
 7741SOL     OW24121   0.083   4.805   5.983
 7741SOL    HW124122   0.162   4.837   5.931
 7741SOL    HW224123   0.006   4.790   5.921
 7742SOL     OW24124   4.294   2.245   2.868
 7742SOL    HW124125   4.337   2.157   2.889
 7742SOL    HW224126   4.195   2.235   2.867
 7743SOL     OW24127   5.100   1.842   0.031
 7743SOL    HW124128   5.058   1.788   6.980
 7743SOL    HW224129   5.050   1.825   0.116
 7744SOL     OW24130   0.768   0.868   4.532
 7744SOL    HW124131   0.690   0.930   4.535
 7744SOL    HW224132   0.822   0.877   4.616
 7745SOL     OW24133   4.120   1.086   6.852
 7745SOL    HW124134   4.067   1.001   6.853
 7745SOL    HW224135   4.195   1.079   6.917
 7746SOL     OW24136   0.877   0.649   0.423
 7746SOL    HW124137   0.805   0.636   0.491
 7746SOL    HW224138   0.916   0.741   0.433
 7747SOL     OW24139   5.634   6.228   1.147
 7747SOL    HW124140   5.611   6.160   1.078
 7747SOL    HW224141   5.575   6.217   1.227
 7748SOL     OW24142   3.445   3.746   4.628
 7748SOL    HW124143   3.346   3.758   4.639
 7748SOL    HW224144   3.469   3.652   4.652
 7749SOL     OW24145   3.468   3.355   5.682
 7749SOL    HW124146   3.497   3.341   5.588
 7749SOL    HW224147   3.388   3.298   5.701
 7750SOL     OW24148   6.966   5.558   0.643
 7750SOL    HW124149   6.991   5.499   0.720
 7750SOL    HW224150   6.939   5.501   0.565
 7751SOL     OW24151   1.444   2.877   3.032
 7751SOL    HW124152   1.414   2.908   2.941
 7751SOL    HW224153   1.536   2.911   3.050
 7752SOL     OW24154   5.861   6.140   5.162
 7752SOL    HW124155   5.891   6.235   5.161
 7752SOL    HW224156   5.823   6.116   5.072
 7753SOL     OW24157   2.104   0.360   4.520
 7753SOL    HW124158   2.073   0.295   4.588
 7753SOL    HW224159   2.027   0.417   4.490
 7754SOL     OW24160   4.942   0.083   1.590
 7754SOL    HW124161   4.971   7.015   1.621
 7754SOL    HW224162   4.863   0.112   1.644
 7755SOL     OW24163   1.391   2.116   5.600
 7755SOL    HW124164   1.431   2.067   5.679
 7755SOL    HW224165   1.465   2.151   5.543
 7756SOL     OW24166   3.495   5.540   1.694
 7756SOL    HW124167   3.519   5.597   1.773
 7756SOL    HW224168   3.459   5.452   1.726
 7757SOL     OW24169   5.666   5.867   5.266
 7757SOL    HW124170   5.567   5.856   5.254
 7757SOL    HW224171   5.713   5.844   5.181
 7758SOL     OW24172   1.342   1.576   6.164
 7758SOL    HW124173   1.387   1.641   6.225
 7758SOL    HW224174   1.261   1.539   6.209
 7759SOL     OW24175   1.209   1.792   5.675
 7759SOL    HW124176   1.276   1.815   5.605
 7759SOL    HW224177   1.141   1.865   5.682
 7760SOL     OW24178   5.628   3.613   2.589
 7760SOL    HW124179   5.581   3.699   2.611
 7760SOL    HW224180   5.560   3.544   2.566
 7761SOL     OW24181   0.958   0.352   6.081
 7761SOL    HW124182   0.963   0.384   5.987
 7761SOL    HW224183   0.863   0.357   6.113
 7762SOL     OW24184   4.445   0.506   4.005
 7762SOL    HW124185   4.356   0.547   3.985
 7762SOL    HW224186   4.437   0.450   4.087
 7763SOL     OW24187   1.115   1.368   6.998
 7763SOL    HW124188   1.128   1.382   0.074
 7763SOL    HW224189   1.169   1.290   6.968
 7764SOL     OW24190   3.481   2.869   3.040
 7764SOL    HW124191   3.473   2.900   3.135
 7764SOL    HW224192   3.576   2.843   3.022
 7765SOL     OW24193   6.285   2.923   4.048
 7765SOL    HW124194   6.354   2.852   4.040
 7765SOL    HW224195   6.197   2.882   4.074
 7766SOL     OW24196   6.087   2.746   6.815
 7766SOL    HW124197   6.091   2.650   6.842
 7766SOL    HW224198   6.176   2.775   6.780
 7767SOL     OW24199   4.299   5.670   2.945
 7767SOL    HW124200   4.199   5.671   2.947
 7767SOL    HW224201   4.333   5.763   2.957
 7768SOL     OW24202   4.373   4.592   2.139
 7768SOL    HW124203   4.346   4.673   2.087
 7768SOL    HW224204   4.308   4.518   2.121
 7769SOL     OW24205   5.004   2.937   3.101
 7769SOL    HW124206   4.917   2.890   3.116
 7769SOL    HW224207   5.069   2.874   3.059
 7770SOL     OW24208   1.817   4.222   2.600
 7770SOL    HW124209   1.870   4.162   2.540
 7770SOL    HW224210   1.721   4.197   2.596
 7771SOL     OW24211   3.472   2.270   5.276
 7771SOL    HW124212   3.416   2.342   5.234
 7771SOL    HW224213   3.454   2.267   5.374
 7772SOL     OW24214   4.998   0.195   2.489
 7772SOL    HW124215   4.989   0.098   2.467
 7772SOL    HW224216   4.969   0.250   2.410
 7773SOL     OW24217   2.443   5.496   4.760
 7773SOL    HW124218   2.525   5.455   4.801
 7773SOL    HW224219   2.362   5.462   4.808
 7774SOL     OW24220   5.540   1.809   5.748
 7774SOL    HW124221   5.478   1.840   5.676
 7774SOL    HW224222   5.495   1.738   5.802
 7775SOL     OW24223   5.266   6.171   2.109
 7775SOL    HW124224   5.220   6.229   2.042
 7775SOL    HW224225   5.317   6.229   2.173
 7776SOL     OW24226   1.530   4.967   6.707
 7776SOL    HW124227   1.625   4.941   6.719
 7776SOL    HW224228   1.518   5.063   6.732
 7777SOL     OW24229   0.364   0.188   4.548
 7777SOL    HW124230   0.450   0.141   4.570
 7777SOL    HW224231   0.372   0.285   4.573
 7778SOL     OW24232   5.484   4.116   0.925
 7778SOL    HW124233   5.422   4.139   0.850
 7778SOL    HW224234   5.436   4.058   0.991
 7779SOL     OW24235   2.480   2.612   1.743
 7779SOL    HW124236   2.412   2.661   1.797
 7779SOL    HW224237   2.560   2.671   1.727
 7780SOL     OW24238   1.047   4.459   5.311
 7780SOL    HW124239   0.948   4.449   5.314
 7780SOL    HW224240   1.077   4.513   5.390
 7781SOL     OW24241   1.246   4.687   0.288
 7781SOL    HW124242   1.322   4.718   0.231
 7781SOL    HW224243   1.197   4.766   0.325
 7782SOL     OW24244   6.568   4.766   4.819
 7782SOL    HW124245   6.558   4.829   4.896
 7782SOL    HW224246   6.655   4.718   4.827
 7783SOL     OW24247   0.835   5.863   4.962
 7783SOL    HW124248   0.850   5.786   5.024
 7783SOL    HW224249   0.753   5.846   4.907
 7784SOL     OW24250   3.069   2.768   1.510
 7784SOL    HW124251   3.030   2.730   1.594
 7784SOL    HW224252   3.095   2.694   1.448
 7785SOL     OW24253   1.999   5.382   3.951
 7785SOL    HW124254   2.006   5.335   3.863
 7785SOL    HW224255   1.916   5.351   3.999
 7786SOL     OW24256   2.993   6.291   0.019
 7786SOL    HW124257   2.965   6.333   6.955
 7786SOL    HW224258   3.074   6.337   0.053
 7787SOL     OW24259   2.223   2.785   6.662
 7787SOL    HW124260   2.246   2.867   6.715
 7787SOL    HW224261   2.287   2.776   6.586
 7788SOL     OW24262   2.665   5.495   1.363
 7788SOL    HW124263   2.627   5.459   1.277
 7788SOL    HW224264   2.599   5.558   1.405
 7789SOL     OW24265   1.814   6.682   6.244
 7789SOL    HW124266   1.813   6.593   6.289
 7789SOL    HW224267   1.779   6.752   6.306
 7790SOL     OW24268   5.816   5.858   3.231
 7790SOL    HW124269   5.831   5.858   3.329
 7790SOL    HW224270   5.905   5.855   3.183
 7791SOL     OW24271   2.015   5.819   3.420
 7791SOL    HW124272   2.114   5.833   3.416
 7791SOL    HW224273   1.969   5.907   3.427
 7792SOL     OW24274   1.525   5.138   4.524
 7792SOL    HW124275   1.606   5.108   4.473
 7792SOL    HW224276   1.459   5.177   4.460
 7793SOL     OW24277   3.594   0.734   0.456
 7793SOL    HW124278   3.547   0.664   0.510
 7793SOL    HW224279   3.588   0.710   0.359
 7794SOL     OW24280   6.468   4.525   2.841
 7794SOL    HW124281   6.545   4.472   2.876
 7794SOL    HW224282   6.400   4.538   2.914
 7795SOL     OW24283   2.079   4.279   5.323
 7795SOL    HW124284   2.138   4.350   5.363
 7795SOL    HW224285   2.136   4.205   5.287
 7796SOL     OW24286   3.790   3.908   3.534
 7796SOL    HW124287   3.694   3.935   3.540
 7796SOL    HW224288   3.836   3.932   3.619
 7797SOL     OW24289   1.319   0.098   3.166
 7797SOL    HW124290   1.337   0.008   3.207
 7797SOL    HW224291   1.401   0.129   3.117
 7798SOL     OW24292   2.391   4.357   5.575
 7798SOL    HW124293   2.293   4.373   5.570
 7798SOL    HW224294   2.417   4.282   5.514
 7799SOL     OW24295   1.058   6.275   2.415
 7799SOL    HW124296   1.109   6.361   2.408
 7799SOL    HW224297   1.098   6.220   2.488
 7800SOL     OW24298   1.101   5.465   1.537
 7800SOL    HW124299   1.004   5.487   1.522
 7800SOL    HW224300   1.158   5.538   1.499
 7801SOL     OW24301   2.356   1.923   1.439
 7801SOL    HW124302   2.283   1.855   1.432
 7801SOL    HW224303   2.444   1.877   1.453
 7802SOL     OW24304   6.138   2.916   1.100
 7802SOL    HW124305   6.186   2.829   1.082
 7802SOL    HW224306   6.042   2.907   1.075
 7803SOL     OW24307   4.821   1.754   6.040
 7803SOL    HW124308   4.729   1.785   6.018
 7803SOL    HW224309   4.816   1.679   6.107
 7804SOL     OW24310   5.127   2.254   3.688
 7804SOL    HW124311   5.043   2.295   3.653
 7804SOL    HW224312   5.145   2.170   3.637
 7805SOL     OW24313   5.665   2.751   1.161
 7805SOL    HW124314   5.697   2.702   1.241
 7805SOL    HW224315   5.566   2.738   1.151
 7806SOL     OW24316   5.550   1.649   0.209
 7806SOL    HW124317   5.480   1.684   0.147
 7806SOL    HW224318   5.631   1.623   0.157
 7807SOL     OW24319   1.738   4.530   5.538
 7807SOL    HW124320   1.821   4.583   5.557
 7807SOL    HW224321   1.748   4.483   5.451
 7808SOL     OW24322   6.569   3.087   3.619
 7808SOL    HW124323   6.517   3.082   3.535
 7808SOL    HW224324   6.510   3.065   3.697
 7809SOL     OW24325   2.872   5.205   3.663
 7809SOL    HW124326   2.822   5.287   3.636
 7809SOL    HW224327   2.948   5.191   3.600
 7810SOL     OW24328   3.358   0.178   4.401
 7810SOL    HW124329   3.363   0.116   4.323
 7810SOL    HW224330   3.442   0.169   4.456
 7811SOL     OW24331   1.917   5.453   2.397
 7811SOL    HW124332   1.976   5.465   2.316
 7811SOL    HW224333   1.941   5.368   2.444
 7812SOL     OW24334   0.251   1.817   4.213
 7812SOL    HW124335   0.186   1.807   4.137
 7812SOL    HW224336   0.343   1.797   4.181
 7813SOL     OW24337   5.039   2.693   0.138
 7813SOL    HW124338   5.018   2.618   0.075
 7813SOL    HW224339   4.953   2.736   0.168
 7814SOL     OW24340   0.100   3.429   3.112
 7814SOL    HW124341   0.059   3.397   3.197
 7814SOL    HW224342   0.181   3.374   3.091
 7815SOL     OW24343   5.515   0.527   5.717
 7815SOL    HW124344   5.446   0.599   5.715
 7815SOL    HW224345   5.483   0.451   5.774
 7816SOL     OW24346   1.969   1.946   6.150
 7816SOL    HW124347   2.033   2.023   6.156
 7816SOL    HW224348   1.889   1.966   6.206
 7817SOL     OW24349   5.677   4.943   3.152
 7817SOL    HW124350   5.616   5.021   3.165
 7817SOL    HW224351   5.651   4.893   3.069
 7818SOL     OW24352   4.110   0.470   2.100
 7818SOL    HW124353   4.179   0.479   2.172
 7818SOL    HW224354   4.121   0.544   2.034
 7819SOL     OW24355   0.342   4.170   1.616
 7819SOL    HW124356   0.317   4.137   1.707
 7819SOL    HW224357   0.418   4.234   1.623
 7820SOL     OW24358   1.648   2.188   5.973
 7820SOL    HW124359   1.555   2.155   5.994
 7820SOL    HW224360   1.711   2.155   6.044
 7821SOL     OW24361   5.654   5.993   0.142
 7821SOL    HW124362   5.603   5.945   0.071
 7821SOL    HW224363   5.691   5.927   0.207
 7822SOL     OW24364   2.411   2.078   6.370
 7822SOL    HW124365   2.369   2.115   6.454
 7822SOL    HW224366   2.446   2.153   6.315
 7823SOL     OW24367   2.644   4.050   5.347
 7823SOL    HW124368   2.588   4.031   5.267
 7823SOL    HW224369   2.592   4.102   5.414
 7824SOL     OW24370   6.268   0.498   4.163
 7824SOL    HW124371   6.244   0.555   4.085
 7824SOL    HW224372   6.366   0.505   4.181
 7825SOL     OW24373   1.644   2.826   0.986
 7825SOL    HW124374   1.679   2.909   1.029
 7825SOL    HW224375   1.671   2.747   1.041
 7826SOL     OW24376   6.651   1.611   0.304
 7826SOL    HW124377   6.605   1.657   0.381
 7826SOL    HW224378   6.750   1.617   0.316
 7827SOL     OW24379   2.681   5.782   0.780
 7827SOL    HW124380   2.749   5.837   0.828
 7827SOL    HW224381   2.621   5.737   0.847
 7828SOL     OW24382   1.223   4.537   6.685
 7828SOL    HW124383   1.185   4.490   6.764
 7828SOL    HW224384   1.267   4.471   6.625
 7829SOL     OW24385   2.801   3.761   1.504
 7829SOL    HW124386   2.800   3.856   1.475
 7829SOL    HW224387   2.895   3.730   1.515
 7830SOL     OW24388   2.482   4.850   5.606
 7830SOL    HW124389   2.454   4.838   5.701
 7830SOL    HW224390   2.476   4.763   5.558
 7831SOL     OW24391   1.806   6.477   0.801
 7831SOL    HW124392   1.839   6.406   0.863
 7831SOL    HW224393   1.710   6.459   0.779
 7832SOL     OW24394   4.657   1.285   3.466
 7832SOL    HW124395   4.706   1.224   3.405
 7832SOL    HW224396   4.595   1.232   3.524
 7833SOL     OW24397   0.919   1.248   6.638
 7833SOL    HW124398   0.978   1.326   6.656
 7833SOL    HW224399   0.934   1.178   6.708
 7834SOL     OW24400   6.621   1.860   3.682
 7834SOL    HW124401   6.712   1.887   3.715
 7834SOL    HW224402   6.625   1.848   3.582
 7835SOL     OW24403   3.652   2.350   5.735
 7835SOL    HW124404   3.671   2.445   5.711
 7835SOL    HW224405   3.719   2.318   5.802
 7836SOL     OW24406   3.103   3.087   4.982
 7836SOL    HW124407   3.122   3.147   5.060
 7836SOL    HW224408   3.049   3.138   4.914
 7837SOL     OW24409   6.810   5.478   0.377
 7837SOL    HW124410   6.776   5.447   0.466
 7837SOL    HW224411   6.755   5.556   0.346
 7838SOL     OW24412   4.368   6.807   0.231
 7838SOL    HW124413   4.288   6.755   0.260
 7838SOL    HW224414   4.362   6.900   0.268
 7839SOL     OW24415   5.832   4.681   4.878
 7839SOL    HW124416   5.777   4.763   4.893
 7839SOL    HW224417   5.858   4.642   4.966
 7840SOL     OW24418   6.761   2.575   4.098
 7840SOL    HW124419   6.842   2.628   4.074
 7840SOL    HW224420   6.680   2.634   4.092
 7841SOL     OW24421   3.927   2.135   6.500
 7841SOL    HW124422   3.994   2.072   6.458
 7841SOL    HW224423   3.957   2.229   6.484
 7842SOL     OW24424   2.404   2.204   2.447
 7842SOL    HW124425   2.375   2.197   2.543
 7842SOL    HW224426   2.323   2.208   2.388
 7843SOL     OW24427   6.834   5.693   2.923
 7843SOL    HW124428   6.742   5.711   2.889
 7843SOL    HW224429   6.853   5.753   3.001
 7844SOL     OW24430   3.834   6.900   2.385
 7844SOL    HW124431   3.921   6.854   2.400
 7844SOL    HW224432   3.847   6.999   2.389
 7845SOL     OW24433   5.423   1.930   3.533
 7845SOL    HW124434   5.491   1.996   3.566
 7845SOL    HW224435   5.428   1.923   3.434
 7846SOL     OW24436   0.613   1.312   2.037
 7846SOL    HW124437   0.653   1.378   2.100
 7846SOL    HW224438   0.570   1.361   1.961
 7847SOL     OW24439   6.702   1.962   3.207
 7847SOL    HW124440   6.643   1.992   3.132
 7847SOL    HW224441   6.711   1.863   3.205
 7848SOL     OW24442   4.056   3.893   0.419
 7848SOL    HW124443   4.079   3.824   0.350
 7848SOL    HW224444   4.129   3.962   0.423
 7849SOL     OW24445   5.713   4.367   4.085
 7849SOL    HW124446   5.712   4.320   4.173
 7849SOL    HW224447   5.655   4.449   4.090
 7850SOL     OW24448   0.909   2.270   4.591
 7850SOL    HW124449   0.908   2.170   4.603
 7850SOL    HW224450   0.986   2.295   4.532
 7851SOL     OW24451   6.599   1.356   1.705
 7851SOL    HW124452   6.656   1.276   1.687
 7851SOL    HW224453   6.634   1.434   1.652
 7852SOL     OW24454   2.432   1.849   6.145
 7852SOL    HW124455   2.377   1.766   6.159
 7852SOL    HW224456   2.400   1.920   6.207
 7853SOL     OW24457   4.752   2.034   1.602
 7853SOL    HW124458   4.783   1.951   1.648
 7853SOL    HW224459   4.753   2.110   1.667
 7854SOL     OW24460   3.882   3.248   0.236
 7854SOL    HW124461   3.891   3.314   0.161
 7854SOL    HW224462   3.841   3.163   0.201
 7855SOL     OW24463   4.806   5.894   4.016
 7855SOL    HW124464   4.772   5.959   4.084
 7855SOL    HW224465   4.897   5.923   3.986
 7856SOL     OW24466   6.397   4.737   5.327
 7856SOL    HW124467   6.442   4.804   5.387
 7856SOL    HW224468   6.298   4.754   5.326
 7857SOL     OW24469   5.663   1.382   5.630
 7857SOL    HW124470   5.718   1.300   5.613
 7857SOL    HW224471   5.566   1.360   5.615
 7858SOL     OW24472   5.617   6.540   3.902
 7858SOL    HW124473   5.594   6.481   3.824
 7858SOL    HW224474   5.537   6.592   3.929
 7859SOL     OW24475   4.482   2.766   6.792
 7859SOL    HW124476   4.524   2.857   6.792
 7859SOL    HW224477   4.399   2.768   6.847
 7860SOL     OW24478   3.170   0.254   2.563
 7860SOL    HW124479   3.196   0.313   2.640
 7860SOL    HW224480   3.071   0.239   2.565
 7861SOL     OW24481   3.563   4.922   1.737
 7861SOL    HW124482   3.542   4.864   1.816
 7861SOL    HW224483   3.662   4.923   1.722
 7862SOL     OW24484   2.181   3.921   1.550
 7862SOL    HW124485   2.215   3.838   1.594
 7862SOL    HW224486   2.253   3.990   1.548
 7863SOL     OW24487   0.389   4.953   3.840
 7863SOL    HW124488   0.374   5.047   3.811
 7863SOL    HW224489   0.322   4.928   3.909
 7864SOL     OW24490   0.412   5.401   5.578
 7864SOL    HW124491   0.474   5.434   5.649
 7864SOL    HW224492   0.402   5.301   5.586
 7865SOL     OW24493   6.270   6.637   3.793
 7865SOL    HW124494   6.323   6.691   3.858
 7865SOL    HW224495   6.173   6.638   3.819
 7866SOL     OW24496   1.655   1.382   6.362
 7866SOL    HW124497   1.658   1.309   6.294
 7866SOL    HW224498   1.570   1.375   6.415
 7867SOL     OW24499   5.979   6.175   3.882
 7867SOL    HW124500   6.014   6.145   3.794
 7867SOL    HW224501   6.023   6.124   3.955
 7868SOL     OW24502   5.075   6.010   1.619
 7868SOL    HW124503   5.101   6.006   1.716
 7868SOL    HW224504   4.982   5.976   1.608
 7869SOL     OW24505   6.178   3.883   0.641
 7869SOL    HW124506   6.213   3.819   0.572
 7869SOL    HW224507   6.080   3.896   0.627
 7870SOL     OW24508   3.944   4.965   3.860
 7870SOL    HW124509   3.890   4.940   3.940
 7870SOL    HW224510   3.991   5.052   3.877
 7871SOL     OW24511   4.937   2.939   2.465
 7871SOL    HW124512   4.888   2.897   2.389
 7871SOL    HW224513   5.017   2.988   2.430
 7872SOL     OW24514   2.173   3.971   3.238
 7872SOL    HW124515   2.167   3.926   3.148
 7872SOL    HW224516   2.189   3.902   3.308
 7873SOL     OW24517   5.608   0.266   5.913
 7873SOL    HW124518   5.695   0.281   5.868
 7873SOL    HW224519   5.610   0.306   6.005
 7874SOL     OW24520   5.206   2.083   0.164
 7874SOL    HW124521   5.175   2.005   0.109
 7874SOL    HW224522   5.172   2.073   0.258
 7875SOL     OW24523   4.777   2.804   6.968
 7875SOL    HW124524   4.754   2.796   0.042
 7875SOL    HW224525   4.724   2.878   6.926
 7876SOL     OW24526   1.070   0.165   4.967
 7876SOL    HW124527   1.095   0.235   5.034
 7876SOL    HW224528   1.141   0.158   4.897
 7877SOL     OW24529   0.695   2.206   2.930
 7877SOL    HW124530   0.682   2.146   3.008
 7877SOL    HW224531   0.745   2.157   2.858
 7878SOL     OW24532   5.460   4.583   4.870
 7878SOL    HW124533   5.464   4.681   4.849
 7878SOL    HW224534   5.394   4.568   4.944
 7879SOL     OW24535   4.055   5.035   3.166
 7879SOL    HW124536   4.048   4.990   3.255
 7879SOL    HW224537   4.147   5.021   3.128
 7880SOL     OW24538   1.670   5.390   0.814
 7880SOL    HW124539   1.662   5.290   0.811
 7880SOL    HW224540   1.602   5.427   0.877
 7881SOL     OW24541   6.520   4.464   4.565
 7881SOL    HW124542   6.433   4.507   4.590
 7881SOL    HW224543   6.503   4.391   4.499
 7882SOL     OW24544   1.042   2.887   1.439
 7882SOL    HW124545   1.108   2.880   1.514
 7882SOL    HW224546   1.090   2.911   1.355
 7883SOL     OW24547   0.982   0.574   0.761
 7883SOL    HW124548   0.893   0.614   0.738
 7883SOL    HW224549   1.010   0.603   0.853
 7884SOL     OW24550   2.086   3.664   4.413
 7884SOL    HW124551   2.137   3.582   4.391
 7884SOL    HW224552   2.096   3.731   4.339
 7885SOL     OW24553   6.587   4.850   1.624
 7885SOL    HW124554   6.681   4.829   1.596
 7885SOL    HW224555   6.523   4.803   1.563
 7886SOL     OW24556   2.986   5.342   6.600
 7886SOL    HW124557   2.897   5.385   6.611
 7886SOL    HW224558   3.039   5.352   6.684
 7887SOL     OW24559   3.482   2.808   5.213
 7887SOL    HW124560   3.430   2.876   5.161
 7887SOL    HW224561   3.433   2.721   5.211
 7888SOL     OW24562   6.226   0.362   5.217
 7888SOL    HW124563   6.193   0.281   5.168
 7888SOL    HW224564   6.320   0.347   5.246
 7889SOL     OW24565   1.884   4.991   0.697
 7889SOL    HW124566   1.958   5.057   0.701
 7889SOL    HW224567   1.807   5.023   0.752
 7890SOL     OW24568   1.372   2.420   3.093
 7890SOL    HW124569   1.407   2.327   3.104
 7890SOL    HW224570   1.448   2.484   3.088
 7891SOL     OW24571   2.196   3.925   3.684
 7891SOL    HW124572   2.192   3.887   3.777
 7891SOL    HW224573   2.284   3.971   3.670
 7892SOL     OW24574   2.082   0.873   3.718
 7892SOL    HW124575   1.984   0.854   3.713
 7892SOL    HW224576   2.130   0.818   3.650
 7893SOL     OW24577   6.642   6.275   2.839
 7893SOL    HW124578   6.592   6.317   2.763
 7893SOL    HW224579   6.580   6.216   2.891
 7894SOL     OW24580   3.947   6.732   0.208
 7894SOL    HW124581   3.866   6.701   0.257
 7894SOL    HW224582   3.943   6.832   0.198
 7895SOL     OW24583   5.659   0.560   5.187
 7895SOL    HW124584   5.749   0.580   5.148
 7895SOL    HW224585   5.670   0.526   5.281
 7896SOL     OW24586   4.839   3.521   0.843
 7896SOL    HW124587   4.921   3.476   0.807
 7896SOL    HW224588   4.769   3.453   0.863
 7897SOL     OW24589   2.951   3.917   6.924
 7897SOL    HW124590   3.047   3.898   6.901
 7897SOL    HW224591   2.914   3.985   6.861
 7898SOL     OW24592   4.307   2.006   3.025
 7898SOL    HW124593   4.235   2.024   3.092
 7898SOL    HW224594   4.366   1.933   3.059
 7899SOL     OW24595   5.803   0.719   1.424
 7899SOL    HW124596   5.833   0.685   1.336
 7899SOL    HW224597   5.871   0.783   1.461
 7900SOL     OW24598   1.744   4.882   2.084
 7900SOL    HW124599   1.834   4.864   2.122
 7900SOL    HW224600   1.696   4.795   2.071
 7901SOL     OW24601   4.841   1.431   6.648
 7901SOL    HW124602   4.882   1.352   6.695
 7901SOL    HW224603   4.819   1.502   6.715
 7902SOL     OW24604   5.856   6.731   1.244
 7902SOL    HW124605   5.828   6.819   1.205
 7902SOL    HW224606   5.789   6.661   1.218
 7903SOL     OW24607   5.577   1.533   0.742
 7903SOL    HW124608   5.591   1.527   0.840
 7903SOL    HW224609   5.645   1.475   0.695
 7904SOL     OW24610   5.585   0.427   3.535
 7904SOL    HW124611   5.580   0.475   3.447
 7904SOL    HW224612   5.526   0.473   3.601
 7905SOL     OW24613   4.606   2.300   0.190
 7905SOL    HW124614   4.691   2.319   0.239
 7905SOL    HW224615   4.627   2.250   0.106
 7906SOL     OW24616   0.472   5.292   0.786
 7906SOL    HW124617   0.431   5.306   0.876
 7906SOL    HW224618   0.404   5.305   0.715
 7907SOL     OW24619   5.729   2.560   3.040
 7907SOL    HW124620   5.730   2.484   2.976
 7907SOL    HW224621   5.780   2.637   3.002
 7908SOL     OW24622   1.013   1.379   5.769
 7908SOL    HW124623   0.955   1.440   5.824
 7908SOL    HW224624   1.036   1.298   5.823
 7909SOL     OW24625   5.397   4.086   4.895
 7909SOL    HW124626   5.443   4.129   4.974
 7909SOL    HW224627   5.406   3.987   4.901
 7910SOL     OW24628   2.948   3.680   5.637
 7910SOL    HW124629   2.912   3.656   5.546
 7910SOL    HW224630   2.991   3.599   5.677
 7911SOL     OW24631   1.858   3.113   0.091
 7911SOL    HW124632   1.895   3.022   0.073
 7911SOL    HW224633   1.764   3.118   0.057
 7912SOL     OW24634   6.833   4.949   0.696
 7912SOL    HW124635   6.811   5.047   0.688
 7912SOL    HW224636   6.846   4.910   0.605
 7913SOL     OW24637   1.563   4.690   0.941
 7913SOL    HW124638   1.569   4.728   1.033
 7913SOL    HW224639   1.536   4.762   0.877
 7914SOL     OW24640   0.585   4.265   0.188
 7914SOL    HW124641   0.670   4.276   0.240
 7914SOL    HW224642   0.550   4.354   0.161
 7915SOL     OW24643   4.895   2.904   1.811
 7915SOL    HW124644   4.976   2.963   1.807
 7915SOL    HW224645   4.833   2.939   1.881
 7916SOL     OW24646   1.138   4.186   5.423
 7916SOL    HW124647   1.146   4.279   5.389
 7916SOL    HW224648   1.095   4.186   5.513
 7917SOL     OW24649   3.916   3.406   4.588
 7917SOL    HW124650   3.952   3.452   4.669
 7917SOL    HW224651   3.819   3.385   4.601
 7918SOL     OW24652   6.747   1.324   6.292
 7918SOL    HW124653   6.717   1.306   6.198
 7918SOL    HW224654   6.824   1.387   6.290
 7919SOL     OW24655   1.920   4.480   2.670
 7919SOL    HW124656   1.839   4.534   2.695
 7919SOL    HW224657   1.893   4.385   2.656
 7920SOL     OW24658   0.287   5.823   0.883
 7920SOL    HW124659   0.217   5.809   0.953
 7920SOL    HW224660   0.256   5.783   0.796
 7921SOL     OW24661   5.332   6.732   0.443
 7921SOL    HW124662   5.310   6.765   0.351
 7921SOL    HW224663   5.338   6.809   0.506
 7922SOL     OW24664   6.483   6.613   0.558
 7922SOL    HW124665   6.563   6.669   0.537
 7922SOL    HW224666   6.497   6.567   0.646
 7923SOL     OW24667   3.084   0.252   2.275
 7923SOL    HW124668   3.065   0.165   2.229
 7923SOL    HW224669   3.084   0.239   2.374
 7924SOL     OW24670   4.274   0.066   2.202
 7924SOL    HW124671   4.255   0.141   2.138
 7924SOL    HW224672   4.219   0.078   2.284
 7925SOL     OW24673   0.594   1.610   6.544
 7925SOL    HW124674   0.532   1.675   6.587
 7925SOL    HW224675   0.670   1.590   6.605
 7926SOL     OW24676   4.740   1.695   5.266
 7926SOL    HW124677   4.819   1.654   5.222
 7926SOL    HW224678   4.673   1.722   5.196
 7927SOL     OW24679   4.351   5.189   2.616
 7927SOL    HW124680   4.311   5.158   2.702
 7927SOL    HW224681   4.313   5.277   2.590
 7928SOL     OW24682   1.488   2.121   4.526
 7928SOL    HW124683   1.445   2.181   4.593
 7928SOL    HW224684   1.424   2.103   4.451
 7929SOL     OW24685   4.063   5.153   6.375
 7929SOL    HW124686   4.051   5.164   6.277
 7929SOL    HW224687   4.129   5.080   6.393
 7930SOL     OW24688   4.621   5.609   4.619
 7930SOL    HW124689   4.552   5.573   4.683
 7930SOL    HW224690   4.578   5.625   4.530
 7931SOL     OW24691   1.905   2.208   6.498
 7931SOL    HW124692   1.805   2.206   6.495
 7931SOL    HW224693   1.935   2.226   6.592
 7932SOL     OW24694   1.560   6.170   6.988
 7932SOL    HW124695   1.658   6.159   6.972
 7932SOL    HW224696   1.509   6.135   6.909
 7933SOL     OW24697   0.177   5.856   6.600
 7933SOL    HW124698   0.187   5.889   6.506
 7933SOL    HW224699   0.244   5.785   6.618
 7934SOL     OW24700   2.379   4.760   0.276
 7934SOL    HW124701   2.448   4.751   0.348
 7934SOL    HW224702   2.425   4.778   0.189
 7935SOL     OW24703   6.158   5.652   6.868
 7935SOL    HW124704   6.118   5.685   6.954
 7935SOL    HW224705   6.086   5.635   6.802
 7936SOL     OW24706   4.006   6.196   2.404
 7936SOL    HW124707   4.009   6.225   2.500
 7936SOL    HW224708   4.090   6.225   2.358
 7937SOL     OW24709   6.565   6.512   3.474
 7937SOL    HW124710   6.495   6.557   3.419
 7937SOL    HW224711   6.579   6.564   3.558
 7938SOL     OW24712   6.569   5.634   4.493
 7938SOL    HW124713   6.651   5.686   4.470
 7938SOL    HW224714   6.576   5.542   4.454
 7939SOL     OW24715   1.936   2.582   5.562
 7939SOL    HW124716   1.902   2.539   5.645
 7939SOL    HW224717   1.921   2.681   5.567
 7940SOL     OW24718   1.680   3.906   2.183
 7940SOL    HW124719   1.720   3.816   2.200
 7940SOL    HW224720   1.594   3.895   2.132
 7941SOL     OW24721   6.018   0.828   0.748
 7941SOL    HW124722   5.997   0.733   0.724
 7941SOL    HW224723   6.092   0.830   0.815
 7942SOL     OW24724   6.534   6.436   2.657
 7942SOL    HW124725   6.531   6.530   2.690
 7942SOL    HW224726   6.547   6.435   2.557
 7943SOL     OW24727   6.208   3.206   0.530
 7943SOL    HW124728   6.297   3.252   0.531
 7943SOL    HW224729   6.153   3.243   0.455
 7944SOL     OW24730   0.497   2.345   1.734
 7944SOL    HW124731   0.572   2.279   1.749
 7944SOL    HW224732   0.495   2.371   1.637
 7945SOL     OW24733   6.040   5.775   1.784
 7945SOL    HW124734   5.999   5.726   1.861
 7945SOL    HW224735   6.086   5.857   1.818
 7946SOL     OW24736   2.520   1.536   5.256
 7946SOL    HW124737   2.591   1.565   5.193
 7946SOL    HW224738   2.447   1.489   5.206
 7947SOL     OW24739   3.573   2.163   6.162
 7947SOL    HW124740   3.619   2.184   6.248
 7947SOL    HW224741   3.625   2.095   6.111
 7948SOL     OW24742   1.040   6.308   0.904
 7948SOL    HW124743   1.054   6.406   0.892
 7948SOL    HW224744   0.997   6.291   0.992
 7949SOL     OW24745   4.341   4.738   4.920
 7949SOL    HW124746   4.436   4.768   4.925
 7949SOL    HW224747   4.335   4.641   4.946
 7950SOL     OW24748   5.872   5.473   4.597
 7950SOL    HW124749   5.915   5.560   4.574
 7950SOL    HW224750   5.940   5.411   4.636
 7951SOL     OW24751   2.305   4.225   1.858
 7951SOL    HW124752   2.244   4.151   1.829
 7951SOL    HW224753   2.378   4.236   1.791
 7952SOL     OW24754   0.444   3.079   6.714
 7952SOL    HW124755   0.345   3.083   6.713
 7952SOL    HW224756   0.474   2.989   6.681
 7953SOL     OW24757   2.295   2.790   4.102
 7953SOL    HW124758   2.275   2.872   4.157
 7953SOL    HW224759   2.214   2.764   4.050
 7954SOL     OW24760   4.602   4.262   5.564
 7954SOL    HW124761   4.532   4.196   5.592
 7954SOL    HW224762   4.680   4.213   5.525
 7955SOL     OW24763   1.265   6.608   6.870
 7955SOL    HW124764   1.235   6.557   6.789
 7955SOL    HW224765   1.241   6.557   6.953
 7956SOL     OW24766   4.009   5.902   2.411
 7956SOL    HW124767   4.002   5.830   2.481
 7956SOL    HW224768   4.065   5.977   2.446
 7957SOL     OW24769   0.995   0.884   1.749
 7957SOL    HW124770   1.077   0.872   1.804
 7957SOL    HW224771   1.011   0.850   1.656
 7958SOL     OW24772   3.777   5.390   4.633
 7958SOL    HW124773   3.824   5.476   4.612
 7958SOL    HW224774   3.807   5.320   4.568
 7959SOL     OW24775   4.060   5.788   0.927
 7959SOL    HW124776   4.124   5.804   0.853
 7959SOL    HW224777   3.978   5.845   0.914
 7960SOL     OW24778   2.816   0.858   0.262
 7960SOL    HW124779   2.900   0.829   0.217
 7960SOL    HW224780   2.836   0.886   0.356
 7961SOL     OW24781   6.823   0.433   1.439
 7961SOL    HW124782   6.840   0.495   1.515
 7961SOL    HW224783   6.902   0.372   1.427
 7962SOL     OW24784   1.292   0.773   0.377
 7962SOL    HW124785   1.299   0.676   0.354
 7962SOL    HW224786   1.324   0.828   0.300
 7963SOL     OW24787   6.616   0.390   3.691
 7963SOL    HW124788   6.557   0.424   3.618
 7963SOL    HW224789   6.698   0.349   3.651
 7964SOL     OW24790   0.110   4.939   3.927
 7964SOL    HW124791   0.123   4.850   3.970
 7964SOL    HW224792   0.123   4.932   3.829
 7965SOL     OW24793   3.491   2.535   5.994
 7965SOL    HW124794   3.423   2.608   5.988
 7965SOL    HW224795   3.581   2.572   5.969
 7966SOL     OW24796   0.841   3.007   5.157
 7966SOL    HW124797   0.905   3.083   5.152
 7966SOL    HW224798   0.861   2.951   5.237
 7967SOL     OW24799   2.778   6.477   3.566
 7967SOL    HW124800   2.877   6.491   3.555
 7967SOL    HW224801   2.732   6.565   3.565
 7968SOL     OW24802   2.144   2.580   3.470
 7968SOL    HW124803   2.133   2.640   3.550
 7968SOL    HW224804   2.194   2.498   3.498
 7969SOL     OW24805   3.724   5.642   0.709
 7969SOL    HW124806   3.724   5.723   0.651
 7969SOL    HW224807   3.633   5.631   0.750
 7970SOL     OW24808   6.819   3.071   2.532
 7970SOL    HW124809   6.767   2.994   2.569
 7970SOL    HW224810   6.878   3.109   2.602
 7971SOL     OW24811   4.393   1.374   0.890
 7971SOL    HW124812   4.467   1.319   0.850
 7971SOL    HW224813   4.422   1.469   0.898
 7972SOL     OW24814   1.830   3.393   0.625
 7972SOL    HW124815   1.745   3.384   0.572
 7972SOL    HW224816   1.807   3.409   0.721
 7973SOL     OW24817   4.875   4.724   4.023
 7973SOL    HW124818   4.975   4.727   4.020
 7973SOL    HW224819   4.846   4.630   4.041
 7974SOL     OW24820   5.555   1.067   5.843
 7974SOL    HW124821   5.471   1.073   5.790
 7974SOL    HW224822   5.554   1.136   5.917
 7975SOL     OW24823   5.649   0.446   2.740
 7975SOL    HW124824   5.649   0.403   2.650
 7975SOL    HW224825   5.737   0.490   2.756
 7976SOL     OW24826   0.303   0.735   6.936
 7976SOL    HW124827   0.272   0.729   0.009
 7976SOL    HW224828   0.286   0.827   6.901
 7977SOL     OW24829   4.773   5.755   1.983
 7977SOL    HW124830   4.810   5.847   1.996
 7977SOL    HW224831   4.804   5.696   2.058
 7978SOL     OW24832   6.149   3.328   6.370
 7978SOL    HW124833   6.065   3.338   6.316
 7978SOL    HW224834   6.152   3.236   6.410
 7979SOL     OW24835   3.595   6.601   5.369
 7979SOL    HW124836   3.606   6.643   5.279
 7979SOL    HW224837   3.654   6.521   5.376
 7980SOL     OW24838   2.421   5.210   6.943
 7980SOL    HW124839   2.329   5.175   6.955
 7980SOL    HW224840   2.454   5.187   6.851
 7981SOL     OW24841   0.499   5.636   1.884
 7981SOL    HW124842   0.438   5.671   1.955
 7981SOL    HW224843   0.568   5.576   1.924
 7982SOL     OW24844   0.233   1.742   0.128
 7982SOL    HW124845   0.172   1.716   0.053
 7982SOL    HW224846   0.294   1.815   0.098
 7983SOL     OW24847   5.663   1.932   2.235
 7983SOL    HW124848   5.706   1.968   2.152
 7983SOL    HW224849   5.703   1.977   2.315
 7984SOL     OW24850   1.706   1.318   0.998
 7984SOL    HW124851   1.699   1.338   0.901
 7984SOL    HW224852   1.615   1.322   1.040
 7985SOL     OW24853   2.270   0.175   3.720
 7985SOL    HW124854   2.201   0.186   3.648
 7985SOL    HW224855   2.280   0.079   3.743
 7986SOL     OW24856   3.506   1.288   6.804
 7986SOL    HW124857   3.429   1.280   6.741
 7986SOL    HW224858   3.560   1.204   6.800
 7987SOL     OW24859   1.326   3.544   6.980
 7987SOL    HW124860   1.310   3.454   6.938
 7987SOL    HW224861   1.408   3.540   0.015
 7988SOL     OW24862   1.272   2.156   3.744
 7988SOL    HW124863   1.355   2.211   3.728
 7988SOL    HW224864   1.191   2.214   3.734
 7989SOL     OW24865   3.599   3.254   5.446
 7989SOL    HW124866   3.602   3.198   5.363
 7989SOL    HW224867   3.674   3.321   5.443
 7990SOL     OW24868   6.836   3.274   3.168
 7990SOL    HW124869   6.900   3.273   3.245
 7990SOL    HW224870   6.774   3.196   3.176
 7991SOL     OW24871   6.129   0.712   3.726
 7991SOL    HW124872   6.038   0.673   3.739
 7991SOL    HW224873   6.178   0.659   3.656
 7992SOL     OW24874   1.127   6.841   1.692
 7992SOL    HW124875   1.061   6.853   1.618
 7992SOL    HW224876   1.132   6.745   1.717
 7993SOL     OW24877   0.485   6.975   6.520
 7993SOL    HW124878   0.582   6.951   6.515
 7993SOL    HW224879   0.442   6.957   6.432
 7994SOL     OW24880   4.612   7.019   3.055
 7994SOL    HW124881   4.553   0.014   2.976
 7994SOL    HW224882   4.626   0.080   3.106
 7995SOL     OW24883   4.222   5.143   3.422
 7995SOL    HW124884   4.209   5.166   3.326
 7995SOL    HW224885   4.203   5.045   3.436
 7996SOL     OW24886   2.984   0.114   4.978
 7996SOL    HW124887   3.064   0.096   5.035
 7996SOL    HW224888   2.902   0.110   5.035
 7997SOL     OW24889   0.624   1.450   1.534
 7997SOL    HW124890   0.570   1.523   1.493
 7997SOL    HW224891   0.713   1.443   1.488
 7998SOL     OW24892   3.670   5.395   0.896
 7998SOL    HW124893   3.749   5.383   0.836
 7998SOL    HW224894   3.677   5.332   0.974
 7999SOL     OW24895   0.583   6.508   6.155
 7999SOL    HW124896   0.506   6.458   6.195
 7999SOL    HW224897   0.620   6.572   6.222
 8000SOL     OW24898   5.515   0.145   0.011
 8000SOL    HW124899   5.435   0.089   7.015
 8000SOL    HW224900   5.491   0.242   0.004
 8001SOL     OW24901   3.266   5.893   1.136
 8001SOL    HW124902   3.329   5.962   1.172
 8001SOL    HW224903   3.178   5.936   1.115
 8002SOL     OW24904   0.895   2.061   5.280
 8002SOL    HW124905   0.916   1.968   5.311
 8002SOL    HW224906   0.797   2.079   5.294
 8003SOL     OW24907   2.784   5.125   2.401
 8003SOL    HW124908   2.718   5.098   2.330
 8003SOL    HW224909   2.874   5.135   2.359
 8004SOL     OW24910   2.109   3.258   3.893
 8004SOL    HW124911   2.016   3.221   3.902
 8004SOL    HW224912   2.174   3.183   3.883
 8005SOL     OW24913   3.772   0.749   2.610
 8005SOL    HW124914   3.781   0.827   2.549
 8005SOL    HW224915   3.682   0.752   2.654
 8006SOL     OW24916   2.467   0.763   6.314
 8006SOL    HW124917   2.458   0.859   6.341
 8006SOL    HW224918   2.557   0.729   6.342
 8007SOL     OW24919   6.670   1.278   4.810
 8007SOL    HW124920   6.753   1.314   4.766
 8007SOL    HW224921   6.694   1.201   4.869
 8008SOL     OW24922   4.571   5.907   5.684
 8008SOL    HW124923   4.636   5.857   5.626
 8008SOL    HW224924   4.613   5.993   5.713
 8009SOL     OW24925   5.642   1.049   2.995
 8009SOL    HW124926   5.602   0.969   3.040
 8009SOL    HW224927   5.614   1.050   2.899
 8010SOL     OW24928   0.554   1.051   0.009
 8010SOL    HW124929   0.523   0.965   0.048
 8010SOL    HW224930   0.494   1.078   6.956
 8011SOL     OW24931   3.572   2.372   0.673
 8011SOL    HW124932   3.622   2.324   0.745
 8011SOL    HW224933   3.525   2.304   0.615
 8012SOL     OW24934   2.183   4.507   1.602
 8012SOL    HW124935   2.193   4.416   1.561
 8012SOL    HW224936   2.204   4.577   1.533
 8013SOL     OW24937   1.467   4.908   3.262
 8013SOL    HW124938   1.426   4.998   3.249
 8013SOL    HW224939   1.395   4.838   3.267
 8014SOL     OW24940   0.941   6.559   5.169
 8014SOL    HW124941   0.977   6.480   5.217
 8014SOL    HW224942   1.013   6.600   5.113
 8015SOL     OW24943   2.546   0.843   0.293
 8015SOL    HW124944   2.643   0.828   0.274
 8015SOL    HW224945   2.498   0.864   0.208
 8016SOL     OW24946   5.168   0.368   5.654
 8016SOL    HW124947   5.127   0.279   5.674
 8016SOL    HW224948   5.215   0.403   5.736
 8017SOL     OW24949   6.403   6.853   0.890
 8017SOL    HW124950   6.412   6.939   0.940
 8017SOL    HW224951   6.484   6.839   0.834
 8018SOL     OW24952   3.127   2.303   6.093
 8018SOL    HW124953   3.088   2.260   6.011
 8018SOL    HW224954   3.226   2.292   6.093
 8019SOL     OW24955   2.410   4.473   5.869
 8019SOL    HW124956   2.352   4.401   5.907
 8019SOL    HW224957   2.386   4.488   5.773
 8020SOL     OW24958   5.913   6.333   0.779
 8020SOL    HW124959   5.922   6.366   0.685
 8020SOL    HW224960   5.892   6.409   0.839
 8021SOL     OW24961   1.369   1.628   0.985
 8021SOL    HW124962   1.393   1.624   1.083
 8021SOL    HW224963   1.441   1.678   0.936
 8022SOL     OW24964   4.876   6.563   2.703
 8022SOL    HW124965   4.888   6.575   2.604
 8022SOL    HW224966   4.966   6.560   2.747
 8023SOL     OW24967   6.400   5.128   3.141
 8023SOL    HW124968   6.355   5.068   3.076
 8023SOL    HW224969   6.332   5.169   3.202
 8024SOL     OW24970   3.141   5.297   6.917
 8024SOL    HW124971   3.092   5.384   6.920
 8024SOL    HW224972   3.174   5.280   6.824
 8025SOL     OW24973   2.495   6.289   6.510
 8025SOL    HW124974   2.523   6.194   6.503
 8025SOL    HW224975   2.519   6.337   6.425
 8026SOL     OW24976   1.265   4.212   6.722
 8026SOL    HW124977   1.362   4.221   6.745
 8026SOL    HW224978   1.255   4.202   6.623
 8027SOL     OW24979   4.713   1.053   5.206
 8027SOL    HW124980   4.796   1.106   5.227
 8027SOL    HW224981   4.632   1.109   5.227
 8028SOL     OW24982   3.298   5.125   4.427
 8028SOL    HW124983   3.262   5.094   4.339
 8028SOL    HW224984   3.229   5.112   4.498
 8029SOL     OW24985   5.002   3.251   1.249
 8029SOL    HW124986   4.916   3.201   1.246
 8029SOL    HW224987   5.059   3.215   1.322
 8030SOL     OW24988   4.320   4.383   0.159
 8030SOL    HW124989   4.360   4.316   0.098
 8030SOL    HW224990   4.260   4.444   0.107
 8031SOL     OW24991   5.143   6.276   2.711
 8031SOL    HW124992   5.198   6.214   2.767
 8031SOL    HW224993   5.140   6.366   2.754
 8032SOL     OW24994   5.840   4.824   6.593
 8032SOL    HW124995   5.916   4.799   6.653
 8032SOL    HW224996   5.875   4.843   6.501
 8033SOL     OW24997   4.673   2.661   6.147
 8033SOL    HW124998   4.685   2.712   6.233
 8033SOL    HW224999   4.580   2.626   6.142
 8034SOL     OW25000   6.058   0.552   4.852
 8034SOL    HW125001   6.032   0.494   4.774
 8034SOL    HW225002   6.017   0.516   4.935
 8035SOL     OW25003   5.006   1.882   4.287
 8035SOL    HW125004   4.950   1.890   4.369
 8035SOL    HW225005   5.023   1.972   4.248
 8036SOL     OW25006   0.967   4.364   2.719
 8036SOL    HW125007   0.965   4.450   2.771
 8036SOL    HW225008   0.998   4.290   2.779
 8037SOL     OW25009   1.571   3.266   1.059
 8037SOL    HW125010   1.590   3.283   0.962
 8037SOL    HW225011   1.657   3.265   1.110
 8038SOL     OW25012   3.380   0.843   3.528
 8038SOL    HW125013   3.377   0.918   3.594
 8038SOL    HW225014   3.450   0.861   3.459
 8039SOL     OW25015   0.659   1.787   4.305
 8039SOL    HW125016   0.742   1.731   4.302
 8039SOL    HW225017   0.592   1.750   4.241
 8040SOL     OW25018   2.000   6.807   0.488
 8040SOL    HW125019   2.031   6.734   0.427
 8040SOL    HW225020   1.946   6.872   0.436
 8041SOL     OW25021   2.889   1.396   1.757
 8041SOL    HW125022   2.829   1.391   1.677
 8041SOL    HW225023   2.954   1.320   1.755
 8042SOL     OW25024   3.444   2.896   3.930
 8042SOL    HW125025   3.455   2.837   4.010
 8042SOL    HW225026   3.477   2.988   3.951
 8043SOL     OW25027   4.449   6.942   2.818
 8043SOL    HW125028   4.504   6.858   2.816
 8043SOL    HW225029   4.352   6.918   2.821
 8044SOL     OW25030   3.669   2.980   1.143
 8044SOL    HW125031   3.593   2.924   1.112
 8044SOL    HW225032   3.685   2.965   1.241
 8045SOL     OW25033   5.440   1.010   1.344
 8045SOL    HW125034   5.375   1.051   1.409
 8045SOL    HW225035   5.527   0.993   1.391
 8046SOL     OW25036   0.500   5.034   0.735
 8046SOL    HW125037   0.477   5.132   0.741
 8046SOL    HW225038   0.583   5.023   0.681
 8047SOL     OW25039   3.283   5.407   4.553
 8047SOL    HW125040   3.302   5.310   4.539
 8047SOL    HW225041   3.293   5.455   4.467
 8048SOL     OW25042   5.179   0.995   5.917
 8048SOL    HW125043   5.170   1.040   6.006
 8048SOL    HW225044   5.165   0.897   5.928
 8049SOL     OW25045   0.840   0.411   0.173
 8049SOL    HW125046   0.837   0.312   0.165
 8049SOL    HW225047   0.914   0.438   0.235
 8050SOL     OW25048   1.666   4.036   2.839
 8050SOL    HW125049   1.741   3.983   2.880
 8050SOL    HW225050   1.667   4.024   2.740
 8051SOL     OW25051   4.815   5.756   2.729
 8051SOL    HW125052   4.809   5.855   2.715
 8051SOL    HW225053   4.911   5.728   2.729
 8052SOL     OW25054   4.507   1.828   1.943
 8052SOL    HW125055   4.478   1.909   1.892
 8052SOL    HW225056   4.427   1.775   1.972
 8053SOL     OW25057   3.051   3.781   3.625
 8053SOL    HW125058   3.142   3.741   3.611
 8053SOL    HW225059   3.013   3.810   3.538
 8054SOL     OW25060   4.380   0.140   4.312
 8054SOL    HW125061   4.421   0.167   4.225
 8054SOL    HW225062   4.342   0.220   4.358
 8055SOL     OW25063   0.540   0.035   5.892
 8055SOL    HW125064   0.484   0.112   5.860
 8055SOL    HW225065   0.520   6.977   5.837
 8056SOL     OW25066   4.014   2.097   3.881
 8056SOL    HW125067   3.917   2.115   3.864
 8056SOL    HW225068   4.052   2.169   3.939
 8057SOL     OW25069   3.032   1.861   3.140
 8057SOL    HW125070   3.131   1.859   3.150
 8057SOL    HW225071   3.005   1.804   3.062
 8058SOL     OW25072   4.657   0.555   2.066
 8058SOL    HW125073   4.696   0.617   2.134
 8058SOL    HW225074   4.611   0.479   2.112
 8059SOL     OW25075   4.393   2.429   4.311
 8059SOL    HW125076   4.455   2.443   4.389
 8059SOL    HW225077   4.305   2.394   4.344
 8060SOL     OW25078   0.899   2.570   3.557
 8060SOL    HW125079   0.857   2.603   3.473
 8060SOL    HW225080   0.909   2.470   3.552
 8061SOL     OW25081   7.016   0.539   2.353
 8061SOL    HW125082   7.013   0.449   2.309
 8061SOL    HW225083   0.057   0.536   2.430
 8062SOL     OW25084   3.536   5.284   4.375
 8062SOL    HW125085   3.458   5.222   4.379
 8062SOL    HW225086   3.507   5.373   4.342
 8063SOL     OW25087   0.796   2.681   0.552
 8063SOL    HW125088   0.877   2.684   0.612
 8063SOL    HW225089   0.714   2.673   0.608
 8064SOL     OW25090   0.268   4.584   1.741
 8064SOL    HW125091   0.249   4.653   1.671
 8064SOL    HW225092   0.367   4.573   1.751
 8065SOL     OW25093   3.532   5.927   4.481
 8065SOL    HW125094   3.518   6.026   4.490
 8065SOL    HW225095   3.444   5.881   4.483
 8066SOL     OW25096   0.527   1.970   5.868
 8066SOL    HW125097   0.557   2.036   5.938
 8066SOL    HW225098   0.528   1.878   5.907
 8067SOL     OW25099   4.698   2.713   1.900
 8067SOL    HW125100   4.749   2.704   1.815
 8067SOL    HW225101   4.668   2.807   1.912
 8068SOL     OW25102   6.809   4.434   0.514
 8068SOL    HW125103   6.864   4.351   0.517
 8068SOL    HW225104   6.819   4.478   0.424
 8069SOL     OW25105   2.169   6.574   1.237
 8069SOL    HW125106   2.233   6.650   1.243
 8069SOL    HW225107   2.076   6.607   1.253
 8070SOL     OW25108   3.264   3.727   0.355
 8070SOL    HW125109   3.257   3.723   0.256
 8070SOL    HW225110   3.348   3.775   0.381
 8071SOL     OW25111   2.731   6.439   4.579
 8071SOL    HW125112   2.808   6.500   4.597
 8071SOL    HW225113   2.760   6.344   4.593
 8072SOL     OW25114   3.556   0.776   0.174
 8072SOL    HW125115   3.578   0.706   0.106
 8072SOL    HW225116   3.641   0.819   0.206
 8073SOL     OW25117   4.115   5.880   5.160
 8073SOL    HW125118   4.160   5.969   5.166
 8073SOL    HW225119   4.110   5.851   5.065
 8074SOL     OW25120   3.773   2.907   0.848
 8074SOL    HW125121   3.685   2.884   0.888
 8074SOL    HW225122   3.778   2.870   0.755
 8075SOL     OW25123   6.290   0.765   0.274
 8075SOL    HW125124   6.236   0.782   0.356
 8075SOL    HW225125   6.371   0.824   0.274
 8076SOL     OW25126   5.025   2.515   5.810
 8076SOL    HW125127   4.930   2.546   5.808
 8076SOL    HW225128   5.083   2.587   5.848
 8077SOL     OW25129   2.142   5.396   1.860
 8077SOL    HW125130   2.242   5.396   1.854
 8077SOL    HW225131   2.108   5.302   1.856
 8078SOL     OW25132   6.120   1.579   0.218
 8078SOL    HW125133   6.153   1.529   0.138
 8078SOL    HW225134   6.132   1.677   0.202
 8079SOL     OW25135   4.872   1.440   3.313
 8079SOL    HW125136   4.882   1.385   3.230
 8079SOL    HW225137   4.821   1.387   3.381
 8080SOL     OW25138   0.367   3.061   0.184
 8080SOL    HW125139   0.360   2.973   0.137
 8080SOL    HW225140   0.405   3.129   0.122
 8081SOL     OW25141   5.258   6.955   4.157
 8081SOL    HW125142   5.302   6.865   4.163
 8081SOL    HW225143   5.212   6.976   4.243
 8082SOL     OW25144   5.243   6.870   1.756
 8082SOL    HW125145   5.320   6.931   1.739
 8082SOL    HW225146   5.188   6.861   1.673
 8083SOL     OW25147   5.176   3.940   2.340
 8083SOL    HW125148   5.185   3.844   2.366
 8083SOL    HW225149   5.176   3.997   2.422
 8084SOL     OW25150   4.950   0.392   6.922
 8084SOL    HW125151   4.924   0.296   6.909
 8084SOL    HW225152   4.911   0.425   7.008
 8085SOL     OW25153   5.566   6.826   2.655
 8085SOL    HW125154   5.644   6.840   2.716
 8085SOL    HW225155   5.547   6.910   2.604
 8086SOL     OW25156   4.345   1.188   3.768
 8086SOL    HW125157   4.291   1.134   3.833
 8086SOL    HW225158   4.299   1.187   3.679
 8087SOL     OW25159   2.951   1.052   0.898
 8087SOL    HW125160   2.920   1.103   0.979
 8087SOL    HW225161   2.924   1.102   0.815
 8088SOL     OW25162   5.364   2.805   1.124
 8088SOL    HW125163   5.381   2.708   1.107
 8088SOL    HW225164   5.292   2.837   1.062
 8089SOL     OW25165   4.737   2.738   0.476
 8089SOL    HW125166   4.650   2.690   0.487
 8089SOL    HW225167   4.811   2.683   0.514
 8090SOL     OW25168   4.126   1.819   6.814
 8090SOL    HW125169   4.037   1.776   6.799
 8090SOL    HW225170   4.157   1.861   6.728
 8091SOL     OW25171   2.628   3.668   6.236
 8091SOL    HW125172   2.563   3.635   6.167
 8091SOL    HW225173   2.582   3.676   6.324
 8092SOL     OW25174   0.034   2.612   5.306
 8092SOL    HW125175   0.071   2.637   5.217
 8092SOL    HW225176   6.975   2.556   5.294
 8093SOL     OW25177   4.657   5.355   2.655
 8093SOL    HW125178   4.602   5.401   2.725
 8093SOL    HW225179   4.739   5.318   2.697
 8094SOL     OW25180   1.472   3.322   5.247
 8094SOL    HW125181   1.401   3.388   5.221
 8094SOL    HW225182   1.555   3.371   5.272
 8095SOL     OW25183   6.443   4.073   4.629
 8095SOL    HW125184   6.374   4.052   4.698
 8095SOL    HW225185   6.507   4.141   4.665
 8096SOL     OW25186   2.777   6.192   3.607
 8096SOL    HW125187   2.761   6.291   3.604
 8096SOL    HW225188   2.694   6.144   3.582
 8097SOL     OW25189   4.721   6.332   3.622
 8097SOL    HW125190   4.665   6.394   3.567
 8097SOL    HW225191   4.794   6.384   3.667
 8098SOL     OW25192   2.295   6.596   3.933
 8098SOL    HW125193   2.292   6.585   3.834
 8098SOL    HW225194   2.289   6.506   3.977
 8099SOL     OW25195   4.338   6.985   3.910
 8099SOL    HW125196   4.279   6.913   3.947
 8099SOL    HW225197   4.285   0.020   3.848
 8100SOL     OW25198   6.116   0.079   0.405
 8100SOL    HW125199   6.085   0.030   0.323
 8100SOL    HW225200   6.098   0.176   0.395
 8101SOL     OW25201   2.197   6.872   3.955
 8101SOL    HW125202   2.267   6.852   3.885
 8101SOL    HW225203   2.206   6.807   4.030
 8102SOL     OW25204   0.557   4.804   4.450
 8102SOL    HW125205   0.649   4.795   4.488
 8102SOL    HW225206   0.491   4.767   4.516
 8103SOL     OW25207   4.457   0.668   0.926
 8103SOL    HW125208   4.441   0.575   0.892
 8103SOL    HW225209   4.550   0.696   0.904
 8104SOL     OW25210   3.024   6.814   6.136
 8104SOL    HW125211   2.989   6.814   6.042
 8104SOL    HW225212   3.122   6.832   6.134
 8105SOL     OW25213   0.869   2.305   3.575
 8105SOL    HW125214   0.774   2.315   3.603
 8105SOL    HW225215   0.884   2.213   3.539
 8106SOL     OW25216   2.141   6.020   3.082
 8106SOL    HW125217   2.061   5.979   3.038
 8106SOL    HW225218   2.114   6.102   3.132
 8107SOL     OW25219   0.330   5.377   5.168
 8107SOL    HW125220   0.296   5.467   5.140
 8107SOL    HW225221   0.428   5.383   5.188
 8108SOL     OW25222   6.750   3.816   4.973
 8108SOL    HW125223   6.764   3.732   5.025
 8108SOL    HW225224   6.654   3.823   4.945
 8109SOL     OW25225   1.622   3.592   4.601
 8109SOL    HW125226   1.529   3.617   4.575
 8109SOL    HW225227   1.685   3.615   4.527
 8110SOL     OW25228   3.070   6.266   0.547
 8110SOL    HW125229   3.149   6.255   0.487
 8110SOL    HW225230   2.988   6.281   0.492
 8111SOL     OW25231   3.900   0.970   4.912
 8111SOL    HW125232   3.830   0.899   4.902
 8111SOL    HW225233   3.875   1.031   4.987
 8112SOL     OW25234   2.254   1.920   4.580
 8112SOL    HW125235   2.232   1.951   4.488
 8112SOL    HW225236   2.323   1.847   4.576
 8113SOL     OW25237   3.369   3.330   1.033
 8113SOL    HW125238   3.332   3.393   1.100
 8113SOL    HW225239   3.435   3.378   0.974
 8114SOL     OW25240   2.283   3.689   1.682
 8114SOL    HW125241   2.364   3.748   1.690
 8114SOL    HW225242   2.288   3.617   1.752
 8115SOL     OW25243   3.536   0.227   0.348
 8115SOL    HW125244   3.554   0.213   0.251
 8115SOL    HW225245   3.541   0.325   0.369
 8116SOL     OW25246   4.550   6.176   5.077
 8116SOL    HW125247   4.544   6.200   4.980
 8116SOL    HW225248   4.643   6.193   5.109
 8117SOL     OW25249   1.825   1.035   4.253
 8117SOL    HW125250   1.902   1.054   4.192
 8117SOL    HW225251   1.826   1.098   4.330
 8118SOL     OW25252   6.010   2.983   5.535
 8118SOL    HW125253   6.071   3.060   5.520
 8118SOL    HW225254   6.053   2.899   5.502
 8119SOL     OW25255   6.189   5.788   5.426
 8119SOL    HW125256   6.090   5.782   5.412
 8119SOL    HW225257   6.221   5.709   5.478
 8120SOL     OW25258   3.343   4.678   6.856
 8120SOL    HW125259   3.365   4.763   6.808
 8120SOL    HW225260   3.425   4.620   6.861
 8121SOL     OW25261   0.424   5.897   1.719
 8121SOL    HW125262   0.467   5.822   1.770
 8121SOL    HW225263   0.464   5.903   1.628
 8122SOL     OW25264   1.699   5.524   2.579
 8122SOL    HW125265   1.753   5.519   2.495
 8122SOL    HW225266   1.747   5.477   2.653
 8123SOL     OW25267   6.574   0.214   0.308
 8123SOL    HW125268   6.587   0.117   0.285
 8123SOL    HW225269   6.621   0.270   0.240
 8124SOL     OW25270   6.903   6.584   0.805
 8124SOL    HW125271   6.932   6.536   0.889
 8124SOL    HW225272   6.910   6.682   0.819
 8125SOL     OW25273   1.424   0.872   3.069
 8125SOL    HW125274   1.520   0.894   3.049
 8125SOL    HW225275   1.420   0.819   3.154
 8126SOL     OW25276   5.738   4.734   2.596
 8126SOL    HW125277   5.758   4.832   2.595
 8126SOL    HW225278   5.779   4.691   2.516
 8127SOL     OW25279   3.219   6.035   0.167
 8127SOL    HW125280   3.130   6.027   0.122
 8127SOL    HW225281   3.213   6.100   0.242
 8128SOL     OW25282   2.823   3.112   1.289
 8128SOL    HW125283   2.822   3.040   1.219
 8128SOL    HW225284   2.869   3.193   1.253
 8129SOL     OW25285   4.380   1.094   5.667
 8129SOL    HW125286   4.475   1.063   5.660
 8129SOL    HW225287   4.343   1.067   5.756
 8130SOL     OW25288   0.026   4.334   6.788
 8130SOL    HW125289   0.016   4.379   6.699
 8130SOL    HW225290   6.993   4.381   6.856
 8131SOL     OW25291   3.380   0.983   1.087
 8131SOL    HW125292   3.296   1.005   1.037
 8131SOL    HW225293   3.457   0.983   1.023
 8132SOL     OW25294   5.399   6.180   6.387
 8132SOL    HW125295   5.478   6.239   6.398
 8132SOL    HW225296   5.397   6.112   6.461
 8133SOL     OW25297   3.007   5.181   1.739
 8133SOL    HW125298   3.083   5.157   1.800
 8133SOL    HW225299   2.927   5.127   1.762
 8134SOL     OW25300   1.121   1.983   4.955
 8134SOL    HW125301   1.044   2.017   4.902
 8134SOL    HW225302   1.169   2.060   4.998
 8135SOL     OW25303   1.635   5.818   1.056
 8135SOL    HW125304   1.599   5.888   0.995
 8135SOL    HW225305   1.735   5.828   1.064
 8136SOL     OW25306   5.118   4.795   2.728
 8136SOL    HW125307   5.103   4.751   2.817
 8136SOL    HW225308   5.090   4.891   2.733
 8137SOL     OW25309   2.977   1.358   4.761
 8137SOL    HW125310   2.961   1.265   4.727
 8137SOL    HW225311   3.075   1.372   4.772
 8138SOL     OW25312   5.613   2.268   0.666
 8138SOL    HW125313   5.613   2.302   0.572
 8138SOL    HW225314   5.643   2.173   0.666
 8139SOL     OW25315   1.672   1.775   4.140
 8139SOL    HW125316   1.684   1.871   4.165
 8139SOL    HW225317   1.762   1.734   4.124
 8140SOL     OW25318   4.605   6.845   0.085
 8140SOL    HW125319   4.520   6.824   0.134
 8140SOL    HW225320   4.624   6.773   0.018
 8141SOL     OW25321   4.075   6.971   5.253
 8141SOL    HW125322   4.112   6.910   5.182
 8141SOL    HW225323   4.147   0.009   5.287
 8142SOL     OW25324   1.662   5.039   0.383
 8142SOL    HW125325   1.672   4.962   0.321
 8142SOL    HW225326   1.747   5.091   0.386
 8143SOL     OW25327   6.247   5.179   0.119
 8143SOL    HW125328   6.332   5.192   0.170
 8143SOL    HW225329   6.253   5.226   0.031
 8144SOL     OW25330   0.601   6.441   5.865
 8144SOL    HW125331   0.691   6.457   5.905
 8144SOL    HW225332   0.536   6.419   5.938
 8145SOL     OW25333   5.752   5.367   0.644
 8145SOL    HW125334   5.711   5.302   0.708
 8145SOL    HW225335   5.681   5.429   0.610
 8146SOL     OW25336   5.204   0.285   5.396
 8146SOL    HW125337   5.290   0.267   5.347
 8146SOL    HW225338   5.224   0.329   5.484
 8147SOL     OW25339   5.990   0.886   1.507
 8147SOL    HW125340   6.061   0.816   1.492
 8147SOL    HW225341   6.008   0.965   1.449
 8148SOL     OW25342   5.507   4.899   0.724
 8148SOL    HW125343   5.602   4.930   0.713
 8148SOL    HW225344   5.468   4.878   0.634
 8149SOL     OW25345   1.656   6.697   3.590
 8149SOL    HW125346   1.566   6.722   3.553
 8149SOL    HW225347   1.645   6.626   3.659
 8150SOL     OW25348   2.007   3.743   0.698
 8150SOL    HW125349   2.050   3.773   0.613
 8150SOL    HW225350   1.907   3.748   0.689
 8151SOL     OW25351   5.927   5.115   3.441
 8151SOL    HW125352   5.846   5.172   3.430
 8151SOL    HW225353   6.008   5.164   3.407
 8152SOL     OW25354   6.414   3.072   3.402
 8152SOL    HW125355   6.438   3.146   3.338
 8152SOL    HW225356   6.435   2.984   3.359
 8153SOL     OW25357   1.240   1.413   3.938
 8153SOL    HW125358   1.278   1.336   3.887
 8153SOL    HW225359   1.146   1.429   3.909
 8154SOL     OW25360   3.558   6.223   2.185
 8154SOL    HW125361   3.492   6.157   2.222
 8154SOL    HW225362   3.651   6.190   2.202
 8155SOL     OW25363   1.244   3.568   2.078
 8155SOL    HW125364   1.246   3.571   2.178
 8155SOL    HW225365   1.296   3.489   2.046
 8156SOL     OW25366   4.415   6.003   0.772
 8156SOL    HW125367   4.360   6.069   0.824
 8156SOL    HW225368   4.360   5.922   0.753
 8157SOL     OW25369   6.609   4.471   6.243
 8157SOL    HW125370   6.685   4.406   6.247
 8157SOL    HW225371   6.573   4.486   6.335
 8158SOL     OW25372   5.049   4.129   0.699
 8158SOL    HW125373   4.951   4.143   0.710
 8158SOL    HW225374   5.076   4.044   0.743
 8159SOL     OW25375   2.450   5.677   3.173
 8159SOL    HW125376   2.543   5.639   3.169
 8159SOL    HW225377   2.389   5.620   3.118
 8160SOL     OW25378   5.252   0.650   3.608
 8160SOL    HW125379   5.305   0.587   3.664
 8160SOL    HW225380   5.293   0.741   3.612
 8161SOL     OW25381   5.925   2.848   6.086
 8161SOL    HW125382   6.019   2.816   6.099
 8161SOL    HW225383   5.922   2.917   6.014
 8162SOL     OW25384   6.525   6.846   6.828
 8162SOL    HW125385   6.473   6.760   6.831
 8162SOL    HW225386   6.622   6.825   6.822
 8163SOL     OW25387   2.783   4.794   5.268
 8163SOL    HW125388   2.774   4.749   5.357
 8163SOL    HW225389   2.834   4.734   5.206
 8164SOL     OW25390   4.864   2.326   0.337
 8164SOL    HW125391   4.874   2.377   0.422
 8164SOL    HW225392   4.939   2.350   0.275
 8165SOL     OW25393   6.672   3.611   5.503
 8165SOL    HW125394   6.740   3.659   5.558
 8165SOL    HW225395   6.618   3.677   5.451
 8166SOL     OW25396   0.955   0.727   3.646
 8166SOL    HW125397   0.967   0.632   3.674
 8166SOL    HW225398   1.043   0.766   3.621
 8167SOL     OW25399   6.883   0.533   3.650
 8167SOL    HW125400   6.945   0.593   3.701
 8167SOL    HW225401   6.900   0.438   3.675
 8168SOL     OW25402   2.514   1.690   1.482
 8168SOL    HW125403   2.444   1.642   1.429
 8168SOL    HW225404   2.601   1.641   1.475
 8169SOL     OW25405   4.635   1.917   0.393
 8169SOL    HW125406   4.638   1.817   0.391
 8169SOL    HW225407   4.540   1.947   0.400
 8170SOL     OW25408   1.553   5.298   1.790
 8170SOL    HW125409   1.578   5.216   1.841
 8170SOL    HW225410   1.623   5.368   1.802
 8171SOL     OW25411   1.667   1.707   6.617
 8171SOL    HW125412   1.643   1.684   6.523
 8171SOL    HW225413   1.744   1.770   6.617
 8172SOL     OW25414   6.706   2.109   2.819
 8172SOL    HW125415   6.805   2.113   2.832
 8172SOL    HW225416   6.677   2.183   2.758
 8173SOL     OW25417   5.501   2.297   1.843
 8173SOL    HW125418   5.515   2.200   1.864
 8173SOL    HW225419   5.474   2.306   1.747
 8174SOL     OW25420   6.785   0.680   2.286
 8174SOL    HW125421   6.875   0.651   2.318
 8174SOL    HW225422   6.721   0.602   2.292
 8175SOL     OW25423   0.109   3.430   5.649
 8175SOL    HW125424   0.169   3.478   5.585
 8175SOL    HW225425   0.123   3.465   5.741
 8176SOL     OW25426   2.467   4.974   1.253
 8176SOL    HW125427   2.459   4.936   1.160
 8176SOL    HW225428   2.553   4.942   1.293
 8177SOL     OW25429   3.882   0.288   3.723
 8177SOL    HW125430   3.906   0.325   3.813
 8177SOL    HW225431   3.784   0.267   3.721
 8178SOL     OW25432   3.246   6.972   0.592
 8178SOL    HW125433   3.330   7.005   0.634
 8178SOL    HW225434   3.167   6.998   0.648
 8179SOL     OW25435   4.576   1.936   4.304
 8179SOL    HW125436   4.637   1.951   4.226
 8179SOL    HW225437   4.621   1.877   4.370
 8180SOL     OW25438   6.139   0.993   5.606
 8180SOL    HW125439   6.057   0.983   5.551
 8180SOL    HW225440   6.127   1.066   5.673
 8181SOL     OW25441   0.878   1.472   0.276
 8181SOL    HW125442   0.855   1.535   0.351
 8181SOL    HW225443   0.796   1.452   0.223
 8182SOL     OW25444   3.119   3.491   5.724
 8182SOL    HW125445   3.203   3.510   5.776
 8182SOL    HW225446   3.142   3.444   5.639
 8183SOL     OW25447   6.169   2.396   4.997
 8183SOL    HW125448   6.116   2.366   4.918
 8183SOL    HW225449   6.154   2.333   5.073
 8184SOL     OW25450   6.461   0.206   0.559
 8184SOL    HW125451   6.495   0.211   0.465
 8184SOL    HW225452   6.412   0.119   0.572
 8185SOL     OW25453   2.178   0.387   6.675
 8185SOL    HW125454   2.187   0.463   6.612
 8185SOL    HW225455   2.186   0.301   6.625
 8186SOL     OW25456   3.368   4.664   5.368
 8186SOL    HW125457   3.416   4.710   5.294
 8186SOL    HW225458   3.271   4.657   5.344
 8187SOL     OW25459   2.285   1.194   4.834
 8187SOL    HW125460   2.364   1.138   4.858
 8187SOL    HW225461   2.262   1.180   4.737
 8188SOL     OW25462   5.226   3.208   3.583
 8188SOL    HW125463   5.221   3.298   3.625
 8188SOL    HW225464   5.292   3.151   3.633
 8189SOL     OW25465   5.293   5.085   2.785
 8189SOL    HW125466   5.209   5.075   2.839
 8189SOL    HW225467   5.317   5.182   2.777
 8190SOL     OW25468   4.912   4.199   4.355
 8190SOL    HW125469   4.979   4.220   4.284
 8190SOL    HW225470   4.859   4.281   4.377
 8191SOL     OW25471   3.706   6.435   1.856
 8191SOL    HW125472   3.779   6.439   1.788
 8191SOL    HW225473   3.743   6.455   1.947
 8192SOL     OW25474   3.350   5.159   0.543
 8192SOL    HW125475   3.275   5.095   0.527
 8192SOL    HW225476   3.313   5.249   0.567
 8193SOL     OW25477   5.753   5.540   5.788
 8193SOL    HW125478   5.774   5.627   5.741
 8193SOL    HW225479   5.658   5.541   5.818
 8194SOL     OW25480   5.112   1.832   1.111
 8194SOL    HW125481   5.127   1.744   1.157
 8194SOL    HW225482   5.176   1.840   1.035
 8195SOL     OW25483   1.036   0.097   3.394
 8195SOL    HW125484   1.045   0.161   3.317
 8195SOL    HW225485   1.113   0.034   3.393
 8196SOL     OW25486   4.407   5.719   6.284
 8196SOL    HW125487   4.374   5.787   6.219
 8196SOL    HW225488   4.484   5.669   6.243
 8197SOL     OW25489   4.311   1.710   0.368
 8197SOL    HW125490   4.276   1.766   0.443
 8197SOL    HW225491   4.240   1.699   0.298
 8198SOL     OW25492   2.852   6.462   2.928
 8198SOL    HW125493   2.846   6.509   3.016
 8198SOL    HW225494   2.805   6.517   2.858
 8199SOL     OW25495   5.972   2.470   5.847
 8199SOL    HW125496   6.055   2.513   5.811
 8199SOL    HW225497   5.996   2.408   5.921
 8200SOL     OW25498   6.002   5.341   2.238
 8200SOL    HW125499   6.092   5.373   2.208
 8200SOL    HW225500   5.962   5.282   2.167
 8201SOL     OW25501   5.667   0.748   4.176
 8201SOL    HW125502   5.737   0.704   4.119
 8201SOL    HW225503   5.685   0.846   4.180
 8202SOL     OW25504   6.930   5.549   3.997
 8202SOL    HW125505   6.890   5.467   3.956
 8202SOL    HW225506   6.988   5.595   3.929
 8203SOL     OW25507   3.566   2.408   6.926
 8203SOL    HW125508   3.559   2.322   6.875
 8203SOL    HW225509   3.606   2.479   6.867
 8204SOL     OW25510   3.398   4.954   6.785
 8204SOL    HW125511   3.340   5.029   6.753
 8204SOL    HW225512   3.478   4.946   6.725
 8205SOL     OW25513   0.835   4.647   0.629
 8205SOL    HW125514   0.895   4.605   0.696
 8205SOL    HW225515   0.751   4.678   0.673
 8206SOL     OW25516   4.771   1.906   6.374
 8206SOL    HW125517   4.677   1.871   6.364
 8206SOL    HW225518   4.779   1.994   6.328
 8207SOL     OW25519   2.871   3.631   4.200
 8207SOL    HW125520   2.920   3.545   4.210
 8207SOL    HW225521   2.864   3.655   4.103
 8208SOL     OW25522   1.413   0.555   1.486
 8208SOL    HW125523   1.389   0.486   1.554
 8208SOL    HW225524   1.375   0.530   1.397
 8209SOL     OW25525   0.781   1.784   5.105
 8209SOL    HW125526   0.692   1.749   5.075
 8209SOL    HW225527   0.774   1.820   5.197
 8210SOL     OW25528   2.164   1.372   1.166
 8210SOL    HW125529   2.173   1.291   1.108
 8210SOL    HW225530   2.067   1.393   1.178
 8211SOL     OW25531   3.740   4.227   1.807
 8211SOL    HW125532   3.677   4.279   1.749
 8211SOL    HW225533   3.803   4.176   1.749
 8212SOL     OW25534   1.930   2.069   1.573
 8212SOL    HW125535   1.969   2.043   1.662
 8212SOL    HW225536   1.870   1.996   1.541
 8213SOL     OW25537   6.589   4.530   2.610
 8213SOL    HW125538   6.573   4.437   2.579
 8213SOL    HW225539   6.528   4.552   2.685
 8214SOL     OW25540   5.994   5.686   4.478
 8214SOL    HW125541   6.078   5.709   4.528
 8214SOL    HW225542   5.946   5.770   4.453
 8215SOL     OW25543   3.100   5.869   5.995
 8215SOL    HW125544   3.012   5.823   5.983
 8215SOL    HW225545   3.121   5.873   6.093
 8216SOL     OW25546   5.445   5.085   3.844
 8216SOL    HW125547   5.542   5.059   3.847
 8216SOL    HW225548   5.401   5.038   3.768
 8217SOL     OW25549   2.227   3.599   0.642
 8217SOL    HW125550   2.162   3.652   0.698
 8217SOL    HW225551   2.180   3.564   0.561
 8218SOL     OW25552   6.582   6.964   5.150
 8218SOL    HW125553   6.588   6.875   5.105
 8218SOL    HW225554   6.487   6.993   5.154
 8219SOL     OW25555   4.372   3.109   0.795
 8219SOL    HW125556   4.399   3.037   0.731
 8219SOL    HW225557   4.406   3.088   0.886
 8220SOL     OW25558   3.068   3.148   3.848
 8220SOL    HW125559   3.034   3.054   3.846
 8220SOL    HW225560   3.130   3.162   3.770
 8221SOL     OW25561   5.626   6.746   3.671
 8221SOL    HW125562   5.538   6.738   3.624
 8221SOL    HW225563   5.614   6.730   3.769
 8222SOL     OW25564   5.954   1.600   1.104
 8222SOL    HW125565   5.964   1.609   1.203
 8222SOL    HW225566   5.917   1.510   1.082
 8223SOL     OW25567   0.758   4.095   5.111
 8223SOL    HW125568   0.716   4.117   5.199
 8223SOL    HW225569   0.798   4.003   5.114
 8224SOL     OW25570   5.448   1.459   2.183
 8224SOL    HW125571   5.502   1.382   2.216
 8224SOL    HW225572   5.458   1.467   2.084
 8225SOL     OW25573   3.317   1.554   1.215
 8225SOL    HW125574   3.412   1.571   1.189
 8225SOL    HW225575   3.306   1.457   1.239
 8226SOL     OW25576   3.702   6.665   0.311
 8226SOL    HW125577   3.725   6.641   0.406
 8226SOL    HW225578   3.650   6.751   0.310
 8227SOL     OW25579   0.166   1.009   2.842
 8227SOL    HW125580   0.102   0.933   2.830
 8227SOL    HW225581   0.244   0.997   2.781
 8228SOL     OW25582   6.572   2.219   6.002
 8228SOL    HW125583   6.670   2.227   6.020
 8228SOL    HW225584   6.529   2.167   6.076
 8229SOL     OW25585   5.055   3.340   0.722
 8229SOL    HW125586   5.012   3.257   0.685
 8229SOL    HW225587   5.088   3.322   0.815
 8230SOL     OW25588   3.572   0.137   5.065
 8230SOL    HW125589   3.546   0.053   5.113
 8230SOL    HW225590   3.669   0.155   5.079
 8231SOL     OW25591   2.999   3.731   0.658
 8231SOL    HW125592   2.942   3.721   0.576
 8231SOL    HW225593   2.988   3.651   0.717
 8232SOL     OW25594   4.277   1.679   1.475
 8232SOL    HW125595   4.206   1.657   1.542
 8232SOL    HW225596   4.305   1.774   1.486
 8233SOL     OW25597   0.639   6.280   5.621
 8233SOL    HW125598   0.637   6.182   5.602
 8233SOL    HW225599   0.634   6.295   5.719
 8234SOL     OW25600   2.881   3.859   6.534
 8234SOL    HW125601   2.832   3.790   6.588
 8234SOL    HW225602   2.827   3.883   6.453
 8235SOL     OW25603   0.616   2.441   0.344
 8235SOL    HW125604   0.597   2.537   0.364
 8235SOL    HW225605   0.555   2.410   0.271
 8236SOL     OW25606   0.976   4.473   0.804
 8236SOL    HW125607   0.884   4.436   0.813
 8236SOL    HW225608   1.028   4.418   0.739
 8237SOL     OW25609   4.698   6.503   5.293
 8237SOL    HW125610   4.776   6.510   5.354
 8237SOL    HW225611   4.724   6.455   5.209
 8238SOL     OW25612   0.608   5.408   6.167
 8238SOL    HW125613   0.542   5.470   6.125
 8238SOL    HW225614   0.685   5.461   6.204
 8239SOL     OW25615   0.039   0.809   5.596
 8239SOL    HW125616   6.994   0.842   5.662
 8239SOL    HW225617   0.108   0.879   5.580
 8240SOL     OW25618   3.283   3.793   2.321
 8240SOL    HW125619   3.312   3.758   2.232
 8240SOL    HW225620   3.199   3.746   2.349
 8241SOL     OW25621   3.538   6.358   6.115
 8241SOL    HW125622   3.475   6.334   6.189
 8241SOL    HW225623   3.632   6.338   6.142
 8242SOL     OW25624   0.535   4.048   6.133
 8242SOL    HW125625   0.493   4.127   6.177
 8242SOL    HW225626   0.566   4.073   6.041
 8243SOL     OW25627   0.475   3.024   0.438
 8243SOL    HW125628   0.498   3.117   0.464
 8243SOL    HW225629   0.440   3.024   0.344
 8244SOL     OW25630   0.292   0.940   4.743
 8244SOL    HW125631   0.196   0.927   4.769
 8244SOL    HW225632   0.299   0.945   4.644
 8245SOL     OW25633   3.964   1.495   2.455
 8245SOL    HW125634   4.051   1.479   2.409
 8245SOL    HW225635   3.966   1.454   2.546
 8246SOL     OW25636   1.454   3.126   5.955
 8246SOL    HW125637   1.542   3.172   5.966
 8246SOL    HW225638   1.446   3.091   5.862
 8247SOL     OW25639   1.429   1.109   2.732
 8247SOL    HW125640   1.472   1.199   2.741
 8247SOL    HW225641   1.462   1.048   2.805
 8248SOL     OW25642   6.901   4.996   4.898
 8248SOL    HW125643   6.998   5.019   4.894
 8248SOL    HW225644   6.868   4.975   4.806
 8249SOL     OW25645   2.157   2.371   5.914
 8249SOL    HW125646   2.230   2.302   5.912
 8249SOL    HW225647   2.116   2.378   5.823
 8250SOL     OW25648   3.238   3.882   1.418
 8250SOL    HW125649   3.157   3.915   1.466
 8250SOL    HW225650   3.272   3.799   1.463
 8251SOL     OW25651   4.910   3.453   4.669
 8251SOL    HW125652   4.888   3.364   4.708
 8251SOL    HW225653   4.923   3.519   4.744
 8252SOL     OW25654   3.583   1.432   5.458
 8252SOL    HW125655   3.534   1.424   5.544
 8252SOL    HW225656   3.678   1.458   5.476
 8253SOL     OW25657   4.616   5.203   5.830
 8253SOL    HW125658   4.626   5.289   5.879
 8253SOL    HW225659   4.551   5.214   5.755
 8254SOL     OW25660   4.575   4.323   5.189
 8254SOL    HW125661   4.587   4.240   5.245
 8254SOL    HW225662   4.609   4.306   5.097
 8255SOL     OW25663   1.803   6.975   5.079
 8255SOL    HW125664   1.897   6.986   5.111
 8255SOL    HW225665   1.740   7.012   5.147
 8256SOL     OW25666   6.858   6.252   1.670
 8256SOL    HW125667   6.816   6.302   1.746
 8256SOL    HW225668   6.866   6.313   1.591
 8257SOL     OW25669   5.237   4.207   3.173
 8257SOL    HW125670   5.330   4.206   3.134
 8257SOL    HW225671   5.211   4.114   3.197
 8258SOL     OW25672   5.611   2.469   1.252
 8258SOL    HW125673   5.597   2.457   1.153
 8258SOL    HW225674   5.702   2.436   1.277
 8259SOL     OW25675   3.688   1.637   4.261
 8259SOL    HW125676   3.650   1.724   4.227
 8259SOL    HW225677   3.786   1.634   4.242
 8260SOL     OW25678   2.594   6.744   1.001
 8260SOL    HW125679   2.534   6.792   1.066
 8260SOL    HW225680   2.688   6.748   1.034
 8261SOL     OW25681   5.622   0.255   1.715
 8261SOL    HW125682   5.628   0.341   1.665
 8261SOL    HW225683   5.712   0.212   1.719
 8262SOL     OW25684   0.819   2.459   6.805
 8262SOL    HW125685   0.870   2.537   6.839
 8262SOL    HW225686   0.754   2.428   6.874
 8263SOL     OW25687   0.511   2.658   6.322
 8263SOL    HW125688   0.514   2.747   6.275
 8263SOL    HW225689   0.423   2.650   6.370
 8264SOL     OW25690   1.868   6.149   1.902
 8264SOL    HW125691   1.833   6.230   1.947
 8264SOL    HW225692   1.949   6.173   1.847
 8265SOL     OW25693   6.490   0.950   1.148
 8265SOL    HW125694   6.446   1.033   1.182
 8265SOL    HW225695   6.489   0.949   1.048
 8266SOL     OW25696   2.501   1.372   4.126
 8266SOL    HW125697   2.424   1.369   4.062
 8266SOL    HW225698   2.476   1.323   4.209
 8267SOL     OW25699   1.923   3.450   1.055
 8267SOL    HW125700   1.953   3.357   1.078
 8267SOL    HW225701   2.001   3.503   1.024
 8268SOL     OW25702   1.991   6.721   6.039
 8268SOL    HW125703   1.935   6.756   5.963
 8268SOL    HW225704   1.931   6.696   6.115
 8269SOL     OW25705   4.451   1.389   2.058
 8269SOL    HW125706   4.505   1.332   2.119
 8269SOL    HW225707   4.483   1.484   2.063
 8270SOL     OW25708   3.174   6.199   5.061
 8270SOL    HW125709   3.146   6.144   4.982
 8270SOL    HW225710   3.105   6.191   5.132
 8271SOL     OW25711   0.674   6.465   3.893
 8271SOL    HW125712   0.629   6.463   3.804
 8271SOL    HW225713   0.608   6.448   3.965
 8272SOL     OW25714   6.259   1.916   2.832
 8272SOL    HW125715   6.226   2.000   2.787
 8272SOL    HW225716   6.344   1.887   2.789
 8273SOL     OW25717   2.674   0.926   1.227
 8273SOL    HW125718   2.692   0.887   1.317
 8273SOL    HW225719   2.598   0.990   1.233
 8274SOL     OW25720   4.403   5.264   3.873
 8274SOL    HW125721   4.369   5.174   3.844
 8274SOL    HW225722   4.362   5.287   3.961
 8275SOL     OW25723   5.965   1.024   4.697
 8275SOL    HW125724   6.001   1.108   4.657
 8275SOL    HW225725   5.887   0.992   4.644
 8276SOL     OW25726   0.811   2.232   4.290
 8276SOL    HW125727   0.789   2.158   4.354
 8276SOL    HW225728   0.776   2.318   4.327
 8277SOL     OW25729   0.382   6.129   6.264
 8277SOL    HW125730   0.343   6.042   6.294
 8277SOL    HW225731   0.385   6.131   6.164
 8278SOL     OW25732   3.156   1.318   6.500
 8278SOL    HW125733   3.119   1.226   6.488
 8278SOL    HW225734   3.162   1.363   6.411
 8279SOL     OW25735   1.022   6.121   4.592
 8279SOL    HW125736   0.943   6.182   4.602
 8279SOL    HW225737   1.106   6.174   4.609
 8280SOL     OW25738   2.633   2.933   0.497
 8280SOL    HW125739   2.632   3.014   0.555
 8280SOL    HW225740   2.551   2.878   0.515
 8281SOL     OW25741   2.763   4.241   1.690
 8281SOL    HW125742   2.670   4.276   1.696
 8281SOL    HW225743   2.824   4.300   1.743
 8282SOL     OW25744   5.034   3.740   0.234
 8282SOL    HW125745   5.131   3.727   0.213
 8282SOL    HW225746   5.025   3.773   0.328
 8283SOL     OW25747   1.260   5.257   5.275
 8283SOL    HW125748   1.163   5.260   5.252
 8283SOL    HW225749   1.295   5.349   5.286
 8284SOL     OW25750   1.237   3.573   1.459
 8284SOL    HW125751   1.256   3.635   1.383
 8284SOL    HW225752   1.191   3.624   1.532
 8285SOL     OW25753   3.341   4.009   4.940
 8285SOL    HW125754   3.358   4.075   5.013
 8285SOL    HW225755   3.257   4.034   4.892
 8286SOL     OW25756   5.245   1.882   5.620
 8286SOL    HW125757   5.179   1.923   5.684
 8286SOL    HW225758   5.203   1.872   5.530
 8287SOL     OW25759   1.434   4.579   4.495
 8287SOL    HW125760   1.470   4.631   4.572
 8287SOL    HW225761   1.428   4.482   4.520
 8288SOL     OW25762   3.031   2.182   2.264
 8288SOL    HW125763   3.129   2.161   2.265
 8288SOL    HW225764   3.007   2.225   2.177
 8289SOL     OW25765   0.602   6.252   6.736
 8289SOL    HW125766   0.647   6.243   6.825
 8289SOL    HW225767   0.542   6.174   6.721
 8290SOL     OW25768   5.206   1.563   0.876
 8290SOL    HW125769   5.223   1.595   0.969
 8290SOL    HW225770   5.113   1.590   0.849
 8291SOL     OW25771   4.377   5.847   4.995
 8291SOL    HW125772   4.450   5.825   4.930
 8291SOL    HW225773   4.363   5.770   5.057
 8292SOL     OW25774   3.073   6.591   6.662
 8292SOL    HW125775   3.138   6.588   6.585
 8292SOL    HW225776   3.091   6.514   6.723
 8293SOL     OW25777   2.124   5.656   0.699
 8293SOL    HW125778   2.049   5.599   0.733
 8293SOL    HW225779   2.189   5.600   0.649
 8294SOL     OW25780   5.853   3.779   5.269
 8294SOL    HW125781   5.877   3.874   5.287
 8294SOL    HW225782   5.792   3.775   5.189
 8295SOL     OW25783   4.890   5.177   1.809
 8295SOL    HW125784   4.795   5.199   1.786
 8295SOL    HW225785   4.915   5.090   1.766
 8296SOL     OW25786   1.811   4.968   6.700
 8296SOL    HW125787   1.904   4.983   6.666
 8296SOL    HW225788   1.814   4.952   6.798
 8297SOL     OW25789   0.114   2.966   2.774
 8297SOL    HW125790   0.099   2.894   2.706
 8297SOL    HW225791   0.066   3.049   2.746
 8298SOL     OW25792   6.305   1.511   0.719
 8298SOL    HW125793   6.404   1.494   0.718
 8298SOL    HW225794   6.284   1.588   0.659
 8299SOL     OW25795   0.278   2.437   2.403
 8299SOL    HW125796   0.188   2.395   2.417
 8299SOL    HW225797   0.349   2.376   2.438
 8300SOL     OW25798   6.786   5.420   4.259
 8300SOL    HW125799   6.688   5.424   4.279
 8300SOL    HW225800   6.812   5.500   4.205
 8301SOL     OW25801   3.807   1.289   0.539
 8301SOL    HW125802   3.770   1.196   0.549
 8301SOL    HW225803   3.892   1.296   0.591
 8302SOL     OW25804   5.575   0.013   6.462
 8302SOL    HW125805   5.554   7.004   6.555
 8302SOL    HW225806   5.674   0.023   6.452
 8303SOL     OW25807   5.874   0.637   4.057
 8303SOL    HW125808   5.868   0.604   3.963
 8303SOL    HW225809   5.968   0.667   4.076
 8304SOL     OW25810   6.089   3.350   0.749
 8304SOL    HW125811   6.096   3.302   0.836
 8304SOL    HW225812   6.101   3.285   0.674
 8305SOL     OW25813   4.354   4.760   3.496
 8305SOL    HW125814   4.270   4.786   3.448
 8305SOL    HW225815   4.414   4.839   3.505
 8306SOL     OW25816   5.789   1.529   4.850
 8306SOL    HW125817   5.871   1.489   4.892
 8306SOL    HW225818   5.744   1.588   4.917
 8307SOL     OW25819   3.436   5.088   1.544
 8307SOL    HW125820   3.393   5.026   1.479
 8307SOL    HW225821   3.479   5.035   1.617
 8308SOL     OW25822   2.597   5.778   1.090
 8308SOL    HW125823   2.613   5.789   1.188
 8308SOL    HW225824   2.562   5.686   1.071
 8309SOL     OW25825   6.736   5.568   3.462
 8309SOL    HW125826   6.715   5.571   3.365
 8309SOL    HW225827   6.682   5.495   3.505
 8310SOL     OW25828   0.541   5.564   1.638
 8310SOL    HW125829   0.536   5.596   1.732
 8310SOL    HW225830   0.454   5.522   1.612
 8311SOL     OW25831   0.647   2.182   5.231
 8311SOL    HW125832   0.662   2.280   5.245
 8311SOL    HW225833   0.620   2.166   5.136
 8312SOL     OW25834   4.775   0.135   6.542
 8312SOL    HW125835   4.807   0.118   6.635
 8312SOL    HW225836   4.826   0.211   6.502
 8313SOL     OW25837   5.234   0.056   0.017
 8313SOL    HW125838   5.230   0.009   6.951
 8313SOL    HW225839   5.200   7.017   0.088
 8314SOL     OW25840   5.255   0.332   0.378
 8314SOL    HW125841   5.202   0.394   0.437
 8314SOL    HW225842   5.206   0.245   0.369
 8315SOL     OW25843   4.453   3.147   1.372
 8315SOL    HW125844   4.359   3.136   1.404
 8315SOL    HW225845   4.515   3.104   1.437
 8316SOL     OW25846   1.670   1.898   2.042
 8316SOL    HW125847   1.732   1.949   1.982
 8316SOL    HW225848   1.577   1.901   2.003
 8317SOL     OW25849   1.541   2.765   2.449
 8317SOL    HW125850   1.611   2.726   2.389
 8317SOL    HW225851   1.478   2.692   2.478
 8318SOL     OW25852   4.138   1.760   5.839
 8318SOL    HW125853   4.168   1.671   5.806
 8318SOL    HW225854   4.099   1.751   5.930
 8319SOL     OW25855   1.540   1.706   0.513
 8319SOL    HW125856   1.517   1.611   0.531
 8319SOL    HW225857   1.461   1.764   0.532
 8320SOL     OW25858   2.983   3.380   2.330
 8320SOL    HW125859   2.926   3.362   2.250
 8320SOL    HW225860   3.076   3.346   2.314
 8321SOL     OW25861   6.712   6.845   6.509
 8321SOL    HW125862   6.638   6.781   6.490
 8321SOL    HW225863   6.768   6.811   6.585
 8322SOL     OW25864   6.190   0.158   0.796
 8322SOL    HW125865   6.161   0.099   0.721
 8322SOL    HW225866   6.154   0.250   0.782
 8323SOL     OW25867   5.430   5.718   1.832
 8323SOL    HW125868   5.463   5.795   1.888
 8323SOL    HW225869   5.393   5.647   1.892
 8324SOL     OW25870   5.825   6.998   1.571
 8324SOL    HW125871   5.780   0.020   1.494
 8324SOL    HW225872   5.811   6.899   1.564
 8325SOL     OW25873   2.338   3.796   5.273
 8325SOL    HW125874   2.278   3.758   5.202
 8325SOL    HW225875   2.375   3.883   5.241
 8326SOL     OW25876   4.946   3.239   6.442
 8326SOL    HW125877   4.872   3.235   6.510
 8326SOL    HW225878   4.991   3.150   6.438
 8327SOL     OW25879   7.015   0.451   6.011
 8327SOL    HW125880   6.936   0.469   6.070
 8327SOL    HW225881   0.004   0.528   5.947
 8328SOL     OW25882   2.476   6.465   6.278
 8328SOL    HW125883   2.380   6.440   6.289
 8328SOL    HW225884   2.484   6.563   6.258
 8329SOL     OW25885   1.166   2.854   5.902
 8329SOL    HW125886   1.168   2.909   5.818
 8329SOL    HW225887   1.199   2.762   5.882
 8330SOL     OW25888   2.701   1.120   6.292
 8330SOL    HW125889   2.779   1.102   6.232
 8330SOL    HW225890   2.704   1.215   6.324
 8331SOL     OW25891   3.244   0.545   1.520
 8331SOL    HW125892   3.253   0.584   1.429
 8331SOL    HW225893   3.169   0.480   1.522
 8332SOL     OW25894   5.321   5.389   2.681
 8332SOL    HW125895   5.380   5.458   2.640
 8332SOL    HW225896   5.243   5.371   2.622
 8333SOL     OW25897   0.063   5.626   6.276
 8333SOL    HW125898   0.067   5.622   6.376
 8333SOL    HW225899   0.136   5.569   6.237
 8334SOL     OW25900   3.929   1.141   4.194
 8334SOL    HW125901   3.837   1.152   4.232
 8334SOL    HW225902   3.926   1.149   4.095
 8335SOL     OW25903   5.202   0.801   0.248
 8335SOL    HW125904   5.161   0.861   0.317
 8335SOL    HW225905   5.154   0.713   0.249
 8336SOL     OW25906   0.311   4.518   3.299
 8336SOL    HW125907   0.354   4.608   3.306
 8336SOL    HW225908   0.212   4.528   3.310
 8337SOL     OW25909   1.788   6.533   3.329
 8337SOL    HW125910   1.709   6.472   3.325
 8337SOL    HW225911   1.868   6.481   3.359
 8338SOL     OW25912   3.731   5.139   1.878
 8338SOL    HW125913   3.721   5.069   1.949
 8338SOL    HW225914   3.771   5.098   1.796
 8339SOL     OW25915   6.541   0.265   1.848
 8339SOL    HW125916   6.449   0.252   1.810
 8339SOL    HW225917   6.608   0.267   1.774
 8340SOL     OW25918   5.093   3.279   0.998
 8340SOL    HW125919   5.053   3.262   1.088
 8340SOL    HW225920   5.173   3.338   1.008
 8341SOL     OW25921   3.150   6.838   0.045
 8341SOL    HW125922   3.121   6.852   0.140
 8341SOL    HW225923   3.214   6.910   0.019
 8342SOL     OW25924   4.376   6.428   0.766
 8342SOL    HW125925   4.455   6.376   0.737
 8342SOL    HW225926   4.404   6.498   0.832
 8343SOL     OW25927   1.036   5.129   4.903
 8343SOL    HW125928   1.000   5.039   4.877
 8343SOL    HW225929   1.134   5.121   4.922
 8344SOL     OW25930   4.925   5.677   5.099
 8344SOL    HW125931   4.839   5.714   5.133
 8344SOL    HW225932   4.908   5.620   5.018
 8345SOL     OW25933   4.282   1.366   2.885
 8345SOL    HW125934   4.220   1.291   2.909
 8345SOL    HW225935   4.300   1.363   2.787
 8346SOL     OW25936   4.320   4.794   0.288
 8346SOL    HW125937   4.246   4.728   0.301
 8346SOL    HW225938   4.320   4.824   0.192
 8347SOL     OW25939   3.947   5.833   3.733
 8347SOL    HW125940   4.025   5.896   3.736
 8347SOL    HW225941   3.971   5.753   3.677
 8348SOL     OW25942   1.944   1.280   1.613
 8348SOL    HW125943   1.987   1.240   1.532
 8348SOL    HW225944   2.014   1.320   1.672
 8349SOL     OW25945   6.319   6.822   1.890
 8349SOL    HW125946   6.278   6.730   1.894
 8349SOL    HW225947   6.406   6.822   1.940
 8350SOL     OW25948   3.290   6.869   6.047
 8350SOL    HW125949   3.343   6.851   5.964
 8350SOL    HW225950   3.331   6.819   6.123
 8351SOL     OW25951   5.704   5.334   4.333
 8351SOL    HW125952   5.663   5.371   4.250
 8351SOL    HW225953   5.648   5.359   4.412
 8352SOL     OW25954   0.494   0.261   3.804
 8352SOL    HW125955   0.554   0.311   3.868
 8352SOL    HW225956   0.421   0.322   3.773
 8353SOL     OW25957   0.013   3.662   1.565
 8353SOL    HW125958   6.986   3.705   1.641
 8353SOL    HW225959   0.048   3.733   1.504
 8354SOL     OW25960   4.309   6.792   5.138
 8354SOL    HW125961   4.356   6.748   5.214
 8354SOL    HW225962   4.374   6.848   5.087
 8355SOL     OW25963   2.281   0.663   6.098
 8355SOL    HW125964   2.216   0.588   6.105
 8355SOL    HW225965   2.339   0.665   6.180
 8356SOL     OW25966   0.693   6.871   0.983
 8356SOL    HW125967   0.791   6.872   0.962
 8356SOL    HW225968   0.645   6.936   0.924
 8357SOL     OW25969   3.326   6.851   4.914
 8357SOL    HW125970   3.407   6.909   4.909
 8357SOL    HW225971   3.290   6.836   4.822
 8358SOL     OW25972   1.558   4.148   4.841
 8358SOL    HW125973   1.515   4.072   4.794
 8358SOL    HW225974   1.655   4.151   4.818
 8359SOL     OW25975   2.871   0.695   5.140
 8359SOL    HW125976   2.946   0.750   5.177
 8359SOL    HW225977   2.842   0.733   5.052
 8360SOL     OW25978   4.025   6.171   0.723
 8360SOL    HW125979   3.991   6.157   0.817
 8360SOL    HW225980   4.035   6.269   0.706
 8361SOL     OW25981   2.978   0.501   2.653
 8361SOL    HW125982   3.047   0.442   2.696
 8361SOL    HW225983   2.932   0.450   2.580
 8362SOL     OW25984   4.002   1.952   0.835
 8362SOL    HW125985   3.969   1.943   0.928
 8362SOL    HW225986   3.927   1.936   0.770
 8363SOL     OW25987   6.170   2.792   6.348
 8363SOL    HW125988   6.235   2.725   6.313
 8363SOL    HW225989   6.094   2.745   6.393
 8364SOL     OW25990   1.115   2.743   3.560
 8364SOL    HW125991   1.035   2.691   3.590
 8364SOL    HW225992   1.087   2.815   3.496
 8365SOL     OW25993   1.496   2.899   1.983
 8365SOL    HW125994   1.454   2.950   2.058
 8365SOL    HW225995   1.478   2.946   1.896
 8366SOL     OW25996   1.949   5.848   1.734
 8366SOL    HW125997   2.041   5.879   1.710
 8366SOL    HW225998   1.955   5.773   1.800
 8367SOL     OW25999   4.332   5.744   4.070
 8367SOL    HW126000   4.401   5.803   4.028
 8367SOL    HW226001   4.270   5.710   3.999
 8368SOL     OW26002   1.657   6.030   6.516
 8368SOL    HW126003   1.642   6.083   6.432
 8368SOL    HW226004   1.743   5.980   6.509
 8369SOL     OW26005   1.236   6.747   6.454
 8369SOL    HW126006   1.299   6.735   6.378
 8369SOL    HW226007   1.147   6.776   6.419
 8370SOL     OW26008   3.006   1.363   6.044
 8370SOL    HW126009   2.976   1.268   6.040
 8370SOL    HW226010   3.098   1.371   6.004
 8371SOL     OW26011   2.287   4.689   0.780
 8371SOL    HW126012   2.343   4.658   0.704
 8371SOL    HW226013   2.194   4.652   0.771
 8372SOL     OW26014   2.018   5.139   1.900
 8372SOL    HW126015   1.983   5.132   1.994
 8372SOL    HW226016   2.114   5.112   1.898
 8373SOL     OW26017   1.450   0.085   4.529
 8373SOL    HW126018   1.480   0.020   4.599
 8373SOL    HW226019   1.361   0.055   4.492
 8374SOL     OW26020   0.165   0.848   5.283
 8374SOL    HW126021   0.256   0.816   5.253
 8374SOL    HW226022   0.103   0.770   5.290
 8375SOL     OW26023   3.012   6.447   5.151
 8375SOL    HW126024   3.064   6.367   5.182
 8375SOL    HW226025   3.046   6.529   5.197
 8376SOL     OW26026   1.173   1.260   4.257
 8376SOL    HW126027   1.185   1.169   4.218
 8376SOL    HW226028   1.080   1.293   4.238
 8377SOL     OW26029   5.147   6.064   0.545
 8377SOL    HW126030   5.228   6.098   0.498
 8377SOL    HW226031   5.173   5.992   0.610
 8378SOL     OW26032   4.461   5.454   2.853
 8378SOL    HW126033   4.386   5.389   2.838
 8378SOL    HW226034   4.423   5.543   2.876
 8379SOL     OW26035   5.634   3.233   1.155
 8379SOL    HW126036   5.726   3.255   1.188
 8379SOL    HW226037   5.578   3.200   1.232
 8380SOL     OW26038   0.461   0.357   2.625
 8380SOL    HW126039   0.506   0.410   2.697
 8380SOL    HW226040   0.476   0.401   2.536
 8381SOL     OW26041   0.453   2.882   5.156
 8381SOL    HW126042   0.513   2.867   5.077
 8381SOL    HW226043   0.364   2.914   5.125
 8382SOL     OW26044   2.791   0.533   2.885
 8382SOL    HW126045   2.695   0.555   2.867
 8382SOL    HW226046   2.845   0.549   2.802
 8383SOL     OW26047   2.738   0.049   6.082
 8383SOL    HW126048   2.828   0.078   6.051
 8383SOL    HW226049   2.676   0.128   6.086
 8384SOL     OW26050   6.209   0.736   1.464
 8384SOL    HW126051   6.288   0.729   1.404
 8384SOL    HW226052   6.234   0.704   1.556
 8385SOL     OW26053   5.839   2.535   1.077
 8385SOL    HW126054   5.825   2.470   1.002
 8385SOL    HW226055   5.795   2.622   1.054
 8386SOL     OW26056   2.382   5.573   2.082
 8386SOL    HW126057   2.367   5.530   2.171
 8386SOL    HW226058   2.313   5.644   2.068
 8387SOL     OW26059   1.138   1.169   1.592
 8387SOL    HW126060   1.168   1.093   1.650
 8387SOL    HW226061   1.061   1.140   1.536
 8388SOL     OW26062   2.163   6.253   0.198
 8388SOL    HW126063   2.068   6.224   0.180
 8388SOL    HW226064   2.190   6.222   0.289
 8389SOL     OW26065   0.490   3.412   2.685
 8389SOL    HW126066   0.426   3.481   2.718
 8389SOL    HW226067   0.479   3.402   2.586
 8390SOL     OW26068   4.782   1.198   0.341
 8390SOL    HW126069   4.806   1.168   0.433
 8390SOL    HW226070   4.851   1.165   0.276
 8391SOL     OW26071   6.413   5.182   0.897
 8391SOL    HW126072   6.417   5.102   0.957
 8391SOL    HW226073   6.336   5.240   0.925
 8392SOL     OW26074   6.540   4.412   4.930
 8392SOL    HW126075   6.556   4.454   5.019
 8392SOL    HW226076   6.587   4.466   4.860
 8393SOL     OW26077   0.397   6.317   2.646
 8393SOL    HW126078   0.455   6.300   2.726
 8393SOL    HW226079   0.443   6.379   2.583
 8394SOL     OW26080   6.660   3.010   1.965
 8394SOL    HW126081   6.666   2.972   1.873
 8394SOL    HW226082   6.595   3.086   1.966
 8395SOL     OW26083   2.088   6.663   5.193
 8395SOL    HW126084   2.025   6.726   5.149
 8395SOL    HW226085   2.036   6.591   5.239
 8396SOL     OW26086   5.080   5.198   2.082
 8396SOL    HW126087   5.022   5.173   2.005
 8396SOL    HW226088   5.026   5.248   2.149
 8397SOL     OW26089   1.793   0.581   2.798
 8397SOL    HW126090   1.813   0.656   2.735
 8397SOL    HW226091   1.719   0.608   2.860
 8398SOL     OW26092   3.871   1.779   6.762
 8398SOL    HW126093   3.843   1.777   6.858
 8398SOL    HW226094   3.796   1.748   6.705
 8399SOL     OW26095   5.856   5.944   6.916
 8399SOL    HW126096   5.954   5.943   6.898
 8399SOL    HW226097   5.824   5.851   6.937
 8400SOL     OW26098   1.661   1.401   4.479
 8400SOL    HW126099   1.594   1.353   4.537
 8400SOL    HW226100   1.748   1.352   4.481
 8401SOL     OW26101   2.565   1.487   6.212
 8401SOL    HW126102   2.484   1.505   6.268
 8401SOL    HW226103   2.538   1.439   6.128
 8402SOL     OW26104   4.406   1.598   5.420
 8402SOL    HW126105   4.320   1.549   5.433
 8402SOL    HW226106   4.478   1.553   5.472
 8403SOL     OW26107   1.162   2.685   4.493
 8403SOL    HW126108   1.141   2.587   4.487
 8403SOL    HW226109   1.246   2.698   4.546
 8404SOL     OW26110   4.221   0.023   5.786
 8404SOL    HW126111   4.245   6.971   5.847
 8404SOL    HW226112   4.178   7.009   5.703
 8405SOL     OW26113   1.678   0.928   5.470
 8405SOL    HW126114   1.580   0.907   5.472
 8405SOL    HW226115   1.711   0.942   5.563
 8406SOL     OW26116   4.885   0.259   0.414
 8406SOL    HW126117   4.941   0.301   0.485
 8406SOL    HW226118   4.812   0.205   0.457
 8407SOL     OW26119   3.493   6.447   3.856
 8407SOL    HW126120   3.501   6.347   3.853
 8407SOL    HW226121   3.538   6.481   3.938
 8408SOL     OW26122   6.286   3.900   1.937
 8408SOL    HW126123   6.197   3.871   1.970
 8408SOL    HW226124   6.340   3.935   2.013
 8409SOL     OW26125   5.958   2.627   3.474
 8409SOL    HW126126   5.989   2.682   3.551
 8409SOL    HW226127   5.859   2.619   3.477
 8410SOL     OW26128   4.814   0.850   2.133
 8410SOL    HW126129   4.831   0.774   2.196
 8410SOL    HW226130   4.850   0.934   2.172
 8411SOL     OW26131   0.568   4.883   0.180
 8411SOL    HW126132   0.555   4.922   0.089
 8411SOL    HW226133   0.584   4.957   0.246
 8412SOL     OW26134   3.259   1.374   1.611
 8412SOL    HW126135   3.354   1.350   1.634
 8412SOL    HW226136   3.248   1.372   1.512
 8413SOL     OW26137   4.289   5.424   6.985
 8413SOL    HW126138   4.369   5.380   6.946
 8413SOL    HW226139   4.220   5.355   7.007
 8414SOL     OW26140   3.591   5.201   3.078
 8414SOL    HW126141   3.617   5.105   3.064
 8414SOL    HW226142   3.661   5.246   3.133
 8415SOL     OW26143   0.114   6.330   3.953
 8415SOL    HW126144   0.016   6.345   3.964
 8415SOL    HW226145   0.156   6.318   4.043
 8416SOL     OW26146   5.605   3.634   2.184
 8416SOL    HW126147   5.634   3.708   2.244
 8416SOL    HW226148   5.604   3.548   2.235
 8417SOL     OW26149   1.763   3.983   5.631
 8417SOL    HW126150   1.787   4.049   5.559
 8417SOL    HW226151   1.798   4.015   5.719
 8418SOL     OW26152   6.013   5.130   1.028
 8418SOL    HW126153   6.041   5.153   0.935
 8418SOL    HW226154   6.093   5.132   1.088
 8419SOL     OW26155   5.718   6.938   1.822
 8419SOL    HW126156   5.635   6.892   1.791
 8419SOL    HW226157   5.759   6.987   1.745
 8420SOL     OW26158   4.145   0.185   0.104
 8420SOL    HW126159   4.225   0.163   0.160
 8420SOL    HW226160   4.150   0.134   0.018
 8421SOL     OW26161   1.825   5.173   0.067
 8421SOL    HW126162   1.868   5.088   0.099
 8421SOL    HW226163   1.875   5.251   0.106
 8422SOL     OW26164   3.991   1.029   1.552
 8422SOL    HW126165   3.976   1.019   1.650
 8422SOL    HW226166   3.996   0.938   1.510
 8423SOL     OW26167   3.105   4.698   5.555
 8423SOL    HW126168   3.093   4.797   5.559
 8423SOL    HW226169   3.083   4.666   5.462
 8424SOL     OW26170   2.609   2.079   2.346
 8424SOL    HW126171   2.532   2.118   2.396
 8424SOL    HW226172   2.621   2.129   2.260
 8425SOL     OW26173   5.142   4.834   5.905
 8425SOL    HW126174   5.163   4.904   5.973
 8425SOL    HW226175   5.153   4.872   5.814
 8426SOL     OW26176   3.361   3.602   3.225
 8426SOL    HW126177   3.283   3.611   3.163
 8426SOL    HW226178   3.373   3.506   3.251
 8427SOL     OW26179   3.729   4.101   4.987
 8427SOL    HW126180   3.688   4.064   4.904
 8427SOL    HW226181   3.720   4.201   4.988
 8428SOL     OW26182   0.810   5.506   1.525
 8428SOL    HW126183   0.823   5.439   1.598
 8428SOL    HW226184   0.713   5.528   1.516
 8429SOL     OW26185   1.230   5.768   3.782
 8429SOL    HW126186   1.221   5.815   3.694
 8429SOL    HW226187   1.139   5.740   3.815
 8430SOL     OW26188   3.549   5.133   3.384
 8430SOL    HW126189   3.522   5.158   3.291
 8430SOL    HW226190   3.513   5.042   3.405
 8431SOL     OW26191   3.086   4.524   0.519
 8431SOL    HW126192   3.044   4.453   0.462
 8431SOL    HW226193   3.179   4.542   0.487
 8432SOL     OW26194   5.578   6.891   5.957
 8432SOL    HW126195   5.509   6.963   5.963
 8432SOL    HW226196   5.534   6.803   5.939
 8433SOL     OW26197   5.271   2.440   0.561
 8433SOL    HW126198   5.315   2.351   0.554
 8433SOL    HW226199   5.309   2.502   0.492
 8434SOL     OW26200   2.754   6.208   4.897
 8434SOL    HW126201   2.740   6.249   4.807
 8434SOL    HW226202   2.694   6.128   4.907
 8435SOL     OW26203   6.345   0.673   1.947
 8435SOL    HW126204   6.378   0.760   1.910
 8435SOL    HW226205   6.333   0.681   2.046
 8436SOL     OW26206   3.301   6.252   3.288
 8436SOL    HW126207   3.215   6.280   3.245
 8436SOL    HW226208   3.364   6.219   3.217
 8437SOL     OW26209   2.386   1.160   4.550
 8437SOL    HW126210   2.384   1.068   4.591
 8437SOL    HW226211   2.475   1.202   4.567
 8438SOL     OW26212   2.442   4.573   2.357
 8438SOL    HW126213   2.516   4.588   2.423
 8438SOL    HW226214   2.357   4.552   2.406
 8439SOL     OW26215   6.842   4.620   2.986
 8439SOL    HW126216   6.767   4.642   3.047
 8439SOL    HW226217   6.887   4.704   2.957
 8440SOL     OW26218   1.604   2.109   3.620
 8440SOL    HW126219   1.598   2.208   3.629
 8440SOL    HW226220   1.607   2.067   3.710
 8441SOL     OW26221   6.080   6.407   0.411
 8441SOL    HW126222   5.992   6.442   0.441
 8441SOL    HW226223   6.087   6.412   0.312
 8442SOL     OW26224   3.058   2.203   4.746
 8442SOL    HW126225   3.120   2.233   4.819
 8442SOL    HW226226   2.978   2.160   4.786
 8443SOL     OW26227   2.478   4.842   3.314
 8443SOL    HW126228   2.423   4.875   3.390
 8443SOL    HW226229   2.421   4.831   3.233
 8444SOL     OW26230   3.155   6.306   3.979
 8444SOL    HW126231   3.224   6.372   3.949
 8444SOL    HW226232   3.146   6.234   3.911
 8445SOL     OW26233   3.835   6.502   1.184
 8445SOL    HW126234   3.815   6.441   1.107
 8445SOL    HW226235   3.784   6.473   1.265
 8446SOL     OW26236   4.863   4.856   6.609
 8446SOL    HW126237   4.944   4.800   6.624
 8446SOL    HW226238   4.834   4.897   6.695
 8447SOL     OW26239   4.620   1.239   2.236
 8447SOL    HW126240   4.604   1.305   2.309
 8447SOL    HW226241   4.677   1.280   2.165
 8448SOL     OW26242   4.391   5.716   4.369
 8448SOL    HW126243   4.317   5.743   4.429
 8448SOL    HW226244   4.356   5.704   4.276
 8449SOL     OW26245   0.103   2.754   3.746
 8449SOL    HW126246   0.197   2.785   3.761
 8449SOL    HW226247   0.062   2.808   3.672
 8450SOL     OW26248   0.475   6.918   1.419
 8450SOL    HW126249   0.399   6.983   1.419
 8450SOL    HW226250   0.440   6.825   1.412
 8451SOL     OW26251   3.749   1.646   0.439
 8451SOL    HW126252   3.736   1.632   0.341
 8451SOL    HW226253   3.722   1.740   0.463
 8452SOL     OW26254   6.019   1.486   2.834
 8452SOL    HW126255   5.971   1.413   2.786
 8452SOL    HW226256   6.057   1.551   2.768
 8453SOL     OW26257   0.544   4.026   6.865
 8453SOL    HW126258   0.623   4.081   6.835
 8453SOL    HW226259   0.533   4.036   6.964
 8454SOL     OW26260   6.685   6.401   1.830
 8454SOL    HW126261   6.712   6.470   1.898
 8454SOL    HW226262   6.613   6.440   1.771
 8455SOL     OW26263   6.148   2.422   2.209
 8455SOL    HW126264   6.163   2.394   2.114
 8455SOL    HW226265   6.062   2.472   2.215
 8456SOL     OW26266   3.633   5.810   2.995
 8456SOL    HW126267   3.608   5.718   3.025
 8456SOL    HW226268   3.563   5.844   2.932
 8457SOL     OW26269   6.541   6.923   4.283
 8457SOL    HW126270   6.454   6.885   4.255
 8457SOL    HW226271   6.544   7.020   4.259
 8458SOL     OW26272   3.361   0.823   6.698
 8458SOL    HW126273   3.295   0.850   6.768
 8458SOL    HW226274   3.330   0.739   6.653
 8459SOL     OW26275   2.865   6.048   2.136
 8459SOL    HW126276   2.922   6.119   2.176
 8459SOL    HW226277   2.890   5.959   2.174
 8460SOL     OW26278   4.103   4.209   5.273
 8460SOL    HW126279   4.162   4.278   5.230
 8460SOL    HW226280   4.116   4.121   5.227
 8461SOL     OW26281   0.741   3.985   4.716
 8461SOL    HW126282   0.677   4.049   4.759
 8461SOL    HW226283   0.692   3.928   4.650
 8462SOL     OW26284   2.653   2.859   6.910
 8462SOL    HW126285   2.655   2.926   6.985
 8462SOL    HW226286   2.694   2.900   6.828
 8463SOL     OW26287   6.599   0.107   1.495
 8463SOL    HW126288   6.579   0.037   1.427
 8463SOL    HW226289   6.557   0.194   1.467
 8464SOL     OW26290   5.383   3.772   4.297
 8464SOL    HW126291   5.384   3.678   4.262
 8464SOL    HW226292   5.322   3.778   4.376
 8465SOL     OW26293   0.970   3.013   0.687
 8465SOL    HW126294   0.884   3.019   0.638
 8465SOL    HW226295   0.963   2.943   0.758
 8466SOL     OW26296   0.503   6.328   4.080
 8466SOL    HW126297   0.488   6.256   4.012
 8466SOL    HW226298   0.441   6.404   4.062
 8467SOL     OW26299   4.285   0.058   6.878
 8467SOL    HW126300   4.340   0.127   6.831
 8467SOL    HW226301   4.299   6.992   6.835
 8468SOL     OW26302   3.579   2.175   6.764
 8468SOL    HW126303   3.539   2.119   6.837
 8468SOL    HW226304   3.677   2.156   6.759
 8469SOL     OW26305   3.301   1.868   6.893
 8469SOL    HW126306   3.354   1.819   6.962
 8469SOL    HW226307   3.352   1.869   6.807
 8470SOL     OW26308   1.759   3.864   6.990
 8470SOL    HW126309   1.697   3.835   0.039
 8470SOL    HW226310   1.726   3.830   6.902
 8471SOL     OW26311   3.063   1.198   3.678
 8471SOL    HW126312   3.070   1.135   3.756
 8471SOL    HW226313   3.065   1.146   3.593
 8472SOL     OW26314   6.715   0.855   4.635
 8472SOL    HW126315   6.660   0.825   4.713
 8472SOL    HW226316   6.693   0.950   4.614
 8473SOL     OW26317   6.572   6.375   6.331
 8473SOL    HW126318   6.521   6.317   6.394
 8473SOL    HW226319   6.517   6.394   6.250
 8474SOL     OW26320   3.386   2.959   1.797
 8474SOL    HW126321   3.312   2.949   1.864
 8474SOL    HW226322   3.466   2.908   1.827
 8475SOL     OW26323   0.506   2.650   3.595
 8475SOL    HW126324   0.533   2.673   3.689
 8475SOL    HW226325   0.484   2.735   3.546
 8476SOL     OW26326   6.943   2.147   0.861
 8476SOL    HW126327   6.869   2.154   0.794
 8476SOL    HW226328   6.908   2.170   0.952
 8477SOL     OW26329   4.786   6.596   1.408
 8477SOL    HW126330   4.689   6.600   1.432
 8477SOL    HW226331   4.796   6.606   1.309
 8478SOL     OW26332   1.168   6.712   6.026
 8478SOL    HW126333   1.141   6.656   5.948
 8478SOL    HW226334   1.175   6.654   6.108
 8479SOL     OW26335   0.438   2.798   1.266
 8479SOL    HW126336   0.500   2.786   1.344
 8479SOL    HW226337   0.346   2.769   1.292
 8480SOL     OW26338   4.534   1.371   0.059
 8480SOL    HW126339   4.517   1.345   0.154
 8480SOL    HW226340   4.527   1.470   0.049
 8481SOL     OW26341   4.365   1.956   3.639
 8481SOL    HW126342   4.281   1.905   3.622
 8481SOL    HW226343   4.345   2.033   3.700
 8482SOL     OW26344   4.492   5.689   1.766
 8482SOL    HW126345   4.499   5.784   1.796
 8482SOL    HW226346   4.552   5.632   1.821
 8483SOL     OW26347   4.204   6.289   2.251
 8483SOL    HW126348   4.261   6.367   2.224
 8483SOL    HW226349   4.208   6.219   2.181
 8484SOL     OW26350   0.882   6.039   3.234
 8484SOL    HW126351   0.948   6.023   3.308
 8484SOL    HW226352   0.896   5.971   3.162
 8485SOL     OW26353   3.951   3.423   0.878
 8485SOL    HW126354   3.915   3.493   0.940
 8485SOL    HW226355   3.875   3.370   0.840
 8486SOL     OW26356   3.596   0.830   3.360
 8486SOL    HW126357   3.677   0.887   3.373
 8486SOL    HW226358   3.596   0.794   3.266
 8487SOL     OW26359   5.094   2.072   5.769
 8487SOL    HW126360   5.039   2.039   5.846
 8487SOL    HW226361   5.190   2.075   5.794
 8488SOL     OW26362   6.004   5.550   6.628
 8488SOL    HW126363   6.012   5.589   6.536
 8488SOL    HW226364   5.912   5.567   6.663
 8489SOL     OW26365   6.359   1.680   1.304
 8489SOL    HW126366   6.293   1.735   1.253
 8489SOL    HW226367   6.357   1.705   1.401
 8490SOL     OW26368   4.183   6.393   3.766
 8490SOL    HW126369   4.141   6.356   3.683
 8490SOL    HW226370   4.124   6.374   3.845
 8491SOL     OW26371   2.271   6.570   0.798
 8491SOL    HW126372   2.294   6.633   0.724
 8491SOL    HW226373   2.252   6.479   0.759
 8492SOL     OW26374   4.417   4.135   6.261
 8492SOL    HW126375   4.367   4.128   6.175
 8492SOL    HW226376   4.429   4.232   6.284
 8493SOL     OW26377   2.662   2.755   6.522
 8493SOL    HW126378   2.667   2.834   6.584
 8493SOL    HW226379   2.566   2.730   6.508
 8494SOL     OW26380   2.969   5.614   1.258
 8494SOL    HW126381   3.059   5.655   1.244
 8494SOL    HW226382   2.943   5.623   1.354
 8495SOL     OW26383   6.821   4.806   2.073
 8495SOL    HW126384   6.725   4.831   2.067
 8495SOL    HW226385   6.829   4.707   2.085
 8496SOL     OW26386   0.604   2.168   2.221
 8496SOL    HW126387   0.586   2.260   2.256
 8496SOL    HW226388   0.702   2.148   2.229
 8497SOL     OW26389   6.055   0.933   3.924
 8497SOL    HW126390   6.143   0.915   3.970
 8497SOL    HW226391   6.066   0.921   3.826
 8498SOL     OW26392   0.536   6.556   2.861
 8498SOL    HW126393   0.441   6.585   2.867
 8498SOL    HW226394   0.545   6.462   2.893
 8499SOL     OW26395   2.328   4.462   6.470
 8499SOL    HW126396   2.391   4.527   6.428
 8499SOL    HW226397   2.372   4.419   6.548
 8500SOL     OW26398   2.248   6.361   4.713
 8500SOL    HW126399   2.251   6.411   4.627
 8500SOL    HW226400   2.272   6.423   4.788
 8501SOL     OW26401   0.457   1.610   6.841
 8501SOL    HW126402   0.388   1.647   6.778
 8501SOL    HW226403   0.521   1.683   6.866
 8502SOL     OW26404   1.786   4.681   1.400
 8502SOL    HW126405   1.820   4.588   1.408
 8502SOL    HW226406   1.792   4.728   1.488
 8503SOL     OW26407   1.517   6.964   4.163
 8503SOL    HW126408   1.454   0.018   4.174
 8503SOL    HW226409   1.485   6.905   4.089
 8504SOL     OW26410   2.766   5.221   2.671
 8504SOL    HW126411   2.684   5.276   2.684
 8504SOL    HW226412   2.791   5.220   2.574
 8505SOL     OW26413   4.889   3.416   3.754
 8505SOL    HW126414   4.822   3.395   3.682
 8505SOL    HW226415   4.909   3.333   3.806
 8506SOL     OW26416   6.523   1.356   6.905
 8506SOL    HW126417   6.587   1.292   6.864
 8506SOL    HW226418   6.560   1.449   6.900
 8507SOL     OW26419   3.445   0.628   5.559
 8507SOL    HW126420   3.458   0.532   5.582
 8507SOL    HW226421   3.528   0.679   5.579
 8508SOL     OW26422   6.078   1.930   4.630
 8508SOL    HW126423   6.047   1.948   4.724
 8508SOL    HW226424   6.011   1.871   4.584
 8509SOL     OW26425   4.545   1.700   3.243
 8509SOL    HW126426   4.562   1.606   3.274
 8509SOL    HW226427   4.449   1.722   3.255
 8510SOL     OW26428   6.099   3.946   2.980
 8510SOL    HW126429   6.109   3.847   2.989
 8510SOL    HW226430   6.109   3.989   3.069
 8511SOL     OW26431   6.661   4.022   1.220
 8511SOL    HW126432   6.734   4.035   1.288
 8511SOL    HW226433   6.612   3.937   1.238
 8512SOL     OW26434   3.147   2.274   1.319
 8512SOL    HW126435   3.228   2.265   1.377
 8512SOL    HW226436   3.092   2.351   1.351
 8513SOL     OW26437   4.990   4.327   1.761
 8513SOL    HW126438   5.038   4.253   1.808
 8513SOL    HW226439   4.891   4.317   1.775
 8514SOL     OW26440   2.568   2.522   3.862
 8514SOL    HW126441   2.515   2.581   3.800
 8514SOL    HW226442   2.565   2.560   3.954
 8515SOL     OW26443   5.478   1.787   0.748
 8515SOL    HW126444   5.545   1.782   0.822
 8515SOL    HW226445   5.474   1.699   0.700
 8516SOL     OW26446   6.590   1.805   1.326
 8516SOL    HW126447   6.525   1.731   1.313
 8516SOL    HW226448   6.676   1.768   1.362
 8517SOL     OW26449   1.610   3.112   6.465
 8517SOL    HW126450   1.525   3.162   6.448
 8517SOL    HW226451   1.679   3.176   6.499
 8518SOL     OW26452   5.265   4.159   0.416
 8518SOL    HW126453   5.209   4.119   0.343
 8518SOL    HW226454   5.212   4.229   0.464
 8519SOL     OW26455   1.396   4.047   1.660
 8519SOL    HW126456   1.334   3.993   1.602
 8519SOL    HW226457   1.485   4.002   1.664
 8520SOL     OW26458   3.410   3.358   0.180
 8520SOL    HW126459   3.478   3.357   0.253
 8520SOL    HW226460   3.320   3.336   0.217
 8521SOL     OW26461   1.770   5.347   5.576
 8521SOL    HW126462   1.843   5.283   5.602
 8521SOL    HW226463   1.808   5.439   5.568
 8522SOL     OW26464   1.069   6.555   1.654
 8522SOL    HW126465   1.106   6.471   1.693
 8522SOL    HW226466   1.069   6.549   1.554
 8523SOL     OW26467   1.825   6.361   6.728
 8523SOL    HW126468   1.757   6.435   6.728
 8523SOL    HW226469   1.900   6.384   6.667
 8524SOL     OW26470   0.537   2.471   5.325
 8524SOL    HW126471   0.532   2.569   5.345
 8524SOL    HW226472   0.445   2.431   5.329
 8525SOL     OW26473   6.491   4.286   2.493
 8525SOL    HW126474   6.523   4.210   2.435
 8525SOL    HW226475   6.435   4.249   2.567
 8526SOL     OW26476   4.198   6.043   6.293
 8526SOL    HW126477   4.229   6.138   6.289
 8526SOL    HW226478   4.238   5.992   6.218
 8527SOL     OW26479   2.567   0.911   6.098
 8527SOL    HW126480   2.545   0.827   6.147
 8527SOL    HW226481   2.611   0.976   6.160
 8528SOL     OW26482   3.856   1.261   6.459
 8528SOL    HW126483   3.883   1.243   6.553
 8528SOL    HW226484   3.764   1.226   6.443
 8529SOL     OW26485   0.875   0.735   0.966
 8529SOL    HW126486   0.851   0.654   1.018
 8529SOL    HW226487   0.796   0.764   0.911
 8530SOL     OW26488   3.825   4.220   5.354
 8530SOL    HW126489   3.821   4.320   5.352
 8530SOL    HW226490   3.920   4.191   5.344
 8531SOL     OW26491   6.570   5.189   2.663
 8531SOL    HW126492   6.582   5.285   2.688
 8531SOL    HW226493   6.532   5.183   2.571
 8532SOL     OW26494   4.392   5.133   4.955
 8532SOL    HW126495   4.444   5.135   4.869
 8532SOL    HW226496   4.341   5.047   4.960
 8533SOL     OW26497   1.176   0.084   6.672
 8533SOL    HW126498   1.202   0.151   6.742
 8533SOL    HW226499   1.178   7.015   6.712
 8534SOL     OW26500   0.028   3.085   3.844
 8534SOL    HW126501   7.000   3.019   3.899
 8534SOL    HW226502   6.989   3.125   3.776
 8535SOL     OW26503   6.295   2.284   4.486
 8535SOL    HW126504   6.283   2.373   4.531
 8535SOL    HW226505   6.347   2.295   4.402
 8536SOL     OW26506   0.325   2.417   5.122
 8536SOL    HW126507   0.240   2.454   5.084
 8536SOL    HW226508   0.389   2.400   5.048
 8537SOL     OW26509   4.864   1.111   2.209
 8537SOL    HW126510   4.901   1.199   2.178
 8537SOL    HW226511   4.786   1.127   2.270
 8538SOL     OW26512   0.449   0.679   0.214
 8538SOL    HW126513   0.353   0.672   0.239
 8538SOL    HW226514   0.466   0.630   0.129
 8539SOL     OW26515   5.200   0.379   2.886
 8539SOL    HW126516   5.191   0.425   2.798
 8539SOL    HW226517   5.291   0.398   2.924
 8540SOL     OW26518   4.636   0.379   6.323
 8540SOL    HW126519   4.715   0.346   6.376
 8540SOL    HW226520   4.612   0.470   6.355
 8541SOL     OW26521   2.695   1.555   4.153
 8541SOL    HW126522   2.750   1.501   4.216
 8541SOL    HW226523   2.606   1.511   4.139
 8542SOL     OW26524   3.926   4.818   6.928
 8542SOL    HW126525   3.832   4.848   6.944
 8542SOL    HW226526   3.925   4.733   6.875
 8543SOL     OW26527   3.301   0.685   1.287
 8543SOL    HW126528   3.270   0.778   1.308
 8543SOL    HW226529   3.223   0.629   1.261
 8544SOL     OW26530   5.395   3.488   4.853
 8544SOL    HW126531   5.409   3.521   4.760
 8544SOL    HW226532   5.330   3.547   4.900
 8545SOL     OW26533   4.825   6.633   4.863
 8545SOL    HW126534   4.849   6.725   4.894
 8545SOL    HW226535   4.907   6.575   4.863
 8546SOL     OW26536   6.907   1.615   3.568
 8546SOL    HW126537   6.824   1.565   3.543
 8546SOL    HW226538   6.985   1.552   3.567
 8547SOL     OW26539   1.362   0.027   6.351
 8547SOL    HW126540   1.270   0.049   6.319
 8547SOL    HW226541   1.415   7.012   6.275
 8548SOL     OW26542   5.696   3.170   5.753
 8548SOL    HW126543   5.680   3.172   5.654
 8548SOL    HW226544   5.642   3.096   5.794
 8549SOL     OW26545   1.479   2.515   4.196
 8549SOL    HW126546   1.450   2.492   4.289
 8549SOL    HW226547   1.539   2.443   4.161
 8550SOL     OW26548   1.710   4.844   0.221
 8550SOL    HW126549   1.706   4.784   0.141
 8550SOL    HW226550   1.802   4.882   0.230
 8551SOL     OW26551   3.485   3.473   6.764
 8551SOL    HW126552   3.470   3.506   6.857
 8551SOL    HW226553   3.553   3.531   6.719
 8552SOL     OW26554   2.499   0.547   4.001
 8552SOL    HW126555   2.428   0.610   3.969
 8552SOL    HW226556   2.479   0.455   3.967
 8553SOL     OW26557   4.410   4.167   0.017
 8553SOL    HW126558   4.403   4.197   6.944
 8553SOL    HW226559   4.499   4.123   0.032
 8554SOL     OW26560   1.104   4.703   0.582
 8554SOL    HW126561   1.157   4.715   0.666
 8554SOL    HW226562   1.012   4.741   0.595
 8555SOL     OW26563   1.872   1.491   3.399
 8555SOL    HW126564   1.858   1.584   3.365
 8555SOL    HW226565   1.784   1.445   3.407
 8556SOL     OW26566   1.544   6.034   4.976
 8556SOL    HW126567   1.579   6.126   4.964
 8556SOL    HW226568   1.544   5.986   4.888
 8557SOL     OW26569   5.776   6.775   3.135
 8557SOL    HW126570   5.843   6.834   3.090
 8557SOL    HW226571   5.686   6.817   3.132
 8558SOL     OW26572   3.193   4.874   3.156
 8558SOL    HW126573   3.212   4.800   3.091
 8558SOL    HW226574   3.099   4.864   3.189
 8559SOL     OW26575   0.997   0.269   2.634
 8559SOL    HW126576   0.979   0.222   2.548
 8559SOL    HW226577   0.913   0.276   2.687
 8560SOL     OW26578   6.720   6.228   2.062
 8560SOL    HW126579   6.667   6.266   2.137
 8560SOL    HW226580   6.692   6.270   1.976
 8561SOL     OW26581   3.024   0.766   2.521
 8561SOL    HW126582   3.014   0.831   2.596
 8561SOL    HW226583   3.098   0.702   2.543
 8562SOL     OW26584   4.001   6.014   5.477
 8562SOL    HW126585   3.905   6.012   5.450
 8562SOL    HW226586   4.036   5.920   5.482
 8563SOL     OW26587   1.867   4.430   6.735
 8563SOL    HW126588   1.930   4.390   6.668
 8563SOL    HW226589   1.802   4.490   6.689
 8564SOL     OW26590   3.001   1.204   5.458
 8564SOL    HW126591   2.941   1.226   5.382
 8564SOL    HW226592   3.042   1.288   5.493
 8565SOL     OW26593   3.930   5.313   1.143
 8565SOL    HW126594   3.952   5.389   1.082
 8565SOL    HW226595   3.953   5.338   1.237
 8566SOL     OW26596   1.892   0.770   1.206
 8566SOL    HW126597   1.981   0.734   1.177
 8566SOL    HW226598   1.866   0.847   1.147
 8567SOL     OW26599   0.241   2.516   2.846
 8567SOL    HW126600   0.230   2.544   2.751
 8567SOL    HW226601   0.290   2.429   2.850
 8568SOL     OW26602   5.188   1.395   6.466
 8568SOL    HW126603   5.191   1.494   6.451
 8568SOL    HW226604   5.115   1.355   6.410
 8569SOL     OW26605   4.982   0.853   6.330
 8569SOL    HW126606   4.913   0.792   6.291
 8569SOL    HW226607   5.054   0.869   6.263
 8570SOL     OW26608   1.875   2.207   5.294
 8570SOL    HW126609   1.826   2.191   5.209
 8570SOL    HW226610   1.973   2.199   5.277
 8571SOL     OW26611   1.216   5.604   5.313
 8571SOL    HW126612   1.293   5.569   5.261
 8571SOL    HW226613   1.136   5.611   5.254
 8572SOL     OW26614   3.105   4.587   6.593
 8572SOL    HW126615   3.031   4.530   6.556
 8572SOL    HW226616   3.067   4.653   6.658
 8573SOL     OW26617   3.498   6.037   6.371
 8573SOL    HW126618   3.555   6.098   6.314
 8573SOL    HW226619   3.402   6.052   6.349
 8574SOL     OW26620   6.598   5.630   5.804
 8574SOL    HW126621   6.562   5.641   5.896
 8574SOL    HW226622   6.677   5.691   5.791
 8575SOL     OW26623   2.305   2.594   4.819
 8575SOL    HW126624   2.395   2.572   4.857
 8575SOL    HW226625   2.262   2.667   4.872
 8576SOL     OW26626   1.800   5.282   6.708
 8576SOL    HW126627   1.703   5.264   6.726
 8576SOL    HW226628   1.840   5.205   6.658
 8577SOL     OW26629   6.938   6.716   4.314
 8577SOL    HW126630   0.010   6.749   4.317
 8577SOL    HW226631   6.894   6.748   4.231
 8578SOL     OW26632   5.228   0.981   4.266
 8578SOL    HW126633   5.271   0.898   4.229
 8578SOL    HW226634   5.151   1.007   4.207
 8579SOL     OW26635   1.749   0.583   2.347
 8579SOL    HW126636   1.749   0.583   2.247
 8579SOL    HW226637   1.820   0.521   2.380
 8580SOL     OW26638   1.759   7.011   2.180
 8580SOL    HW126639   1.770   6.968   2.090
 8580SOL    HW226640   1.666   0.024   2.190
 8581SOL     OW26641   3.070   4.016   2.093
 8581SOL    HW126642   3.075   3.921   2.124
 8581SOL    HW226643   3.046   4.075   2.170
 8582SOL     OW26644   4.558   4.520   3.187
 8582SOL    HW126645   4.587   4.493   3.278
 8582SOL    HW226646   4.605   4.465   3.118
 8583SOL     OW26647   5.432   0.540   4.464
 8583SOL    HW126648   5.339   0.572   4.450
 8583SOL    HW226649   5.495   0.617   4.452
 8584SOL     OW26650   1.316   4.174   5.795
 8584SOL    HW126651   1.363   4.101   5.747
 8584SOL    HW226652   1.360   4.262   5.775
 8585SOL     OW26653   0.384   6.116   5.969
 8585SOL    HW126654   0.479   6.095   5.947
 8585SOL    HW226655   0.365   6.211   5.945
 8586SOL     OW26656   2.497   0.106   2.605
 8586SOL    HW126657   2.577   0.123   2.546
 8586SOL    HW226658   2.505   0.016   2.647
 8587SOL     OW26659   1.261   6.628   4.474
 8587SOL    HW126660   1.237   6.696   4.544
 8587SOL    HW226661   1.216   6.541   4.497
 8588SOL     OW26662   2.907   1.093   0.454
 8588SOL    HW126663   2.933   1.119   0.362
 8588SOL    HW226664   2.978   1.033   0.493
 8589SOL     OW26665   4.822   2.953   4.949
 8589SOL    HW126666   4.856   2.871   4.994
 8589SOL    HW226667   4.722   2.954   4.952
 8590SOL     OW26668   6.740   6.165   4.145
 8590SOL    HW126669   6.677   6.095   4.109
 8590SOL    HW226670   6.815   6.120   4.193
 8591SOL     OW26671   0.434   4.064   0.094
 8591SOL    HW126672   0.430   4.003   0.173
 8591SOL    HW226673   0.480   4.150   0.120
 8592SOL     OW26674   6.993   2.621   6.345
 8592SOL    HW126675   6.902   2.580   6.337
 8592SOL    HW226676   7.020   2.659   6.257
 8593SOL     OW26677   2.761   0.353   0.999
 8593SOL    HW126678   2.830   0.313   0.939
 8593SOL    HW226679   2.671   0.341   0.959
 8594SOL     OW26680   4.418   2.050   5.474
 8594SOL    HW126681   4.325   2.084   5.484
 8594SOL    HW226682   4.471   2.114   5.419
 8595SOL     OW26683   0.758   2.935   3.325
 8595SOL    HW126684   0.855   2.913   3.336
 8595SOL    HW226685   0.739   2.959   3.230
 8596SOL     OW26686   0.392   5.356   3.275
 8596SOL    HW126687   0.405   5.419   3.352
 8596SOL    HW226688   0.370   5.265   3.310
 8597SOL     OW26689   4.583   1.506   1.132
 8597SOL    HW126690   4.497   1.457   1.144
 8597SOL    HW226691   4.648   1.447   1.085
 8598SOL     OW26692   5.882   6.575   0.961
 8598SOL    HW126693   5.834   6.625   0.889
 8598SOL    HW226694   5.818   6.556   1.036
 8599SOL     OW26695   1.162   2.921   4.373
 8599SOL    HW126696   1.174   2.838   4.427
 8599SOL    HW226697   1.219   2.916   4.291
 8600SOL     OW26698   4.548   5.237   5.370
 8600SOL    HW126699   4.572   5.220   5.466
 8600SOL    HW226700   4.459   5.198   5.350
 8601SOL     OW26701   0.494   1.311   4.977
 8601SOL    HW126702   0.570   1.247   4.992
 8601SOL    HW226703   0.435   1.311   5.057
 8602SOL     OW26704   2.898   5.491   2.383
 8602SOL    HW126705   2.885   5.423   2.311
 8602SOL    HW226706   2.996   5.513   2.390
 8603SOL     OW26707   3.709   5.843   0.542
 8603SOL    HW126708   3.791   5.898   0.525
 8603SOL    HW226709   3.647   5.851   0.464
 8604SOL     OW26710   0.499   2.536   4.703
 8604SOL    HW126711   0.472   2.479   4.625
 8604SOL    HW226712   0.598   2.551   4.700
 8605SOL     OW26713   2.879   5.800   4.410
 8605SOL    HW126714   2.892   5.807   4.509
 8605SOL    HW226715   2.794   5.847   4.384
 8606SOL     OW26716   1.630   3.399   6.249
 8606SOL    HW126717   1.654   3.388   6.152
 8606SOL    HW226718   1.585   3.315   6.281
 8607SOL     OW26719   3.638   6.184   0.695
 8607SOL    HW126720   3.558   6.154   0.747
 8607SOL    HW226721   3.693   6.104   0.671
 8608SOL     OW26722   4.154   5.105   2.812
 8608SOL    HW126723   4.078   5.087   2.750
 8608SOL    HW226724   4.150   5.201   2.842
 8609SOL     OW26725   5.219   1.314   3.005
 8609SOL    HW126726   5.274   1.250   3.058
 8609SOL    HW226727   5.156   1.263   2.946
 8610SOL     OW26728   1.951   2.359   2.738
 8610SOL    HW126729   1.902   2.286   2.692
 8610SOL    HW226730   1.897   2.443   2.734
 8611SOL     OW26731   2.986   1.920   4.442
 8611SOL    HW126732   2.944   1.971   4.517
 8611SOL    HW226733   2.918   1.902   4.371
 8612SOL     OW26734   3.577   3.349   1.305
 8612SOL    HW126735   3.516   3.392   1.238
 8612SOL    HW226736   3.523   3.293   1.368
 8613SOL     OW26737   2.254   1.859   1.138
 8613SOL    HW126738   2.234   1.805   1.220
 8613SOL    HW226739   2.302   1.943   1.164
 8614SOL     OW26740   1.330   3.056   2.156
 8614SOL    HW126741   1.292   3.001   2.230
 8614SOL    HW226742   1.281   3.142   2.149
 8615SOL     OW26743   4.905   1.506   4.952
 8615SOL    HW126744   4.811   1.488   4.983
 8615SOL    HW226745   4.903   1.565   4.872
 8616SOL     OW26746   3.127   4.477   1.668
 8616SOL    HW126747   3.183   4.517   1.740
 8616SOL    HW226748   3.043   4.441   1.706
 8617SOL     OW26749   6.695   0.937   6.619
 8617SOL    HW126750   6.677   1.032   6.594
 8617SOL    HW226751   6.769   0.933   6.685
 8618SOL     OW26752   6.189   5.695   0.662
 8618SOL    HW126753   6.090   5.687   0.652
 8618SOL    HW226754   6.232   5.608   0.637
 8619SOL     OW26755   3.817   4.868   2.043
 8619SOL    HW126756   3.869   4.802   2.098
 8619SOL    HW226757   3.754   4.819   1.983
 8620SOL     OW26758   1.038   0.175   4.136
 8620SOL    HW126759   1.016   0.206   4.228
 8620SOL    HW226760   0.966   0.114   4.103
 8621SOL     OW26761   5.691   1.446   2.887
 8621SOL    HW126762   5.763   1.458   2.819
 8621SOL    HW226763   5.605   1.482   2.851
 8622SOL     OW26764   5.294   3.409   0.176
 8622SOL    HW126765   5.242   3.325   0.158
 8622SOL    HW226766   5.367   3.389   0.242
 8623SOL     OW26767   0.917   3.482   4.019
 8623SOL    HW126768   0.834   3.472   3.963
 8623SOL    HW226769   0.928   3.401   4.076
 8624SOL     OW26770   1.269   3.813   4.995
 8624SOL    HW126771   1.300   3.899   5.035
 8624SOL    HW226772   1.177   3.825   4.957
 8625SOL     OW26773   4.552   0.350   6.037
 8625SOL    HW126774   4.539   0.406   6.119
 8625SOL    HW226775   4.603   0.267   6.061
 8626SOL     OW26776   4.171   3.083   5.573
 8626SOL    HW126777   4.182   3.130   5.486
 8626SOL    HW226778   4.228   3.126   5.643
 8627SOL     OW26779   0.540   1.269   3.447
 8627SOL    HW126780   0.474   1.195   3.449
 8627SOL    HW226781   0.495   1.354   3.420
 8628SOL     OW26782   6.312   6.349   0.590
 8628SOL    HW126783   6.389   6.358   0.527
 8628SOL    HW226784   6.228   6.378   0.544
 8629SOL     OW26785   1.338   4.887   4.901
 8629SOL    HW126786   1.341   4.979   4.940
 8629SOL    HW226787   1.430   4.848   4.901
 8630SOL     OW26788   5.094   4.219   3.727
 8630SOL    HW126789   5.121   4.218   3.630
 8630SOL    HW226790   5.141   4.146   3.775
 8631SOL     OW26791   1.819   5.008   6.096
 8631SOL    HW126792   1.852   5.007   6.191
 8631SOL    HW226793   1.830   4.917   6.057
 8632SOL     OW26794   3.611   5.634   4.005
 8632SOL    HW126795   3.702   5.671   3.990
 8632SOL    HW226796   3.547   5.675   3.939
 8633SOL     OW26797   5.008   1.560   5.208
 8633SOL    HW126798   5.018   1.586   5.112
 8633SOL    HW226799   5.096   1.529   5.244
 8634SOL     OW26800   5.525   3.315   0.277
 8634SOL    HW126801   5.586   3.390   0.249
 8634SOL    HW226802   5.546   3.233   0.223
 8635SOL     OW26803   5.494   4.423   6.524
 8635SOL    HW126804   5.467   4.472   6.441
 8635SOL    HW226805   5.592   4.433   6.539
 8636SOL     OW26806   4.947   5.843   1.082
 8636SOL    HW126807   4.870   5.889   1.037
 8636SOL    HW226808   4.915   5.758   1.124
 8637SOL     OW26809   2.273   1.012   0.211
 8637SOL    HW126810   2.292   0.915   0.192
 8637SOL    HW226811   2.174   1.026   0.217
 8638SOL     OW26812   2.493   3.350   6.684
 8638SOL    HW126813   2.511   3.379   6.778
 8638SOL    HW226814   2.459   3.256   6.685
 8639SOL     OW26815   5.160   2.447   1.600
 8639SOL    HW126816   5.098   2.397   1.540
 8639SOL    HW226817   5.140   2.545   1.593
 8640SOL     OW26818   4.884   3.874   0.428
 8640SOL    HW126819   4.800   3.824   0.450
 8640SOL    HW226820   4.886   3.960   0.478
 8641SOL     OW26821   5.410   4.878   4.306
 8641SOL    HW126822   5.471   4.946   4.346
 8641SOL    HW226823   5.447   4.786   4.320
 8642SOL     OW26824   2.270   6.851   2.966
 8642SOL    HW126825   2.302   6.801   2.885
 8642SOL    HW226826   2.241   6.786   3.036
 8643SOL     OW26827   2.637   6.973   6.641
 8643SOL    HW126828   2.663   6.997   6.548
 8643SOL    HW226829   2.619   0.034   6.693
 8644SOL     OW26830   5.096   1.848   5.402
 8644SOL    HW126831   5.122   1.753   5.381
 8644SOL    HW226832   5.048   1.887   5.323
 8645SOL     OW26833   4.630   4.790   1.565
 8645SOL    HW126834   4.552   4.838   1.524
 8645SOL    HW226835   4.715   4.835   1.537
 8646SOL     OW26836   6.768   1.114   1.657
 8646SOL    HW126837   6.785   1.050   1.581
 8646SOL    HW226838   6.741   1.062   1.738
 8647SOL     OW26839   2.818   5.787   5.909
 8647SOL    HW126840   2.726   5.748   5.916
 8647SOL    HW226841   2.885   5.714   5.895
 8648SOL     OW26842   6.457   0.498   3.160
 8648SOL    HW126843   6.396   0.487   3.239
 8648SOL    HW226844   6.485   0.408   3.127
 8649SOL     OW26845   5.334   5.239   5.931
 8649SOL    HW126846   5.303   5.273   5.841
 8649SOL    HW226847   5.261   5.254   5.998
 8650SOL     OW26848   2.361   5.176   4.844
 8650SOL    HW126849   2.309   5.262   4.838
 8650SOL    HW226850   2.315   5.114   4.907
 8651SOL     OW26851   3.278   0.469   0.356
 8651SOL    HW126852   3.210   0.396   0.353
 8651SOL    HW226853   3.284   0.513   0.266
 8652SOL     OW26854   1.715   4.292   4.110
 8652SOL    HW126855   1.742   4.356   4.182
 8652SOL    HW226856   1.620   4.309   4.084
 8653SOL     OW26857   6.200   0.396   6.380
 8653SOL    HW126858   6.188   0.344   6.295
 8653SOL    HW226859   6.114   0.442   6.402
 8654SOL     OW26860   1.431   4.906   1.357
 8654SOL    HW126861   1.357   4.968   1.331
 8654SOL    HW226862   1.414   4.870   1.449
 8655SOL     OW26863   6.361   1.565   3.747
 8655SOL    HW126864   6.395   1.624   3.820
 8655SOL    HW226865   6.325   1.620   3.672
 8656SOL     OW26866   6.350   0.504   0.926
 8656SOL    HW126867   6.424   0.556   0.882
 8656SOL    HW226868   6.389   0.443   0.995
 8657SOL     OW26869   5.225   4.635   0.624
 8657SOL    HW126870   5.244   4.611   0.529
 8657SOL    HW226871   5.305   4.615   0.680
 8658SOL     OW26872   4.851   6.682   0.445
 8658SOL    HW126873   4.809   6.673   0.535
 8658SOL    HW226874   4.840   6.596   0.395
 8659SOL     OW26875   4.505   1.802   2.995
 8659SOL    HW126876   4.493   1.750   3.079
 8659SOL    HW226877   4.475   1.747   2.917
 8660SOL     OW26878   6.408   4.450   1.691
 8660SOL    HW126879   6.348   4.388   1.639
 8660SOL    HW226880   6.501   4.441   1.657
 8661SOL     OW26881   5.846   3.981   1.294
 8661SOL    HW126882   5.945   3.966   1.303
 8661SOL    HW226883   5.797   3.898   1.320
 8662SOL     OW26884   4.304   6.194   0.941
 8662SOL    HW126885   4.211   6.232   0.950
 8662SOL    HW226886   4.371   6.268   0.948
 8663SOL     OW26887   3.470   5.915   1.585
 8663SOL    HW126888   3.472   5.858   1.666
 8663SOL    HW226889   3.389   5.974   1.587
 8664SOL     OW26890   1.884   5.918   0.952
 8664SOL    HW126891   1.955   5.929   0.882
 8664SOL    HW226892   1.883   5.999   1.011
 8665SOL     OW26893   5.050   6.489   4.856
 8665SOL    HW126894   5.131   6.475   4.799
 8665SOL    HW226895   5.072   6.467   4.951
 8666SOL     OW26896   5.102   2.133   4.145
 8666SOL    HW126897   5.123   2.081   4.062
 8666SOL    HW226898   5.187   2.155   4.193
 8667SOL     OW26899   4.456   2.443   2.979
 8667SOL    HW126900   4.381   2.381   2.958
 8667SOL    HW226901   4.533   2.392   3.017
 8668SOL     OW26902   5.267   3.726   3.479
 8668SOL    HW126903   5.351   3.729   3.534
 8668SOL    HW226904   5.268   3.646   3.420
 8669SOL     OW26905   1.651   6.554   0.062
 8669SOL    HW126906   1.735   6.514   0.100
 8669SOL    HW226907   1.573   6.496   0.085
 8670SOL     OW26908   3.954   3.996   5.112
 8670SOL    HW126909   3.870   4.038   5.078
 8670SOL    HW226910   3.985   3.925   5.049
 8671SOL     OW26911   5.423   1.709   3.705
 8671SOL    HW126912   5.323   1.706   3.703
 8671SOL    HW226913   5.456   1.775   3.637
 8672SOL     OW26914   1.943   4.684   4.081
 8672SOL    HW126915   2.003   4.708   4.157
 8672SOL    HW226916   1.880   4.760   4.063
 8673SOL     OW26917   5.980   2.736   0.389
 8673SOL    HW126918   6.033   2.739   0.304
 8673SOL    HW226919   6.043   2.723   0.466
 8674SOL     OW26920   6.104   6.050   3.677
 8674SOL    HW126921   6.115   5.955   3.704
 8674SOL    HW226922   6.192   6.089   3.651
 8675SOL     OW26923   2.803   2.288   4.163
 8675SOL    HW126924   2.852   2.263   4.247
 8675SOL    HW226925   2.706   2.266   4.173
 8676SOL     OW26926   4.332   0.461   2.292
 8676SOL    HW126927   4.395   0.397   2.249
 8676SOL    HW226928   4.383   0.538   2.329
 8677SOL     OW26929   1.981   5.901   5.342
 8677SOL    HW126930   2.002   5.847   5.423
 8677SOL    HW226931   2.010   5.851   5.260
 8678SOL     OW26932   6.406   0.727   1.258
 8678SOL    HW126933   6.451   0.810   1.224
 8678SOL    HW226934   6.475   0.664   1.294
 8679SOL     OW26935   0.369   2.360   3.138
 8679SOL    HW126936   0.382   2.358   3.237
 8679SOL    HW226937   0.367   2.266   3.103
 8680SOL     OW26938   1.316   3.786   1.239
 8680SOL    HW126939   1.332   3.720   1.165
 8680SOL    HW226940   1.391   3.851   1.243
 8681SOL     OW26941   5.266   4.989   0.356
 8681SOL    HW126942   5.189   4.963   0.298
 8681SOL    HW226943   5.236   5.061   0.419
 8682SOL     OW26944   4.977   6.948   2.382
 8682SOL    HW126945   4.962   6.880   2.310
 8682SOL    HW226946   4.967   6.905   2.471
 8683SOL     OW26947   1.373   1.889   2.942
 8683SOL    HW126948   1.451   1.908   3.001
 8683SOL    HW226949   1.291   1.934   2.979
 8684SOL     OW26950   0.217   3.021   5.077
 8684SOL    HW126951   0.167   3.037   5.162
 8684SOL    HW226952   0.208   3.100   5.017
 8685SOL     OW26953   0.246   1.732   5.997
 8685SOL    HW126954   0.191   1.695   5.922
 8685SOL    HW226955   0.336   1.758   5.962
 8686SOL     OW26956   0.209   1.861   2.129
 8686SOL    HW126957   0.253   1.918   2.199
 8686SOL    HW226958   0.204   1.912   2.043
 8687SOL     OW26959   4.875   5.271   2.256
 8687SOL    HW126960   4.784   5.313   2.257
 8687SOL    HW226961   4.895   5.233   2.346
 8688SOL     OW26962   2.380   5.494   6.990
 8688SOL    HW126963   2.314   5.525   6.921
 8688SOL    HW226964   2.418   5.406   6.962
 8689SOL     OW26965   3.899   4.073   1.659
 8689SOL    HW126966   3.947   4.007   1.717
 8689SOL    HW226967   3.870   4.028   1.575
 8690SOL     OW26968   1.677   3.028   2.989
 8690SOL    HW126969   1.739   3.077   2.928
 8690SOL    HW226970   1.628   3.094   3.046
 8691SOL     OW26971   3.024   2.101   5.932
 8691SOL    HW126972   3.008   2.002   5.935
 8691SOL    HW226973   3.039   2.129   5.837
 8692SOL     OW26974   2.378   1.702   4.285
 8692SOL    HW126975   2.415   1.787   4.321
 8692SOL    HW226976   2.366   1.636   4.359
 8693SOL     OW26977   5.778   0.990   0.463
 8693SOL    HW126978   5.791   1.058   0.390
 8693SOL    HW226979   5.859   0.932   0.469
 8694SOL     OW26980   5.029   1.253   4.893
 8694SOL    HW126981   4.959   1.267   4.822
 8694SOL    HW226982   4.994   1.283   4.981
 8695SOL     OW26983   4.360   2.618   5.855
 8695SOL    HW126984   4.273   2.660   5.879
 8695SOL    HW226985   4.377   2.631   5.757
 8696SOL     OW26986   2.140   5.130   6.955
 8696SOL    HW126987   2.079   5.053   6.936
 8696SOL    HW226988   2.096   5.215   6.927
 8697SOL     OW26989   6.936   2.831   6.514
 8697SOL    HW126990   6.932   2.814   6.415
 8697SOL    HW226991   7.010   2.776   6.554
 8698SOL     OW26992   5.308   6.402   5.469
 8698SOL    HW126993   5.216   6.363   5.461
 8698SOL    HW226994   5.301   6.502   5.473
 8699SOL     OW26995   2.271   2.465   5.548
 8699SOL    HW126996   2.196   2.421   5.596
 8699SOL    HW226997   2.258   2.458   5.449
 8700SOL     OW26998   0.565   0.985   4.679
 8700SOL    HW126999   0.467   0.998   4.697
 8700SOL    HW227000   0.611   0.958   4.764
 8701SOL     OW27001   0.494   1.567   0.908
 8701SOL    HW127002   0.423   1.587   0.975
 8701SOL    HW227003   0.467   1.605   0.819
 8702SOL     OW27004   5.371   5.249   1.548
 8702SOL    HW127005   5.388   5.343   1.518
 8702SOL    HW227006   5.326   5.251   1.637
 8703SOL     OW27007   2.730   4.791   6.818
 8703SOL    HW127008   2.810   4.739   6.847
 8703SOL    HW227009   2.722   4.874   6.874
 8704SOL     OW27010   0.372   3.635   2.999
 8704SOL    HW127011   0.440   3.565   3.020
 8704SOL    HW227012   0.357   3.640   2.900
 8705SOL     OW27013   5.245   1.630   6.155
 8705SOL    HW127014   5.267   1.648   6.251
 8705SOL    HW227015   5.213   1.715   6.113
 8706SOL     OW27016   4.825   2.279   6.801
 8706SOL    HW127017   4.810   2.273   6.703
 8706SOL    HW227018   4.907   2.334   6.819
 8707SOL     OW27019   0.071   2.044   6.521
 8707SOL    HW127020   0.002   2.107   6.557
 8707SOL    HW227021   0.138   2.096   6.467
 8708SOL     OW27022   4.513   2.029   2.744
 8708SOL    HW127023   4.431   1.987   2.782
 8708SOL    HW227024   4.589   1.964   2.749
 8709SOL     OW27025   6.988   6.724   0.170
 8709SOL    HW127026   0.064   6.738   0.164
 8709SOL    HW227027   6.948   6.793   0.231
 8710SOL     OW27028   2.097   3.462   4.101
 8710SOL    HW127029   2.135   3.398   4.034
 8710SOL    HW227030   2.113   3.427   4.193
 8711SOL     OW27031   1.470   6.665   3.151
 8711SOL    HW127032   1.567   6.688   3.145
 8711SOL    HW227033   1.458   6.566   3.145
 8712SOL     OW27034   4.181   2.266   4.738
 8712SOL    HW127035   4.183   2.320   4.822
 8712SOL    HW227036   4.093   2.219   4.730
 8713SOL     OW27037   6.942   2.634   4.436
 8713SOL    HW127038   6.896   2.574   4.371
 8713SOL    HW227039   6.942   2.593   4.527
 8714SOL     OW27040   0.985   1.038   6.451
 8714SOL    HW127041   0.936   0.951   6.453
 8714SOL    HW227042   0.945   1.101   6.517
 8715SOL     OW27043   4.976   0.413   0.863
 8715SOL    HW127044   4.989   0.320   0.897
 8715SOL    HW227045   4.952   0.474   0.938
 8716SOL     OW27046   6.872   6.947   1.859
 8716SOL    HW127047   6.772   6.944   1.852
 8716SOL    HW227048   6.900   0.014   1.894
 8717SOL     OW27049   3.851   3.493   4.065
 8717SOL    HW127050   3.759   3.506   4.101
 8717SOL    HW227051   3.873   3.567   4.001
 8718SOL     OW27052   1.139   3.720   5.398
 8718SOL    HW127053   1.117   3.814   5.370
 8718SOL    HW227054   1.082   3.656   5.346
 8719SOL     OW27055   3.550   0.074   6.168
 8719SOL    HW127056   3.515   0.167   6.179
 8719SOL    HW227057   3.474   0.011   6.153
 8720SOL     OW27058   6.587   5.020   6.099
 8720SOL    HW127059   6.647   4.989   6.025
 8720SOL    HW227060   6.620   5.108   6.135
 8721SOL     OW27061   6.928   2.951   2.317
 8721SOL    HW127062   6.851   2.943   2.254
 8721SOL    HW227063   6.903   3.011   2.393
 8722SOL     OW27064   3.744   1.561   0.163
 8722SOL    HW127065   3.843   1.550   0.164
 8722SOL    HW227066   3.702   1.486   0.112
 8723SOL     OW27067   5.386   5.683   0.897
 8723SOL    HW127068   5.338   5.736   0.967
 8723SOL    HW227069   5.476   5.657   0.931
 8724SOL     OW27070   4.655   6.986   5.372
 8724SOL    HW127071   4.604   0.035   5.323
 8724SOL    HW227072   4.681   6.914   5.308
 8725SOL     OW27073   1.725   6.239   6.046
 8725SOL    HW127074   1.801   6.187   6.010
 8725SOL    HW227075   1.693   6.305   5.977
 8726SOL     OW27076   0.214   0.765   2.491
 8726SOL    HW127077   0.123   0.806   2.502
 8726SOL    HW227078   0.228   0.738   2.395
 8727SOL     OW27079   6.870   6.250   2.673
 8727SOL    HW127080   6.874   6.206   2.583
 8727SOL    HW227081   6.783   6.228   2.717
 8728SOL     OW27082   5.454   0.420   2.987
 8728SOL    HW127083   5.487   0.478   2.913
 8728SOL    HW227084   5.529   0.400   3.050
 8729SOL     OW27085   4.640   5.770   4.871
 8729SOL    HW127086   4.735   5.785   4.846
 8729SOL    HW227087   4.610   5.681   4.837
 8730SOL     OW27088   0.031   3.809   2.147
 8730SOL    HW127089   0.067   3.808   2.241
 8730SOL    HW227090   6.955   3.828   2.150
 8731SOL     OW27091   1.984   2.836   2.517
 8731SOL    HW127092   2.076   2.797   2.506
 8731SOL    HW227093   1.963   2.844   2.614
 8732SOL     OW27094   6.023   5.192   1.511
 8732SOL    HW127095   6.065   5.209   1.422
 8732SOL    HW227096   6.053   5.262   1.576
 8733SOL     OW27097   1.355   5.585   0.915
 8733SOL    HW127098   1.444   5.575   0.961
 8733SOL    HW227099   1.315   5.673   0.939
 8734SOL     OW27100   1.834   4.002   1.988
 8734SOL    HW127101   1.817   4.101   1.990
 8734SOL    HW227102   1.778   3.957   2.057
 8735SOL     OW27103   1.179   2.404   0.692
 8735SOL    HW127104   1.193   2.433   0.597
 8735SOL    HW227105   1.182   2.304   0.697
 8736SOL     OW27106   0.396   5.673   6.585
 8736SOL    HW127107   0.387   5.577   6.613
 8736SOL    HW227108   0.391   5.680   6.486
 8737SOL     OW27109   1.733   6.599   6.568
 8737SOL    HW127110   1.796   6.653   6.623
 8737SOL    HW227111   1.645   6.646   6.562
 8738SOL     OW27112   2.043   5.127   4.448
 8738SOL    HW127113   2.032   5.220   4.414
 8738SOL    HW227114   2.132   5.092   4.421
 8739SOL     OW27115   5.238   5.495   6.485
 8739SOL    HW127116   5.226   5.455   6.577
 8739SOL    HW227117   5.248   5.421   6.418
 8740SOL     OW27118   4.898   1.125   4.413
 8740SOL    HW127119   4.804   1.150   4.391
 8740SOL    HW227120   4.898   1.041   4.467
 8741SOL     OW27121   2.471   1.415   2.223
 8741SOL    HW127122   2.402   1.362   2.273
 8741SOL    HW227123   2.446   1.512   2.223
 8742SOL     OW27124   6.110   6.463   1.163
 8742SOL    HW127125   6.057   6.483   1.081
 8742SOL    HW227126   6.052   6.420   1.232
 8743SOL     OW27127   1.037   0.194   2.347
 8743SOL    HW127128   1.060   0.101   2.377
 8743SOL    HW227129   1.066   0.206   2.252
 8744SOL     OW27130   3.592   2.620   6.377
 8744SOL    HW127131   3.516   2.555   6.371
 8744SOL    HW227132   3.606   2.663   6.288
 8745SOL     OW27133   5.710   2.685   6.558
 8745SOL    HW127134   5.767   2.701   6.477
 8745SOL    HW227135   5.628   2.634   6.531
 8746SOL     OW27136   4.920   4.651   4.356
 8746SOL    HW127137   4.985   4.720   4.321
 8746SOL    HW227138   4.915   4.658   4.456
 8747SOL     OW27139   0.650   2.987   3.039
 8747SOL    HW127140   0.652   2.983   2.939
 8747SOL    HW227141   0.555   2.982   3.070
 8748SOL     OW27142   6.869   1.348   5.076
 8748SOL    HW127143   6.963   1.348   5.111
 8748SOL    HW227144   6.861   1.413   5.001
 8749SOL     OW27145   2.442   0.837   5.661
 8749SOL    HW127146   2.402   0.754   5.699
 8749SOL    HW227147   2.373   0.884   5.606
 8750SOL     OW27148   3.597   3.791   5.630
 8750SOL    HW127149   3.683   3.838   5.609
 8750SOL    HW227150   3.536   3.855   5.678
 8751SOL     OW27151   5.701   1.152   2.140
 8751SOL    HW127152   5.749   1.220   2.085
 8751SOL    HW227153   5.743   1.063   2.127
 8752SOL     OW27154   2.735   3.416   0.601
 8752SOL    HW127155   2.821   3.423   0.550
 8752SOL    HW227156   2.735   3.482   0.676
 8753SOL     OW27157   4.037   1.791   5.412
 8753SOL    HW127158   4.078   1.841   5.488
 8753SOL    HW227159   3.980   1.853   5.358
 8754SOL     OW27160   1.898   3.437   5.832
 8754SOL    HW127161   1.893   3.495   5.751
 8754SOL    HW227162   1.994   3.420   5.855
 8755SOL     OW27163   2.323   0.592   0.694
 8755SOL    HW127164   2.370   0.630   0.773
 8755SOL    HW227165   2.389   0.548   0.633
 8756SOL     OW27166   1.322   3.003   3.387
 8756SOL    HW127167   1.374   3.011   3.472
 8756SOL    HW227168   1.324   2.908   3.356
 8757SOL     OW27169   4.088   5.652   6.348
 8757SOL    HW127170   4.130   5.567   6.317
 8757SOL    HW227171   4.154   5.704   6.403
 8758SOL     OW27172   4.781   6.042   2.702
 8758SOL    HW127173   4.703   6.041   2.640
 8758SOL    HW227174   4.778   6.125   2.759
 8759SOL     OW27175   4.280   2.603   0.427
 8759SOL    HW127176   4.225   2.554   0.359
 8759SOL    HW227177   4.276   2.701   0.409
 8760SOL     OW27178   2.179   1.162   5.100
 8760SOL    HW127179   2.160   1.064   5.111
 8760SOL    HW227180   2.185   1.184   5.003
 8761SOL     OW27181   6.072   2.179   1.861
 8761SOL    HW127182   6.007   2.107   1.883
 8761SOL    HW227183   6.144   2.143   1.802
 8762SOL     OW27184   1.738   3.654   2.797
 8762SOL    HW127185   1.759   3.556   2.785
 8762SOL    HW227186   1.760   3.682   2.890
 8763SOL     OW27187   0.266   0.193   6.190
 8763SOL    HW127188   0.234   0.208   6.096
 8763SOL    HW227189   0.209   0.246   6.253
 8764SOL     OW27190   4.875   0.226   4.560
 8764SOL    HW127191   4.946   0.237   4.491
 8764SOL    HW227192   4.790   0.270   4.529
 8765SOL     OW27193   5.412   6.730   3.899
 8765SOL    HW127194   5.319   6.692   3.900
 8765SOL    HW227195   5.416   6.806   3.833
 8766SOL     OW27196   4.554   4.433   3.663
 8766SOL    HW127197   4.585   4.369   3.733
 8766SOL    HW227198   4.463   4.467   3.686
 8767SOL     OW27199   5.027   6.232   2.461
 8767SOL    HW127200   5.091   6.200   2.391
 8767SOL    HW227201   5.078   6.271   2.538
 8768SOL     OW27202   1.160   2.434   0.422
 8768SOL    HW127203   1.129   2.339   0.419
 8768SOL    HW227204   1.086   2.494   0.392
 8769SOL     OW27205   0.256   0.863   4.468
 8769SOL    HW127206   0.174   0.861   4.411
 8769SOL    HW227207   0.323   0.798   4.432
 8770SOL     OW27208   4.730   4.386   2.707
 8770SOL    HW127209   4.734   4.456   2.635
 8770SOL    HW227210   4.822   4.356   2.730
 8771SOL     OW27211   0.658   1.251   6.556
 8771SOL    HW127212   0.752   1.227   6.580
 8771SOL    HW227213   0.614   1.295   6.635
 8772SOL     OW27214   5.125   0.299   6.186
 8772SOL    HW127215   5.219   0.328   6.169
 8772SOL    HW227216   5.106   0.215   6.134
 8773SOL     OW27217   4.417   2.432   3.335
 8773SOL    HW127218   4.374   2.463   3.251
 8773SOL    HW227219   4.379   2.483   3.413
 8774SOL     OW27220   0.948   1.059   6.823
 8774SOL    HW127221   0.893   1.040   6.904
 8774SOL    HW227222   1.041   1.086   6.851
 8775SOL     OW27223   5.790   6.854   4.934
 8775SOL    HW127224   5.703   6.862   4.885
 8775SOL    HW227225   5.864   6.839   4.868
 8776SOL     OW27226   3.421   3.128   6.477
 8776SOL    HW127227   3.323   3.146   6.476
 8776SOL    HW227228   3.437   3.032   6.501
 8777SOL     OW27229   0.095   4.289   1.646
 8777SOL    HW127230   0.098   4.389   1.656
 8777SOL    HW227231   0.188   4.253   1.641
 8778SOL     OW27232   6.282   2.741   4.783
 8778SOL    HW127233   6.275   2.835   4.817
 8778SOL    HW227234   6.377   2.721   4.760
 8779SOL     OW27235   3.177   5.553   2.372
 8779SOL    HW127236   3.173   5.650   2.397
 8779SOL    HW227237   3.197   5.498   2.453
 8780SOL     OW27238   0.937   6.242   2.190
 8780SOL    HW127239   0.969   6.275   2.279
 8780SOL    HW227240   0.838   6.250   2.185
 8781SOL     OW27241   5.132   1.499   3.192
 8781SOL    HW127242   5.161   1.419   3.139
 8781SOL    HW227243   5.088   1.469   3.277
 8782SOL     OW27244   5.839   6.399   1.643
 8782SOL    HW127245   5.909   6.328   1.635
 8782SOL    HW227246   5.849   6.445   1.732
 8783SOL     OW27247   6.331   4.173   3.215
 8783SOL    HW127248   6.367   4.171   3.122
 8783SOL    HW227249   6.325   4.080   3.251
 8784SOL     OW27250   5.990   4.234   6.323
 8784SOL    HW127251   5.992   4.139   6.356
 8784SOL    HW227252   6.040   4.292   6.387
 8785SOL     OW27253   5.849   3.255   0.087
 8785SOL    HW127254   5.921   3.259   0.155
 8785SOL    HW227255   5.804   3.344   0.080
 8786SOL     OW27256   2.146   0.389   0.364
 8786SOL    HW127257   2.088   0.345   0.432
 8786SOL    HW227258   2.149   0.487   0.381
 8787SOL     OW27259   3.081   2.037   1.429
 8787SOL    HW127260   3.107   2.124   1.387
 8787SOL    HW227261   3.089   1.964   1.361
 8788SOL     OW27262   6.710   1.873   6.188
 8788SOL    HW127263   6.734   1.778   6.209
 8788SOL    HW227264   6.639   1.904   6.251
 8789SOL     OW27265   6.112   0.153   5.038
 8789SOL    HW127266   6.151   0.074   4.992
 8789SOL    HW227267   6.012   0.144   5.040
 8790SOL     OW27268   0.553   0.360   0.183
 8790SOL    HW127269   0.616   0.431   0.215
 8790SOL    HW227270   0.479   0.350   0.249
 8791SOL     OW27271   5.349   0.276   4.622
 8791SOL    HW127272   5.442   0.266   4.658
 8791SOL    HW227273   5.313   0.366   4.648
 8792SOL     OW27274   2.435   6.927   3.203
 8792SOL    HW127275   2.495   6.851   3.228
 8792SOL    HW227276   2.425   6.931   3.104
 8793SOL     OW27277   1.596   4.210   3.277
 8793SOL    HW127278   1.681   4.159   3.291
 8793SOL    HW227279   1.584   4.275   3.353
 8794SOL     OW27280   4.582   6.587   2.096
 8794SOL    HW127281   4.506   6.528   2.125
 8794SOL    HW227282   4.602   6.653   2.168
 8795SOL     OW27283   1.266   5.232   5.592
 8795SOL    HW127284   1.337   5.281   5.541
 8795SOL    HW227285   1.219   5.295   5.653
 8796SOL     OW27286   3.791   2.102   4.499
 8796SOL    HW127287   3.694   2.127   4.503
 8796SOL    HW227288   3.801   2.013   4.456
 8797SOL     OW27289   6.796   6.766   6.836
 8797SOL    HW127290   6.833   6.722   6.754
 8797SOL    HW227291   6.867   6.822   6.879
 8798SOL     OW27292   4.949   5.826   5.733
 8798SOL    HW127293   5.045   5.822   5.704
 8798SOL    HW227294   4.894   5.765   5.675
 8799SOL     OW27295   2.672   5.032   3.719
 8799SOL    HW127296   2.752   5.093   3.718
 8799SOL    HW227297   2.693   4.949   3.668
 8800SOL     OW27298   6.291   3.800   5.420
 8800SOL    HW127299   6.256   3.734   5.487
 8800SOL    HW227300   6.367   3.759   5.369
 8801SOL     OW27301   0.313   1.797   5.167
 8801SOL    HW127302   0.250   1.799   5.090
 8801SOL    HW227303   0.333   1.891   5.196
 8802SOL     OW27304   1.713   0.002   0.555
 8802SOL    HW127305   1.771   0.016   0.474
 8802SOL    HW227306   1.768   0.015   0.638
 8803SOL     OW27307   6.699   5.793   7.005
 8803SOL    HW127308   6.713   5.802   0.081
 8803SOL    HW227309   6.661   5.877   6.968
 8804SOL     OW27310   2.666   0.175   1.915
 8804SOL    HW127311   2.567   0.164   1.909
 8804SOL    HW227312   2.695   0.249   1.853
 8805SOL     OW27313   2.776   6.863   4.428
 8805SOL    HW127314   2.869   6.887   4.401
 8805SOL    HW227315   2.736   6.937   4.482
 8806SOL     OW27316   2.797   6.001   2.491
 8806SOL    HW127317   2.851   6.080   2.520
 8806SOL    HW227318   2.842   5.955   2.415
 8807SOL     OW27319   5.298   0.238   6.663
 8807SOL    HW127320   5.279   0.334   6.680
 8807SOL    HW227321   5.397   0.223   6.662
 8808SOL     OW27322   5.871   2.747   7.022
 8808SOL    HW127323   5.832   2.832   0.035
 8808SOL    HW227324   5.944   2.767   6.958
 8809SOL     OW27325   4.815   5.401   3.229
 8809SOL    HW127326   4.901   5.390   3.279
 8809SOL    HW227327   4.756   5.466   3.276
 8810SOL     OW27328   5.077   0.725   6.027
 8810SOL    HW127329   5.007   0.657   6.049
 8810SOL    HW227330   5.153   0.680   5.981
 8811SOL     OW27331   2.928   0.861   3.106
 8811SOL    HW127332   2.895   0.862   3.012
 8811SOL    HW227333   2.877   0.928   3.160
 8812SOL     OW27334   2.158   0.373   1.031
 8812SOL    HW127335   2.175   0.338   1.124
 8812SOL    HW227336   2.174   0.300   0.965
 8813SOL     OW27337   2.369   4.730   1.416
 8813SOL    HW127338   2.398   4.697   1.326
 8813SOL    HW227339   2.300   4.801   1.404
 8814SOL     OW27340   5.443   0.022   1.774
 8814SOL    HW127341   5.492   0.090   1.720
 8814SOL    HW227342   5.474   0.026   1.869
 8815SOL     OW27343   5.550   6.846   0.701
 8815SOL    HW127344   5.504   6.851   0.790
 8815SOL    HW227345   5.494   6.892   0.633
 8816SOL     OW27346   0.925   6.826   6.993
 8816SOL    HW127347   1.006   6.815   0.028
 8816SOL    HW227348   0.867   6.744   7.001
 8817SOL     OW27349   0.543   5.090   4.528
 8817SOL    HW127350   0.518   5.086   4.625
 8817SOL    HW227351   0.550   4.998   4.491
 8818SOL     OW27352   0.327   4.342   4.927
 8818SOL    HW127353   0.317   4.265   4.990
 8818SOL    HW227354   0.239   4.389   4.917
 8819SOL     OW27355   5.582   5.148   4.848
 8819SOL    HW127356   5.632   5.220   4.799
 8819SOL    HW227357   5.518   5.190   4.912
 8820SOL     OW27358   2.112   1.261   5.329
 8820SOL    HW127359   2.138   1.206   5.250
 8820SOL    HW227360   2.176   1.338   5.340
 8821SOL     OW27361   2.232   6.117   0.446
 8821SOL    HW127362   2.231   6.020   0.424
 8821SOL    HW227363   2.152   6.140   0.502
 8822SOL     OW27364   0.191   6.991   4.658
 8822SOL    HW127365   0.109   7.004   4.603
 8822SOL    HW227366   0.245   0.052   4.659
 8823SOL     OW27367   2.395   0.951   1.262
 8823SOL    HW127368   2.453   0.899   1.325
 8823SOL    HW227369   2.300   0.945   1.291
 8824SOL     OW27370   1.253   2.160   0.451
 8824SOL    HW127371   1.267   2.132   0.546
 8824SOL    HW227372   1.157   2.151   0.427
 8825SOL     OW27373   2.383   1.023   1.683
 8825SOL    HW127374   2.285   1.014   1.668
 8825SOL    HW227375   2.410   0.970   1.764
 8826SOL     OW27376   6.860   3.596   0.601
 8826SOL    HW127377   6.763   3.571   0.611
 8826SOL    HW227378   6.916   3.518   0.628
 8827SOL     OW27379   3.948   1.696   2.650
 8827SOL    HW127380   3.961   1.632   2.726
 8827SOL    HW227381   3.987   1.656   2.566
 8828SOL     OW27382   4.715   6.160   5.726
 8828SOL    HW127383   4.708   6.238   5.788
 8828SOL    HW227384   4.798   6.109   5.746
 8829SOL     OW27385   5.334   2.621   0.766
 8829SOL    HW127386   5.305   2.548   0.704
 8829SOL    HW227387   5.421   2.659   0.734
 8830SOL     OW27388   1.316   1.809   2.499
 8830SOL    HW127389   1.258   1.728   2.488
 8830SOL    HW227390   1.293   1.877   2.429
 8831SOL     OW27391   4.100   2.255   4.070
 8831SOL    HW127392   4.099   2.355   4.057
 8831SOL    HW227393   4.057   2.232   4.156
 8832SOL     OW27394   0.085   5.905   3.135
 8832SOL    HW127395   7.011   5.919   3.156
 8832SOL    HW227396   0.113   5.813   3.163
 8833SOL     OW27397   2.635   5.336   5.654
 8833SOL    HW127398   2.569   5.321   5.580
 8833SOL    HW227399   2.705   5.401   5.624
 8834SOL     OW27400   5.411   3.828   4.924
 8834SOL    HW127401   5.330   3.770   4.936
 8834SOL    HW227402   5.467   3.824   5.007
 8835SOL     OW27403   4.871   0.872   5.825
 8835SOL    HW127404   4.897   0.816   5.904
 8835SOL    HW227405   4.944   0.937   5.804
 8836SOL     OW27406   5.497   2.864   0.094
 8836SOL    HW127407   5.586   2.827   0.120
 8836SOL    HW227408   5.464   2.818   0.012
 8837SOL     OW27409   0.092   6.209   2.760
 8837SOL    HW127410   0.169   6.242   2.705
 8837SOL    HW227411   0.006   6.230   2.712
 8838SOL     OW27412   2.060   5.581   3.244
 8838SOL    HW127413   1.989   5.554   3.180
 8838SOL    HW227414   2.035   5.668   3.288
 8839SOL     OW27415   5.891   5.345   3.075
 8839SOL    HW127416   5.928   5.277   3.013
 8839SOL    HW227417   5.802   5.315   3.109
 8840SOL     OW27418   6.656   2.141   2.394
 8840SOL    HW127419   6.618   2.174   2.308
 8840SOL    HW227420   6.688   2.218   2.449
 8841SOL     OW27421   0.979   1.252   5.528
 8841SOL    HW127422   1.027   1.306   5.597
 8841SOL    HW227423   0.881   1.267   5.536
 8842SOL     OW27424   3.696   3.204   2.382
 8842SOL    HW127425   3.747   3.268   2.324
 8842SOL    HW227426   3.736   3.202   2.473
 8843SOL     OW27427   1.683   3.291   5.608
 8843SOL    HW127428   1.782   3.282   5.621
 8843SOL    HW227429   1.647   3.361   5.670
 8844SOL     OW27430   6.738   2.269   6.386
 8844SOL    HW127431   6.757   2.218   6.303
 8844SOL    HW227432   6.650   2.315   6.378
 8845SOL     OW27433   4.203   3.496   0.455
 8845SOL    HW127434   4.156   3.539   0.379
 8845SOL    HW227435   4.171   3.536   0.541
 8846SOL     OW27436   3.463   5.409   4.106
 8846SOL    HW127437   3.494   5.504   4.096
 8846SOL    HW227438   3.420   5.378   4.022
 8847SOL     OW27439   2.563   0.888   3.187
 8847SOL    HW127440   2.539   0.893   3.090
 8847SOL    HW227441   2.609   0.801   3.205
 8848SOL     OW27442   2.384   1.587   1.716
 8848SOL    HW127443   2.388   1.493   1.681
 8848SOL    HW227444   2.435   1.647   1.655
 8849SOL     OW27445   2.906   6.355   3.355
 8849SOL    HW127446   2.857   6.293   3.416
 8849SOL    HW227447   2.976   6.404   3.406
 8850SOL     OW27448   1.177   2.204   0.029
 8850SOL    HW127449   1.270   2.190   0.064
 8850SOL    HW227450   1.122   2.123   0.048
 8851SOL     OW27451   1.135   4.216   3.281
 8851SOL    HW127452   1.170   4.245   3.193
 8851SOL    HW227453   1.208   4.173   3.334
 8852SOL     OW27454   6.867   2.803   5.084
 8852SOL    HW127455   6.837   2.873   5.019
 8852SOL    HW227456   6.957   2.769   5.058
 8853SOL     OW27457   3.045   1.018   1.305
 8853SOL    HW127458   2.972   1.074   1.265
 8853SOL    HW227459   3.021   0.921   1.296
 8854SOL     OW27460   3.060   2.639   5.786
 8854SOL    HW127461   2.989   2.571   5.806
 8854SOL    HW227462   3.018   2.728   5.773
 8855SOL     OW27463   0.207   5.390   1.724
 8855SOL    HW127464   0.160   5.307   1.754
 8855SOL    HW227465   0.201   5.460   1.795
 8856SOL     OW27466   0.056   6.527   6.240
 8856SOL    HW127467   0.017   6.617   6.260
 8856SOL    HW227468   0.072   6.519   6.142
 8857SOL     OW27469   6.976   1.546   4.167
 8857SOL    HW127470   0.010   1.478   4.120
 8857SOL    HW227471   7.013   1.637   4.149
 8858SOL     OW27472   1.005   3.539   5.222
 8858SOL    HW127473   0.930   3.497   5.273
 8858SOL    HW227474   0.979   3.548   5.126
 8859SOL     OW27475   0.688   0.447   3.930
 8859SOL    HW127476   0.782   0.415   3.945
 8859SOL    HW227477   0.683   0.500   3.846
 8860SOL     OW27478   6.669   2.692   2.418
 8860SOL    HW127479   6.666   2.788   2.392
 8860SOL    HW227480   6.637   2.682   2.512
 8861SOL     OW27481   4.389   1.604   6.207
 8861SOL    HW127482   4.394   1.551   6.122
 8861SOL    HW227483   4.447   1.561   6.276
 8862SOL     OW27484   5.057   0.539   3.469
 8862SOL    HW127485   4.969   0.553   3.514
 8862SOL    HW227486   5.131   0.567   3.531
 8863SOL     OW27487   2.198   4.767   3.852
 8863SOL    HW127488   2.276   4.791   3.794
 8863SOL    HW227489   2.159   4.680   3.821
 8864SOL     OW27490   2.744   5.110   6.198
 8864SOL    HW127491   2.783   5.186   6.146
 8864SOL    HW227492   2.812   5.036   6.205
 8865SOL     OW27493   2.938   0.418   4.806
 8865SOL    HW127494   3.005   0.360   4.851
 8865SOL    HW227495   2.847   0.397   4.841
 8866SOL     OW27496   4.895   0.152   2.807
 8866SOL    HW127497   4.943   0.175   2.723
 8866SOL    HW227498   4.917   0.059   2.835
 8867SOL     OW27499   6.030   4.713   3.115
 8867SOL    HW127500   6.000   4.732   3.021
 8867SOL    HW227501   5.992   4.781   3.177
 8868SOL     OW27502   0.272   3.018   1.544
 8868SOL    HW127503   0.283   3.061   1.634
 8868SOL    HW227504   0.325   3.069   1.476
 8869SOL     OW27505   3.847   5.882   5.215
 8869SOL    HW127506   3.780   5.808   5.204
 8869SOL    HW227507   3.938   5.848   5.192
 8870SOL     OW27508   2.670   0.038   0.841
 8870SOL    HW127509   2.612   0.106   0.797
 8870SOL    HW227510   2.711   7.002   0.771
 8871SOL     OW27511   2.203   0.919   3.964
 8871SOL    HW127512   2.295   0.956   3.977
 8871SOL    HW227513   2.178   0.929   3.867
 8872SOL     OW27514   1.725   4.414   5.288
 8872SOL    HW127515   1.818   4.449   5.278
 8872SOL    HW227516   1.679   4.414   5.200
 8873SOL     OW27517   0.347   6.559   2.007
 8873SOL    HW127518   0.354   6.585   2.103
 8873SOL    HW227519   0.296   6.473   2.000
 8874SOL     OW27520   1.929   6.243   2.846
 8874SOL    HW127521   1.988   6.217   2.770
 8874SOL    HW227522   1.848   6.184   2.847
 8875SOL     OW27523   0.470   3.800   4.855
 8875SOL    HW127524   0.457   3.701   4.849
 8875SOL    HW227525   0.542   3.821   4.921
 8876SOL     OW27526   2.179   6.390   5.664
 8876SOL    HW127527   2.088   6.392   5.706
 8876SOL    HW227528   2.197   6.299   5.628
 8877SOL     OW27529   2.625   1.856   4.071
 8877SOL    HW127530   2.635   1.757   4.084
 8877SOL    HW227531   2.625   1.901   4.160
 8878SOL     OW27532   5.890   4.841   1.001
 8878SOL    HW127533   5.919   4.761   1.054
 8878SOL    HW227534   5.915   4.925   1.051
 8879SOL     OW27535   4.996   4.351   2.592
 8879SOL    HW127536   4.964   4.436   2.549
 8879SOL    HW227537   5.067   4.310   2.535
 8880SOL     OW27538   4.250   6.428   4.821
 8880SOL    HW127539   4.217   6.522   4.813
 8880SOL    HW227540   4.274   6.410   4.917
 8881SOL     OW27541   5.083   6.634   3.578
 8881SOL    HW127542   5.026   6.561   3.615
 8881SOL    HW227543   5.039   6.722   3.596
 8882SOL     OW27544   4.973   0.837   1.230
 8882SOL    HW127545   4.970   0.803   1.324
 8882SOL    HW227546   4.979   0.760   1.167
 8883SOL     OW27547   1.557   6.221   6.259
 8883SOL    HW127548   1.521   6.312   6.281
 8883SOL    HW227549   1.604   6.225   6.171
 8884SOL     OW27550   6.098   4.128   5.040
 8884SOL    HW127551   6.124   4.103   5.133
 8884SOL    HW227552   6.158   4.201   5.006
 8885SOL     OW27553   5.932   4.272   1.624
 8885SOL    HW127554   5.971   4.247   1.535
 8885SOL    HW227555   5.995   4.331   1.673
 8886SOL     OW27556   2.891   5.823   4.770
 8886SOL    HW127557   2.951   5.748   4.798
 8886SOL    HW227558   2.941   5.910   4.777
 8887SOL     OW27559   3.972   0.504   0.493
 8887SOL    HW127560   3.900   0.436   0.509
 8887SOL    HW227561   4.058   0.471   0.530
 8888SOL     OW27562   2.090   1.444   5.710
 8888SOL    HW127563   2.062   1.481   5.622
 8888SOL    HW227564   2.188   1.423   5.707
 8889SOL     OW27565   6.548   6.925   0.314
 8889SOL    HW127566   6.520   6.911   0.219
 8889SOL    HW227567   6.469   6.915   0.374
 8890SOL     OW27568   0.383   6.416   5.640
 8890SOL    HW127569   0.351   6.488   5.700
 8890SOL    HW227570   0.482   6.409   5.644
 8891SOL     OW27571   3.983   3.257   6.699
 8891SOL    HW127572   3.998   3.179   6.638
 8891SOL    HW227573   3.980   3.224   6.794
 8892SOL     OW27574   3.577   5.418   2.224
 8892SOL    HW127575   3.656   5.395   2.281
 8892SOL    HW227576   3.596   5.502   2.173
 8893SOL     OW27577   0.784   5.639   4.112
 8893SOL    HW127578   0.829   5.557   4.077
 8893SOL    HW227579   0.849   5.715   4.115
 8894SOL     OW27580   3.151   2.353   6.756
 8894SOL    HW127581   3.105   2.350   6.667
 8894SOL    HW227582   3.130   2.270   6.807
 8895SOL     OW27583   6.619   2.921   2.223
 8895SOL    HW127584   6.635   2.948   2.128
 8895SOL    HW227585   6.572   2.995   2.272
 8896SOL     OW27586   2.263   3.054   5.615
 8896SOL    HW127587   2.273   3.017   5.523
 8896SOL    HW227588   2.186   3.009   5.661
 8897SOL     OW27589   2.332   2.846   3.506
 8897SOL    HW127590   2.369   2.764   3.461
 8897SOL    HW227591   2.303   2.824   3.598
 8898SOL     OW27592   4.976   3.627   2.489
 8898SOL    HW127593   5.064   3.662   2.458
 8898SOL    HW227594   4.942   3.560   2.422
 8899SOL     OW27595   1.265   5.270   1.835
 8899SOL    HW127596   1.249   5.257   1.737
 8899SOL    HW227597   1.363   5.269   1.853
 8900SOL     OW27598   5.838   2.849   3.018
 8900SOL    HW127599   5.823   2.874   2.923
 8900SOL    HW227600   5.932   2.815   3.030
 8901SOL     OW27601   1.236   0.915   4.908
 8901SOL    HW127602   1.312   0.974   4.936
 8901SOL    HW227603   1.214   0.932   4.812
 8902SOL     OW27604   0.895   6.074   0.528
 8902SOL    HW127605   0.847   5.996   0.567
 8902SOL    HW227606   0.902   6.063   0.428
 8903SOL     OW27607   0.678   2.013   4.487
 8903SOL    HW127608   0.626   1.934   4.454
 8903SOL    HW227609   0.739   1.984   4.561
 8904SOL     OW27610   6.449   0.858   5.001
 8904SOL    HW127611   6.537   0.811   5.005
 8904SOL    HW227612   6.464   0.954   4.979
 8905SOL     OW27613   2.073   3.505   3.155
 8905SOL    HW127614   1.973   3.509   3.156
 8905SOL    HW227615   2.106   3.486   3.247
 8906SOL     OW27616   0.974   6.524   7.003
 8906SOL    HW127617   0.879   6.535   0.011
 8906SOL    HW227618   0.975   6.506   6.904
 8907SOL     OW27619   2.800   2.788   5.472
 8907SOL    HW127620   2.806   2.888   5.464
 8907SOL    HW227621   2.705   2.762   5.488
 8908SOL     OW27622   1.243   5.296   6.992
 8908SOL    HW127623   1.291   5.335   6.914
 8908SOL    HW227624   1.146   5.319   6.987
 8909SOL     OW27625   2.397   1.404   5.661
 8909SOL    HW127626   2.457   1.323   5.660
 8909SOL    HW227627   2.440   1.476   5.716
 8910SOL     OW27628   0.381   2.796   5.819
 8910SOL    HW127629   0.345   2.860   5.887
 8910SOL    HW227630   0.463   2.751   5.856
 8911SOL     OW27631   4.723   2.841   4.332
 8911SOL    HW127632   4.691   2.755   4.292
 8911SOL    HW227633   4.727   2.912   4.261
 8912SOL     OW27634   3.724   3.593   0.009
 8912SOL    HW127635   3.749   3.673   6.978
 8912SOL    HW227636   3.625   3.590   0.022
 8913SOL     OW27637   4.525   5.599   5.755
 8913SOL    HW127638   4.463   5.570   5.682
 8913SOL    HW227639   4.547   5.521   5.814
 8914SOL     OW27640   4.212   6.686   4.463
 8914SOL    HW127641   4.217   6.596   4.420
 8914SOL    HW227642   4.282   6.746   4.424
 8915SOL     OW27643   1.062   2.301   3.784
 8915SOL    HW127644   1.012   2.313   3.870
 8915SOL    HW227645   0.996   2.287   3.710
 8916SOL     OW27646   0.030   2.944   1.225
 8916SOL    HW127647   0.079   2.917   1.143
 8916SOL    HW227648   7.007   3.032   1.210
 8917SOL     OW27649   6.477   3.280   0.582
 8917SOL    HW127650   6.494   3.193   0.535
 8917SOL    HW227651   6.563   3.313   0.622
 8918SOL     OW27652   6.907   3.941   1.076
 8918SOL    HW127653   6.813   3.971   1.063
 8918SOL    HW227654   6.916   3.846   1.046
 8919SOL     OW27655   4.516   4.167   0.437
 8919SOL    HW127656   4.509   4.264   0.411
 8919SOL    HW227657   4.436   4.118   0.403
 8920SOL     OW27658   6.958   1.440   6.646
 8920SOL    HW127659   7.022   1.450   6.571
 8920SOL    HW227660   6.882   1.505   6.635
 8921SOL     OW27661   1.723   2.396   1.859
 8921SOL    HW127662   1.700   2.492   1.872
 8921SOL    HW227663   1.799   2.388   1.794
 8922SOL     OW27664   4.454   4.965   1.452
 8922SOL    HW127665   4.362   4.957   1.414
 8922SOL    HW227666   4.476   5.061   1.468
 8923SOL     OW27667   2.361   1.848   6.726
 8923SOL    HW127668   2.414   1.811   6.649
 8923SOL    HW227669   2.398   1.812   6.811
 8924SOL     OW27670   4.359   6.194   5.410
 8924SOL    HW127671   4.458   6.200   5.413
 8924SOL    HW227672   4.329   6.188   5.315
 8925SOL     OW27673   1.229   1.084   3.161
 8925SOL    HW127674   1.196   1.034   3.240
 8925SOL    HW227675   1.286   1.024   3.105
 8926SOL     OW27676   6.998   2.679   5.852
 8926SOL    HW127677   6.968   2.620   5.777
 8926SOL    HW227678   6.980   2.774   5.829
 8927SOL     OW27679   0.012   0.852   4.637
 8927SOL    HW127680   6.947   0.864   4.590
 8927SOL    HW227681   0.086   0.879   4.575
 8928SOL     OW27682   1.194   6.966   6.085
 8928SOL    HW127683   1.191   6.868   6.065
 8928SOL    HW227684   1.287   6.999   6.071
 8929SOL     OW27685   5.890   1.760   5.114
 8929SOL    HW127686   5.892   1.771   5.214
 8929SOL    HW227687   5.983   1.769   5.078
 8930SOL     OW27688   1.776   2.684   4.717
 8930SOL    HW127689   1.735   2.593   4.721
 8930SOL    HW227690   1.873   2.678   4.742
 8931SOL     OW27691   3.139   3.480   0.837
 8931SOL    HW127692   3.199   3.480   0.757
 8931SOL    HW227693   3.118   3.386   0.864
 8932SOL     OW27694   6.286   2.213   1.573
 8932SOL    HW127695   6.315   2.306   1.555
 8932SOL    HW227696   6.362   2.161   1.611
 8933SOL     OW27697   2.343   2.976   6.821
 8933SOL    HW127698   2.335   3.016   6.912
 8933SOL    HW227699   2.436   2.942   6.807
 8934SOL     OW27700   2.475   5.194   4.392
 8934SOL    HW127701   2.473   5.245   4.306
 8934SOL    HW227702   2.566   5.154   4.406
 8935SOL     OW27703   0.622   4.535   0.402
 8935SOL    HW127704   0.655   4.441   0.399
 8935SOL    HW227705   0.696   4.596   0.430
 8936SOL     OW27706   1.254   3.446   2.532
 8936SOL    HW127707   1.267   3.505   2.453
 8936SOL    HW227708   1.174   3.477   2.584
 8937SOL     OW27709   0.636   0.363   5.891
 8937SOL    HW127710   0.669   0.442   5.839
 8937SOL    HW227711   0.560   0.321   5.842
 8938SOL     OW27712   0.439   6.499   0.362
 8938SOL    HW127713   0.439   6.430   0.434
 8938SOL    HW227714   0.384   6.467   0.284
 8939SOL     OW27715   5.189   4.451   4.222
 8939SOL    HW127716   5.144   4.541   4.216
 8939SOL    HW227717   5.122   4.379   4.204
 8940SOL     OW27718   0.257   0.976   2.181
 8940SOL    HW127719   0.296   0.982   2.089
 8940SOL    HW227720   0.223   0.883   2.196
 8941SOL     OW27721   6.042   2.535   5.546
 8941SOL    HW127722   6.070   2.439   5.554
 8941SOL    HW227723   5.948   2.545   5.580
 8942SOL     OW27724   6.078   5.140   5.504
 8942SOL    HW127725   6.043   5.213   5.563
 8942SOL    HW227726   6.054   5.051   5.543
 8943SOL     OW27727   3.761   5.368   6.728
 8943SOL    HW127728   3.779   5.453   6.679
 8943SOL    HW227729   3.675   5.328   6.694
 8944SOL     OW27730   5.548   5.236   5.715
 8944SOL    HW127731   5.593   5.212   5.801
 8944SOL    HW227732   5.523   5.333   5.717
 8945SOL     OW27733   0.925   0.773   3.063
 8945SOL    HW127734   0.978   0.691   3.044
 8945SOL    HW227735   0.901   0.776   3.160
 8946SOL     OW27736   3.041   1.755   5.160
 8946SOL    HW127737   3.129   1.730   5.119
 8946SOL    HW227738   3.019   1.849   5.136
 8947SOL     OW27739   1.782   2.895   6.448
 8947SOL    HW127740   1.802   2.896   6.350
 8947SOL    HW227741   1.716   2.968   6.469
 8948SOL     OW27742   5.750   5.811   4.990
 8948SOL    HW127743   5.661   5.836   4.952
 8948SOL    HW227744   5.816   5.885   4.973
 8949SOL     OW27745   2.795   6.299   0.454
 8949SOL    HW127746   2.776   6.201   0.449
 8949SOL    HW227747   2.736   6.340   0.523
 8950SOL     OW27748   4.817   4.299   6.431
 8950SOL    HW127749   4.807   4.392   6.394
 8950SOL    HW227750   4.796   4.232   6.361
 8951SOL     OW27751   1.226   1.406   5.290
 8951SOL    HW127752   1.292   1.332   5.297
 8951SOL    HW227753   1.231   1.446   5.198
 8952SOL     OW27754   1.467   6.411   2.400
 8952SOL    HW127755   1.539   6.455   2.455
 8952SOL    HW227756   1.436   6.328   2.447
 8953SOL     OW27757   1.794   4.141   6.948
 8953SOL    HW127758   1.767   4.046   6.965
 8953SOL    HW227759   1.848   4.146   6.864
 8954SOL     OW27760   0.692   6.692   4.367
 8954SOL    HW127761   0.750   6.684   4.447
 8954SOL    HW227762   0.688   6.788   4.338
 8955SOL     OW27763   0.157   5.084   2.459
 8955SOL    HW127764   0.124   5.176   2.480
 8955SOL    HW227765   0.147   5.026   2.540
 8956SOL     OW27766   1.859   1.218   6.639
 8956SOL    HW127767   1.816   1.148   6.697
 8956SOL    HW227768   1.810   1.305   6.650
 8957SOL     OW27769   2.847   4.799   0.921
 8957SOL    HW127770   2.819   4.703   0.910
 8957SOL    HW227771   2.767   4.858   0.909
 8958SOL     OW27772   0.227   1.502   4.786
 8958SOL    HW127773   0.207   1.414   4.830
 8958SOL    HW227774   0.252   1.487   4.691
 8959SOL     OW27775   1.813   4.473   2.285
 8959SOL    HW127776   1.906   4.492   2.317
 8959SOL    HW227777   1.792   4.532   2.207
 8960SOL     OW27778   4.550   4.782   2.249
 8960SOL    HW127779   4.490   4.703   2.236
 8960SOL    HW227780   4.515   4.838   2.325
 8961SOL     OW27781   2.512   1.012   4.181
 8961SOL    HW127782   2.524   0.915   4.200
 8961SOL    HW227783   2.521   1.028   4.082
 8962SOL     OW27784   6.888   5.713   2.603
 8962SOL    HW127785   6.903   5.630   2.548
 8962SOL    HW227786   6.973   5.740   2.647
 8963SOL     OW27787   4.031   6.314   4.269
 8963SOL    HW127788   3.931   6.322   4.269
 8963SOL    HW227789   4.056   6.219   4.252
 8964SOL     OW27790   4.888   3.537   3.124
 8964SOL    HW127791   4.988   3.530   3.121
 8964SOL    HW227792   4.849   3.503   3.039
 8965SOL     OW27793   2.742   4.647   0.220
 8965SOL    HW127794   2.803   4.626   0.143
 8965SOL    HW227795   2.679   4.721   0.194
 8966SOL     OW27796   0.210   4.463   0.276
 8966SOL    HW127797   0.211   4.511   0.188
 8966SOL    HW227798   0.287   4.496   0.331
 8967SOL     OW27799   4.060   0.228   1.423
 8967SOL    HW127800   4.055   0.173   1.340
 8967SOL    HW227801   4.042   0.170   1.502
 8968SOL     OW27802   4.532   5.074   2.849
 8968SOL    HW127803   4.469   5.001   2.820
 8968SOL    HW227804   4.540   5.142   2.777
 8969SOL     OW27805   6.601   1.114   4.582
 8969SOL    HW127806   6.554   1.152   4.502
 8969SOL    HW227807   6.623   1.188   4.646
 8970SOL     OW27808   2.688   2.891   0.219
 8970SOL    HW127809   2.787   2.900   0.205
 8970SOL    HW227810   2.669   2.885   0.317
 8971SOL     OW27811   5.767   5.273   1.085
 8971SOL    HW127812   5.768   5.266   0.985
 8971SOL    HW227813   5.834   5.210   1.123
 8972SOL     OW27814   5.139   4.240   0.050
 8972SOL    HW127815   5.167   4.244   6.977
 8972SOL    HW227816   5.201   4.297   0.104
 8973SOL     OW27817   0.493   2.812   2.608
 8973SOL    HW127818   0.474   2.896   2.658
 8973SOL    HW227819   0.553   2.753   2.662
 8974SOL     OW27820   1.411   4.526   5.112
 8974SOL    HW127821   1.315   4.552   5.107
 8974SOL    HW227822   1.468   4.608   5.117
 8975SOL     OW27823   1.420   6.616   5.862
 8975SOL    HW127824   1.440   6.637   5.766
 8975SOL    HW227825   1.326   6.645   5.883
 8976SOL     OW27826   6.879   5.142   5.856
 8976SOL    HW127827   6.832   5.057   5.881
 8976SOL    HW227828   6.812   5.211   5.828
 8977SOL     OW27829   6.426   2.743   0.034
 8977SOL    HW127830   6.464   2.827   0.073
 8977SOL    HW227831   6.420   2.673   0.105
 8978SOL     OW27832   5.367   6.936   3.732
 8978SOL    HW127833   5.428   7.008   3.765
 8978SOL    HW227834   5.276   6.948   3.773
 8979SOL     OW27835   1.198   4.076   4.624
 8979SOL    HW127836   1.236   4.134   4.551
 8979SOL    HW227837   1.263   4.005   4.647
 8980SOL     OW27838   3.702   2.538   5.533
 8980SOL    HW127839   3.703   2.565   5.437
 8980SOL    HW227840   3.795   2.535   5.568
 8981SOL     OW27841   3.932   1.145   5.823
 8981SOL    HW127842   3.904   1.101   5.737
 8981SOL    HW227843   3.854   1.149   5.885
 8982SOL     OW27844   0.699   2.159   1.728
 8982SOL    HW127845   0.769   2.225   1.755
 8982SOL    HW227846   0.671   2.105   1.808
 8983SOL     OW27847   0.993   5.736   6.915
 8983SOL    HW127848   1.052   5.761   6.838
 8983SOL    HW227849   1.047   5.689   6.985
 8984SOL     OW27850   6.415   6.982   3.578
 8984SOL    HW127851   6.339   6.919   3.562
 8984SOL    HW227852   6.440   0.002   3.491
 8985SOL     OW27853   2.723   1.998   0.662
 8985SOL    HW127854   2.756   1.963   0.750
 8985SOL    HW227855   2.707   2.096   0.669
 8986SOL     OW27856   4.514   5.065   1.871
 8986SOL    HW127857   4.419   5.094   1.869
 8986SOL    HW227858   4.521   4.970   1.840
 8987SOL     OW27859   5.047   6.730   1.064
 8987SOL    HW127860   5.110   6.708   0.990
 8987SOL    HW227861   4.967   6.776   1.027
 8988SOL     OW27862   1.313   3.628   6.059
 8988SOL    HW127863   1.399   3.613   6.108
 8988SOL    HW227864   1.256   3.546   6.066
 8989SOL     OW27865   4.800   4.030   1.676
 8989SOL    HW127866   4.850   3.977   1.744
 8989SOL    HW227867   4.766   3.970   1.603
 8990SOL     OW27868   1.932   5.892   2.978
 8990SOL    HW127869   1.851   5.837   2.999
 8990SOL    HW227870   1.998   5.837   2.928
 8991SOL     OW27871   1.372   1.655   6.581
 8991SOL    HW127872   1.425   1.685   6.661
 8991SOL    HW227873   1.288   1.708   6.575
 8992SOL     OW27874   5.893   2.002   0.067
 8992SOL    HW127875   5.803   2.039   0.046
 8992SOL    HW227876   5.916   1.931   0.001
 8993SOL     OW27877   4.446   2.430   2.386
 8993SOL    HW127878   4.387   2.380   2.449
 8993SOL    HW227879   4.540   2.400   2.398
 8994SOL     OW27880   1.306   4.945   4.542
 8994SOL    HW127881   1.370   4.992   4.603
 8994SOL    HW227882   1.261   5.012   4.484
 8995SOL     OW27883   0.708   2.365   0.020
 8995SOL    HW127884   0.779   2.358   0.090
 8995SOL    HW227885   0.622   2.330   0.057
 8996SOL     OW27886   6.477   4.995   1.061
 8996SOL    HW127887   6.443   4.902   1.075
 8996SOL    HW227888   6.561   5.008   1.114
 8997SOL     OW27889   4.777   1.412   5.901
 8997SOL    HW127890   4.737   1.494   5.859
 8997SOL    HW227891   4.710   1.337   5.897
 8998SOL     OW27892   6.797   4.079   4.897
 8998SOL    HW127893   6.776   3.986   4.927
 8998SOL    HW227894   6.840   4.075   4.806
 8999SOL     OW27895   5.130   6.036   6.992
 8999SOL    HW127896   5.188   5.999   0.042
 8999SOL    HW227897   5.051   6.082   0.010
 9000SOL     OW27898   2.342   3.993   0.805
 9000SOL    HW127899   2.265   4.002   0.867
 9000SOL    HW227900   2.427   3.989   0.857
 9001SOL     OW27901   1.040   5.294   2.586
 9001SOL    HW127902   0.955   5.346   2.583
 9001SOL    HW227903   1.118   5.356   2.573
 9002SOL     OW27904   0.355   5.046   5.425
 9002SOL    HW127905   0.336   4.950   5.403
 9002SOL    HW227906   0.373   5.097   5.341
 9003SOL     OW27907   4.985   2.870   1.217
 9003SOL    HW127908   5.020   2.913   1.135
 9003SOL    HW227909   4.980   2.771   1.203
 9004SOL     OW27910   3.999   6.290   1.369
 9004SOL    HW127911   4.045   6.204   1.391
 9004SOL    HW227912   4.061   6.349   1.319
 9005SOL     OW27913   5.382   2.358   4.471
 9005SOL    HW127914   5.334   2.346   4.558
 9005SOL    HW227915   5.350   2.441   4.426
 9006SOL     OW27916   2.918   6.649   0.821
 9006SOL    HW127917   2.905   6.690   0.911
 9006SOL    HW227918   2.970   6.563   0.831
 9007SOL     OW27919   3.689   0.870   4.321
 9007SOL    HW127920   3.718   0.828   4.407
 9007SOL    HW227921   3.752   0.845   4.248
 9008SOL     OW27922   0.916   5.824   3.069
 9008SOL    HW127923   0.828   5.797   3.108
 9008SOL    HW227924   0.990   5.776   3.117
 9009SOL     OW27925   3.053   0.907   0.591
 9009SOL    HW127926   3.092   0.912   0.683
 9009SOL    HW227927   3.080   0.822   0.547
 9010SOL     OW27928   1.425   6.323   3.796
 9010SOL    HW127929   1.431   6.318   3.895
 9010SOL    HW227930   1.487   6.255   3.755
 9011SOL     OW27931   5.023   2.533   2.061
 9011SOL    HW127932   5.055   2.627   2.051
 9011SOL    HW227933   4.927   2.533   2.089
 9012SOL     OW27934   2.935   4.220   1.476
 9012SOL    HW127935   2.926   4.308   1.431
 9012SOL    HW227936   2.876   4.218   1.557
 9013SOL     OW27937   6.762   6.261   5.326
 9013SOL    HW127938   6.830   6.320   5.370
 9013SOL    HW227939   6.675   6.267   5.376
 9014SOL     OW27940   6.707   2.016   0.005
 9014SOL    HW127941   6.690   2.114   0.011
 9014SOL    HW227942   6.726   1.979   0.096
 9015SOL     OW27943   5.293   1.628   1.129
 9015SOL    HW127944   5.275   1.538   1.168
 9015SOL    HW227945   5.391   1.649   1.137
 9016SOL     OW27946   0.787   6.878   6.510
 9016SOL    HW127947   0.857   6.948   6.500
 9016SOL    HW227948   0.774   6.857   6.607
 9017SOL     OW27949   4.258   1.867   2.784
 9017SOL    HW127950   4.256   1.911   2.874
 9017SOL    HW227951   4.165   1.856   2.750
 9018SOL     OW27952   3.920   1.928   0.220
 9018SOL    HW127953   3.973   1.998   0.172
 9018SOL    HW227954   3.937   1.934   0.318
 9019SOL     OW27955   1.495   0.386   2.412
 9019SOL    HW127956   1.576   0.440   2.434
 9019SOL    HW227957   1.413   0.442   2.425
 9020SOL     OW27958   0.676   4.004   1.493
 9020SOL    HW127959   0.723   3.959   1.568
 9020SOL    HW227960   0.740   4.063   1.444
 9021SOL     OW27961   6.544   0.187   4.216
 9021SOL    HW127962   6.601   0.267   4.198
 9021SOL    HW227963   6.448   0.210   4.203
 9022SOL     OW27964   3.153   2.269   0.091
 9022SOL    HW127965   3.246   2.306   0.100
 9022SOL    HW227966   3.090   2.323   0.146
 9023SOL     OW27967   3.064   3.053   2.434
 9023SOL    HW127968   3.086   2.997   2.514
 9023SOL    HW227969   3.052   3.149   2.462
 9024SOL     OW27970   0.605   4.574   5.077
 9024SOL    HW127971   0.571   4.583   4.984
 9024SOL    HW227972   0.535   4.604   5.141
 9025SOL     OW27973   0.697   5.326   0.278
 9025SOL    HW127974   0.736   5.414   0.251
 9025SOL    HW227975   0.765   5.254   0.264
 9026SOL     OW27976   4.465   3.429   1.381
 9026SOL    HW127977   4.479   3.332   1.364
 9026SOL    HW227978   4.423   3.442   1.471
 9027SOL     OW27979   1.189   2.531   4.249
 9027SOL    HW127980   1.161   2.627   4.242
 9027SOL    HW227981   1.274   2.517   4.198
 9028SOL     OW27982   2.460   3.466   5.600
 9028SOL    HW127983   2.494   3.396   5.663
 9028SOL    HW227984   2.527   3.540   5.595
 9029SOL     OW27985   3.479   6.094   5.310
 9029SOL    HW127986   3.413   6.027   5.345
 9029SOL    HW227987   3.501   6.160   5.382
 9030SOL     OW27988   2.202   1.708   3.250
 9030SOL    HW127989   2.187   1.621   3.296
 9030SOL    HW227990   2.278   1.757   3.294
 9031SOL     OW27991   4.359   5.966   4.618
 9031SOL    HW127992   4.364   5.988   4.520
 9031SOL    HW227993   4.451   5.954   4.654
 9032SOL     OW27994   4.190   3.220   0.450
 9032SOL    HW127995   4.098   3.240   0.485
 9032SOL    HW227996   4.239   3.305   0.435
 9033SOL     OW27997   1.013   3.746   3.417
 9033SOL    HW127998   1.002   3.845   3.420
 9033SOL    HW227999   1.054   3.714   3.502
 9034SOL     OW28000   2.672   0.101   5.775
 9034SOL    HW128001   2.742   0.149   5.828
 9034SOL    HW228002   2.689   0.114   5.677
 9035SOL     OW28003   1.391   4.876   5.853
 9035SOL    HW128004   1.418   4.848   5.945
 9035SOL    HW228005   1.291   4.886   5.850
 9036SOL     OW28006   1.715   1.369   5.304
 9036SOL    HW128007   1.726   1.369   5.403
 9036SOL    HW228008   1.769   1.443   5.265
 9037SOL     OW28009   1.395   4.047   5.378
 9037SOL    HW128010   1.462   4.100   5.326
 9037SOL    HW228011   1.315   4.104   5.397
 9038SOL     OW28012   4.388   6.874   5.962
 9038SOL    HW128013   4.403   6.827   5.876
 9038SOL    HW228014   4.442   6.959   5.964
 9039SOL     OW28015   3.015   5.492   5.209
 9039SOL    HW128016   3.037   5.547   5.129
 9039SOL    HW228017   3.097   5.444   5.240
 9040SOL     OW28018   3.296   1.819   2.613
 9040SOL    HW128019   3.249   1.898   2.651
 9040SOL    HW228020   3.386   1.848   2.579
 9041SOL     OW28021   1.077   2.502   1.391
 9041SOL    HW128022   1.134   2.583   1.380
 9041SOL    HW228023   1.080   2.472   1.487
 9042SOL     OW28024   2.758   0.188   4.038
 9042SOL    HW128025   2.803   0.277   4.039
 9042SOL    HW228026   2.794   0.131   4.112
 9043SOL     OW28027   1.221   1.140   0.139
 9043SOL    HW128028   1.178   1.050   0.133
 9043SOL    HW228029   1.238   1.162   0.235
 9044SOL     OW28030   6.356   1.194   0.694
 9044SOL    HW128031   6.261   1.222   0.680
 9044SOL    HW228032   6.414   1.234   0.623
 9045SOL     OW28033   2.275   1.578   2.713
 9045SOL    HW128034   2.237   1.552   2.801
 9045SOL    HW228035   2.259   1.675   2.696
 9046SOL     OW28036   3.670   3.574   3.324
 9046SOL    HW128037   3.583   3.585   3.277
 9046SOL    HW228038   3.654   3.564   3.423
 9047SOL     OW28039   1.426   3.075   5.702
 9047SOL    HW128040   1.353   3.009   5.689
 9047SOL    HW228041   1.455   3.112   5.613
 9048SOL     OW28042   5.591   2.671   6.226
 9048SOL    HW128043   5.547   2.582   6.218
 9048SOL    HW228044   5.673   2.662   6.284
 9049SOL     OW28045   3.858   0.147   5.847
 9049SOL    HW128046   3.913   0.194   5.778
 9049SOL    HW228047   3.887   0.051   5.852
 9050SOL     OW28048   0.219   3.436   0.174
 9050SOL    HW128049   0.285   3.511   0.177
 9050SOL    HW228050   0.131   3.470   0.141
 9051SOL     OW28051   4.066   6.444   0.747
 9051SOL    HW128052   4.161   6.417   0.759
 9051SOL    HW228053   4.062   6.532   0.700
 9052SOL     OW28054   2.152   2.304   3.797
 9052SOL    HW128055   2.215   2.254   3.738
 9052SOL    HW228056   2.191   2.311   3.889
 9053SOL     OW28057   2.130   1.522   2.942
 9053SOL    HW128058   2.147   1.558   3.034
 9053SOL    HW228059   2.036   1.489   2.937
 9054SOL     OW28060   2.388   6.001   2.944
 9054SOL    HW128061   2.376   6.029   2.848
 9054SOL    HW228062   2.306   6.024   2.996
 9055SOL     OW28063   5.629   3.070   4.166
 9055SOL    HW128064   5.609   2.977   4.199
 9055SOL    HW228065   5.710   3.067   4.107
 9056SOL     OW28066   0.270   1.209   2.348
 9056SOL    HW128067   0.281   1.130   2.287
 9056SOL    HW228068   0.173   1.230   2.359
 9057SOL     OW28069   5.461   4.805   5.742
 9057SOL    HW128070   5.528   4.790   5.669
 9057SOL    HW228071   5.488   4.754   5.823
 9058SOL     OW28072   2.762   2.157   2.700
 9058SOL    HW128073   2.700   2.090   2.659
 9058SOL    HW228074   2.823   2.193   2.630
 9059SOL     OW28075   1.295   2.148   4.306
 9059SOL    HW128076   1.270   2.052   4.315
 9059SOL    HW228077   1.293   2.174   4.210
 9060SOL     OW28078   6.401   2.730   3.664
 9060SOL    HW128079   6.477   2.667   3.680
 9060SOL    HW228080   6.317   2.679   3.649
 9061SOL     OW28081   2.547   5.789   2.309
 9061SOL    HW128082   2.590   5.786   2.218
 9061SOL    HW228083   2.609   5.834   2.373
 9062SOL     OW28084   1.749   5.940   1.988
 9062SOL    HW128085   1.689   5.986   2.053
 9062SOL    HW228086   1.786   6.006   1.923
 9063SOL     OW28087   1.660   0.374   3.239
 9063SOL    HW128088   1.692   0.469   3.240
 9063SOL    HW228089   1.705   0.325   3.164
 9064SOL     OW28090   6.132   2.203   5.168
 9064SOL    HW128091   6.179   2.142   5.105
 9064SOL    HW228092   6.160   2.184   5.262
 9065SOL     OW28093   3.273   0.050   5.758
 9065SOL    HW128094   3.220   6.989   5.744
 9065SOL    HW228095   3.238   0.098   5.838
 9066SOL     OW28096   4.836   6.262   0.575
 9066SOL    HW128097   4.860   6.179   0.525
 9066SOL    HW228098   4.789   6.325   0.514
 9067SOL     OW28099   6.643   0.811   4.193
 9067SOL    HW128100   6.602   0.853   4.275
 9067SOL    HW228101   6.733   0.773   4.217
 9068SOL     OW28102   2.086   6.177   4.837
 9068SOL    HW128103   2.154   6.247   4.818
 9068SOL    HW228104   2.010   6.186   4.771
 9069SOL     OW28105   1.573   3.193   1.790
 9069SOL    HW128106   1.549   3.105   1.749
 9069SOL    HW228107   1.665   3.188   1.828
 9070SOL     OW28108   1.301   4.085   5.035
 9070SOL    HW128109   1.312   4.159   5.102
 9070SOL    HW228110   1.346   4.111   4.950
 9071SOL     OW28111   5.318   0.464   1.549
 9071SOL    HW128112   5.249   0.392   1.562
 9071SOL    HW228113   5.300   0.512   1.463
 9072SOL     OW28114   0.327   1.485   2.238
 9072SOL    HW128115   0.283   1.522   2.156
 9072SOL    HW228116   0.301   1.389   2.249
 9073SOL     OW28117   2.862   6.784   2.511
 9073SOL    HW128118   2.858   6.870   2.459
 9073SOL    HW228119   2.797   6.719   2.471
 9074SOL     OW28120   1.622   1.864   1.690
 9074SOL    HW128121   1.655   1.855   1.784
 9074SOL    HW228122   1.688   1.822   1.628
 9075SOL     OW28123   0.816   1.190   2.262
 9075SOL    HW128124   0.827   1.174   2.164
 9075SOL    HW228125   0.721   1.176   2.288
 9076SOL     OW28126   6.470   2.050   5.811
 9076SOL    HW128127   6.518   2.124   5.859
 9076SOL    HW228128   6.515   2.032   5.724
 9077SOL     OW28129   4.724   0.206   0.043
 9077SOL    HW128130   4.789   0.132   0.062
 9077SOL    HW228131   4.710   0.213   6.967
 9078SOL     OW28132   4.429   3.713   6.002
 9078SOL    HW128133   4.440   3.616   6.019
 9078SOL    HW228134   4.437   3.763   6.088
 9079SOL     OW28135   3.170   0.346   4.390
 9079SOL    HW128136   3.204   0.438   4.406
 9079SOL    HW228137   3.243   0.280   4.407
 9080SOL     OW28138   4.510   2.509   6.821
 9080SOL    HW128139   4.486   2.489   6.916
 9080SOL    HW228140   4.524   2.607   6.810
 9081SOL     OW28141   3.972   6.474   2.486
 9081SOL    HW128142   3.888   6.458   2.433
 9081SOL    HW228143   3.964   6.561   2.536
 9082SOL     OW28144   2.044   0.222   5.785
 9082SOL    HW128145   2.038   0.172   5.871
 9082SOL    HW228146   1.955   0.222   5.739
 9083SOL     OW28147   3.354   6.159   6.151
 9083SOL    HW128148   3.255   6.173   6.156
 9083SOL    HW228149   3.379   6.125   6.060
 9084SOL     OW28150   3.345   3.970   4.466
 9084SOL    HW128151   3.378   3.879   4.490
 9084SOL    HW228152   3.317   3.971   4.370
 9085SOL     OW28153   2.452   6.399   1.568
 9085SOL    HW128154   2.549   6.414   1.546
 9085SOL    HW228155   2.410   6.485   1.594
 9086SOL     OW28156   1.054   4.301   0.583
 9086SOL    HW128157   0.987   4.233   0.613
 9086SOL    HW228158   1.146   4.266   0.597
 9087SOL     OW28159   4.445   2.257   1.609
 9087SOL    HW128160   4.362   2.263   1.665
 9087SOL    HW228161   4.421   2.273   1.513
 9088SOL     OW28162   6.747   6.773   1.169
 9088SOL    HW128163   6.681   6.732   1.107
 9088SOL    HW228164   6.837   6.732   1.153
 9089SOL     OW28165   5.036   5.749   5.481
 9089SOL    HW128166   5.103   5.731   5.553
 9089SOL    HW228167   5.041   5.677   5.412
 9090SOL     OW28168   0.192   1.125   4.189
 9090SOL    HW128169   0.179   1.154   4.284
 9090SOL    HW228170   0.104   1.093   4.152
 9091SOL     OW28171   3.492   4.343   6.644
 9091SOL    HW128172   3.529   4.368   6.733
 9091SOL    HW228173   3.440   4.420   6.607
 9092SOL     OW28174   6.641   0.676   0.245
 9092SOL    HW128175   6.672   0.752   0.301
 9092SOL    HW228176   6.593   0.711   0.164
 9093SOL     OW28177   0.934   6.156   5.976
 9093SOL    HW128178   0.926   6.250   6.009
 9093SOL    HW228179   1.013   6.112   6.019
 9094SOL     OW28180   6.677   4.944   3.053
 9094SOL    HW128181   6.665   4.942   2.953
 9094SOL    HW228182   6.602   4.995   3.094
 9095SOL     OW28183   4.766   4.506   6.061
 9095SOL    HW128184   4.814   4.593   6.047
 9095SOL    HW228185   4.745   4.465   5.972
 9096SOL     OW28186   5.979   5.156   2.857
 9096SOL    HW128187   5.916   5.118   2.789
 9096SOL    HW228188   6.073   5.144   2.826
 9097SOL     OW28189   1.164   1.761   0.892
 9097SOL    HW128190   1.245   1.727   0.940
 9097SOL    HW228191   1.165   1.729   0.797
 9098SOL     OW28192   3.303   2.042   4.759
 9098SOL    HW128193   3.324   2.053   4.856
 9098SOL    HW228194   3.209   2.070   4.742
 9099SOL     OW28195   3.482   2.984   5.800
 9099SOL    HW128196   3.398   3.003   5.748
 9099SOL    HW228197   3.561   3.000   5.741
 9100SOL     OW28198   0.377   3.080   3.600
 9100SOL    HW128199   0.369   3.008   3.668
 9100SOL    HW228200   0.464   3.071   3.552
 9101SOL     OW28201   2.761   2.192   1.791
 9101SOL    HW128202   2.696   2.149   1.855
 9101SOL    HW228203   2.832   2.240   1.842
 9102SOL     OW28204   3.548   6.233   1.811
 9102SOL    HW128205   3.620   6.303   1.812
 9102SOL    HW228206   3.478   6.257   1.878
 9103SOL     OW28207   6.395   2.637   6.451
 9103SOL    HW128208   6.366   2.722   6.495
 9103SOL    HW228209   6.494   2.628   6.460
 9104SOL     OW28210   6.991   5.892   1.930
 9104SOL    HW128211   0.052   5.848   1.896
 9104SOL    HW228212   7.011   5.986   1.957
 9105SOL     OW28213   0.279   1.084   6.268
 9105SOL    HW128214   0.346   1.158   6.254
 9105SOL    HW228215   0.194   1.107   6.220
 9106SOL     OW28216   6.124   4.217   1.441
 9106SOL    HW128217   6.107   4.128   1.399
 9106SOL    HW228218   6.214   4.216   1.485
 9107SOL     OW28219   2.433   0.680   6.785
 9107SOL    HW128220   2.346   0.720   6.815
 9107SOL    HW228221   2.432   0.673   6.685
 9108SOL     OW28222   5.296   4.532   5.051
 9108SOL    HW128223   5.247   4.614   5.022
 9108SOL    HW228224   5.231   4.456   5.060
 9109SOL     OW28225   6.580   3.535   3.199
 9109SOL    HW128226   6.652   3.554   3.132
 9109SOL    HW228227   6.615   3.549   3.291
 9110SOL     OW28228   2.094   4.754   4.281
 9110SOL    HW128229   2.088   4.695   4.361
 9110SOL    HW228230   2.138   4.841   4.306
 9111SOL     OW28231   4.782   2.773   0.229
 9111SOL    HW128232   4.694   2.753   0.185
 9111SOL    HW228233   4.772   2.768   0.328
 9112SOL     OW28234   1.544   5.850   2.709
 9112SOL    HW128235   1.613   5.862   2.638
 9112SOL    HW228236   1.496   5.763   2.695
 9113SOL     OW28237   5.246   2.824   2.470
 9113SOL    HW128238   5.219   2.911   2.430
 9113SOL    HW228239   5.180   2.753   2.443
 9114SOL     OW28240   7.011   5.599   3.441
 9114SOL    HW128241   0.010   5.518   3.387
 9114SOL    HW228242   6.912   5.604   3.456
 9115SOL     OW28243   6.469   5.397   5.235
 9115SOL    HW128244   6.518   5.352   5.160
 9115SOL    HW228245   6.377   5.420   5.205
 9116SOL     OW28246   0.573   7.018   2.945
 9116SOL    HW128247   0.640   0.065   2.969
 9116SOL    HW228248   0.620   6.932   2.927
 9117SOL     OW28249   3.329   2.722   5.900
 9117SOL    HW128250   3.235   2.707   5.869
 9117SOL    HW228251   3.390   2.725   5.822
 9118SOL     OW28252   6.659   3.579   0.071
 9118SOL    HW128253   6.673   3.658   0.130
 9118SOL    HW228254   6.561   3.563   0.060
 9119SOL     OW28255   3.434   0.875   2.489
 9119SOL    HW128256   3.361   0.812   2.517
 9119SOL    HW228257   3.482   0.909   2.570
 9120SOL     OW28258   0.068   1.996   5.918
 9120SOL    HW128259   0.166   1.988   5.901
 9120SOL    HW228260   0.020   1.919   5.876
 9121SOL     OW28261   3.336   6.165   4.798
 9121SOL    HW128262   3.251   6.209   4.767
 9121SOL    HW228263   3.380   6.221   4.868
 9122SOL     OW28264   2.443   4.484   2.085
 9122SOL    HW128265   2.508   4.538   2.032
 9122SOL    HW228266   2.458   4.500   2.182
 9123SOL     OW28267   1.925   0.604   4.443
 9123SOL    HW128268   1.922   0.607   4.343
 9123SOL    HW228269   1.985   0.676   4.477
 9124SOL     OW28270   3.875   5.229   0.375
 9124SOL    HW128271   3.875   5.296   0.449
 9124SOL    HW228272   3.824   5.265   0.296
 9125SOL     OW28273   4.279   4.728   1.105
 9125SOL    HW128274   4.346   4.802   1.095
 9125SOL    HW228275   4.208   4.739   1.036
 9126SOL     OW28276   5.675   3.930   1.601
 9126SOL    HW128277   5.688   3.864   1.527
 9126SOL    HW228278   5.583   3.969   1.596
 9127SOL     OW28279   6.594   1.617   6.028
 9127SOL    HW128280   6.540   1.535   6.011
 9127SOL    HW228281   6.537   1.686   6.073
 9128SOL     OW28282   6.368   2.405   5.227
 9128SOL    HW128283   6.325   2.337   5.287
 9128SOL    HW228284   6.319   2.407   5.140
 9129SOL     OW28285   6.260   2.116   0.391
 9129SOL    HW128286   6.297   2.023   0.399
 9129SOL    HW228287   6.257   2.159   0.481
 9130SOL     OW28288   1.538   4.383   6.665
 9130SOL    HW128289   1.563   4.478   6.649
 9130SOL    HW228290   1.554   4.330   6.581
 9131SOL     OW28291   5.294   3.409   6.031
 9131SOL    HW128292   5.273   3.503   6.055
 9131SOL    HW228293   5.314   3.357   6.114
 9132SOL     OW28294   0.848   5.214   4.190
 9132SOL    HW128295   0.753   5.213   4.158
 9132SOL    HW228296   0.851   5.188   4.287
 9133SOL     OW28297   3.883   6.978   0.913
 9133SOL    HW128298   3.797   6.940   0.948
 9133SOL    HW228299   3.960   6.924   0.947
 9134SOL     OW28300   4.004   5.148   0.919
 9134SOL    HW128301   3.967   5.181   0.832
 9134SOL    HW228302   3.975   5.209   0.993
 9135SOL     OW28303   0.882   0.156   1.782
 9135SOL    HW128304   0.826   0.073   1.791
 9135SOL    HW228305   0.831   0.226   1.732
 9136SOL     OW28306   4.432   6.342   5.704
 9136SOL    HW128307   4.425   6.434   5.666
 9136SOL    HW228308   4.360   6.327   5.771
 9137SOL     OW28309   3.951   0.376   6.924
 9137SOL    HW128310   3.993   0.343   7.009
 9137SOL    HW228311   3.930   0.473   6.933
 9138SOL     OW28312   0.988   4.256   6.783
 9138SOL    HW128313   1.069   4.204   6.755
 9138SOL    HW228314   1.016   4.334   6.839
 9139SOL     OW28315   1.054   1.126   2.387
 9139SOL    HW128316   1.052   1.122   2.487
 9139SOL    HW228317   0.963   1.147   2.353
 9140SOL     OW28318   0.853   4.103   1.963
 9140SOL    HW128319   0.875   4.172   2.032
 9140SOL    HW228320   0.767   4.127   1.917
 9141SOL     OW28321   6.070   6.811   1.037
 9141SOL    HW128322   6.037   6.758   1.115
 9141SOL    HW228323   6.027   6.778   0.954
 9142SOL     OW28324   0.780   3.935   1.165
 9142SOL    HW128325   0.730   4.008   1.212
 9142SOL    HW228326   0.780   3.853   1.221
 9143SOL     OW28327   0.061   3.688   0.824
 9143SOL    HW128328   0.027   3.782   0.826
 9143SOL    HW228329   7.011   3.625   0.852
 9144SOL     OW28330   3.541   5.524   4.623
 9144SOL    HW128331   3.625   5.477   4.646
 9144SOL    HW228332   3.467   5.458   4.613
 9145SOL     OW28333   0.450   6.033   6.609
 9145SOL    HW128334   0.386   5.956   6.609
 9145SOL    HW228335   0.533   6.006   6.560
 9146SOL     OW28336   5.134   3.621   2.800
 9146SOL    HW128337   5.146   3.577   2.711
 9146SOL    HW228338   5.222   3.651   2.835
 9147SOL     OW28339   6.671   0.637   5.277
 9147SOL    HW128340   6.734   0.560   5.282
 9147SOL    HW228341   6.722   0.722   5.288
 9148SOL     OW28342   5.759   6.754   2.348
 9148SOL    HW128343   5.782   6.687   2.277
 9148SOL    HW228344   5.840   6.775   2.402
 9149SOL     OW28345   5.475   3.316   1.857
 9149SOL    HW128346   5.432   3.227   1.870
 9149SOL    HW228347   5.406   3.388   1.869
 9150SOL     OW28348   3.450   4.380   0.388
 9150SOL    HW128349   3.379   4.427   0.441
 9150SOL    HW228350   3.412   4.295   0.350
 9151SOL     OW28351   2.287   4.214   3.258
 9151SOL    HW128352   2.264   4.117   3.254
 9151SOL    HW228353   2.203   4.268   3.256
 9152SOL     OW28354   1.929   3.903   4.579
 9152SOL    HW128355   1.999   3.970   4.604
 9152SOL    HW228356   1.966   3.840   4.511
 9153SOL     OW28357   0.212   2.738   6.917
 9153SOL    HW128358   0.133   2.702   6.869
 9153SOL    HW228359   0.198   2.835   6.937
 9154SOL     OW28360   4.601   4.335   4.286
 9154SOL    HW128361   4.524   4.390   4.255
 9154SOL    HW228362   4.616   4.349   4.383
 9155SOL     OW28363   2.656   4.926   2.545
 9155SOL    HW128364   2.696   4.994   2.485
 9155SOL    HW228365   2.727   4.866   2.580
 9156SOL     OW28366   6.751   2.015   1.527
 9156SOL    HW128367   6.821   2.085   1.540
 9156SOL    HW228368   6.687   2.045   1.455
 9157SOL     OW28369   3.392   4.092   6.570
 9157SOL    HW128370   3.404   4.189   6.589
 9157SOL    HW228371   3.300   4.076   6.534
 9158SOL     OW28372   6.470   3.736   3.948
 9158SOL    HW128373   6.555   3.685   3.962
 9158SOL    HW228374   6.449   3.789   4.030
 9159SOL     OW28375   2.120   0.063   4.102
 9159SOL    HW128376   2.176   0.003   4.044
 9159SOL    HW228377   2.171   0.147   4.123
 9160SOL     OW28378   0.156   6.072   5.827
 9160SOL    HW128379   0.102   6.151   5.800
 9160SOL    HW228380   0.227   6.100   5.892
 9161SOL     OW28381   6.532   4.931   3.408
 9161SOL    HW128382   6.552   4.875   3.488
 9161SOL    HW228383   6.474   4.880   3.344
 9162SOL     OW28384   3.729   0.189   2.688
 9162SOL    HW128385   3.640   0.192   2.733
 9162SOL    HW228386   3.781   0.272   2.709
 9163SOL     OW28387   6.817   3.238   2.904
 9163SOL    HW128388   6.842   3.262   2.997
 9163SOL    HW228389   6.760   3.310   2.864
 9164SOL     OW28390   1.922   0.573   6.762
 9164SOL    HW128391   1.844   0.631   6.737
 9164SOL    HW228392   1.889   0.486   6.799
 9165SOL     OW28393   4.562   1.854   6.049
 9165SOL    HW128394   4.533   1.783   6.114
 9165SOL    HW228395   4.486   1.878   5.989
 9166SOL     OW28396   4.694   5.448   1.365
 9166SOL    HW128397   4.659   5.472   1.274
 9166SOL    HW228398   4.633   5.485   1.435
 9167SOL     OW28399   1.645   2.413   6.152
 9167SOL    HW128400   1.670   2.345   6.083
 9167SOL    HW228401   1.577   2.373   6.214
 9168SOL     OW28402   6.769   6.368   6.503
 9168SOL    HW128403   6.720   6.362   6.416
 9168SOL    HW228404   6.754   6.284   6.555
 9169SOL     OW28405   6.362   6.352   6.135
 9169SOL    HW128406   6.341   6.255   6.143
 9169SOL    HW228407   6.297   6.395   6.073
 9170SOL     OW28408   1.824   0.612   6.352
 9170SOL    HW128409   1.877   0.695   6.372
 9170SOL    HW228410   1.808   0.561   6.437
 9171SOL     OW28411   3.203   5.405   0.625
 9171SOL    HW128412   3.168   5.481   0.680
 9171SOL    HW228413   3.130   5.338   0.611
 9172SOL     OW28414   4.361   2.082   4.407
 9172SOL    HW128415   4.318   2.001   4.444
 9172SOL    HW228416   4.423   2.056   4.332
 9173SOL     OW28417   5.831   2.996   4.382
 9173SOL    HW128418   5.751   3.019   4.326
 9173SOL    HW228419   5.820   2.904   4.420
 9174SOL     OW28420   0.724   5.773   6.681
 9174SOL    HW128421   0.806   5.805   6.729
 9174SOL    HW228422   0.689   5.845   6.621
 9175SOL     OW28423   1.455   0.002   0.193
 9175SOL    HW128424   1.544   0.036   0.222
 9175SOL    HW228425   1.440   0.025   0.097
 9176SOL     OW28426   2.227   0.310   1.291
 9176SOL    HW128427   2.167   0.242   1.332
 9176SOL    HW228428   2.247   0.382   1.358
 9177SOL     OW28429   1.603   2.725   3.760
 9177SOL    HW128430   1.620   2.802   3.822
 9177SOL    HW228431   1.563   2.650   3.812
 9178SOL     OW28432   2.045   5.315   6.020
 9178SOL    HW128433   1.981   5.275   6.086
 9178SOL    HW228434   2.128   5.346   6.067
 9179SOL     OW28435   1.554   5.927   5.230
 9179SOL    HW128436   1.528   5.983   5.152
 9179SOL    HW228437   1.608   5.849   5.198
 9180SOL     OW28438   6.649   2.590   3.726
 9180SOL    HW128439   6.733   2.587   3.780
 9180SOL    HW228440   6.634   2.500   3.684
 9181SOL     OW28441   4.927   2.985   3.699
 9181SOL    HW128442   4.838   2.946   3.674
 9181SOL    HW228443   4.980   3.002   3.616
 9182SOL     OW28444   3.045   0.504   3.617
 9182SOL    HW128445   3.018   0.444   3.693
 9182SOL    HW228446   3.144   0.516   3.617
 9183SOL     OW28447   5.022   4.292   6.618
 9183SOL    HW128448   5.102   4.261   6.566
 9183SOL    HW228449   4.939   4.272   6.567
 9184SOL     OW28450   3.692   1.970   0.788
 9184SOL    HW128451   3.698   1.920   0.873
 9184SOL    HW228452   3.595   1.983   0.764
 9185SOL     OW28453   0.113   6.698   5.367
 9185SOL    HW128454   0.074   6.665   5.453
 9185SOL    HW228455   0.212   6.689   5.369
 9186SOL     OW28456   4.729   0.552   5.226
 9186SOL    HW128457   4.816   0.517   5.261
 9186SOL    HW228458   4.743   0.592   5.136
 9187SOL     OW28459   4.420   1.939   6.839
 9187SOL    HW128460   4.511   1.914   6.870
 9187SOL    HW228461   4.366   1.973   6.916
 9188SOL     OW28462   1.136   0.538   1.908
 9188SOL    HW128463   1.137   0.534   2.008
 9188SOL    HW228464   1.110   0.448   1.872
 9189SOL     OW28465   2.634   6.960   3.763
 9189SOL    HW128466   2.679   6.877   3.798
 9189SOL    HW228467   2.661   6.974   3.668
 9190SOL     OW28468   6.949   3.206   5.177
 9190SOL    HW128469   7.005   3.155   5.242
 9190SOL    HW228470   6.931   3.297   5.214
 9191SOL     OW28471   5.347   6.856   6.210
 9191SOL    HW128472   5.446   6.860   6.197
 9191SOL    HW228473   5.301   6.875   6.124
 9192SOL     OW28474   6.407   3.403   5.833
 9192SOL    HW128475   6.336   3.354   5.782
 9192SOL    HW228476   6.485   3.342   5.847
 9193SOL     OW28477   3.401   3.861   3.918
 9193SOL    HW128478   3.341   3.800   3.969
 9193SOL    HW228479   3.423   3.941   3.973
 9194SOL     OW28480   3.809   5.993   2.071
 9194SOL    HW128481   3.745   5.994   2.148
 9194SOL    HW228482   3.758   5.983   1.986
 9195SOL     OW28483   2.050   2.679   4.008
 9195SOL    HW128484   2.036   2.592   4.056
 9195SOL    HW228485   2.041   2.665   3.909
 9196SOL     OW28486   5.544   0.140   3.745
 9196SOL    HW128487   5.547   0.165   3.648
 9196SOL    HW228488   5.617   0.187   3.794
 9197SOL     OW28489   3.875   5.385   0.076
 9197SOL    HW128490   3.844   5.297   0.040
 9197SOL    HW228491   3.972   5.380   0.097
 9198SOL     OW28492   5.723   4.522   6.230
 9198SOL    HW128493   5.637   4.532   6.280
 9198SOL    HW228494   5.729   4.430   6.192
 9199SOL     OW28495   0.116   2.741   6.112
 9199SOL    HW128496   0.052   2.733   6.035
 9199SOL    HW228497   0.158   2.831   6.112
 9200SOL     OW28498   1.947   5.761   6.725
 9200SOL    HW128499   1.874   5.772   6.793
 9200SOL    HW228500   1.912   5.788   6.635
 9201SOL     OW28501   0.286   3.626   1.028
 9201SOL    HW128502   0.372   3.660   1.064
 9201SOL    HW228503   0.295   3.605   0.931
 9202SOL     OW28504   1.450   5.702   3.998
 9202SOL    HW128505   1.544   5.681   3.971
 9202SOL    HW228506   1.414   5.775   3.940
 9203SOL     OW28507   5.183   2.195   6.596
 9203SOL    HW128508   5.126   2.156   6.669
 9203SOL    HW228509   5.150   2.163   6.508
 9204SOL     OW28510   4.912   3.598   3.451
 9204SOL    HW128511   4.938   3.589   3.355
 9204SOL    HW228512   4.933   3.513   3.500
 9205SOL     OW28513   5.181   4.098   2.558
 9205SOL    HW128514   5.118   4.040   2.610
 9205SOL    HW228515   5.266   4.109   2.609
 9206SOL     OW28516   2.974   0.177   4.298
 9206SOL    HW128517   2.911   0.153   4.372
 9206SOL    HW228518   3.058   0.215   4.337
 9207SOL     OW28519   3.783   5.967   6.159
 9207SOL    HW128520   3.794   6.047   6.218
 9207SOL    HW228521   3.847   5.973   6.082
 9208SOL     OW28522   6.044   4.405   2.284
 9208SOL    HW128523   6.100   4.464   2.225
 9208SOL    HW228524   5.948   4.416   2.258
 9209SOL     OW28525   4.210   0.246   1.933
 9209SOL    HW128526   4.181   0.337   1.960
 9209SOL    HW228527   4.147   0.210   1.864
 9210SOL     OW28528   0.627   1.168   1.533
 9210SOL    HW128529   0.592   1.262   1.539
 9210SOL    HW228530   0.589   1.123   1.453
 9211SOL     OW28531   5.309   2.860   5.932
 9211SOL    HW128532   5.347   2.951   5.916
 9211SOL    HW228533   5.379   2.791   5.916
 9212SOL     OW28534   4.639   4.076   5.298
 9212SOL    HW128535   4.703   4.021   5.245
 9212SOL    HW228536   4.588   4.017   5.360
 9213SOL     OW28537   5.170   5.816   4.054
 9213SOL    HW128538   5.173   5.822   3.955
 9213SOL    HW228539   5.184   5.722   4.083
 9214SOL     OW28540   0.291   2.350   5.381
 9214SOL    HW128541   0.262   2.388   5.294
 9214SOL    HW228542   0.255   2.405   5.456
 9215SOL     OW28543   0.714   4.913   2.676
 9215SOL    HW128544   0.704   4.941   2.581
 9215SOL    HW228545   0.672   4.822   2.688
 9216SOL     OW28546   2.476   6.622   4.617
 9216SOL    HW128547   2.547   6.567   4.660
 9216SOL    HW228548   2.507   6.652   4.527
 9217SOL     OW28549   5.342   1.702   6.791
 9217SOL    HW128550   5.296   1.790   6.796
 9217SOL    HW228551   5.414   1.706   6.722
 9218SOL     OW28552   4.232   1.435   0.000
 9218SOL    HW128553   4.258   1.530   7.006
 9218SOL    HW228554   4.310   1.385   0.037
 9219SOL     OW28555   4.391   3.699   5.725
 9219SOL    HW128556   4.308   3.647   5.703
 9219SOL    HW228557   4.411   3.688   5.823
 9220SOL     OW28558   2.177   5.898   2.669
 9220SOL    HW128559   2.153   5.850   2.584
 9220SOL    HW228560   2.145   5.844   2.747
 9221SOL     OW28561   2.382   0.011   5.397
 9221SOL    HW128562   2.306   0.042   5.454
 9221SOL    HW228563   2.368   6.938   5.372
 9222SOL     OW28564   2.584   4.618   4.830
 9222SOL    HW128565   2.640   4.587   4.753
 9222SOL    HW228566   2.643   4.634   4.909
 9223SOL     OW28567   1.217   2.545   3.837
 9223SOL    HW128568   1.137   2.602   3.820
 9223SOL    HW228569   1.192   2.449   3.830
 9224SOL     OW28570   1.664   3.331   3.491
 9224SOL    HW128571   1.575   3.291   3.471
 9224SOL    HW228572   1.710   3.278   3.562
 9225SOL     OW28573   4.047   5.757   6.050
 9225SOL    HW128574   4.001   5.845   6.034
 9225SOL    HW228575   4.074   5.751   6.146
 9226SOL     OW28576   1.028   0.307   1.494
 9226SOL    HW128577   1.082   0.233   1.454
 9226SOL    HW228578   0.963   0.269   1.561
 9227SOL     OW28579   1.641   6.236   1.190
 9227SOL    HW128580   1.622   6.222   1.093
 9227SOL    HW228581   1.555   6.257   1.237
 9228SOL     OW28582   1.777   2.598   6.767
 9228SOL    HW128583   1.715   2.604   6.690
 9228SOL    HW228584   1.846   2.670   6.760
 9229SOL     OW28585   0.551   5.157   6.075
 9229SOL    HW128586   0.593   5.129   5.989
 9229SOL    HW228587   0.574   5.253   6.094
 9230SOL     OW28588   4.790   3.096   2.965
 9230SOL    HW128589   4.754   3.002   2.969
 9230SOL    HW228590   4.884   3.097   3.000
 9231SOL     OW28591   0.621   4.168   4.897
 9231SOL    HW128592   0.546   4.226   4.929
 9231SOL    HW228593   0.669   4.128   4.976
 9232SOL     OW28594   2.887   5.767   1.047
 9232SOL    HW128595   2.817   5.832   1.074
 9232SOL    HW228596   2.909   5.708   1.124
 9233SOL     OW28597   0.720   6.987   0.524
 9233SOL    HW128598   0.800   6.980   0.464
 9233SOL    HW228599   0.677   0.054   0.513
 9234SOL     OW28600   2.130   5.979   0.756
 9234SOL    HW128601   2.225   5.993   0.730
 9234SOL    HW228602   2.074   5.966   0.674
 9235SOL     OW28603   2.325   2.704   2.786
 9235SOL    HW128604   2.408   2.723   2.838
 9235SOL    HW228605   2.248   2.691   2.849
 9236SOL     OW28606   2.556   3.748   6.542
 9236SOL    HW128607   2.639   3.706   6.577
 9236SOL    HW228608   2.477   3.689   6.561
 9237SOL     OW28609   0.612   5.763   2.699
 9237SOL    HW128610   0.706   5.734   2.718
 9237SOL    HW228611   0.562   5.772   2.785
 9238SOL     OW28612   2.727   2.626   5.827
 9238SOL    HW128613   2.764   2.573   5.751
 9238SOL    HW228614   2.699   2.563   5.900
 9239SOL     OW28615   0.031   4.714   6.878
 9239SOL    HW128616   6.986   4.749   6.814
 9239SOL    HW228617   0.041   4.778   6.954
 9240SOL     OW28618   5.041   2.811   2.042
 9240SOL    HW128619   5.016   2.829   1.947
 9240SOL    HW228620   4.961   2.821   2.100
 9241SOL     OW28621   0.728   5.807   1.023
 9241SOL    HW128622   0.645   5.772   1.066
 9241SOL    HW228623   0.780   5.732   0.985
 9242SOL     OW28624   2.133   3.228   1.865
 9242SOL    HW128625   2.164   3.247   1.772
 9242SOL    HW228626   2.176   3.292   1.928
 9243SOL     OW28627   0.308   0.630   1.845
 9243SOL    HW128628   0.306   0.537   1.882
 9243SOL    HW228629   0.403   0.655   1.825
 9244SOL     OW28630   2.488   6.749   6.256
 9244SOL    HW128631   2.398   6.729   6.218
 9244SOL    HW228632   2.552   6.774   6.183
 9245SOL     OW28633   0.419   4.318   3.651
 9245SOL    HW128634   0.408   4.328   3.552
 9245SOL    HW228635   0.461   4.401   3.688
 9246SOL     OW28636   5.579   0.770   3.825
 9246SOL    HW128637   5.633   0.747   3.744
 9246SOL    HW228638   5.635   0.822   3.889
 9247SOL     OW28639   3.666   4.945   2.987
 9247SOL    HW128640   3.751   4.896   2.969
 9247SOL    HW228641   3.624   4.971   2.900
 9248SOL     OW28642   2.854   2.025   4.911
 9248SOL    HW128643   2.776   2.024   4.973
 9248SOL    HW228644   2.939   2.036   4.963
 9249SOL     OW28645   4.796   5.767   1.693
 9249SOL    HW128646   4.805   5.671   1.669
 9249SOL    HW228647   4.804   5.777   1.793
 9250SOL     OW28648   0.173   2.980   4.278
 9250SOL    HW128649   0.193   2.949   4.372
 9250SOL    HW228650   0.077   3.004   4.271
 9251SOL     OW28651   4.250   1.744   2.350
 9251SOL    HW128652   4.280   1.829   2.394
 9251SOL    HW228653   4.196   1.766   2.269
 9252SOL     OW28654   5.765   0.623   4.787
 9252SOL    HW128655   5.850   0.590   4.829
 9252SOL    HW228656   5.786   0.680   4.708
 9253SOL     OW28657   5.379   5.514   5.342
 9253SOL    HW128658   5.383   5.430   5.395
 9253SOL    HW228659   5.290   5.520   5.296
 9254SOL     OW28660   4.850   4.905   2.429
 9254SOL    HW128661   4.812   4.850   2.354
 9254SOL    HW228662   4.797   4.887   2.512
 9255SOL     OW28663   5.502   3.164   6.588
 9255SOL    HW128664   5.599   3.174   6.565
 9255SOL    HW228665   5.453   3.246   6.557
 9256SOL     OW28666   1.952   0.283   1.816
 9256SOL    HW128667   1.936   0.346   1.892
 9256SOL    HW228668   1.874   0.286   1.753
 9257SOL     OW28669   6.035   5.707   3.483
 9257SOL    HW128670   5.946   5.750   3.493
 9257SOL    HW228671   6.056   5.696   3.385
 9258SOL     OW28672   3.977   3.403   1.439
 9258SOL    HW128673   4.045   3.337   1.470
 9258SOL    HW228674   3.889   3.383   1.483
 9259SOL     OW28675   2.203   1.084   0.630
 9259SOL    HW128676   2.257   1.013   0.586
 9259SOL    HW228677   2.149   1.132   0.561
 9260SOL     OW28678   6.558   2.810   5.691
 9260SOL    HW128679   6.489   2.746   5.659
 9260SOL    HW228680   6.521   2.865   5.766
 9261SOL     OW28681   4.407   1.038   6.958
 9261SOL    HW128682   4.468   1.100   6.910
 9261SOL    HW228683   4.446   0.946   6.957
 9262SOL     OW28684   0.995   5.903   4.764
 9262SOL    HW128685   0.934   5.901   4.843
 9262SOL    HW228686   0.998   5.995   4.726
 9263SOL     OW28687   3.306   5.419   2.163
 9263SOL    HW128688   3.250   5.464   2.232
 9263SOL    HW228689   3.401   5.413   2.195
 9264SOL     OW28690   5.003   3.383   0.035
 9264SOL    HW128691   5.075   3.314   0.046
 9264SOL    HW228692   5.039   3.473   0.061
 9265SOL     OW28693   4.172   2.446   0.155
 9265SOL    HW128694   4.139   2.481   0.067
 9265SOL    HW228695   4.117   2.367   0.183
 9266SOL     OW28696   0.361   6.459   1.214
 9266SOL    HW128697   0.387   6.494   1.124
 9266SOL    HW228698   0.442   6.428   1.263
 9267SOL     OW28699   1.163   1.945   4.573
 9267SOL    HW128700   1.237   1.909   4.517
 9267SOL    HW228701   1.143   1.880   4.646
 9268SOL     OW28702   1.051   6.959   2.442
 9268SOL    HW128703   1.139   6.969   2.488
 9268SOL    HW228704   1.023   6.863   2.444
 9269SOL     OW28705   4.065   7.000   6.230
 9269SOL    HW128706   3.975   6.982   6.270
 9269SOL    HW228707   4.103   6.915   6.193
 9270SOL     OW28708   3.819   0.189   5.277
 9270SOL    HW128709   3.916   0.186   5.254
 9270SOL    HW228710   3.783   0.096   5.285
 9271SOL     OW28711   6.000   0.326   0.028
 9271SOL    HW128712   5.952   0.242   0.005
 9271SOL    HW228713   6.006   0.335   0.127
 9272SOL     OW28714   0.695   6.401   6.523
 9272SOL    HW128715   0.768   6.439   6.581
 9272SOL    HW228716   0.632   6.347   6.580
 9273SOL     OW28717   6.384   6.124   3.269
 9273SOL    HW128718   6.296   6.085   3.243
 9273SOL    HW228719   6.450   6.050   3.283
 9274SOL     OW28720   6.623   2.290   6.904
 9274SOL    HW128721   6.613   2.207   6.850
 9274SOL    HW228722   6.666   2.362   6.849
 9275SOL     OW28723   6.701   6.762   0.455
 9275SOL    HW128724   6.795   6.798   0.449
 9275SOL    HW228725   6.637   6.833   0.425
 9276SOL     OW28726   1.784   4.755   6.910
 9276SOL    HW128727   1.881   4.754   6.885
 9276SOL    HW228728   1.753   4.662   6.927
 9277SOL     OW28729   4.325   4.945   2.285
 9277SOL    HW128730   4.273   4.922   2.203
 9277SOL    HW228731   4.380   5.027   2.267
 9278SOL     OW28732   1.623   0.619   5.602
 9278SOL    HW128733   1.592   0.619   5.507
 9278SOL    HW228734   1.722   0.604   5.605
 9279SOL     OW28735   3.798   6.770   1.895
 9279SOL    HW128736   3.775   6.763   1.992
 9279SOL    HW228737   3.897   6.771   1.884
 9280SOL     OW28738   2.449   1.718   2.516
 9280SOL    HW128739   2.534   1.685   2.477
 9280SOL    HW228740   2.372   1.674   2.471
 9281SOL     OW28741   3.671   4.296   6.439
 9281SOL    HW128742   3.622   4.259   6.361
 9281SOL    HW228743   3.606   4.322   6.511
 9282SOL     OW28744   4.492   0.908   4.111
 9282SOL    HW128745   4.571   0.915   4.050
 9282SOL    HW228746   4.417   0.861   4.063
 9283SOL     OW28747   5.055   0.489   5.195
 9283SOL    HW128748   5.125   0.454   5.258
 9283SOL    HW228749   5.075   0.456   5.103
 9284SOL     OW28750   2.816   3.645   5.398
 9284SOL    HW128751   2.875   3.696   5.336
 9284SOL    HW228752   2.795   3.556   5.358
 9285SOL     OW28753   5.027   3.620   1.025
 9285SOL    HW128754   5.100   3.562   0.992
 9285SOL    HW228755   4.940   3.591   0.985
 9286SOL     OW28756   5.064   5.170   0.521
 9286SOL    HW128757   5.080   5.151   0.618
 9286SOL    HW228758   4.977   5.219   0.510
 9287SOL     OW28759   3.659   4.691   6.161
 9287SOL    HW128760   3.729   4.732   6.219
 9287SOL    HW228761   3.684   4.702   6.065
 9288SOL     OW28762   4.528   1.831   2.466
 9288SOL    HW128763   4.565   1.924   2.459
 9288SOL    HW228764   4.600   1.766   2.442
 9289SOL     OW28765   4.742   0.576   0.626
 9289SOL    HW128766   4.809   0.578   0.552
 9289SOL    HW228767   4.756   0.494   0.682
 9290SOL     OW28768   6.102   1.101   4.182
 9290SOL    HW128769   6.030   1.118   4.249
 9290SOL    HW228770   6.064   1.052   4.104
 9291SOL     OW28771   1.455   5.739   6.144
 9291SOL    HW128772   1.490   5.779   6.059
 9291SOL    HW228773   1.378   5.794   6.176
 9292SOL     OW28774   2.112   1.703   6.721
 9292SOL    HW128775   2.032   1.731   6.774
 9292SOL    HW228776   2.189   1.762   6.744
 9293SOL     OW28777   5.644   3.651   6.479
 9293SOL    HW128778   5.637   3.578   6.411
 9293SOL    HW228779   5.554   3.691   6.494
 9294SOL     OW28780   4.930   0.935   6.580
 9294SOL    HW128781   4.938   0.901   6.486
 9294SOL    HW228782   4.838   0.972   6.594
 9295SOL     OW28783   6.183   0.804   4.988
 9295SOL    HW128784   6.162   0.707   4.976
 9295SOL    HW228785   6.282   0.818   4.985
 9296SOL     OW28786   1.975   4.802   0.526
 9296SOL    HW128787   1.920   4.862   0.584
 9296SOL    HW228788   2.009   4.854   0.448
 9297SOL     OW28789   0.625   6.975   3.476
 9297SOL    HW128790   0.665   0.011   3.547
 9297SOL    HW228791   0.673   6.990   3.390
 9298SOL     OW28792   1.200   6.481   6.612
 9298SOL    HW128793   1.180   6.404   6.551
 9298SOL    HW228794   1.261   6.545   6.567
 9299SOL     OW28795   0.954   1.900   4.358
 9299SOL    HW128796   1.011   1.982   4.362
 9299SOL    HW228797   0.870   1.915   4.410
 9300SOL     OW28798   7.005   5.130   5.226
 9300SOL    HW128799   6.988   5.194   5.301
 9300SOL    HW228800   6.946   5.153   5.148
 9301SOL     OW28801   6.839   4.537   5.133
 9301SOL    HW128802   6.890   4.602   5.189
 9301SOL    HW228803   6.820   4.576   5.044
 9302SOL     OW28804   1.951   3.525   4.982
 9302SOL    HW128805   1.942   3.562   4.889
 9302SOL    HW228806   2.047   3.501   4.998
 9303SOL     OW28807   2.951   4.046   0.368
 9303SOL    HW128808   2.926   3.963   0.317
 9303SOL    HW228809   2.992   4.021   0.455
 9304SOL     OW28810   4.347   5.278   0.562
 9304SOL    HW128811   4.371   5.335   0.483
 9304SOL    HW228812   4.274   5.215   0.536
 9305SOL     OW28813   3.859   0.710   0.619
 9305SOL    HW128814   3.774   0.739   0.574
 9305SOL    HW228815   3.910   0.649   0.559
 9306SOL     OW28816   1.197   4.567   5.514
 9306SOL    HW128817   1.195   4.522   5.603
 9306SOL    HW228818   1.287   4.555   5.473
 9307SOL     OW28819   1.549   3.991   0.379
 9307SOL    HW128820   1.547   3.975   0.477
 9307SOL    HW228821   1.632   4.040   0.354
 9308SOL     OW28822   1.412   4.251   2.137
 9308SOL    HW128823   1.417   4.200   2.051
 9308SOL    HW228824   1.332   4.311   2.136
 9309SOL     OW28825   3.695   6.136   5.895
 9309SOL    HW128826   3.736   6.212   5.845
 9309SOL    HW228827   3.750   6.118   5.977
 9310SOL     OW28828   5.661   6.301   5.975
 9310SOL    HW128829   5.650   6.218   5.920
 9310SOL    HW228830   5.666   6.381   5.915
 9311SOL     OW28831   5.572   4.645   1.660
 9311SOL    HW128832   5.628   4.575   1.615
 9311SOL    HW228833   5.510   4.685   1.593
 9312SOL     OW28834   1.575   1.979   0.713
 9312SOL    HW128835   1.660   2.029   0.731
 9312SOL    HW228836   1.540   2.004   0.623
 9313SOL     OW28837   0.291   0.152   1.606
 9313SOL    HW128838   0.386   0.145   1.635
 9313SOL    HW228839   0.266   0.071   1.553
 9314SOL     OW28840   6.859   3.399   0.295
 9314SOL    HW128841   6.840   3.301   0.295
 9314SOL    HW228842   6.868   3.431   0.389
 9315SOL     OW28843   6.047   6.941   5.705
 9315SOL    HW128844   6.003   6.904   5.623
 9315SOL    HW228845   5.989   6.922   5.784
 9316SOL     OW28846   5.393   0.051   5.209
 9316SOL    HW128847   5.474   0.007   5.250
 9316SOL    HW228848   5.407   0.150   5.207
 9317SOL     OW28849   3.874   5.583   2.864
 9317SOL    HW128850   3.860   5.484   2.862
 9317SOL    HW228851   3.935   5.607   2.939
 9318SOL     OW28852   4.852   7.002   0.092
 9318SOL    HW128853   4.902   6.954   0.164
 9318SOL    HW228854   4.757   6.970   0.090
 9319SOL     OW28855   2.820   2.870   1.140
 9319SOL    HW128856   2.747   2.809   1.171
 9319SOL    HW228857   2.814   2.882   1.041
 9320SOL     OW28858   4.467   0.847   5.041
 9320SOL    HW128859   4.560   0.873   5.016
 9320SOL    HW228860   4.427   0.794   4.967
 9321SOL     OW28861   1.048   1.031   5.890
 9321SOL    HW128862   1.113   1.082   5.946
 9321SOL    HW228863   0.964   1.013   5.943
 9322SOL     OW28864   0.339   4.373   6.658
 9322SOL    HW128865   0.311   4.346   6.750
 9322SOL    HW228866   0.261   4.412   6.609
 9323SOL     OW28867   2.374   1.768   5.044
 9323SOL    HW128868   2.282   1.734   5.024
 9323SOL    HW228869   2.441   1.717   4.991
 9324SOL     OW28870   2.028   3.792   2.703
 9324SOL    HW128871   1.942   3.803   2.752
 9324SOL    HW228872   2.015   3.730   2.626
 9325SOL     OW28873   0.086   6.804   0.765
 9325SOL    HW128874   0.148   6.783   0.841
 9325SOL    HW228875   0.080   6.725   0.704
 9326SOL     OW28876   3.177   4.865   6.530
 9326SOL    HW128877   3.273   4.843   6.512
 9326SOL    HW228878   3.142   4.810   6.606
 9327SOL     OW28879   4.558   6.850   2.532
 9327SOL    HW128880   4.525   6.943   2.550
 9327SOL    HW228881   4.579   6.805   2.619
 9328SOL     OW28882   1.923   0.711   4.920
 9328SOL    HW128883   1.944   0.660   5.003
 9328SOL    HW228884   1.867   0.654   4.860
 9329SOL     OW28885   6.786   5.958   0.873
 9329SOL    HW128886   6.843   5.934   0.794
 9329SOL    HW228887   6.719   5.885   0.889
 9330SOL     OW28888   0.493   0.590   5.974
 9330SOL    HW128889   0.543   0.505   5.988
 9330SOL    HW228890   0.404   0.585   6.019
 9331SOL     OW28891   1.844   1.431   5.965
 9331SOL    HW128892   1.913   1.498   5.993
 9331SOL    HW228893   1.771   1.477   5.914
 9332SOL     OW28894   4.426   5.571   0.682
 9332SOL    HW128895   4.400   5.476   0.698
 9332SOL    HW228896   4.500   5.574   0.615
 9333SOL     OW28897   3.857   5.564   6.582
 9333SOL    HW128898   3.940   5.590   6.631
 9333SOL    HW228899   3.836   5.632   6.512
 9334SOL     OW28900   4.716   6.788   4.308
 9334SOL    HW128901   4.703   6.884   4.334
 9334SOL    HW228902   4.698   6.729   4.387
 9335SOL     OW28903   1.809   1.619   7.014
 9335SOL    HW128904   1.838   1.530   6.979
 9335SOL    HW228905   1.860   1.691   6.968
 9336SOL     OW28906   5.511   0.251   4.386
 9336SOL    HW128907   5.509   0.351   4.394
 9336SOL    HW228908   5.436   0.212   4.440
 9337SOL     OW28909   4.997   1.212   6.365
 9337SOL    HW128910   4.975   1.156   6.445
 9337SOL    HW228911   4.915   1.227   6.311
 9338SOL     OW28912   6.566   6.223   1.148
 9338SOL    HW128913   6.638   6.254   1.210
 9338SOL    HW228914   6.486   6.283   1.156
 9339SOL     OW28915   5.702   6.184   0.334
 9339SOL    HW128916   5.691   6.137   0.247
 9339SOL    HW228917   5.670   6.279   0.326
 9340SOL     OW28918   4.206   4.799   2.470
 9340SOL    HW128919   4.283   4.744   2.503
 9340SOL    HW228920   4.240   4.872   2.410
 9341SOL     OW28921   6.602   4.130   0.805
 9341SOL    HW128922   6.584   4.185   0.723
 9341SOL    HW228923   6.649   4.185   0.873
 9342SOL     OW28924   2.249   0.603   4.826
 9342SOL    HW128925   2.276   0.607   4.730
 9342SOL    HW228926   2.329   0.613   4.884
 9343SOL     OW28927   4.960   3.621   2.049
 9343SOL    HW128928   4.890   3.575   1.994
 9343SOL    HW228929   4.958   3.719   2.030
 9344SOL     OW28930   5.283   5.516   0.206
 9344SOL    HW128931   5.304   5.430   0.161
 9344SOL    HW228932   5.225   5.499   0.286
 9345SOL     OW28933   0.028   4.577   1.501
 9345SOL    HW128934   0.092   4.650   1.525
 9345SOL    HW228935   6.975   4.576   1.567
 9346SOL     OW28936   5.179   6.977   2.008
 9346SOL    HW128937   5.082   6.953   2.010
 9346SOL    HW228938   5.222   6.941   1.925
 9347SOL     OW28939   2.540   5.743   0.339
 9347SOL    HW128940   2.554   5.676   0.267
 9347SOL    HW228941   2.598   5.722   0.417
 9348SOL     OW28942   2.730   5.610   2.859
 9348SOL    HW128943   2.813   5.624   2.914
 9348SOL    HW228944   2.697   5.698   2.825
 9349SOL     OW28945   6.705   5.832   2.453
 9349SOL    HW128946   6.774   5.787   2.510
 9349SOL    HW228947   6.615   5.823   2.495
 9350SOL     OW28948   0.397   2.182   4.087
 9350SOL    HW128949   0.445   2.109   4.040
 9350SOL    HW228950   0.366   2.149   4.176
 9351SOL     OW28951   2.633   0.394   6.097
 9351SOL    HW128952   2.672   0.332   6.166
 9351SOL    HW228953   2.550   0.353   6.059
 9352SOL     OW28954   3.014   3.054   5.894
 9352SOL    HW128955   2.986   2.998   5.816
 9352SOL    HW228956   2.933   3.098   5.934
 9353SOL     OW28957   1.766   3.832   1.451
 9353SOL    HW128958   1.855   3.807   1.490
 9353SOL    HW228959   1.759   3.796   1.358
 9354SOL     OW28960   6.570   1.959   0.311
 9354SOL    HW128961   6.526   1.875   0.341
 9354SOL    HW228962   6.667   1.940   0.290
 9355SOL     OW28963   6.311   1.636   4.377
 9355SOL    HW128964   6.350   1.555   4.332
 9355SOL    HW228965   6.384   1.703   4.393
 9356SOL     OW28966   4.174   5.586   1.459
 9356SOL    HW128967   4.227   5.668   1.482
 9356SOL    HW228968   4.229   5.527   1.401
 9357SOL     OW28969   3.461   3.445   6.405
 9357SOL    HW128970   3.445   3.346   6.403
 9357SOL    HW228971   3.559   3.462   6.399
 9358SOL     OW28972   6.769   3.336   2.102
 9358SOL    HW128973   6.777   3.291   2.191
 9358SOL    HW228974   6.851   3.391   2.086
 9359SOL     OW28975   1.194   3.288   5.811
 9359SOL    HW128976   1.244   3.261   5.728
 9359SOL    HW228977   1.251   3.349   5.865
 9360SOL     OW28978   1.046   7.003   5.852
 9360SOL    HW128979   1.077   6.947   5.774
 9360SOL    HW228980   1.093   6.972   5.935
 9361SOL     OW28981   2.414   6.336   3.700
 9361SOL    HW128982   2.448   6.293   3.617
 9361SOL    HW228983   2.370   6.422   3.677
 9362SOL     OW28984   1.077   1.926   2.106
 9362SOL    HW128985   1.128   1.856   2.057
 9362SOL    HW228986   1.126   1.951   2.189
 9363SOL     OW28987   4.087   5.320   1.870
 9363SOL    HW128988   3.992   5.352   1.876
 9363SOL    HW228989   4.124   5.310   1.962
 9364SOL     OW28990   4.492   3.442   6.055
 9364SOL    HW128991   4.500   3.372   6.125
 9364SOL    HW228992   4.555   3.423   5.980
 9365SOL     OW28993   2.656   2.271   5.312
 9365SOL    HW128994   2.730   2.338   5.324
 9365SOL    HW228995   2.598   2.299   5.235
 9366SOL     OW28996   2.744   0.792   7.019
 9366SOL    HW128997   2.730   0.693   0.003
 9366SOL    HW228998   2.791   0.825   0.078
 9367SOL     OW28999   0.206   6.181   3.209
 9367SOL    HW129000   0.152   6.097   3.205
 9367SOL    HW229001   0.277   6.172   3.279
 9368SOL     OW29002   2.370   1.581   3.593
 9368SOL    HW129003   2.315   1.572   3.510
 9368SOL    HW229004   2.445   1.646   3.577
 9369SOL     OW29005   6.978   0.672   5.076
 9369SOL    HW129006   6.994   0.663   5.174
 9369SOL    HW229007   6.963   0.582   5.035
 9370SOL     OW29008   4.532   0.372   2.590
 9370SOL    HW129009   4.496   0.279   2.575
 9370SOL    HW229010   4.629   0.375   2.565
 9371SOL     OW29011   2.398   4.921   0.677
 9371SOL    HW129012   2.460   4.893   0.604
 9371SOL    HW229013   2.360   4.839   0.721
 9372SOL     OW29014   5.256   6.170   2.941
 9372SOL    HW129015   5.191   6.131   3.006
 9372SOL    HW229016   5.325   6.223   2.991
 9373SOL     OW29017   4.026   2.133   2.875
 9373SOL    HW129018   3.974   2.112   2.792
 9373SOL    HW229019   3.975   2.101   2.955
 9374SOL     OW29020   0.202   3.041   0.587
 9374SOL    HW129021   0.301   3.055   0.591
 9374SOL    HW229022   0.174   3.033   0.491
 9375SOL     OW29023   6.090   1.642   3.042
 9375SOL    HW129024   6.055   1.732   3.020
 9375SOL    HW229025   6.044   1.573   2.986
 9376SOL     OW29026   2.790   4.019   1.364
 9376SOL    HW129027   2.738   4.051   1.285
 9376SOL    HW229028   2.854   4.090   1.394
 9377SOL     OW29029   1.747   5.406   3.638
 9377SOL    HW129030   1.697   5.365   3.562
 9377SOL    HW229031   1.766   5.502   3.617
 9378SOL     OW29032   0.937   0.591   5.218
 9378SOL    HW129033   0.973   0.536   5.142
 9378SOL    HW229034   0.983   0.680   5.219
 9379SOL     OW29035   4.701   5.899   5.104
 9379SOL    HW129036   4.642   5.910   5.024
 9379SOL    HW229037   4.734   5.988   5.134
 9380SOL     OW29038   5.539   4.445   5.186
 9380SOL    HW129039   5.455   4.447   5.132
 9380SOL    HW229040   5.541   4.523   5.248
 9381SOL     OW29041   3.191   3.069   6.107
 9381SOL    HW129042   3.210   2.978   6.145
 9381SOL    HW229043   3.155   3.058   6.014
 9382SOL     OW29044   3.392   1.022   3.730
 9382SOL    HW129045   3.480   1.030   3.776
 9382SOL    HW229046   3.336   1.102   3.748
 9383SOL     OW29047   2.013   5.876   4.777
 9383SOL    HW129048   1.958   5.909   4.854
 9383SOL    HW229049   1.953   5.832   4.710
 9384SOL     OW29050   2.982   5.985   1.353
 9384SOL    HW129051   3.007   5.951   1.444
 9384SOL    HW229052   2.882   5.995   1.349
 9385SOL     OW29053   3.896   0.877   3.148
 9385SOL    HW129054   3.934   0.875   3.241
 9385SOL    HW229055   3.831   0.802   3.138
 9386SOL     OW29056   2.772   6.169   4.586
 9386SOL    HW129057   2.859   6.126   4.562
 9386SOL    HW229058   2.700   6.099   4.588
 9387SOL     OW29059   2.895   1.639   6.957
 9387SOL    HW129060   2.894   1.561   7.020
 9387SOL    HW229061   2.956   1.710   6.993
 9388SOL     OW29062   1.850   5.148   2.713
 9388SOL    HW129063   1.818   5.178   2.623
 9388SOL    HW229064   1.802   5.064   2.739
 9389SOL     OW29065   1.315   6.546   5.155
 9389SOL    HW129066   1.311   6.464   5.098
 9389SOL    HW229067   1.243   6.609   5.127
 9390SOL     OW29068   3.877   5.036   4.778
 9390SOL    HW129069   3.859   4.980   4.698
 9390SOL    HW229070   3.936   5.113   4.753
 9391SOL     OW29071   2.167   0.851   4.669
 9391SOL    HW129072   2.185   0.799   4.752
 9391SOL    HW229073   2.078   0.897   4.676
 9392SOL     OW29074   0.010   0.397   4.859
 9392SOL    HW129075   0.045   0.483   4.821
 9392SOL    HW229076   6.939   0.410   4.892
 9393SOL     OW29077   2.479   6.485   5.144
 9393SOL    HW129078   2.577   6.475   5.124
 9393SOL    HW229079   2.467   6.543   5.225
 9394SOL     OW29080   0.152   1.598   2.019
 9394SOL    HW129081   0.189   1.676   2.069
 9394SOL    HW229082   0.065   1.570   2.060
 9395SOL     OW29083   2.933   1.418   0.130
 9395SOL    HW129084   3.007   1.389   0.191
 9395SOL    HW229085   2.854   1.358   0.143
 9396SOL     OW29086   1.925   5.230   3.718
 9396SOL    HW129087   1.847   5.284   3.688
 9396SOL    HW229088   1.897   5.166   3.789
 9397SOL     OW29089   3.268   0.257   0.048
 9397SOL    HW129090   3.204   0.271   0.124
 9397SOL    HW229091   3.247   0.170   0.003
 9398SOL     OW29092   0.433   0.765   5.179
 9398SOL    HW129093   0.524   0.732   5.154
 9398SOL    HW229094   0.372   0.755   5.101
 9399SOL     OW29095   6.618   1.622   6.382
 9399SOL    HW129096   6.660   1.548   6.330
 9399SOL    HW229097   6.680   1.651   6.455
 9400SOL     OW29098   3.808   1.260   2.220
 9400SOL    HW129099   3.732   1.325   2.217
 9400SOL    HW229100   3.790   1.184   2.158
 9401SOL     OW29101   5.347   0.105   3.274
 9401SOL    HW129102   5.289   0.172   3.321
 9401SOL    HW229103   5.435   0.147   3.252
 9402SOL     OW29104   1.384   4.653   3.571
 9402SOL    HW129105   1.337   4.566   3.589
 9402SOL    HW229106   1.422   4.652   3.479
 9403SOL     OW29107   6.091   1.693   2.663
 9403SOL    HW129108   6.015   1.752   2.689
 9403SOL    HW229109   6.176   1.730   2.701
 9404SOL     OW29110   1.383   3.297   6.449
 9404SOL    HW129111   1.438   3.356   6.509
 9404SOL    HW229112   1.289   3.297   6.480
 9405SOL     OW29113   1.230   5.547   2.447
 9405SOL    HW129114   1.181   5.603   2.380
 9405SOL    HW229115   1.264   5.464   2.401
 9406SOL     OW29116   6.652   2.653   5.918
 9406SOL    HW129117   6.643   2.715   5.840
 9406SOL    HW229118   6.656   2.706   6.003
 9407SOL     OW29119   2.677   5.555   3.248
 9407SOL    HW129120   2.601   5.513   3.297
 9407SOL    HW229121   2.740   5.484   3.216
 9408SOL     OW29122   4.387   1.689   6.565
 9408SOL    HW129123   4.437   1.704   6.650
 9408SOL    HW229124   4.429   1.613   6.515
 9409SOL     OW29125   6.159   4.675   6.493
 9409SOL    HW129126   6.256   4.666   6.518
 9409SOL    HW229127   6.140   4.769   6.467
 9410SOL     OW29128   3.018   0.052   2.136
 9410SOL    HW129129   2.939   0.009   2.091
 9410SOL    HW229130   3.069   0.106   2.069
 9411SOL     OW29131   3.374   3.432   2.048
 9411SOL    HW129132   3.301   3.365   2.057
 9411SOL    HW229133   3.443   3.416   2.118
 9412SOL     OW29134   6.863   2.587   1.375
 9412SOL    HW129135   6.912   2.570   1.290
 9412SOL    HW229136   6.868   2.684   1.399
 9413SOL     OW29137   3.209   5.996   4.269
 9413SOL    HW129138   3.185   6.082   4.224
 9413SOL    HW229139   3.308   5.989   4.277
 9414SOL     OW29140   2.869   0.567   3.407
 9414SOL    HW129141   2.891   0.560   3.504
 9414SOL    HW229142   2.897   0.483   3.360
 9415SOL     OW29143   2.801   6.781   2.176
 9415SOL    HW129144   2.808   6.861   2.116
 9415SOL    HW229145   2.722   6.726   2.149
 9416SOL     OW29146   0.602   2.236   0.801
 9416SOL    HW129147   0.672   2.188   0.748
 9416SOL    HW229148   0.641   2.317   0.843
 9417SOL     OW29149   4.114   6.785   6.012
 9417SOL    HW129150   4.214   6.783   6.017
 9417SOL    HW229151   4.079   6.694   5.992
 9418SOL     OW29152   3.670   6.205   1.178
 9418SOL    HW129153   3.755   6.175   1.222
 9418SOL    HW229154   3.692   6.258   1.095
 9419SOL     OW29155   3.655   5.553   5.917
 9419SOL    HW129156   3.629   5.457   5.928
 9419SOL    HW229157   3.753   5.564   5.935
 9420SOL     OW29158   6.609   3.234   5.211
 9420SOL    HW129159   6.582   3.199   5.121
 9420SOL    HW229160   6.648   3.159   5.265
 9421SOL     OW29161   2.277   6.991   4.536
 9421SOL    HW129162   2.194   6.996   4.481
 9421SOL    HW229163   2.351   6.951   4.482
 9422SOL     OW29164   4.678   6.211   3.192
 9422SOL    HW129165   4.648   6.301   3.158
 9422SOL    HW229166   4.754   6.178   3.136
 9423SOL     OW29167   3.796   0.595   4.239
 9423SOL    HW129168   3.807   0.556   4.148
 9423SOL    HW229169   3.753   0.527   4.299
 9424SOL     OW29170   4.839   0.492   4.752
 9424SOL    HW129171   4.849   0.541   4.839
 9424SOL    HW229172   4.899   0.412   4.752
 9425SOL     OW29173   5.937   3.196   6.852
 9425SOL    HW129174   5.920   3.210   6.950
 9425SOL    HW229175   5.975   3.279   6.813
 9426SOL     OW29176   3.395   2.357   0.100
 9426SOL    HW129177   3.446   2.375   0.016
 9426SOL    HW229178   3.413   2.430   0.165
 9427SOL     OW29179   3.072   5.501   3.857
 9427SOL    HW129180   3.138   5.526   3.929
 9427SOL    HW229181   2.987   5.469   3.899
 9428SOL     OW29182   5.822   0.627   1.169
 9428SOL    HW129183   5.756   0.666   1.105
 9428SOL    HW229184   5.898   0.586   1.117
 9429SOL     OW29185   2.074   3.300   2.203
 9429SOL    HW129186   2.131   3.351   2.139
 9429SOL    HW229187   2.084   3.202   2.185
 9430SOL     OW29188   0.790   4.380   2.508
 9430SOL    HW129189   0.740   4.294   2.496
 9430SOL    HW229190   0.842   4.377   2.593
 9431SOL     OW29191   6.258   4.186   2.049
 9431SOL    HW129192   6.160   4.184   2.032
 9431SOL    HW229193   6.275   4.221   2.141
 9432SOL     OW29194   3.964   0.437   3.228
 9432SOL    HW129195   3.926   0.409   3.140
 9432SOL    HW229196   3.897   0.418   3.300
 9433SOL     OW29197   3.172   5.204   2.770
 9433SOL    HW129198   3.187   5.147   2.851
 9433SOL    HW229199   3.105   5.276   2.792
 9434SOL     OW29200   5.145   5.029   3.366
 9434SOL    HW129201   5.221   4.963   3.359
 9434SOL    HW229202   5.070   4.999   3.308
 9435SOL     OW29203   0.979   2.863   4.750
 9435SOL    HW129204   1.037   2.883   4.829
 9435SOL    HW229205   0.893   2.912   4.758
 9436SOL     OW29206   1.161   2.688   1.752
 9436SOL    HW129207   1.064   2.698   1.775
 9436SOL    HW229208   1.197   2.605   1.794
 9437SOL     OW29209   2.559   6.555   3.032
 9437SOL    HW129210   2.614   6.479   3.067
 9437SOL    HW229211   2.529   6.611   3.109
 9438SOL     OW29212   0.146   0.303   1.831
 9438SOL    HW129213   0.185   0.240   1.763
 9438SOL    HW229214   0.218   0.329   1.896
 9439SOL     OW29215   0.634   3.423   1.535
 9439SOL    HW129216   0.561   3.488   1.556
 9439SOL    HW229217   0.638   3.353   1.606
 9440SOL     OW29218   3.791   5.144   3.507
 9440SOL    HW129219   3.698   5.132   3.473
 9440SOL    HW229220   3.851   5.075   3.465
 9441SOL     OW29221   1.093   3.236   5.275
 9441SOL    HW129222   1.176   3.291   5.273
 9441SOL    HW229223   1.044   3.246   5.188
 9442SOL     OW29224   4.906   3.289   0.308
 9442SOL    HW129225   4.904   3.190   0.323
 9442SOL    HW229226   4.915   3.309   0.211
 9443SOL     OW29227   2.412   5.546   1.089
 9443SOL    HW129228   2.400   5.452   1.058
 9443SOL    HW229229   2.380   5.609   1.018
 9444SOL     OW29230   1.663   3.813   6.730
 9444SOL    HW129231   1.627   3.888   6.675
 9444SOL    HW229232   1.588   3.766   6.777
 9445SOL     OW29233   5.934   3.601   3.465
 9445SOL    HW129234   5.869   3.539   3.510
 9445SOL    HW229235   6.022   3.554   3.454
 9446SOL     OW29236   6.045   6.237   4.309
 9446SOL    HW129237   5.955   6.278   4.294
 9446SOL    HW229238   6.050   6.200   4.402
 9447SOL     OW29239   5.893   3.482   4.485
 9447SOL    HW129240   5.900   3.389   4.521
 9447SOL    HW229241   5.966   3.538   4.526
 9448SOL     OW29242   6.829   6.478   6.867
 9448SOL    HW129243   6.811   6.570   6.902
 9448SOL    HW229244   6.898   6.483   6.794
 9449SOL     OW29245   6.785   5.928   0.211
 9449SOL    HW129246   6.832   5.915   0.299
 9449SOL    HW229247   6.853   5.932   0.138
 9450SOL     OW29248   3.148   5.735   5.503
 9450SOL    HW129249   3.165   5.757   5.599
 9450SOL    HW229250   3.049   5.741   5.485
 9451SOL     OW29251   4.010   6.292   6.018
 9451SOL    HW129252   3.958   6.329   5.941
 9451SOL    HW229253   4.007   6.356   6.094
 9452SOL     OW29254   1.892   3.881   0.312
 9452SOL    HW129255   1.935   3.854   0.398
 9452SOL    HW229256   1.963   3.908   0.247
 9453SOL     OW29257   2.269   4.780   3.127
 9453SOL    HW129258   2.199   4.796   3.057
 9453SOL    HW229259   2.251   4.693   3.173
 9454SOL     OW29260   3.172   3.440   7.001
 9454SOL    HW129261   3.095   3.459   0.040
 9454SOL    HW229262   3.137   3.418   6.910
 9455SOL     OW29263   3.317   1.665   3.203
 9455SOL    HW129264   3.380   1.599   3.244
 9455SOL    HW229265   3.340   1.677   3.106
 9456SOL     OW29266   1.365   3.552   1.118
 9456SOL    HW129267   1.291   3.485   1.122
 9456SOL    HW229268   1.436   3.527   1.183
 9457SOL     OW29269   2.170   3.734   5.074
 9457SOL    HW129270   2.081   3.752   5.115
 9457SOL    HW229271   2.172   3.771   4.981
 9458SOL     OW29272   1.524   3.060   6.807
 9458SOL    HW129273   1.604   3.118   6.789
 9458SOL    HW229274   1.554   2.975   6.849
 9459SOL     OW29275   5.148   4.525   3.382
 9459SOL    HW129276   5.118   4.540   3.288
 9459SOL    HW229277   5.209   4.446   3.385
 9460SOL     OW29278   0.634   2.370   3.716
 9460SOL    HW129279   0.661   2.411   3.803
 9460SOL    HW229280   0.621   2.442   3.648
 9461SOL     OW29281   6.089   1.240   2.165
 9461SOL    HW129282   6.114   1.337   2.161
 9461SOL    HW229283   6.029   1.225   2.244
 9462SOL     OW29284   2.114   3.536   2.851
 9462SOL    HW129285   2.130   3.629   2.819
 9462SOL    HW229286   2.088   3.539   2.948
 9463SOL     OW29287   6.910   0.965   1.941
 9463SOL    HW129288   6.965   1.014   1.873
 9463SOL    HW229289   6.932   1.000   2.032
 9464SOL     OW29290   6.254   0.493   1.273
 9464SOL    HW129291   6.296   0.582   1.258
 9464SOL    HW229292   6.168   0.504   1.321
 9465SOL     OW29293   1.829   5.409   2.783
 9465SOL    HW129294   1.817   5.313   2.761
 9465SOL    HW229295   1.745   5.445   2.823
 9466SOL     OW29296   4.888   4.731   5.990
 9466SOL    HW129297   4.823   4.807   5.990
 9466SOL    HW229298   4.981   4.767   5.989
 9467SOL     OW29299   1.005   2.408   1.631
 9467SOL    HW129300   0.967   2.453   1.713
 9467SOL    HW229301   0.956   2.322   1.615
 9468SOL     OW29302   5.791   2.650   5.896
 9468SOL    HW129303   5.858   2.589   5.852
 9468SOL    HW229304   5.834   2.695   5.974
 9469SOL     OW29305   6.414   6.085   1.814
 9469SOL    HW129306   6.508   6.071   1.783
 9469SOL    HW229307   6.368   6.150   1.753
 9470SOL     OW29308   4.255   3.862   5.424
 9470SOL    HW129309   4.247   3.769   5.389
 9470SOL    HW229310   4.349   3.894   5.414
 9471SOL     OW29311   6.464   1.837   4.521
 9471SOL    HW129312   6.531   1.800   4.585
 9471SOL    HW229313   6.437   1.929   4.549
 9472SOL     OW29314   5.587   3.413   5.046
 9472SOL    HW129315   5.531   3.377   5.121
 9472SOL    HW229316   5.527   3.448   4.974
 9473SOL     OW29317   2.737   5.639   5.640
 9473SOL    HW129318   2.803   5.589   5.584
 9473SOL    HW229319   2.781   5.673   5.723
 9474SOL     OW29320   0.159   3.206   0.337
 9474SOL    HW129321   0.156   3.305   0.323
 9474SOL    HW229322   0.229   3.166   0.278
 9475SOL     OW29323   3.649   3.605   6.572
 9475SOL    HW129324   3.720   3.537   6.557
 9475SOL    HW229325   3.668   3.685   6.514
 9476SOL     OW29326   3.078   3.801   4.984
 9476SOL    HW129327   3.131   3.780   4.902
 9476SOL    HW229328   3.070   3.900   4.994
 9477SOL     OW29329   0.387   3.697   1.833
 9477SOL    HW129330   0.390   3.653   1.743
 9477SOL    HW229331   0.480   3.720   1.862
 9478SOL     OW29332   5.323   3.166   6.833
 9478SOL    HW129333   5.371   3.090   6.789
 9478SOL    HW229334   5.264   3.210   6.765
 9479SOL     OW29335   4.357   6.014   6.653
 9479SOL    HW129336   4.276   6.033   6.708
 9479SOL    HW229337   4.437   6.002   6.713
 9480SOL     OW29338   4.615   4.014   1.098
 9480SOL    HW129339   4.546   4.040   1.031
 9480SOL    HW229340   4.586   4.043   1.189
 9481SOL     OW29341   5.234   3.690   2.442
 9481SOL    HW129342   5.299   3.749   2.490
 9481SOL    HW229343   5.262   3.594   2.453
 9482SOL     OW29344   6.641   0.811   3.332
 9482SOL    HW129345   6.679   0.734   3.281
 9482SOL    HW229346   6.674   0.809   3.426
 9483SOL     OW29347   0.879   1.880   1.923
 9483SOL    HW129348   0.854   1.784   1.931
 9483SOL    HW229349   0.945   1.904   1.994
 9484SOL     OW29350   3.157   1.091   3.929
 9484SOL    HW129351   3.176   1.005   3.977
 9484SOL    HW229352   3.069   1.127   3.959
 9485SOL     OW29353   0.724   0.280   1.620
 9485SOL    HW129354   0.673   0.194   1.620
 9485SOL    HW229355   0.683   0.344   1.555
 9486SOL     OW29356   3.068   6.079   1.094
 9486SOL    HW129357   3.005   6.044   1.163
 9486SOL    HW229358   3.082   6.177   1.108
 9487SOL     OW29359   3.206   3.121   3.329
 9487SOL    HW129360   3.123   3.174   3.346
 9487SOL    HW229361   3.205   3.088   3.235
 9488SOL     OW29362   1.290   6.327   0.636
 9488SOL    HW129363   1.357   6.386   0.681
 9488SOL    HW229364   1.204   6.378   0.624
 9489SOL     OW29365   4.619   4.516   1.564
 9489SOL    HW129366   4.634   4.457   1.643
 9489SOL    HW229367   4.615   4.612   1.594
 9490SOL     OW29368   0.086   5.792   1.085
 9490SOL    HW129369   0.077   5.759   1.179
 9490SOL    HW229370   0.019   5.745   1.026
 9491SOL     OW29371   6.682   4.437   3.752
 9491SOL    HW129372   6.758   4.498   3.773
 9491SOL    HW229373   6.626   4.426   3.834
 9492SOL     OW29374   3.342   2.923   2.819
 9492SOL    HW129375   3.391   2.921   2.907
 9492SOL    HW229376   3.274   2.851   2.817
 9493SOL     OW29377   3.776   5.219   4.058
 9493SOL    HW129378   3.723   5.140   4.089
 9493SOL    HW229379   3.739   5.252   3.972
 9494SOL     OW29380   5.013   4.711   1.747
 9494SOL    HW129381   5.057   4.702   1.657
 9494SOL    HW229382   4.992   4.620   1.783
 9495SOL     OW29383   6.647   1.777   3.414
 9495SOL    HW129384   6.637   1.690   3.367
 9495SOL    HW229385   6.577   1.841   3.383
 9496SOL     OW29386   6.207   5.044   1.199
 9496SOL    HW129387   6.285   4.992   1.164
 9496SOL    HW229388   6.145   4.982   1.247
 9497SOL     OW29389   5.794   5.897   6.650
 9497SOL    HW129390   5.816   5.912   6.746
 9497SOL    HW229391   5.695   5.904   6.637
 9498SOL     OW29392   5.254   6.448   4.714
 9498SOL    HW129393   5.349   6.416   4.713
 9498SOL    HW229394   5.252   6.544   4.685
 9499SOL     OW29395   1.657   5.138   6.441
 9499SOL    HW129396   1.599   5.211   6.477
 9499SOL    HW229397   1.637   5.124   6.344
 9500SOL     OW29398   5.393   0.730   0.755
 9500SOL    HW129399   5.405   0.666   0.830
 9500SOL    HW229400   5.421   0.687   0.669
 9501SOL     OW29401   2.944   1.435   5.017
 9501SOL    HW129402   3.010   1.387   5.075
 9501SOL    HW229403   2.941   1.393   4.927
 9502SOL     OW29404   6.834   2.465   5.256
 9502SOL    HW129405   6.775   2.494   5.181
 9502SOL    HW229406   6.781   2.465   5.341
 9503SOL     OW29407   0.349   1.549   1.495
 9503SOL    HW129408   0.331   1.589   1.585
 9503SOL    HW229409   0.337   1.619   1.424
 9504SOL     OW29410   6.620   2.581   1.093
 9504SOL    HW129411   6.581   2.507   1.148
 9504SOL    HW229412   6.634   2.549   0.999
 9505SOL     OW29413   5.507   5.046   3.463
 9505SOL    HW129414   5.454   4.975   3.416
 9505SOL    HW229415   5.478   5.136   3.433
 9506SOL     OW29416   0.773   2.472   6.186
 9506SOL    HW129417   0.852   2.461   6.126
 9506SOL    HW229418   0.788   2.419   6.270
 9507SOL     OW29419   1.213   2.070   3.082
 9507SOL    HW129420   1.127   2.020   3.083
 9507SOL    HW229421   1.196   2.168   3.092
 9508SOL     OW29422   6.886   3.516   0.947
 9508SOL    HW129423   6.875   3.417   0.952
 9508SOL    HW229424   6.807   3.556   0.901
 9509SOL     OW29425   0.665   0.897   4.925
 9509SOL    HW129426   0.582   0.941   4.960
 9509SOL    HW229427   0.670   0.803   4.961
 9510SOL     OW29428   1.342   3.607   2.333
 9510SOL    HW129429   1.436   3.635   2.349
 9510SOL    HW229430   1.282   3.687   2.332
 9511SOL     OW29431   0.439   1.156   0.430
 9511SOL    HW129432   0.340   1.165   0.417
 9511SOL    HW229433   0.465   1.060   0.426
 9512SOL     OW29434   5.613   1.915   1.248
 9512SOL    HW129435   5.516   1.942   1.242
 9512SOL    HW229436   5.619   1.817   1.268
 9513SOL     OW29437   1.912   3.213   6.278
 9513SOL    HW129438   1.834   3.170   6.234
 9513SOL    HW229439   1.885   3.303   6.314
 9514SOL     OW29440   2.120   4.664   6.634
 9514SOL    HW129441   2.189   4.620   6.576
 9514SOL    HW229442   2.029   4.643   6.598
 9515SOL     OW29443   1.380   6.291   1.652
 9515SOL    HW129444   1.384   6.376   1.705
 9515SOL    HW229445   1.399   6.311   1.556
 9516SOL     OW29446   5.336   3.997   5.259
 9516SOL    HW129447   5.373   3.904   5.260
 9516SOL    HW229448   5.390   4.053   5.197
 9517SOL     OW29449   1.124   4.729   0.865
 9517SOL    HW129450   1.067   4.647   0.864
 9517SOL    HW229451   1.209   4.710   0.916
 9518SOL     OW29452   1.407   1.692   6.882
 9518SOL    HW129453   1.387   1.773   6.826
 9518SOL    HW229454   1.326   1.669   6.936
 9519SOL     OW29455   3.529   4.089   4.236
 9519SOL    HW129456   3.431   4.105   4.222
 9519SOL    HW229457   3.580   4.171   4.210
 9520SOL     OW29458   1.030   1.307   3.493
 9520SOL    HW129459   1.122   1.327   3.458
 9520SOL    HW229460   0.995   1.226   3.447
 9521SOL     OW29461   5.048   5.152   1.362
 9521SOL    HW129462   4.960   5.108   1.380
 9521SOL    HW229463   5.037   5.251   1.368
 9522SOL     OW29464   4.198   4.946   1.382
 9522SOL    HW129465   4.173   4.851   1.359
 9522SOL    HW229466   4.194   5.002   1.299
 9523SOL     OW29467   2.613   4.987   4.918
 9523SOL    HW129468   2.542   5.028   4.862
 9523SOL    HW229469   2.689   4.959   4.860
 9524SOL     OW29470   2.989   3.406   0.470
 9524SOL    HW129471   2.955   3.489   0.426
 9524SOL    HW229472   3.085   3.417   0.494
 9525SOL     OW29473   2.323   2.170   5.985
 9525SOL    HW129474   2.368   2.190   6.072
 9525SOL    HW229475   2.389   2.129   5.922
 9526SOL     OW29476   6.293   4.784   1.195
 9526SOL    HW129477   6.197   4.779   1.222
 9526SOL    HW229478   6.313   4.712   1.129
 9527SOL     OW29479   0.712   1.401   4.491
 9527SOL    HW129480   0.785   1.467   4.509
 9527SOL    HW229481   0.696   1.346   4.573
 9528SOL     OW29482   6.737   1.928   1.113
 9528SOL    HW129483   6.832   1.903   1.098
 9528SOL    HW229484   6.696   1.864   1.179
 9529SOL     OW29485   6.270   3.568   6.444
 9529SOL    HW129486   6.356   3.583   6.395
 9529SOL    HW229487   6.242   3.473   6.434
 9530SOL     OW29488   1.715   2.983   3.303
 9530SOL    HW129489   1.749   2.897   3.264
 9530SOL    HW229490   1.632   3.011   3.255
 9531SOL     OW29491   5.186   4.660   2.474
 9531SOL    HW129492   5.148   4.673   2.566
 9531SOL    HW229493   5.285   4.644   2.481
 9532SOL     OW29494   0.549   6.011   1.442
 9532SOL    HW129495   0.630   5.958   1.419
 9532SOL    HW229496   0.472   5.980   1.385
 9533SOL     OW29497   0.391   5.600   5.375
 9533SOL    HW129498   0.393   5.533   5.449
 9533SOL    HW229499   0.485   5.624   5.349
 9534SOL     OW29500   6.667   4.125   5.288
 9534SOL    HW129501   6.610   4.137   5.207
 9534SOL    HW229502   6.608   4.117   5.369
 9535SOL     OW29503   1.884   0.608   5.814
 9535SOL    HW129504   1.965   0.574   5.768
 9535SOL    HW229505   1.890   0.708   5.823
 9536SOL     OW29506   3.027   4.185   5.867
 9536SOL    HW129507   3.008   4.109   5.806
 9536SOL    HW229508   3.107   4.235   5.835
 9537SOL     OW29509   2.648   7.010   4.626
 9537SOL    HW129510   2.682   6.935   4.682
 9537SOL    HW229511   2.591   0.048   4.682
 9538SOL     OW29512   5.573   1.247   3.530
 9538SOL    HW129513   5.473   1.251   3.519
 9538SOL    HW229514   5.598   1.288   3.617
 9539SOL     OW29515   3.343   3.357   4.957
 9539SOL    HW129516   3.389   3.301   4.889
 9539SOL    HW229517   3.391   3.349   5.045
 9540SOL     OW29518   6.326   4.203   4.437
 9540SOL    HW129519   6.385   4.258   4.377
 9540SOL    HW229520   6.381   4.159   4.507
 9541SOL     OW29521   3.161   0.540   5.939
 9541SOL    HW129522   3.083   0.564   5.882
 9541SOL    HW229523   3.236   0.604   5.921
 9542SOL     OW29524   4.771   4.098   4.766
 9542SOL    HW129525   4.841   4.027   4.771
 9542SOL    HW229526   4.706   4.077   4.693
 9543SOL     OW29527   3.689   6.847   6.039
 9543SOL    HW129528   3.653   6.935   6.071
 9543SOL    HW229529   3.775   6.862   5.990
 9544SOL     OW29530   6.978   2.122   2.910
 9544SOL    HW129531   0.046   2.136   2.870
 9544SOL    HW229532   6.987   2.116   3.009
 9545SOL     OW29533   5.537   5.916   4.857
 9545SOL    HW129534   5.521   5.921   4.758
 9545SOL    HW229535   5.452   5.889   4.903
 9546SOL     OW29536   4.158   1.747   5.040
 9546SOL    HW129537   4.228   1.749   5.112
 9546SOL    HW229538   4.085   1.685   5.068
 9547SOL     OW29539   2.919   6.008   3.767
 9547SOL    HW129540   2.923   5.917   3.726
 9547SOL    HW229541   2.865   6.069   3.708
 9548SOL     OW29542   6.211   5.253   6.247
 9548SOL    HW129543   6.278   5.291   6.182
 9548SOL    HW229544   6.233   5.285   6.339
 9549SOL     OW29545   2.626   3.178   0.985
 9549SOL    HW129546   2.557   3.185   1.057
 9549SOL    HW229547   2.590   3.123   0.910
 9550SOL     OW29548   6.848   1.004   0.252
 9550SOL    HW129549   6.796   0.992   0.336
 9550SOL    HW229550   6.875   0.914   0.216
 9551SOL     OW29551   6.146   1.968   5.316
 9551SOL    HW129552   6.171   1.924   5.230
 9551SOL    HW229553   6.055   2.007   5.308
 9552SOL     OW29554   1.520   6.769   4.372
 9552SOL    HW129555   1.442   6.706   4.368
 9552SOL    HW229556   1.506   6.842   4.305
 9553SOL     OW29557   6.590   2.894   6.587
 9553SOL    HW129558   6.548   2.823   6.644
 9553SOL    HW229559   6.575   2.984   6.630
 9554SOL     OW29560   2.125   0.035   1.828
 9554SOL    HW129561   2.062   6.980   1.828
 9554SOL    HW229562   2.074   0.119   1.843
 9555SOL     OW29563   1.070   0.504   3.002
 9555SOL    HW129564   0.999   0.446   2.964
 9555SOL    HW229565   1.098   0.571   2.933
 9556SOL     OW29566   1.585   3.491   1.749
 9556SOL    HW129567   1.540   3.408   1.716
 9556SOL    HW229568   1.643   3.469   1.827
 9557SOL     OW29569   0.242   6.058   2.254
 9557SOL    HW129570   0.279   6.151   2.251
 9557SOL    HW229571   0.316   5.992   2.235
 9558SOL     OW29572   5.892   6.020   4.915
 9558SOL    HW129573   5.876   6.030   4.817
 9558SOL    HW229574   5.987   6.042   4.935
 9559SOL     OW29575   0.717   4.404   0.857
 9559SOL    HW129576   0.657   4.477   0.822
 9559SOL    HW229577   0.668   4.317   0.854
 9560SOL     OW29578   1.625   1.383   3.372
 9560SOL    HW129579   1.589   1.316   3.307
 9560SOL    HW229580   1.575   1.469   3.361
 9561SOL     OW29581   1.920   0.372   0.526
 9561SOL    HW129582   1.915   0.330   0.617
 9561SOL    HW229583   1.841   0.344   0.472
 9562SOL     OW29584   2.686   0.231   5.459
 9562SOL    HW129585   2.607   0.280   5.422
 9562SOL    HW229586   2.665   0.134   5.468
 9563SOL     OW29587   6.469   6.084   0.623
 9563SOL    HW129588   6.401   6.153   0.598
 9563SOL    HW229589   6.429   6.021   0.690
 9564SOL     OW29590   2.807   7.010   0.612
 9564SOL    HW129591   2.778   0.074   0.573
 9564SOL    HW229592   2.786   6.936   0.547
 9565SOL     OW29593   3.593   0.155   4.538
 9565SOL    HW129594   3.639   0.069   4.561
 9565SOL    HW229595   3.629   0.228   4.595
 9566SOL     OW29596   1.961   4.923   0.157
 9566SOL    HW129597   1.993   4.905   0.064
 9566SOL    HW229598   2.039   4.923   0.220
 9567SOL     OW29599   5.262   5.031   0.739
 9567SOL    HW129600   5.352   4.989   0.735
 9567SOL    HW229601   5.194   4.961   0.761
 9568SOL     OW29602   4.307   2.146   6.670
 9568SOL    HW129603   4.230   2.094   6.633
 9568SOL    HW229604   4.368   2.084   6.719
 9569SOL     OW29605   0.001   1.443   2.621
 9569SOL    HW129606   6.963   1.514   2.656
 9569SOL    HW229607   0.095   1.477   2.621
 9570SOL     OW29608   0.929   3.046   2.176
 9570SOL    HW129609   0.858   3.083   2.237
 9570SOL    HW229610   0.966   3.120   2.121
 9571SOL     OW29611   4.128   4.324   6.308
 9571SOL    HW129612   4.047   4.376   6.281
 9571SOL    HW229613   4.112   4.226   6.292
 9572SOL     OW29614   2.196   4.957   1.333
 9572SOL    HW129615   2.174   5.041   1.383
 9572SOL    HW229616   2.284   4.968   1.287
 9573SOL     OW29617   0.534   1.917   6.626
 9573SOL    HW129618   0.564   1.990   6.564
 9573SOL    HW229619   0.441   1.935   6.656
 9574SOL     OW29620   3.957   3.171   3.539
 9574SOL    HW129621   4.054   3.193   3.551
 9574SOL    HW229622   3.903   3.254   3.548
 9575SOL     OW29623   0.162   1.337   1.417
 9575SOL    HW129624   0.150   1.350   1.319
 9575SOL    HW229625   0.191   1.422   1.459
 9576SOL     OW29626   2.219   0.329   1.725
 9576SOL    HW129627   2.241   0.330   1.627
 9576SOL    HW229628   2.121   0.315   1.737
 9577SOL     OW29629   1.433   0.679   5.991
 9577SOL    HW129630   1.473   0.674   6.083
 9577SOL    HW229631   1.341   0.641   5.992
 9578SOL     OW29632   0.694   3.912   3.649
 9578SOL    HW129633   0.750   3.855   3.709
 9578SOL    HW229634   0.615   3.946   3.699
 9579SOL     OW29635   1.502   4.995   2.854
 9579SOL    HW129636   1.450   4.914   2.829
 9579SOL    HW229637   1.600   4.978   2.842
 9580SOL     OW29638   4.709   3.218   0.682
 9580SOL    HW129639   4.648   3.175   0.616
 9580SOL    HW229640   4.802   3.182   0.670
 9581SOL     OW29641   0.360   5.601   6.314
 9581SOL    HW129642   0.324   5.522   6.364
 9581SOL    HW229643   0.401   5.569   6.228
 9582SOL     OW29644   4.788   5.152   6.093
 9582SOL    HW129645   4.774   5.209   6.012
 9582SOL    HW229646   4.756   5.200   6.174
 9583SOL     OW29647   3.784   4.468   1.073
 9583SOL    HW129648   3.849   4.543   1.059
 9583SOL    HW229649   3.742   4.476   1.163
 9584SOL     OW29650   6.989   5.961   0.025
 9584SOL    HW129651   6.975   5.900   6.970
 9584SOL    HW229652   6.979   6.056   7.017
 9585SOL     OW29653   6.460   0.403   4.530
 9585SOL    HW129654   6.420   0.483   4.576
 9585SOL    HW229655   6.427   0.319   4.574
 9586SOL     OW29656   5.737   4.568   2.840
 9586SOL    HW129657   5.708   4.637   2.774
 9586SOL    HW229658   5.713   4.477   2.807
 9587SOL     OW29659   6.765   1.432   2.035
 9587SOL    HW129660   6.741   1.528   2.046
 9587SOL    HW229661   6.830   1.421   1.961
 9588SOL     OW29662   6.869   1.566   1.805
 9588SOL    HW129663   6.934   1.490   1.803
 9588SOL    HW229664   6.859   1.604   1.713
 9589SOL     OW29665   2.175   4.856   5.640
 9589SOL    HW129666   2.109   4.904   5.699
 9589SOL    HW229667   2.243   4.810   5.697
 9590SOL     OW29668   6.774   3.378   1.685
 9590SOL    HW129669   6.800   3.451   1.748
 9590SOL    HW229670   6.680   3.350   1.703
 9591SOL     OW29671   3.671   6.473   6.451
 9591SOL    HW129672   3.579   6.443   6.426
 9591SOL    HW229673   3.678   6.482   6.551
 9592SOL     OW29674   3.941   4.060   0.904
 9592SOL    HW129675   3.989   4.022   0.825
 9592SOL    HW229676   4.007   4.103   0.966
 9593SOL     OW29677   0.227   1.261   4.912
 9593SOL    HW129678   0.326   1.274   4.918
 9593SOL    HW229679   0.186   1.279   5.001
 9594SOL     OW29680   1.289   6.447   3.215
 9594SOL    HW129681   1.246   6.395   3.290
 9594SOL    HW229682   1.280   6.396   3.130
 9595SOL     OW29683   1.382   4.292   5.205
 9595SOL    HW129684   1.377   4.383   5.164
 9595SOL    HW229685   1.477   4.262   5.206
 9596SOL     OW29686   0.215   5.479   0.118
 9596SOL    HW129687   0.294   5.419   0.101
 9596SOL    HW229688   0.246   5.561   0.167
 9597SOL     OW29689   0.836   4.505   1.123
 9597SOL    HW129690   0.935   4.496   1.134
 9597SOL    HW229691   0.807   4.454   1.041
 9598SOL     OW29692   1.486   3.481   4.193
 9598SOL    HW129693   1.503   3.562   4.136
 9598SOL    HW229694   1.453   3.510   4.283
 9599SOL     OW29695   3.791   6.821   5.132
 9599SOL    HW129696   3.885   6.791   5.120
 9599SOL    HW229697   3.754   6.854   5.045
 9600SOL     OW29698   2.332   7.004   6.813
 9600SOL    HW129699   2.373   6.936   6.874
 9600SOL    HW229700   2.285   0.050   6.867
 9601SOL     OW29701   6.118   3.951   1.327
 9601SOL    HW129702   6.137   3.877   1.392
 9601SOL    HW229703   6.169   3.936   1.243
 9602SOL     OW29704   6.956   5.078   6.336
 9602SOL    HW129705   6.964   5.113   6.429
 9602SOL    HW229706   6.867   5.032   6.326
 9603SOL     OW29707   3.797   1.771   4.513
 9603SOL    HW129708   3.715   1.747   4.461
 9603SOL    HW229709   3.781   1.756   4.610
 9604SOL     OW29710   3.891   0.576   0.230
 9604SOL    HW129711   3.936   0.566   0.318
 9604SOL    HW229712   3.865   0.486   0.195
 9605SOL     OW29713   0.118   5.250   3.879
 9605SOL    HW129714   0.116   5.151   3.893
 9605SOL    HW229715   0.141   5.295   3.966
 9606SOL     OW29716   2.138   6.541   6.329
 9606SOL    HW129717   2.191   6.581   6.254
 9606SOL    HW229718   2.103   6.451   6.302
 9607SOL     OW29719   1.494   1.443   0.579
 9607SOL    HW129720   1.476   1.355   0.535
 9607SOL    HW229721   1.421   1.464   0.643
 9608SOL     OW29722   6.818   6.430   2.298
 9608SOL    HW129723   6.839   6.511   2.353
 9608SOL    HW229724   6.899   6.371   2.294
 9609SOL     OW29725   2.295   4.072   6.307
 9609SOL    HW129726   2.294   4.146   6.240
 9609SOL    HW229727   2.355   3.999   6.274
 9610SOL     OW29728   1.795   4.921   4.061
 9610SOL    HW129729   1.768   4.961   3.973
 9610SOL    HW229730   1.750   4.972   4.135
 9611SOL     OW29731   0.340   6.737   6.393
 9611SOL    HW129732   0.275   6.708   6.324
 9611SOL    HW229733   0.388   6.657   6.429
 9612SOL     OW29734   0.625   3.755   1.896
 9612SOL    HW129735   0.671   3.754   1.985
 9612SOL    HW229736   0.688   3.789   1.826
 9613SOL     OW29737   4.375   6.247   3.900
 9613SOL    HW129738   4.328   6.321   3.851
 9613SOL    HW229739   4.414   6.182   3.835
 9614SOL     OW29740   3.986   2.417   0.543
 9614SOL    HW129741   4.084   2.428   0.558
 9614SOL    HW229742   3.936   2.436   0.627
 9615SOL     OW29743   0.708   6.866   1.269
 9615SOL    HW129744   0.621   6.866   1.319
 9615SOL    HW229745   0.689   6.878   1.171
 9616SOL     OW29746   4.638   3.559   1.114
 9616SOL    HW129747   4.539   3.564   1.110
 9616SOL    HW229748   4.669   3.472   1.076
 9617SOL     OW29749   1.677   3.358   4.055
 9617SOL    HW129750   1.747   3.429   4.046
 9617SOL    HW229751   1.616   3.381   4.131
 9618SOL     OW29752   3.723   6.987   5.440
 9618SOL    HW129753   3.688   7.009   5.531
 9618SOL    HW229754   3.822   7.000   5.438
 9619SOL     OW29755   0.474   6.840   0.251
 9619SOL    HW129756   0.551   6.777   0.259
 9619SOL    HW229757   0.506   6.925   0.209
 9620SOL     OW29758   4.536   2.767   0.094
 9620SOL    HW129759   4.515   2.673   0.066
 9620SOL    HW229760   4.451   2.821   0.094
 9621SOL     OW29761   0.778   0.849   2.700
 9621SOL    HW129762   0.730   0.910   2.637
 9621SOL    HW229763   0.848   0.901   2.750
 9622SOL     OW29764   6.158   0.541   6.918
 9622SOL    HW129765   6.085   0.496   6.969
 9622SOL    HW229766   6.246   0.504   6.947
 9623SOL     OW29767   4.120   4.882   5.418
 9623SOL    HW129768   4.058   4.948   5.375
 9623SOL    HW229769   4.135   4.805   5.355
 9624SOL     OW29770   6.046   4.403   3.731
 9624SOL    HW129771   5.995   4.359   3.804
 9624SOL    HW229772   6.143   4.407   3.755
 9625SOL     OW29773   4.933   5.533   6.891
 9625SOL    HW129774   4.867   5.458   6.898
 9625SOL    HW229775   4.977   5.546   6.980
 9626SOL     OW29776   2.374   6.506   0.356
 9626SOL    HW129777   2.370   6.566   0.436
 9626SOL    HW229778   2.381   6.411   0.387
 9627SOL     OW29779   6.888   3.920   3.157
 9627SOL    HW129780   6.808   3.886   3.206
 9627SOL    HW229781   6.909   3.860   3.080
 9628SOL     OW29782   6.681   4.734   6.990
 9628SOL    HW129783   6.595   4.713   0.014
 9628SOL    HW229784   6.678   4.699   6.896
 9629SOL     OW29785   0.069   6.996   3.176
 9629SOL    HW129786   0.041   0.060   3.216
 9629SOL    HW229787   0.160   7.005   3.136
 9630SOL     OW29788   5.825   6.411   4.923
 9630SOL    HW129789   5.838   6.453   5.013
 9630SOL    HW229790   5.756   6.463   4.872
 9631SOL     OW29791   5.922   0.812   6.863
 9631SOL    HW129792   5.936   0.763   6.948
 9631SOL    HW229793   5.983   0.891   6.859
 9632SOL     OW29794   2.439   5.424   2.324
 9632SOL    HW129795   2.421   5.338   2.371
 9632SOL    HW229796   2.502   5.479   2.379
 9633SOL     OW29797   5.357   4.874   7.018
 9633SOL    HW129798   5.337   4.893   0.091
 9633SOL    HW229799   5.449   4.906   6.995
 9634SOL     OW29800   0.782   6.450   4.517
 9634SOL    HW129801   0.753   6.440   4.422
 9634SOL    HW229802   0.702   6.444   4.577
 9635SOL     OW29803   2.456   4.634   5.463
 9635SOL    HW129804   2.480   4.603   5.555
 9635SOL    HW229805   2.467   4.559   5.398
 9636SOL     OW29806   3.977   1.751   6.053
 9636SOL    HW129807   3.932   1.840   6.049
 9636SOL    HW229808   4.017   1.737   6.143
 9637SOL     OW29809   2.556   2.293   0.363
 9637SOL    HW129810   2.569   2.378   0.313
 9637SOL    HW229811   2.574   2.216   0.301
 9638SOL     OW29812   6.854   3.922   6.476
 9638SOL    HW129813   6.875   3.827   6.498
 9638SOL    HW229814   6.886   3.981   6.550
 9639SOL     OW29815   4.777   1.906   1.887
 9639SOL    HW129816   4.677   1.906   1.900
 9639SOL    HW229817   4.817   1.981   1.940
 9640SOL     OW29818   3.023   1.211   2.837
 9640SOL    HW129819   3.017   1.298   2.789
 9640SOL    HW229820   2.931   1.176   2.856
 9641SOL     OW29821   5.223   5.843   1.067
 9641SOL    HW129822   5.228   5.867   1.164
 9641SOL    HW229823   5.128   5.825   1.042
 9642SOL     OW29824   2.126   5.623   4.769
 9642SOL    HW129825   2.128   5.595   4.673
 9642SOL    HW229826   2.087   5.714   4.777
 9643SOL     OW29827   6.182   4.671   3.967
 9643SOL    HW129828   6.096   4.720   3.951
 9643SOL    HW229829   6.204   4.616   3.887
 9644SOL     OW29830   0.257   4.956   4.610
 9644SOL    HW129831   0.240   5.028   4.544
 9644SOL    HW229832   0.202   4.972   4.692
 9645SOL     OW29833   2.963   4.871   3.632
 9645SOL    HW129834   3.034   4.838   3.570
 9645SOL    HW229835   3.000   4.944   3.689
 9646SOL     OW29836   2.665   4.674   2.088
 9646SOL    HW129837   2.734   4.641   2.024
 9646SOL    HW229838   2.700   4.668   2.181
 9647SOL     OW29839   0.855   5.338   1.739
 9647SOL    HW129840   0.921   5.367   1.809
 9647SOL    HW229841   0.887   5.254   1.696
 9648SOL     OW29842   3.697   2.433   0.158
 9648SOL    HW129843   3.636   2.506   0.188
 9648SOL    HW229844   3.679   2.413   0.062
 9649SOL     OW29845   2.540   4.831   6.622
 9649SOL    HW129846   2.598   4.822   6.702
 9649SOL    HW229847   2.554   4.921   6.581
 9650SOL     OW29848   4.871   4.544   3.077
 9650SOL    HW129849   4.815   4.469   3.041
 9650SOL    HW229850   4.962   4.509   3.098
 9651SOL     OW29851   6.099   0.879   0.476
 9651SOL    HW129852   6.058   0.898   0.565
 9651SOL    HW229853   6.141   0.962   0.439
 9652SOL     OW29854   2.450   4.266   1.035
 9652SOL    HW129855   2.515   4.278   0.960
 9652SOL    HW229856   2.357   4.256   0.997
 9653SOL     OW29857   4.103   5.302   5.232
 9653SOL    HW129858   4.057   5.221   5.267
 9653SOL    HW229859   4.199   5.281   5.213
 9654SOL     OW29860   3.860   3.380   2.237
 9654SOL    HW129861   3.954   3.346   2.246
 9654SOL    HW229862   3.851   3.428   2.149
 9655SOL     OW29863   6.883   1.698   0.056
 9655SOL    HW129864   6.932   1.632   0.114
 9655SOL    HW229865   6.919   1.693   6.986
 9656SOL     OW29866   4.380   1.797   0.946
 9656SOL    HW129867   4.299   1.760   0.900
 9656SOL    HW229868   4.367   1.792   1.045
 9657SOL     OW29869   6.411   2.588   3.934
 9657SOL    HW129870   6.447   2.509   3.884
 9657SOL    HW229871   6.316   2.605   3.906
 9658SOL     OW29872   5.564   2.168   2.588
 9658SOL    HW129873   5.507   2.244   2.560
 9658SOL    HW229874   5.508   2.086   2.601
 9659SOL     OW29875   6.779   2.869   0.422
 9659SOL    HW129876   6.811   2.831   0.508
 9659SOL    HW229877   6.757   2.795   0.358
 9660SOL     OW29878   0.355   6.600   2.286
 9660SOL    HW129879   0.322   6.694   2.281
 9660SOL    HW229880   0.351   6.568   2.381
 9661SOL     OW29881   3.653   6.208   1.527
 9661SOL    HW129882   3.682   6.118   1.494
 9661SOL    HW229883   3.572   6.198   1.585
 9662SOL     OW29884   4.348   2.767   5.324
 9662SOL    HW129885   4.254   2.736   5.313
 9662SOL    HW229886   4.403   2.738   5.246
 9663SOL     OW29887   6.404   6.688   3.330
 9663SOL    HW129888   6.444   6.776   3.306
 9663SOL    HW229889   6.308   6.687   3.305
 9664SOL     OW29890   5.112   6.315   4.465
 9664SOL    HW129891   5.163   6.386   4.417
 9664SOL    HW229892   5.141   6.312   4.561
 9665SOL     OW29893   5.701   6.389   6.902
 9665SOL    HW129894   5.700   6.289   6.894
 9665SOL    HW229895   5.608   6.422   6.921
 9666SOL     OW29896   6.798   3.848   2.139
 9666SOL    HW129897   6.775   3.812   2.230
 9666SOL    HW229898   6.761   3.940   2.130
 9667SOL     OW29899   3.920   3.590   5.793
 9667SOL    HW129900   3.887   3.681   5.818
 9667SOL    HW229901   3.845   3.525   5.797
 9668SOL     OW29902   0.072   0.648   6.265
 9668SOL    HW129903   0.074   0.684   6.358
 9668SOL    HW229904   7.002   0.616   6.245
 9669SOL     OW29905   1.944   0.358   2.398
 9669SOL    HW129906   1.893   0.312   2.472
 9669SOL    HW229907   1.969   0.291   2.329
 9670SOL     OW29908   6.426   4.638   6.880
 9670SOL    HW129909   6.450   4.729   6.846
 9670SOL    HW229910   6.391   4.582   6.805
 9671SOL     OW29911   6.533   4.524   0.260
 9671SOL    HW129912   6.437   4.544   0.246
 9671SOL    HW229913   6.550   4.426   0.245
 9672SOL     OW29914   1.612   5.563   3.385
 9672SOL    HW129915   1.699   5.518   3.364
 9672SOL    HW229916   1.554   5.502   3.439
 9673SOL     OW29917   5.234   3.888   0.694
 9673SOL    HW129918   5.330   3.912   0.685
 9673SOL    HW229919   5.217   3.800   0.650
 9674SOL     OW29920   2.042   0.150   2.817
 9674SOL    HW129921   2.046   0.179   2.722
 9674SOL    HW229922   2.041   0.050   2.821
 9675SOL     OW29923   5.879   2.691   0.785
 9675SOL    HW129924   5.795   2.728   0.745
 9675SOL    HW229925   5.894   2.598   0.750
 9676SOL     OW29926   1.927   3.862   5.399
 9676SOL    HW129927   1.920   3.826   5.306
 9676SOL    HW229928   1.835   3.873   5.438
 9677SOL     OW29929   0.572   5.440   5.129
 9677SOL    HW129930   0.618   5.479   5.208
 9677SOL    HW229931   0.626   5.362   5.094
 9678SOL     OW29932   3.337   3.892   3.193
 9678SOL    HW129933   3.301   3.916   3.283
 9678SOL    HW229934   3.313   3.797   3.172
 9679SOL     OW29935   2.741   1.221   2.912
 9679SOL    HW129936   2.717   1.230   3.008
 9679SOL    HW229937   2.668   1.172   2.864
 9680SOL     OW29938   4.530   1.061   3.054
 9680SOL    HW129939   4.483   1.126   3.114
 9680SOL    HW229940   4.469   1.033   2.980
 9681SOL     OW29941   3.189   1.520   0.309
 9681SOL    HW129942   3.206   1.424   0.330
 9681SOL    HW229943   3.246   1.548   0.231
 9682SOL     OW29944   5.251   4.645   3.614
 9682SOL    HW129945   5.271   4.670   3.519
 9682SOL    HW229946   5.325   4.590   3.650
 9683SOL     OW29947   2.981   5.227   0.352
 9683SOL    HW129948   3.020   5.147   0.398
 9683SOL    HW229949   3.056   5.283   0.316
 9684SOL     OW29950   0.387   3.256   5.629
 9684SOL    HW129951   0.330   3.259   5.547
 9684SOL    HW229952   0.332   3.221   5.706
 9685SOL     OW29953   3.138   5.128   0.785
 9685SOL    HW129954   3.207   5.186   0.829
 9685SOL    HW229955   3.178   5.039   0.763
 9686SOL     OW29956   6.663   1.639   6.894
 9686SOL    HW129957   6.638   1.733   6.868
 9686SOL    HW229958   6.737   1.642   6.961
 9687SOL     OW29959   1.641   0.783   3.997
 9687SOL    HW129960   1.736   0.814   4.003
 9687SOL    HW229961   1.639   0.683   3.991
 9688SOL     OW29962   0.566   3.218   2.847
 9688SOL    HW129963   0.614   3.253   2.928
 9688SOL    HW229964   0.552   3.293   2.782
 9689SOL     OW29965   0.998   4.935   6.370
 9689SOL    HW129966   1.077   4.888   6.410
 9689SOL    HW229967   0.928   4.867   6.347
 9690SOL     OW29968   5.495   5.261   0.338
 9690SOL    HW129969   5.441   5.248   0.256
 9690SOL    HW229970   5.584   5.216   0.328
 9691SOL     OW29971   2.925   5.277   0.669
 9691SOL    HW129972   2.832   5.250   0.644
 9691SOL    HW229973   2.964   5.209   0.731
 9692SOL     OW29974   3.840   5.286   2.856
 9692SOL    HW129975   3.886   5.248   2.776
 9692SOL    HW229976   3.745   5.253   2.858
 9693SOL     OW29977   6.465   5.015   2.208
 9693SOL    HW129978   6.533   5.051   2.144
 9693SOL    HW229979   6.390   4.972   2.157
 9694SOL     OW29980   2.628   0.874   0.712
 9694SOL    HW129981   2.668   0.889   0.802
 9694SOL    HW229982   2.635   0.957   0.658
 9695SOL     OW29983   7.017   3.200   2.698
 9695SOL    HW129984   6.953   3.228   2.769
 9695SOL    HW229985   0.016   3.279   2.640
 9696SOL     OW29986   5.612   3.805   0.937
 9696SOL    HW129987   5.556   3.860   0.999
 9696SOL    HW229988   5.571   3.807   0.846
 9697SOL     OW29989   0.610   5.461   6.799
 9697SOL    HW129990   0.555   5.419   6.726
 9697SOL    HW229991   0.562   5.540   6.835
 9698SOL     OW29992   4.619   1.606   5.781
 9698SOL    HW129993   4.653   1.700   5.778
 9698SOL    HW229994   4.603   1.573   5.688
 9699SOL     OW29995   6.950   5.163   6.618
 9699SOL    HW129996   6.912   5.251   6.645
 9699SOL    HW229997   6.991   5.119   6.698
 9700SOL     OW29998   4.658   5.468   4.957
 9700SOL    HW129999   4.752   5.462   4.923
 9700SOL    HW230000   4.634   5.383   5.004
 9701SOL     OW30001   4.343   5.012   5.512
 9701SOL    HW130002   4.260   4.971   5.476
 9701SOL    HW230003   4.410   4.940   5.531
 9702SOL     OW30004   4.662   0.332   6.808
 9702SOL    HW130005   4.727   0.372   6.744
 9702SOL    HW230006   4.621   0.405   6.864
 9703SOL     OW30007   4.655   4.335   3.399
 9703SOL    HW130008   4.691   4.246   3.427
 9703SOL    HW230009   4.617   4.382   3.479
 9704SOL     OW30010   3.554   1.299   2.999
 9704SOL    HW130011   3.528   1.274   3.092
 9704SOL    HW230012   3.477   1.345   2.954
 9705SOL     OW30013   5.896   4.732   6.183
 9705SOL    HW130014   5.820   4.671   6.205
 9705SOL    HW230015   5.926   4.780   6.265
 9706SOL     OW30016   1.084   3.710   0.411
 9706SOL    HW130017   1.083   3.671   0.503
 9706SOL    HW230018   1.010   3.670   0.357
 9707SOL     OW30019   0.061   4.869   2.336
 9707SOL    HW130020   7.007   4.920   2.295
 9707SOL    HW230021   0.139   4.931   2.346
 9708SOL     OW30022   1.425   2.061   2.674
 9708SOL    HW130023   1.334   2.070   2.633
 9708SOL    HW230024   1.427   1.980   2.733
 9709SOL     OW30025   6.245   6.402   3.656
 9709SOL    HW130026   6.263   6.490   3.700
 9709SOL    HW230027   6.151   6.401   3.620
 9710SOL     OW30028   6.639   0.950   1.881
 9710SOL    HW130029   6.572   0.936   1.954
 9710SOL    HW230030   6.731   0.934   1.918
 9711SOL     OW30031   2.484   5.524   5.846
 9711SOL    HW130032   2.419   5.542   5.772
 9711SOL    HW230033   2.568   5.486   5.808
 9712SOL     OW30034   5.815   3.888   0.007
 9712SOL    HW130035   5.809   3.804   6.976
 9712SOL    HW230036   5.911   3.910   0.024
 9713SOL     OW30037   1.096   4.679   3.423
 9713SOL    HW130038   1.007   4.634   3.430
 9713SOL    HW230039   1.156   4.647   3.496
 9714SOL     OW30040   3.333   7.018   6.958
 9714SOL    HW130041   3.382   6.931   6.968
 9714SOL    HW230042   3.395   0.065   6.924
 9715SOL     OW30043   5.358   3.683   6.436
 9715SOL    HW130044   5.322   3.633   6.514
 9715SOL    HW230045   5.315   3.650   6.352
 9716SOL     OW30046   4.089   3.658   0.246
 9716SOL    HW130047   3.996   3.662   0.211
 9716SOL    HW230048   4.153   3.682   0.173
 9717SOL     OW30049   5.466   6.498   6.651
 9717SOL    HW130050   5.460   6.589   6.608
 9717SOL    HW230051   5.477   6.509   6.750
 9718SOL     OW30052   4.507   2.588   0.582
 9718SOL    HW130053   4.527   2.499   0.624
 9718SOL    HW230054   4.420   2.582   0.533
 9719SOL     OW30055   6.630   1.740   5.774
 9719SOL    HW130056   6.613   1.657   5.721
 9719SOL    HW230057   6.648   1.715   5.869
 9720SOL     OW30058   0.130   5.355   2.494
 9720SOL    HW130059   0.099   5.428   2.433
 9720SOL    HW230060   0.179   5.395   2.572
 9721SOL     OW30061   7.014   1.892   1.039
 9721SOL    HW130062   0.038   1.840   0.969
 9721SOL    HW230063   0.031   1.984   1.045
 9722SOL     OW30064   6.414   0.765   4.411
 9722SOL    HW130065   6.416   0.691   4.343
 9722SOL    HW230066   6.406   0.726   4.503
 9723SOL     OW30067   1.963   6.868   2.744
 9723SOL    HW130068   2.002   6.824   2.663
 9723SOL    HW230069   1.875   6.909   2.721
 9724SOL     OW30070   1.573   4.659   0.433
 9724SOL    HW130071   1.668   4.629   0.425
 9724SOL    HW230072   1.571   4.753   0.469
 9725SOL     OW30073   3.818   4.911   6.375
 9725SOL    HW130074   3.876   4.880   6.299
 9725SOL    HW230075   3.823   4.844   6.449
 9726SOL     OW30076   4.965   1.386   4.357
 9726SOL    HW130077   5.062   1.405   4.373
 9726SOL    HW230078   4.947   1.289   4.373
 9727SOL     OW30079   1.260   3.934   6.128
 9727SOL    HW130080   1.356   3.948   6.153
 9727SOL    HW230081   1.250   3.847   6.080
 9728SOL     OW30082   0.131   0.553   5.593
 9728SOL    HW130083   0.227   0.559   5.622
 9728SOL    HW230084   0.092   0.645   5.588
 9729SOL     OW30085   1.083   3.874   3.696
 9729SOL    HW130086   1.147   3.937   3.740
 9729SOL    HW230087   1.078   3.895   3.598
 9730SOL     OW30088   1.208   3.324   3.655
 9730SOL    HW130089   1.140   3.292   3.720
 9730SOL    HW230090   1.294   3.345   3.702
 9731SOL     OW30091   4.905   4.543   1.085
 9731SOL    HW130092   4.854   4.525   1.169
 9731SOL    HW230093   4.972   4.470   1.069
 9732SOL     OW30094   6.543   5.948   3.384
 9732SOL    HW130095   6.481   5.870   3.374
 9732SOL    HW230096   6.631   5.915   3.418
 9733SOL     OW30097   5.798   4.957   0.750
 9733SOL    HW130098   5.867   4.905   0.700
 9733SOL    HW230099   5.785   4.918   0.841
 9734SOL     OW30100   6.375   1.625   2.175
 9734SOL    HW130101   6.459   1.673   2.203
 9734SOL    HW230102   6.353   1.650   2.081
 9735SOL     OW30103   2.472   4.483   3.860
 9735SOL    HW130104   2.423   4.547   3.800
 9735SOL    HW230105   2.507   4.532   3.940
 9736SOL     OW30106   6.458   1.524   6.630
 9736SOL    HW130107   6.422   1.444   6.582
 9736SOL    HW230108   6.548   1.547   6.593
 9737SOL     OW30109   5.689   2.526   3.469
 9737SOL    HW130110   5.662   2.576   3.387
 9737SOL    HW230111   5.634   2.443   3.478
 9738SOL     OW30112   1.214   6.995   1.113
 9738SOL    HW130113   1.210   6.895   1.112
 9738SOL    HW230114   1.221   0.006   1.019
 9739SOL     OW30115   6.219   4.885   2.131
 9739SOL    HW130116   6.176   4.907   2.218
 9739SOL    HW230117   6.152   4.844   2.069
 9740SOL     OW30118   6.354   1.591   3.064
 9740SOL    HW130119   6.392   1.549   2.982
 9740SOL    HW230120   6.258   1.614   3.048
 9741SOL     OW30121   3.882   1.119   3.015
 9741SOL    HW130122   3.868   1.030   3.058
 9741SOL    HW230123   3.876   1.110   2.916
 9742SOL     OW30124   4.513   6.959   0.646
 9742SOL    HW130125   4.471   7.012   0.572
 9742SOL    HW230126   4.503   6.861   0.627
 9743SOL     OW30127   0.197   2.118   5.501
 9743SOL    HW130128   0.097   2.122   5.499
 9743SOL    HW230129   0.234   2.197   5.451
 9744SOL     OW30130   0.849   6.794   2.655
 9744SOL    HW130131   0.840   6.754   2.564
 9744SOL    HW230132   0.808   6.885   2.656
 9745SOL     OW30133   5.394   2.882   5.612
 9745SOL    HW130134   5.370   2.948   5.541
 9745SOL    HW230135   5.490   2.894   5.637
 9746SOL     OW30136   6.473   0.274   5.752
 9746SOL    HW130137   6.516   0.364   5.752
 9746SOL    HW230138   6.530   0.209   5.702
 9747SOL     OW30139   2.177   1.234   1.409
 9747SOL    HW130140   2.179   1.136   1.390
 9747SOL    HW230141   2.193   1.285   1.325
 9748SOL     OW30142   0.649   1.506   3.160
 9748SOL    HW130143   0.739   1.479   3.126
 9748SOL    HW230144   0.579   1.451   3.113
 9749SOL     OW30145   2.423   1.393   5.028
 9749SOL    HW130146   2.449   1.317   5.088
 9749SOL    HW230147   2.375   1.357   4.948
 9750SOL     OW30148   5.481   4.522   3.680
 9750SOL    HW130149   5.493   4.424   3.662
 9750SOL    HW230150   5.551   4.553   3.744
 9751SOL     OW30151   0.624   1.037   1.048
 9751SOL    HW130152   0.535   1.083   1.044
 9751SOL    HW230153   0.697   1.103   1.032
 9752SOL     OW30154   4.822   1.756   5.607
 9752SOL    HW130155   4.893   1.730   5.542
 9752SOL    HW230156   4.772   1.836   5.573
 9753SOL     OW30157   5.477   5.832   5.676
 9753SOL    HW130158   5.481   5.932   5.670
 9753SOL    HW230159   5.565   5.797   5.708
 9754SOL     OW30160   0.848   1.104   6.214
 9754SOL    HW130161   0.854   1.204   6.212
 9754SOL    HW230162   0.835   1.073   6.308
 9755SOL     OW30163   4.024   3.131   4.510
 9755SOL    HW130164   4.042   3.128   4.411
 9755SOL    HW230165   4.007   3.226   4.537
 9756SOL     OW30166   6.533   3.706   0.521
 9756SOL    HW130167   6.505   3.801   0.538
 9756SOL    HW230168   6.509   3.649   0.599
 9757SOL     OW30169   5.786   3.644   3.983
 9757SOL    HW130170   5.759   3.556   4.023
 9757SOL    HW230171   5.874   3.634   3.937
 9758SOL     OW30172   2.347   6.704   6.885
 9758SOL    HW130173   2.284   6.742   6.817
 9758SOL    HW230174   2.441   6.715   6.854
 9759SOL     OW30175   1.699   6.954   6.815
 9759SOL    HW130176   1.704   6.957   6.715
 9759SOL    HW230177   1.675   6.861   6.844
 9760SOL     OW30178   4.410   2.457   4.786
 9760SOL    HW130179   4.467   2.518   4.841
 9760SOL    HW230180   4.323   2.442   4.832
 9761SOL     OW30181   5.442   1.131   2.504
 9761SOL    HW130182   5.436   1.065   2.579
 9761SOL    HW230183   5.533   1.128   2.464
 9762SOL     OW30184   3.426   1.306   4.142
 9762SOL    HW130185   3.432   1.378   4.211
 9762SOL    HW230186   3.356   1.329   4.075
 9763SOL     OW30187   5.351   2.464   2.029
 9763SOL    HW130188   5.251   2.460   2.022
 9763SOL    HW230189   5.392   2.427   1.945
 9764SOL     OW30190   0.320   2.760   2.965
 9764SOL    HW130191   0.301   2.680   2.909
 9764SOL    HW230192   0.272   2.840   2.928
 9765SOL     OW30193   6.509   1.514   3.295
 9765SOL    HW130194   6.459   1.565   3.225
 9765SOL    HW230195   6.514   1.418   3.269
 9766SOL     OW30196   2.599   0.120   2.963
 9766SOL    HW130197   2.620   0.024   2.948
 9766SOL    HW230198   2.505   0.138   2.935
 9767SOL     OW30199   5.154   1.252   5.330
 9767SOL    HW130200   5.094   1.194   5.386
 9767SOL    HW230201   5.222   1.195   5.284
 9768SOL     OW30202   5.383   1.944   2.634
 9768SOL    HW130203   5.298   1.995   2.643
 9768SOL    HW230204   5.365   1.854   2.595
 9769SOL     OW30205   2.937   1.024   2.623
 9769SOL    HW130206   2.978   1.108   2.658
 9769SOL    HW230207   2.852   1.045   2.575
 9770SOL     OW30208   5.706   6.831   6.882
 9770SOL    HW130209   5.768   6.761   6.847
 9770SOL    HW230210   5.733   6.856   6.974
 9771SOL     OW30211   2.941   5.501   0.474
 9771SOL    HW130212   2.990   5.505   0.561
 9771SOL    HW230213   2.879   5.423   0.475
 9772SOL     OW30214   1.392   6.193   2.595
 9772SOL    HW130215   1.300   6.187   2.633
 9772SOL    HW230216   1.457   6.213   2.669
 9773SOL     OW30217   5.467   5.582   4.346
 9773SOL    HW130218   5.479   5.527   4.429
 9773SOL    HW230219   5.545   5.567   4.285
 9774SOL     OW30220   0.382   5.034   1.804
 9774SOL    HW130221   0.452   4.963   1.814
 9774SOL    HW230222   0.412   5.101   1.737
 9775SOL     OW30223   2.057   0.563   3.512
 9775SOL    HW130224   2.019   0.533   3.425
 9775SOL    HW230225   2.125   0.634   3.495
 9776SOL     OW30226   1.182   4.659   3.912
 9776SOL    HW130227   1.180   4.632   4.008
 9776SOL    HW230228   1.195   4.579   3.855
 9777SOL     OW30229   5.851   4.925   5.963
 9777SOL    HW130230   5.928   4.890   5.909
 9777SOL    HW230231   5.819   4.854   6.026
 9778SOL     OW30232   0.488   0.826   3.686
 9778SOL    HW130233   0.566   0.845   3.627
 9778SOL    HW230234   0.427   0.761   3.640
 9779SOL     OW30235   1.816   1.337   5.010
 9779SOL    HW130236   1.823   1.376   4.918
 9779SOL    HW230237   1.857   1.399   5.076
 9780SOL     OW30238   2.871   1.879   1.192
 9780SOL    HW130239   2.965   1.876   1.225
 9780SOL    HW230240   2.814   1.926   1.259
 9781SOL     OW30241   1.706   3.673   4.331
 9781SOL    HW130242   1.707   3.663   4.232
 9781SOL    HW230243   1.642   3.746   4.357
 9782SOL     OW30244   6.714   0.945   1.447
 9782SOL    HW130245   6.650   0.878   1.484
 9782SOL    HW230246   6.663   1.025   1.414
 9783SOL     OW30247   5.059   1.735   3.048
 9783SOL    HW130248   5.089   1.657   3.103
 9783SOL    HW230249   4.960   1.747   3.059
 9784SOL     OW30250   4.113   1.523   4.674
 9784SOL    HW130251   4.074   1.547   4.585
 9784SOL    HW230252   4.074   1.437   4.705
 9785SOL     OW30253   0.810   3.406   5.967
 9785SOL    HW130254   0.832   3.472   5.894
 9785SOL    HW230255   0.752   3.334   5.930
 9786SOL     OW30256   2.743   4.214   6.908
 9786SOL    HW130257   2.706   4.135   6.859
 9786SOL    HW230258   2.775   4.186   6.998
 9787SOL     OW30259   4.763   3.677   1.806
 9787SOL    HW130260   4.786   3.752   1.868
 9787SOL    HW230261   4.757   3.713   1.712
 9788SOL     OW30262   0.477   0.515   3.421
 9788SOL    HW130263   0.451   0.444   3.355
 9788SOL    HW230264   0.554   0.482   3.476
 9789SOL     OW30265   1.238   5.527   0.683
 9789SOL    HW130266   1.308   5.523   0.612
 9789SOL    HW230267   1.277   5.566   0.766
 9790SOL     OW30268   6.074   4.358   6.058
 9790SOL    HW130269   6.077   4.458   6.051
 9790SOL    HW230270   6.040   4.333   6.149
 9791SOL     OW30271   0.433   1.051   3.190
 9791SOL    HW130272   0.362   0.997   3.236
 9791SOL    HW230273   0.515   0.995   3.178
 9792SOL     OW30274   5.136   5.302   1.737
 9792SOL    HW130275   5.049   5.255   1.746
 9792SOL    HW230276   5.123   5.400   1.749
 9793SOL     OW30277   5.206   5.855   3.536
 9793SOL    HW130278   5.214   5.775   3.477
 9793SOL    HW230279   5.137   5.917   3.500
 9794SOL     OW30280   6.973   4.143   0.837
 9794SOL    HW130281   6.932   4.062   0.794
 9794SOL    HW230282   6.903   4.195   0.885
 9795SOL     OW30283   2.168   1.947   4.304
 9795SOL    HW130284   2.199   1.909   4.217
 9795SOL    HW230285   2.077   1.912   4.325
 9796SOL     OW30286   4.567   2.495   1.480
 9796SOL    HW130287   4.509   2.475   1.560
 9796SOL    HW230288   4.528   2.573   1.431
 9797SOL     OW30289   2.613   5.257   6.722
 9797SOL    HW130290   2.653   5.346   6.701
 9797SOL    HW230291   2.683   5.186   6.712
 9798SOL     OW30292   2.744   0.353   1.494
 9798SOL    HW130293   2.726   0.257   1.473
 9798SOL    HW230294   2.717   0.373   1.588
 9799SOL     OW30295   3.516   4.097   3.732
 9799SOL    HW130296   3.461   4.014   3.726
 9799SOL    HW230297   3.540   4.128   3.640
 9800SOL     OW30298   3.613   6.490   4.681
 9800SOL    HW130299   3.517   6.493   4.653
 9800SOL    HW230300   3.630   6.407   4.735
 9801SOL     OW30301   4.719   3.513   0.436
 9801SOL    HW130302   4.641   3.517   0.374
 9801SOL    HW230303   4.785   3.446   0.403
 9802SOL     OW30304   0.904   3.037   1.765
 9802SOL    HW130305   0.960   3.030   1.848
 9802SOL    HW230306   0.870   2.946   1.740
 9803SOL     OW30307   0.303   2.354   6.563
 9803SOL    HW130308   0.359   2.411   6.624
 9803SOL    HW230309   0.210   2.390   6.560
 9804SOL     OW30310   0.910   6.802   3.076
 9804SOL    HW130311   0.955   6.713   3.076
 9804SOL    HW230312   0.849   6.809   2.998
 9805SOL     OW30313   0.809   0.173   5.463
 9805SOL    HW130314   0.781   0.148   5.556
 9805SOL    HW230315   0.791   0.270   5.448
 9806SOL     OW30316   1.461   1.160   0.586
 9806SOL    HW130317   1.486   1.066   0.565
 9806SOL    HW230318   1.437   1.167   0.683
 9807SOL     OW30319   2.364   3.095   0.037
 9807SOL    HW130320   2.337   3.172   0.095
 9807SOL    HW230321   2.325   3.010   0.071
 9808SOL     OW30322   4.405   0.672   5.262
 9808SOL    HW130323   4.470   0.596   5.269
 9808SOL    HW230324   4.430   0.730   5.185
 9809SOL     OW30325   0.783   2.054   6.999
 9809SOL    HW130326   0.881   2.053   7.020
 9809SOL    HW230327   0.733   2.083   0.057
 9810SOL     OW30328   2.387   2.729   3.763
 9810SOL    HW130329   2.296   2.690   3.748
 9810SOL    HW230330   2.415   2.713   3.857
 9811SOL     OW30331   5.876   5.242   3.929
 9811SOL    HW130332   5.946   5.195   3.982
 9811SOL    HW230333   5.879   5.340   3.948
 9812SOL     OW30334   3.246   2.277   5.747
 9812SOL    HW130335   3.314   2.276   5.821
 9812SOL    HW230336   3.194   2.362   5.750
 9813SOL     OW30337   5.987   0.556   6.444
 9813SOL    HW130338   5.934   0.608   6.510
 9813SOL    HW230339   5.980   0.599   6.354
 9814SOL     OW30340   0.731   0.557   0.636
 9814SOL    HW130341   0.666   0.554   0.712
 9814SOL    HW230342   0.763   0.465   0.616
 9815SOL     OW30343   5.983   4.174   2.874
 9815SOL    HW130344   5.988   4.245   2.944
 9815SOL    HW230345   6.005   4.085   2.915
 9816SOL     OW30346   6.921   1.561   6.214
 9816SOL    HW130347   6.939   1.565   6.116
 9816SOL    HW230348   6.995   1.608   6.263
 9817SOL     OW30349   2.418   6.307   2.672
 9817SOL    HW130350   2.322   6.301   2.647
 9817SOL    HW230351   2.465   6.223   2.643
 9818SOL     OW30352   1.502   0.731   4.671
 9818SOL    HW130353   1.472   0.719   4.766
 9818SOL    HW230354   1.576   0.797   4.668
 9819SOL     OW30355   5.210   3.061   4.024
 9819SOL    HW130356   5.184   2.966   4.039
 9819SOL    HW230357   5.248   3.099   4.108
 9820SOL     OW30358   4.297   3.513   6.235
 9820SOL    HW130359   4.264   3.607   6.225
 9820SOL    HW230360   4.366   3.495   6.166
 9821SOL     OW30361   5.087   0.724   0.899
 9821SOL    HW130362   5.054   0.744   0.807
 9821SOL    HW230363   5.013   0.684   0.953
 9822SOL     OW30364   2.601   5.967   3.405
 9822SOL    HW130365   2.550   5.915   3.474
 9822SOL    HW230366   2.580   5.932   3.314
 9823SOL     OW30367   2.341   0.426   1.507
 9823SOL    HW130368   2.401   0.348   1.488
 9823SOL    HW230369   2.394   0.501   1.546
 9824SOL     OW30370   1.643   5.521   4.222
 9824SOL    HW130371   1.712   5.592   4.240
 9824SOL    HW230372   1.557   5.565   4.196
 9825SOL     OW30373   5.095   6.627   4.134
 9825SOL    HW130374   5.057   6.717   4.156
 9825SOL    HW230375   5.111   6.621   4.035
 9826SOL     OW30376   3.765   6.129   5.233
 9826SOL    HW130377   3.665   6.119   5.238
 9826SOL    HW230378   3.807   6.038   5.234
 9827SOL     OW30379   1.769   3.592   3.211
 9827SOL    HW130380   1.777   3.524   3.138
 9827SOL    HW230381   1.778   3.546   3.300
 9828SOL     OW30382   3.348   2.580   5.286
 9828SOL    HW130383   3.292   2.508   5.245
 9828SOL    HW230384   3.346   2.572   5.386
 9829SOL     OW30385   4.683   5.978   6.288
 9829SOL    HW130386   4.654   5.919   6.212
 9829SOL    HW230387   4.603   6.015   6.334
 9830SOL     OW30388   5.446   1.664   1.953
 9830SOL    HW130389   5.392   1.623   1.880
 9830SOL    HW230390   5.533   1.615   1.961
 9831SOL     OW30391   1.042   5.085   2.817
 9831SOL    HW130392   1.128   5.137   2.821
 9831SOL    HW230393   1.035   5.027   2.898
 9832SOL     OW30394   5.085   5.388   2.504
 9832SOL    HW130395   5.008   5.429   2.454
 9832SOL    HW230396   5.070   5.289   2.510
 9833SOL     OW30397   3.404   3.850   3.648
 9833SOL    HW130398   3.351   3.779   3.603
 9833SOL    HW230399   3.409   3.831   3.746
 9834SOL     OW30400   2.321   4.715   4.998
 9834SOL    HW130401   2.384   4.750   5.067
 9834SOL    HW230402   2.363   4.637   4.952
 9835SOL     OW30403   3.573   3.230   4.393
 9835SOL    HW130404   3.643   3.222   4.322
 9835SOL    HW230405   3.617   3.216   4.483
 9836SOL     OW30406   0.638   3.987   4.130
 9836SOL    HW130407   0.638   4.073   4.078
 9836SOL    HW230408   0.655   3.911   4.067
 9837SOL     OW30409   4.442   0.668   2.853
 9837SOL    HW130410   4.442   0.768   2.847
 9837SOL    HW230411   4.420   0.641   2.947
 9838SOL     OW30412   1.869   6.995   0.319
 9838SOL    HW130413   1.847   6.920   0.257
 9838SOL    HW230414   1.935   0.033   0.276
 9839SOL     OW30415   4.653   6.597   3.539
 9839SOL    HW130416   4.719   6.643   3.479
 9839SOL    HW230417   4.565   6.592   3.493
 9840SOL     OW30418   5.255   1.934   0.627
 9840SOL    HW130419   5.210   1.959   0.713
 9840SOL    HW230420   5.342   1.888   0.647
 9841SOL     OW30421   1.097   4.377   4.511
 9841SOL    HW130422   1.180   4.322   4.504
 9841SOL    HW230423   1.032   4.332   4.571
 9842SOL     OW30424   3.267   3.456   1.276
 9842SOL    HW130425   3.195   3.406   1.324
 9842SOL    HW230426   3.237   3.550   1.259
 9843SOL     OW30427   6.206   0.185   1.985
 9843SOL    HW130428   6.218   0.175   1.886
 9843SOL    HW230429   6.168   0.275   2.005
 9844SOL     OW30430   6.007   1.205   3.730
 9844SOL    HW130431   5.922   1.201   3.784
 9844SOL    HW230432   5.993   1.265   3.651
 9845SOL     OW30433   1.602   1.647   3.767
 9845SOL    HW130434   1.646   1.568   3.810
 9845SOL    HW230435   1.525   1.677   3.824
 9846SOL     OW30436   4.553   2.303   1.273
 9846SOL    HW130437   4.578   2.386   1.323
 9846SOL    HW230438   4.562   2.224   1.333
 9847SOL     OW30439   3.882   3.516   2.474
 9847SOL    HW130440   3.869   3.447   2.403
 9847SOL    HW230441   3.961   3.490   2.530
 9848SOL     OW30442   4.542   4.666   5.960
 9848SOL    HW130443   4.610   4.610   6.008
 9848SOL    HW230444   4.587   4.744   5.917
 9849SOL     OW30445   0.981   0.040   6.503
 9849SOL    HW130446   1.062   0.050   6.560
 9849SOL    HW230447   0.998   0.081   6.413
 9850SOL     OW30448   6.502   0.786   3.948
 9850SOL    HW130449   6.526   0.796   4.044
 9850SOL    HW230450   6.488   0.876   3.907
 9851SOL     OW30451   1.795   6.956   4.372
 9851SOL    HW130452   1.759   6.879   4.321
 9851SOL    HW230453   1.779   0.018   4.321
 9852SOL     OW30454   1.817   1.531   4.805
 9852SOL    HW130455   1.902   1.530   4.752
 9852SOL    HW230456   1.763   1.610   4.779
 9853SOL     OW30457   6.486   3.469   5.243
 9853SOL    HW130458   6.539   3.389   5.216
 9853SOL    HW230459   6.446   3.454   5.334
 9854SOL     OW30460   6.936   5.907   3.957
 9854SOL    HW130461   7.011   5.847   3.928
 9854SOL    HW230462   6.901   5.957   3.878
 9855SOL     OW30463   2.344   3.235   0.712
 9855SOL    HW130464   2.266   3.254   0.652
 9855SOL    HW230465   2.364   3.317   0.767
 9856SOL     OW30466   5.073   4.467   3.870
 9856SOL    HW130467   5.097   4.401   3.799
 9856SOL    HW230468   5.020   4.421   3.941
 9857SOL     OW30469   5.458   2.406   3.190
 9857SOL    HW130470   5.404   2.427   3.109
 9857SOL    HW230471   5.481   2.490   3.238
 9858SOL     OW30472   0.232   7.021   1.398
 9858SOL    HW130473   0.232   0.035   1.305
 9858SOL    HW230474   0.178   6.936   1.401
 9859SOL     OW30475   6.807   5.337   3.883
 9859SOL    HW130476   6.832   5.241   3.871
 9859SOL    HW230477   6.720   5.355   3.837
 9860SOL     OW30478   2.085   2.179   4.894
 9860SOL    HW130479   2.068   2.253   4.959
 9860SOL    HW230480   2.175   2.192   4.852
 9861SOL     OW30481   2.644   0.335   3.160
 9861SOL    HW130482   2.579   0.337   3.235
 9861SOL    HW230483   2.606   0.282   3.084
 9862SOL     OW30484   2.264   4.098   6.994
 9862SOL    HW130485   2.267   4.167   6.922
 9862SOL    HW230486   2.341   4.111   0.033
 9863SOL     OW30487   3.135   5.950   1.564
 9863SOL    HW130488   3.149   5.876   1.631
 9863SOL    HW230489   3.167   6.036   1.602
 9864SOL     OW30490   3.555   0.780   4.731
 9864SOL    HW130491   3.577   0.874   4.704
 9864SOL    HW230492   3.630   0.742   4.785
 9865SOL     OW30493   1.300   6.223   4.109
 9865SOL    HW130494   1.393   6.254   4.087
 9865SOL    HW230495   1.237   6.254   4.037
 9866SOL     OW30496   6.047   4.628   5.988
 9866SOL    HW130497   6.138   4.667   5.977
 9866SOL    HW230498   5.998   4.677   6.060
 9867SOL     OW30499   6.615   1.516   2.417
 9867SOL    HW130500   6.704   1.559   2.406
 9867SOL    HW230501   6.594   1.460   2.337
 9868SOL     OW30502   0.908   3.308   4.551
 9868SOL    HW130503   0.970   3.322   4.628
 9868SOL    HW230504   0.897   3.394   4.500
 9869SOL     OW30505   0.245   2.381   1.185
 9869SOL    HW130506   0.341   2.410   1.178
 9869SOL    HW230507   0.231   2.337   1.274
 9870SOL     OW30508   4.291   5.841   2.657
 9870SOL    HW130509   4.214   5.778   2.665
 9870SOL    HW230510   4.350   5.833   2.737
 9871SOL     OW30511   6.498   3.857   5.590
 9871SOL    HW130512   6.438   3.829   5.516
 9871SOL    HW230513   6.466   3.819   5.677
 9872SOL     OW30514   2.938   5.303   4.541
 9872SOL    HW130515   2.998   5.226   4.558
 9872SOL    HW230516   2.992   5.382   4.510
 9873SOL     OW30517   2.123   2.579   0.491
 9873SOL    HW130518   2.080   2.598   0.580
 9873SOL    HW230519   2.198   2.514   0.503
 9874SOL     OW30520   0.442   2.745   5.395
 9874SOL    HW130521   0.429   2.777   5.301
 9874SOL    HW230522   0.368   2.781   5.452
 9875SOL     OW30523   6.378   5.944   2.678
 9875SOL    HW130524   6.366   5.908   2.771
 9875SOL    HW230525   6.293   5.989   2.649
 9876SOL     OW30526   5.167   0.658   4.051
 9876SOL    HW130527   5.256   0.699   4.071
 9876SOL    HW230528   5.133   0.612   4.133
 9877SOL     OW30529   0.094   4.385   4.337
 9877SOL    HW130530   0.102   4.310   4.403
 9877SOL    HW230531   7.022   4.413   4.329
 9878SOL     OW30532   2.671   3.685   5.633
 9878SOL    HW130533   2.709   3.668   5.543
 9878SOL    HW230534   2.741   3.723   5.693
 9879SOL     OW30535   6.046   4.617   5.512
 9879SOL    HW130536   6.058   4.569   5.425
 9879SOL    HW230537   6.121   4.593   5.574
 9880SOL     OW30538   2.686   0.789   0.979
 9880SOL    HW130539   2.752   0.716   0.996
 9880SOL    HW230540   2.679   0.847   1.059
 9881SOL     OW30541   6.791   1.919   4.661
 9881SOL    HW130542   6.784   1.929   4.562
 9881SOL    HW230543   6.717   1.860   4.694
 9882SOL     OW30544   3.229   3.788   5.615
 9882SOL    HW130545   3.129   3.776   5.616
 9882SOL    HW230546   3.271   3.721   5.677
 9883SOL     OW30547   0.784   6.652   1.452
 9883SOL    HW130548   0.768   6.720   1.381
 9883SOL    HW230549   0.731   6.676   1.534
 9884SOL     OW30550   4.181   1.697   0.790
 9884SOL    HW130551   4.186   1.659   0.698
 9884SOL    HW230552   4.128   1.782   0.788
 9885SOL     OW30553   0.769   3.300   4.844
 9885SOL    HW130554   0.726   3.286   4.933
 9885SOL    HW230555   0.794   3.211   4.805
 9886SOL     OW30556   6.991   6.197   2.023
 9886SOL    HW130557   7.001   6.224   1.928
 9886SOL    HW230558   6.894   6.202   2.049
 9887SOL     OW30559   3.539   0.189   0.075
 9887SOL    HW130560   3.555   0.123   0.002
 9887SOL    HW230561   3.442   0.215   0.076
 9888SOL     OW30562   5.791   5.804   3.512
 9888SOL    HW130563   5.786   5.881   3.575
 9888SOL    HW230564   5.705   5.753   3.514
 9889SOL     OW30565   0.564   4.854   1.825
 9889SOL    HW130566   0.563   4.768   1.775
 9889SOL    HW230567   0.565   4.835   1.924
 9890SOL     OW30568   0.572   2.946   0.870
 9890SOL    HW130569   0.485   2.994   0.858
 9890SOL    HW230570   0.647   3.010   0.860
 9891SOL     OW30571   6.252   4.692   1.710
 9891SOL    HW130572   6.173   4.651   1.755
 9891SOL    HW230573   6.331   4.632   1.721
 9892SOL     OW30574   1.907   5.536   3.026
 9892SOL    HW130575   1.905   5.467   2.954
 9892SOL    HW230576   1.838   5.606   3.007
 9893SOL     OW30577   6.331   0.194   2.247
 9893SOL    HW130578   6.286   0.178   2.159
 9893SOL    HW230579   6.402   0.125   2.261
 9894SOL     OW30580   2.811   1.550   6.103
 9894SOL    HW130581   2.752   1.508   6.173
 9894SOL    HW230582   2.888   1.489   6.084
 9895SOL     OW30583   6.477   2.425   5.466
 9895SOL    HW130584   6.454   2.435   5.370
 9895SOL    HW230585   6.528   2.340   5.480
 9896SOL     OW30586   4.814   1.841   0.807
 9896SOL    HW130587   4.880   1.822   0.735
 9896SOL    HW230588   4.852   1.907   0.871
 9897SOL     OW30589   4.920   0.780   3.045
 9897SOL    HW130590   4.983   0.809   3.117
 9897SOL    HW230591   4.927   0.681   3.033
 9898SOL     OW30592   0.168   4.945   5.166
 9898SOL    HW130593   0.134   4.873   5.226
 9898SOL    HW230594   0.121   5.031   5.187
 9899SOL     OW30595   6.781   5.140   2.273
 9899SOL    HW130596   6.780   5.055   2.326
 9899SOL    HW230597   6.714   5.204   2.311
 9900SOL     OW30598   1.789   2.567   2.730
 9900SOL    HW130599   1.792   2.665   2.748
 9900SOL    HW230600   1.714   2.526   2.782
 9901SOL     OW30601   1.944   1.424   6.881
 9901SOL    HW130602   2.002   1.452   6.957
 9901SOL    HW230603   2.000   1.398   6.803
 9902SOL     OW30604   3.982   3.702   1.619
 9902SOL    HW130605   4.075   3.728   1.646
 9902SOL    HW230606   3.980   3.605   1.597
 9903SOL     OW30607   4.911   6.697   2.235
 9903SOL    HW130608   4.915   6.627   2.164
 9903SOL    HW230609   4.816   6.713   2.261
 9904SOL     OW30610   6.936   4.133   6.955
 9904SOL    HW130611   6.899   4.208   7.011
 9904SOL    HW230612   6.974   4.170   6.870
 9905SOL     OW30613   1.457   6.374   0.115
 9905SOL    HW130614   1.484   6.290   0.067
 9905SOL    HW230615   1.362   6.395   0.094
 9906SOL     OW30616   2.354   3.726   6.931
 9906SOL    HW130617   2.289   3.683   6.869
 9906SOL    HW230618   2.375   3.664   7.006
 9907SOL     OW30619   1.884   0.014   3.986
 9907SOL    HW130620   1.924   7.000   3.902
 9907SOL    HW230621   1.957   0.031   4.052
 9908SOL     OW30622   0.450   3.691   5.682
 9908SOL    HW130623   0.364   3.720   5.639
 9908SOL    HW230624   0.435   3.604   5.728
 9909SOL     OW30625   3.230   0.226   3.384
 9909SOL    HW130626   3.322   0.196   3.360
 9909SOL    HW230627   3.198   0.292   3.315
 9910SOL     OW30628   1.391   5.626   1.815
 9910SOL    HW130629   1.438   5.557   1.871
 9910SOL    HW230630   1.452   5.703   1.799
 9911SOL     OW30631   4.340   5.552   2.271
 9911SOL    HW130632   4.409   5.625   2.269
 9911SOL    HW230633   4.250   5.591   2.252
 9912SOL     OW30634   4.018   0.783   1.430
 9912SOL    HW130635   3.950   0.732   1.482
 9912SOL    HW230636   4.046   0.730   1.350
 9913SOL     OW30637   6.718   3.251   2.351
 9913SOL    HW130638   6.696   3.335   2.400
 9913SOL    HW230639   6.770   3.189   2.410
 9914SOL     OW30640   0.765   0.660   5.840
 9914SOL    HW130641   0.825   0.580   5.835
 9914SOL    HW230642   0.803   0.726   5.905
 9915SOL     OW30643   4.911   2.853   4.072
 9915SOL    HW130644   4.964   2.818   3.995
 9915SOL    HW230645   4.821   2.811   4.073
 9916SOL     OW30646   1.946   2.297   3.288
 9916SOL    HW130647   2.020   2.239   3.252
 9916SOL    HW230648   1.900   2.248   3.362
 9917SOL     OW30649   3.509   3.469   4.661
 9917SOL    HW130650   3.492   3.373   4.684
 9917SOL    HW230651   3.602   3.494   4.689
 9918SOL     OW30652   0.786   2.314   1.112
 9918SOL    HW130653   0.777   2.227   1.161
 9918SOL    HW230654   0.868   2.311   1.054
 9919SOL     OW30655   2.464   6.150   1.203
 9919SOL    HW130656   2.492   6.243   1.229
 9919SOL    HW230657   2.404   6.155   1.123
 9920SOL     OW30658   3.341   0.472   3.084
 9920SOL    HW130659   3.431   0.468   3.127
 9920SOL    HW230660   3.271   0.481   3.154
 9921SOL     OW30661   4.952   6.139   4.324
 9921SOL    HW130662   4.996   6.059   4.282
 9921SOL    HW230663   5.017   6.185   4.384
 9922SOL     OW30664   4.685   4.542   0.807
 9922SOL    HW130665   4.611   4.499   0.858
 9922SOL    HW230666   4.671   4.531   0.709
 9923SOL     OW30667   6.790   3.380   6.938
 9923SOL    HW130668   6.749   3.289   6.933
 9923SOL    HW230669   6.725   3.444   6.978
 9924SOL     OW30670   5.387   2.308   3.660
 9924SOL    HW130671   5.288   2.306   3.675
 9924SOL    HW230672   5.431   2.245   3.724
 9925SOL     OW30673   1.767   4.441   4.587
 9925SOL    HW130674   1.780   4.389   4.672
 9925SOL    HW230675   1.670   4.459   4.574
 9926SOL     OW30676   3.326   2.530   1.020
 9926SOL    HW130677   3.301   2.448   0.968
 9926SOL    HW230678   3.283   2.610   0.978
 9927SOL     OW30679   0.946   2.071   0.770
 9927SOL    HW130680   0.916   2.016   0.848
 9927SOL    HW230681   0.935   2.168   0.791
 9928SOL     OW30682   5.544   3.436   2.948
 9928SOL    HW130683   5.594   3.466   3.029
 9928SOL    HW230684   5.604   3.381   2.890
 9929SOL     OW30685   3.510   4.429   5.278
 9929SOL    HW130686   3.456   4.509   5.303
 9929SOL    HW230687   3.473   4.349   5.324
 9930SOL     OW30688   0.703   0.340   6.136
 9930SOL    HW130689   0.676   0.340   6.040
 9930SOL    HW230690   0.652   0.269   6.185
 9931SOL     OW30691   6.821   5.256   5.067
 9931SOL    HW130692   6.860   5.251   4.975
 9931SOL    HW230693   6.853   5.339   5.112
 9932SOL     OW30694   1.519   1.371   6.957
 9932SOL    HW130695   1.520   1.416   0.023
 9932SOL    HW230696   1.559   1.431   6.888
 9933SOL     OW30697   1.622   0.869   4.362
 9933SOL    HW130698   1.685   0.908   4.295
 9933SOL    HW230699   1.569   0.796   4.320
 9934SOL     OW30700   6.136   1.827   6.747
 9934SOL    HW130701   6.078   1.817   6.828
 9934SOL    HW230702   6.166   1.922   6.739
 9935SOL     OW30703   2.375   0.892   0.548
 9935SOL    HW130704   2.433   0.866   0.625
 9935SOL    HW230705   2.427   0.886   0.463
 9936SOL     OW30706   6.859   5.400   6.763
 9936SOL    HW130707   6.760   5.385   6.758
 9936SOL    HW230708   6.889   5.399   6.858
 9937SOL     OW30709   1.357   0.780   3.333
 9937SOL    HW130710   1.426   0.728   3.384
 9937SOL    HW230711   1.363   0.876   3.359
 9938SOL     OW30712   5.507   0.362   3.944
 9938SOL    HW130713   5.484   0.271   3.978
 9938SOL    HW230714   5.589   0.396   3.991
 9939SOL     OW30715   2.206   2.907   0.992
 9939SOL    HW130716   2.228   2.900   1.089
 9939SOL    HW230717   2.276   2.961   0.946
 9940SOL     OW30718   0.913   0.587   4.136
 9940SOL    HW130719   0.836   0.534   4.170
 9940SOL    HW230720   0.892   0.684   4.141
 9941SOL     OW30721   3.212   5.779   5.747
 9941SOL    HW130722   3.298   5.734   5.772
 9941SOL    HW230723   3.173   5.822   5.829
 9942SOL     OW30724   4.634   5.267   1.759
 9942SOL    HW130725   4.616   5.348   1.815
 9942SOL    HW230726   4.601   5.186   1.807
 9943SOL     OW30727   1.173   3.928   6.509
 9943SOL    HW130728   1.107   3.904   6.438
 9943SOL    HW230729   1.254   3.869   6.501
 9944SOL     OW30730   6.928   5.789   6.605
 9944SOL    HW130731   6.877   5.816   6.523
 9944SOL    HW230732   7.018   5.834   6.604
 9945SOL     OW30733   5.329   3.960   6.664
 9945SOL    HW130734   5.361   3.972   6.570
 9945SOL    HW230735   5.396   3.906   6.715
 9946SOL     OW30736   6.047   0.329   3.101
 9946SOL    HW130737   5.997   0.272   3.036
 9946SOL    HW230738   6.073   0.274   3.180
 9947SOL     OW30739   2.312   1.369   3.941
 9947SOL    HW130740   2.213   1.358   3.944
 9947SOL    HW230741   2.347   1.332   3.855
 9948SOL     OW30742   6.661   5.590   5.536
 9948SOL    HW130743   6.637   5.635   5.622
 9948SOL    HW230744   6.760   5.593   5.523
 9949SOL     OW30745   6.968   5.003   4.361
 9949SOL    HW130746   7.009   4.917   4.393
 9949SOL    HW230747   7.014   5.080   4.404
 9950SOL     OW30748   6.822   5.770   5.764
 9950SOL    HW130749   6.871   5.734   5.843
 9950SOL    HW230750   6.888   5.805   5.697
 9951SOL     OW30751   1.858   2.165   2.592
 9951SOL    HW130752   1.811   2.166   2.503
 9951SOL    HW230753   1.815   2.098   2.652
 9952SOL     OW30754   1.891   4.037   0.804
 9952SOL    HW130755   1.872   4.114   0.743
 9952SOL    HW230756   1.839   3.957   0.774
 9953SOL     OW30757   5.544   2.838   3.916
 9953SOL    HW130758   5.566   2.754   3.865
 9953SOL    HW230759   5.623   2.899   3.915
 9954SOL     OW30760   1.212   0.325   5.132
 9954SOL    HW130761   1.211   0.395   5.203
 9954SOL    HW230762   1.306   0.314   5.098
 9955SOL     OW30763   4.116   4.013   6.591
 9955SOL    HW130764   4.033   3.972   6.553
 9955SOL    HW230765   4.106   4.023   6.690
 9956SOL     OW30766   0.870   3.714   2.482
 9956SOL    HW130767   0.812   3.682   2.557
 9956SOL    HW230768   0.860   3.813   2.471
 9957SOL     OW30769   5.560   7.016   2.048
 9957SOL    HW130770   5.513   6.949   2.105
 9957SOL    HW230771   5.639   6.973   2.003
 9958SOL     OW30772   3.178   6.174   5.818
 9958SOL    HW130773   3.261   6.118   5.825
 9958SOL    HW230774   3.116   6.133   5.751
 9959SOL     OW30775   4.122   3.625   2.656
 9959SOL    HW130776   4.115   3.639   2.755
 9959SOL    HW230777   4.116   3.714   2.610
 9960SOL     OW30778   0.586   6.427   1.354
 9960SOL    HW130779   0.585   6.369   1.436
 9960SOL    HW230780   0.656   6.498   1.365
 9961SOL     OW30781   2.521   4.627   2.946
 9961SOL    HW130782   2.591   4.668   3.004
 9961SOL    HW230783   2.459   4.697   2.913
 9962SOL     OW30784   3.729   0.667   2.203
 9962SOL    HW130785   3.732   0.608   2.122
 9962SOL    HW230786   3.636   0.701   2.216
 9963SOL     OW30787   2.738   3.297   6.290
 9963SOL    HW130788   2.830   3.321   6.258
 9963SOL    HW230789   2.676   3.291   6.212
 9964SOL     OW30790   3.987   4.871   6.175
 9964SOL    HW130791   3.972   4.849   6.079
 9964SOL    HW230792   4.074   4.918   6.185
 9965SOL     OW30793   3.325   5.001   4.886
 9965SOL    HW130794   3.286   5.089   4.859
 9965SOL    HW230795   3.419   4.994   4.852
 9966SOL     OW30796   2.415   4.991   1.626
 9966SOL    HW130797   2.485   5.045   1.579
 9966SOL    HW230798   2.434   4.894   1.613
 9967SOL     OW30799   6.232   5.113   2.750
 9967SOL    HW130800   6.287   5.192   2.724
 9967SOL    HW230801   6.223   5.052   2.672
 9968SOL     OW30802   4.195   5.860   6.515
 9968SOL    HW130803   4.270   5.884   6.577
 9968SOL    HW230804   4.193   5.924   6.438
 9969SOL     OW30805   1.750   2.638   4.314
 9969SOL    HW130806   1.737   2.622   4.216
 9969SOL    HW230807   1.789   2.729   4.329
 9970SOL     OW30808   7.003   4.830   1.776
 9970SOL    HW130809   0.001   4.921   1.810
 9970SOL    HW230810   0.043   4.764   1.816
 9971SOL     OW30811   2.554   3.927   0.951
 9971SOL    HW130812   2.564   3.842   1.003
 9971SOL    HW230813   2.622   3.929   0.878
 9972SOL     OW30814   3.129   4.526   0.784
 9972SOL    HW130815   3.228   4.514   0.782
 9972SOL    HW230816   3.096   4.549   0.692
 9973SOL     OW30817   3.941   2.138   4.731
 9973SOL    HW130818   3.885   2.135   4.813
 9973SOL    HW230819   3.882   2.144   4.650
 9974SOL     OW30820   6.627   3.015   2.888
 9974SOL    HW130821   6.572   3.012   2.972
 9974SOL    HW230822   6.658   3.108   2.871
 9975SOL     OW30823   0.174   4.805   6.656
 9975SOL    HW130824   0.150   4.758   6.740
 9975SOL    HW230825   0.231   4.745   6.599
 9976SOL     OW30826   0.527   5.022   5.147
 9976SOL    HW130827   0.441   5.012   5.096
 9976SOL    HW230828   0.522   4.968   5.231
 9977SOL     OW30829   6.397   5.354   6.068
 9977SOL    HW130830   6.462   5.329   6.139
 9977SOL    HW230831   6.392   5.454   6.062
 9978SOL     OW30832   6.210   1.700   5.432
 9978SOL    HW130833   6.187   1.767   5.502
 9978SOL    HW230834   6.162   1.614   5.450
 9979SOL     OW30835   6.541   4.186   6.107
 9979SOL    HW130836   6.537   4.193   6.007
 9979SOL    HW230837   6.630   4.218   6.139
 9980SOL     OW30838   1.591   0.694   0.408
 9980SOL    HW130839   1.516   0.705   0.343
 9980SOL    HW230840   1.578   0.610   0.460
 9981SOL     OW30841   3.101   2.098   0.514
 9981SOL    HW130842   3.092   2.024   0.581
 9981SOL    HW230843   3.011   2.133   0.490
 9982SOL     OW30844   0.850   1.508   3.874
 9982SOL    HW130845   0.817   1.428   3.925
 9982SOL    HW230846   0.787   1.584   3.887
 9983SOL     OW30847   0.820   1.092   1.788
 9983SOL    HW130848   0.878   1.015   1.762
 9983SOL    HW230849   0.756   1.112   1.714
 9984SOL     OW30850   0.351   6.934   0.498
 9984SOL    HW130851   0.353   6.842   0.537
 9984SOL    HW230852   0.386   6.931   0.404
 9985SOL     OW30853   3.021   6.912   1.245
 9985SOL    HW130854   3.118   6.897   1.229
 9985SOL    HW230855   2.987   6.844   1.310
 9986SOL     OW30856   5.629   4.647   0.034
 9986SOL    HW130857   5.539   4.633   7.014
 9986SOL    HW230858   5.645   4.745   0.046
 9987SOL     OW30859   6.514   2.110   3.016
 9987SOL    HW130860   6.420   2.109   2.982
 9987SOL    HW230861   6.577   2.105   2.939
 9988SOL     OW30862   7.008   5.230   4.568
 9988SOL    HW130863   6.924   5.267   4.530
 9988SOL    HW230864   0.059   5.297   4.558
 9989SOL     OW30865   5.848   3.646   2.952
 9989SOL    HW130866   5.859   3.578   2.879
 9989SOL    HW230867   5.937   3.669   2.990
 9990SOL     OW30868   2.374   6.912   3.730
 9990SOL    HW130869   2.366   6.893   3.633
 9990SOL    HW230870   2.468   6.940   3.751
 9991SOL     OW30871   1.824   3.197   4.259
 9991SOL    HW130872   1.821   3.267   4.330
 9991SOL    HW230873   1.762   3.222   4.185
 9992SOL     OW30874   4.341   3.763   0.589
 9992SOL    HW130875   4.283   3.700   0.641
 9992SOL    HW230876   4.437   3.748   0.614
 9993SOL     OW30877   3.648   6.510   2.919
 9993SOL    HW130878   3.694   6.446   2.982
 9993SOL    HW230879   3.712   6.538   2.848
 9994SOL     OW30880   0.110   4.020   3.215
 9994SOL    HW130881   0.018   3.980   3.209
 9994SOL    HW230882   0.177   3.956   3.180
 9995SOL     OW30883   3.166   0.078   3.922
 9995SOL    HW130884   3.071   0.087   3.891
 9995SOL    HW230885   3.216   0.020   3.858
 9996SOL     OW30886   2.851   2.928   1.516
 9996SOL    HW130887   2.841   2.999   1.447
 9996SOL    HW230888   2.924   2.866   1.489
 9997SOL     OW30889   5.058   1.260   1.381
 9997SOL    HW130890   4.991   1.287   1.451
 9997SOL    HW230891   5.137   1.218   1.425
 9998SOL     OW30892   5.426   3.830   2.574
 9998SOL    HW130893   5.511   3.873   2.544
 9998SOL    HW230894   5.395   3.872   2.659
 9999SOL     OW30895   0.214   5.774   5.228
 9999SOL    HW130896   0.273   5.714   5.282
 9999SOL    HW230897   0.192   5.729   5.141
10000SOL     OW30898   5.703   2.067   6.295
10000SOL    HW130899   5.767   2.014   6.350
10000SOL    HW230900   5.610   2.033   6.311
10001SOL     OW30901   3.856   0.633   1.572
10001SOL    HW130902   3.766   0.659   1.608
10001SOL    HW230903   3.845   0.557   1.508
10002SOL     OW30904   1.269   1.035   1.801
10002SOL    HW130905   1.362   1.053   1.770
10002SOL    HW230906   1.268   0.951   1.856
10003SOL     OW30907   2.975   2.250   2.554
10003SOL    HW130908   3.015   2.336   2.586
10003SOL    HW230909   2.965   2.252   2.455
10004SOL     OW30910   5.585   3.535   5.348
10004SOL    HW130911   5.680   3.513   5.327
10004SOL    HW230912   5.524   3.469   5.303
10005SOL     OW30913   3.493   6.099   2.696
10005SOL    HW130914   3.491   6.182   2.752
10005SOL    HW230915   3.588   6.073   2.678
10006SOL     OW30916   5.953   0.703   5.671
10006SOL    HW130917   5.994   0.721   5.582
10006SOL    HW230918   6.025   0.697   5.740
10007SOL     OW30919   0.888   2.926   4.161
10007SOL    HW130920   0.919   2.831   4.161
10007SOL    HW230921   0.917   2.971   4.246
10008SOL     OW30922   3.941   1.209   3.387
10008SOL    HW130923   3.989   1.292   3.417
10008SOL    HW230924   3.870   1.235   3.321
10009SOL     OW30925   1.917   4.274   1.597
10009SOL    HW130926   1.839   4.253   1.655
10009SOL    HW230927   1.997   4.223   1.628
10010SOL     OW30928   1.981   5.711   0.484
10010SOL    HW130929   1.909   5.644   0.464
10010SOL    HW230930   2.022   5.691   0.573
10011SOL     OW30931   0.502   3.575   6.296
10011SOL    HW130932   0.478   3.671   6.310
10011SOL    HW230933   0.515   3.530   6.385
10012SOL     OW30934   5.371   6.572   2.086
10012SOL    HW130935   5.433   6.608   2.156
10012SOL    HW230936   5.403   6.482   2.057
10013SOL     OW30937   2.190   1.569   4.113
10013SOL    HW130938   2.221   1.520   4.031
10013SOL    HW230939   2.267   1.619   4.152
10014SOL     OW30940   0.575   1.787   1.523
10014SOL    HW130941   0.527   1.713   1.476
10014SOL    HW230942   0.534   1.802   1.612
10015SOL     OW30943   4.351   4.826   0.015
10015SOL    HW130944   4.332   4.813   6.940
10015SOL    HW230945   4.426   4.765   0.042
10016SOL     OW30946   1.241   0.230   4.773
10016SOL    HW130947   1.310   0.302   4.766
10016SOL    HW230948   1.173   0.243   4.701
10017SOL     OW30949   1.992   1.612   2.666
10017SOL    HW130950   1.978   1.668   2.585
10017SOL    HW230951   2.089   1.600   2.683
10018SOL     OW30952   6.790   4.695   6.137
10018SOL    HW130953   6.848   4.652   6.068
10018SOL    HW230954   6.737   4.625   6.185
10019SOL     OW30955   0.636   2.042   3.139
10019SOL    HW130956   0.612   2.110   3.208
10019SOL    HW230957   0.711   1.985   3.173
10020SOL     OW30958   0.374   0.873   1.307
10020SOL    HW130959   0.395   0.967   1.333
10020SOL    HW230960   0.453   0.815   1.325
10021SOL     OW30961   0.787   2.002   2.758
10021SOL    HW130962   0.831   1.925   2.713
10021SOL    HW230963   0.715   1.968   2.819
10022SOL     OW30964   4.126   6.929   1.040
10022SOL    HW130965   4.077   7.005   1.082
10022SOL    HW230966   4.185   6.963   0.967
10023SOL     OW30967   2.545   4.790   5.110
10023SOL    HW130968   2.546   4.850   5.030
10023SOL    HW230969   2.638   4.776   5.142
10024SOL     OW30970   1.734   6.376   2.019
10024SOL    HW130971   1.727   6.397   1.921
10024SOL    HW230972   1.642   6.368   2.057
10025SOL     OW30973   2.279   2.279   1.744
10025SOL    HW130974   2.265   2.343   1.820
10025SOL    HW230975   2.253   2.187   1.773
10026SOL     OW30976   4.626   6.724   2.753
10026SOL    HW130977   4.674   6.762   2.832
10026SOL    HW230978   4.674   6.644   2.719
10027SOL     OW30979   1.048   3.550   4.940
10027SOL    HW130980   1.140   3.586   4.925
10027SOL    HW230981   1.003   3.537   4.852
10028SOL     OW30982   0.995   1.472   2.125
10028SOL    HW130983   0.921   1.474   2.191
10028SOL    HW230984   0.979   1.400   2.058
10029SOL     OW30985   2.183   1.735   3.799
10029SOL    HW130986   2.084   1.742   3.785
10029SOL    HW230987   2.218   1.657   3.747
10030SOL     OW30988   2.787   0.564   4.292
10030SOL    HW130989   2.809   0.511   4.374
10030SOL    HW230990   2.728   0.642   4.317
10031SOL     OW30991   5.676   4.854   4.106
10031SOL    HW130992   5.680   4.838   4.204
10031SOL    HW230993   5.660   4.951   4.088
10032SOL     OW30994   3.777   0.666   5.136
10032SOL    HW130995   3.796   0.595   5.204
10032SOL    HW230996   3.706   0.727   5.172
10033SOL     OW30997   4.588   2.608   4.226
10033SOL    HW130998   4.584   2.611   4.126
10033SOL    HW230999   4.517   2.547   4.260
10034SOL     OW31000   3.483   0.412   4.185
10034SOL    HW131001   3.433   0.332   4.152
10034SOL    HW231002   3.528   0.389   4.272
10035SOL     OW31003   0.172   4.753   2.055
10035SOL    HW131004   0.221   4.827   2.010
10035SOL    HW231005   0.153   4.779   2.150
10036SOL     OW31006   6.040   0.864   1.143
10036SOL    HW131007   5.997   0.775   1.159
10036SOL    HW231008   5.969   0.931   1.117
10037SOL     OW31009   6.352   1.500   0.319
10037SOL    HW131010   6.398   1.557   0.252
10037SOL    HW231011   6.253   1.506   0.306
10038SOL     OW31012   4.311   1.015   6.608
10038SOL    HW131013   4.288   1.108   6.637
10038SOL    HW231014   4.228   0.966   6.583
10039SOL     OW31015   3.953   0.093   5.030
10039SOL    HW131016   4.009   0.032   5.086
10039SOL    HW231017   3.868   0.047   5.007
10040SOL     OW31018   4.321   5.911   6.076
10040SOL    HW131019   4.260   5.887   6.001
10040SOL    HW231020   4.376   5.991   6.050
10041SOL     OW31021   4.477   5.673   6.909
10041SOL    HW131022   4.488   5.637   6.816
10041SOL    HW231023   4.393   5.636   6.948
10042SOL     OW31024   1.391   1.828   5.222
10042SOL    HW131025   1.441   1.751   5.183
10042SOL    HW231026   1.398   1.826   5.321
10043SOL     OW31027   0.406   2.342   4.506
10043SOL    HW131028   0.321   2.351   4.454
10043SOL    HW231029   0.396   2.270   4.574
10044SOL     OW31030   2.982   1.820   4.771
10044SOL    HW131031   2.937   1.733   4.751
10044SOL    HW231032   2.930   1.869   4.841
10045SOL     OW31033   4.938   0.028   3.393
10045SOL    HW131034   4.939   6.977   3.461
10045SOL    HW231035   4.999   0.101   3.422
10046SOL     OW31036   1.972   3.667   1.621
10046SOL    HW131037   2.062   3.666   1.579
10046SOL    HW231038   1.979   3.640   1.717
10047SOL     OW31039   6.077   3.626   4.980
10047SOL    HW131040   6.127   3.701   5.023
10047SOL    HW231041   6.135   3.545   4.976
10048SOL     OW31042   6.126   0.966   2.509
10048SOL    HW131043   6.223   0.944   2.513
10048SOL    HW231044   6.106   1.043   2.569
10049SOL     OW31045   0.194   6.945   6.843
10049SOL    HW131046   0.100   6.953   6.877
10049SOL    HW231047   0.249   6.894   6.908
10050SOL     OW31048   5.888   3.034   4.041
10050SOL    HW131049   5.936   2.967   4.098
10050SOL    HW231050   5.886   3.002   3.946
10051SOL     OW31051   5.282   2.359   5.134
10051SOL    HW131052   5.309   2.406   5.218
10051SOL    HW231053   5.205   2.406   5.092
10052SOL     OW31054   2.418   2.073   2.956
10052SOL    HW131055   2.427   2.114   3.047
10052SOL    HW231056   2.481   1.996   2.949
10053SOL     OW31057   3.232   6.038   2.585
10053SOL    HW131058   3.299   6.077   2.649
10053SOL    HW231059   3.225   6.097   2.505
10054SOL     OW31060   5.262   5.249   6.397
10054SOL    HW131061   5.301   5.157   6.392
10054SOL    HW231062   5.174   5.246   6.445
10055SOL     OW31063   6.068   2.298   4.754
10055SOL    HW131064   6.104   2.293   4.661
10055SOL    HW231065   5.988   2.358   4.755
10056SOL     OW31066   5.626   3.979   3.173
10056SOL    HW131067   5.649   4.041   3.249
10056SOL    HW231068   5.697   3.909   3.165
10057SOL     OW31069   4.325   1.560   4.842
10057SOL    HW131070   4.345   1.655   4.867
10057SOL    HW231071   4.250   1.558   4.776
10058SOL     OW31072   0.460   3.660   4.420
10058SOL    HW131073   0.363   3.672   4.441
10058SOL    HW231074   0.472   3.653   4.321
10059SOL     OW31075   5.632   0.447   1.259
10059SOL    HW131076   5.690   0.516   1.216
10059SOL    HW231077   5.646   0.447   1.358
10060SOL     OW31078   1.478   1.901   1.362
10060SOL    HW131079   1.522   1.821   1.401
10060SOL    HW231080   1.538   1.943   1.294
10061SOL     OW31081   4.433   1.598   3.880
10061SOL    HW131082   4.500   1.641   3.820
10061SOL    HW231083   4.394   1.666   3.941
10062SOL     OW31084   5.946   0.223   4.052
10062SOL    HW131085   5.890   0.249   4.130
10062SOL    HW231086   5.894   0.237   3.967
10063SOL     OW31087   2.148   0.475   3.748
10063SOL    HW131088   2.122   0.484   3.652
10063SOL    HW231089   2.150   0.379   3.774
10064SOL     OW31090   5.052   6.857   6.994
10064SOL    HW131091   4.978   6.909   0.015
10064SOL    HW231092   5.039   6.859   6.895
10065SOL     OW31093   2.301   0.377   2.148
10065SOL    HW131094   2.253   0.449   2.098
10065SOL    HW231095   2.252   0.291   2.137
10066SOL     OW31096   0.791   2.477   3.937
10066SOL    HW131097   0.809   2.382   3.962
10066SOL    HW231098   0.730   2.519   4.004
10067SOL     OW31099   6.553   4.154   5.005
10067SOL    HW131100   6.645   4.127   4.978
10067SOL    HW231101   6.536   4.249   4.977
10068SOL     OW31102   0.323   3.260   3.050
10068SOL    HW131103   0.367   3.217   3.128
10068SOL    HW231104   0.360   3.222   2.965
10069SOL     OW31105   2.119   4.854   2.612
10069SOL    HW131106   2.156   4.941   2.578
10069SOL    HW231107   2.194   4.793   2.638
10070SOL     OW31108   6.470   6.356   5.018
10070SOL    HW131109   6.458   6.391   4.925
10070SOL    HW231110   6.559   6.386   5.053
10071SOL     OW31111   6.140   5.843   4.657
10071SOL    HW131112   6.228   5.887   4.640
10071SOL    HW231113   6.155   5.749   4.687
10072SOL     OW31114   6.950   6.470   3.754
10072SOL    HW131115   6.907   6.467   3.845
10072SOL    HW231116   6.969   6.377   3.724
10073SOL     OW31117   6.084   4.485   5.286
10073SOL    HW131118   6.173   4.480   5.242
10073SOL    HW231119   6.028   4.406   5.258
10074SOL     OW31120   1.852   0.771   5.293
10074SOL    HW131121   1.892   0.766   5.384
10074SOL    HW231122   1.752   0.776   5.300
10075SOL     OW31123   2.052   2.668   2.972
10075SOL    HW131124   2.064   2.572   2.997
10075SOL    HW231125   1.980   2.675   2.903
10076SOL     OW31126   6.835   0.465   4.436
10076SOL    HW131127   6.826   0.426   4.345
10076SOL    HW231128   6.877   0.398   4.497
10077SOL     OW31129   4.162   2.682   6.188
10077SOL    HW131130   4.215   2.766   6.196
10077SOL    HW231131   4.114   2.664   6.274
10078SOL     OW31132   0.608   6.020   3.376
10078SOL    HW131133   0.566   5.950   3.318
10078SOL    HW231134   0.701   6.038   3.345
10079SOL     OW31135   6.084   4.105   3.685
10079SOL    HW131136   6.179   4.116   3.656
10079SOL    HW231137   6.081   4.096   3.784
10080SOL     OW31138   4.104   0.763   5.620
10080SOL    HW131139   4.139   0.746   5.528
10080SOL    HW231140   4.178   0.751   5.687
10081SOL     OW31141   6.679   0.396   1.114
10081SOL    HW131142   6.582   0.371   1.111
10081SOL    HW231143   6.705   0.414   1.209
10082SOL     OW31144   0.600   5.362   1.853
10082SOL    HW131145   0.689   5.357   1.808
10082SOL    HW231146   0.528   5.350   1.785
10083SOL     OW31147   4.055   0.971   3.637
10083SOL    HW131148   4.115   0.996   3.713
10083SOL    HW231149   3.974   1.029   3.638
10084SOL     OW31150   1.640   1.110   5.260
10084SOL    HW131151   1.686   1.198   5.250
10084SOL    HW231152   1.688   1.054   5.327
10085SOL     OW31153   2.571   6.060   0.934
10085SOL    HW131154   2.568   5.969   0.974
10085SOL    HW231155   2.479   6.099   0.933
10086SOL     OW31156   4.273   6.086   2.067
10086SOL    HW131157   4.351   6.027   2.046
10086SOL    HW231158   4.190   6.043   2.032
10087SOL     OW31159   6.758   6.825   4.109
10087SOL    HW131160   6.758   6.784   4.018
10087SOL    HW231161   6.669   6.810   4.152
10088SOL     OW31162   6.574   6.961   1.735
10088SOL    HW131163   6.479   6.935   1.749
10088SOL    HW231164   6.581   7.022   1.656
10089SOL     OW31165   2.900   1.904   2.752
10089SOL    HW131166   2.971   1.947   2.696
10089SOL    HW231167   2.831   1.972   2.776
10090SOL     OW31168   1.258   4.715   1.932
10090SOL    HW131169   1.296   4.801   1.967
10090SOL    HW231170   1.160   4.711   1.955
10091SOL     OW31171   0.453   4.166   6.482
10091SOL    HW131172   0.443   4.219   6.567
10091SOL    HW231173   0.420   4.073   6.496
10092SOL     OW31174   2.534   2.462   5.649
10092SOL    HW131175   2.570   2.390   5.590
10092SOL    HW231176   2.435   2.468   5.639
10093SOL     OW31177   6.263   3.269   4.897
10093SOL    HW131178   6.270   3.338   4.968
10093SOL    HW231179   6.176   3.278   4.849
10094SOL     OW31180   3.569   5.467   1.237
10094SOL    HW131181   3.626   5.390   1.265
10094SOL    HW231182   3.477   5.434   1.215
10095SOL     OW31183   5.839   2.289   5.548
10095SOL    HW131184   5.878   2.230   5.618
10095SOL    HW231185   5.739   2.282   5.550
10096SOL     OW31186   4.374   5.212   3.046
10096SOL    HW131187   4.310   5.136   3.058
10096SOL    HW231188   4.438   5.189   2.972
10097SOL     OW31189   0.812   1.062   0.095
10097SOL    HW131190   0.837   1.123   0.170
10097SOL    HW231191   0.713   1.067   0.079
10098SOL     OW31192   2.622   6.875   5.126
10098SOL    HW131193   2.646   6.862   5.030
10098SOL    HW231194   2.542   6.935   5.133
10099SOL     OW31195   0.557   5.099   1.324
10099SOL    HW131196   0.627   5.145   1.270
10099SOL    HW231197   0.507   5.035   1.266
10100SOL     OW31198   4.797   6.310   4.829
10100SOL    HW131199   4.875   6.363   4.796
10100SOL    HW231200   4.728   6.304   4.758
10101SOL     OW31201   6.061   3.889   2.113
10101SOL    HW131202   6.088   3.927   2.202
10101SOL    HW231203   6.029   3.795   2.125
10102SOL     OW31204   0.563   1.217   2.375
10102SOL    HW131205   0.574   1.309   2.413
10102SOL    HW231206   0.469   1.203   2.346
10103SOL     OW31207   2.847   0.436   5.823
10103SOL    HW131208   2.857   0.358   5.884
10103SOL    HW231209   2.759   0.431   5.775
10104SOL     OW31210   1.949   1.854   4.419
10104SOL    HW131211   1.982   1.887   4.508
10104SOL    HW231212   1.939   1.755   4.422
10105SOL     OW31213   1.741   1.018   6.796
10105SOL    HW131214   1.811   1.026   6.868
10105SOL    HW231215   1.716   0.921   6.785
10106SOL     OW31216   3.677   6.159   0.132
10106SOL    HW131217   3.654   6.243   0.180
10106SOL    HW231218   3.593   6.111   0.107
10107SOL     OW31219   5.998   1.555   5.566
10107SOL    HW131220   5.928   1.484   5.556
10107SOL    HW231221   6.023   1.563   5.662
10108SOL     OW31222   6.396   0.500   0.022
10108SOL    HW131223   6.397   0.472   0.118
10108SOL    HW231224   6.419   0.597   0.015
10109SOL     OW31225   5.770   0.939   0.750
10109SOL    HW131226   5.792   1.002   0.675
10109SOL    HW231227   5.851   0.887   0.775
10110SOL     OW31228   4.123   4.822   4.758
10110SOL    HW131229   4.039   4.811   4.810
10110SOL    HW231230   4.202   4.803   4.817
10111SOL     OW31231   5.761   3.819   3.627
10111SOL    HW131232   5.663   3.807   3.645
10111SOL    HW231233   5.801   3.732   3.598
10112SOL     OW31234   6.089   4.023   3.245
10112SOL    HW131235   6.025   3.971   3.301
10112SOL    HW231236   6.108   4.111   3.289
10113SOL     OW31237   3.818   0.123   6.929
10113SOL    HW131238   3.894   0.068   6.894
10113SOL    HW231239   3.848   0.217   6.943
10114SOL     OW31240   4.302   1.953   1.527
10114SOL    HW131241   4.318   1.968   1.625
10114SOL    HW231242   4.381   1.985   1.475
10115SOL     OW31243   3.560   0.437   4.924
10115SOL    HW131244   3.461   0.431   4.913
10115SOL    HW231245   3.588   0.385   5.005
10116SOL     OW31246   0.247   6.743   0.173
10116SOL    HW131247   0.330   6.774   0.219
10116SOL    HW231248   0.269   6.718   0.079
10117SOL     OW31249   0.087   6.334   6.432
10117SOL    HW131250   0.026   6.255   6.425
10117SOL    HW231251   0.061   6.402   6.363
10118SOL     OW31252   2.409   4.459   2.754
10118SOL    HW131253   2.453   4.511   2.828
10118SOL    HW231254   2.369   4.375   2.792
10119SOL     OW31255   0.179   5.951   4.765
10119SOL    HW131256   0.102   5.900   4.804
10119SOL    HW231257   0.227   5.998   4.838
10120SOL     OW31258   2.150   3.363   4.380
10120SOL    HW131259   2.143   3.340   4.478
10120SOL    HW231260   2.169   3.280   4.328
10121SOL     OW31261   5.983   3.559   0.085
10121SOL    HW131262   5.918   3.523   0.153
10121SOL    HW231263   6.076   3.540   0.115
10122SOL     OW31264   5.787   3.139   2.445
10122SOL    HW131265   5.810   3.113   2.351
10122SOL    HW231266   5.711   3.083   2.477
10123SOL     OW31267   5.227   5.851   0.699
10123SOL    HW131268   5.210   5.806   0.787
10123SOL    HW231269   5.297   5.802   0.649
10124SOL     OW31270   1.337   4.442   0.644
10124SOL    HW131271   1.301   4.381   0.715
10124SOL    HW231272   1.418   4.401   0.602
10125SOL     OW31273   1.517   1.399   2.080
10125SOL    HW131274   1.522   1.422   2.177
10125SOL    HW231275   1.476   1.309   2.068
10126SOL     OW31276   6.977   7.003   6.913
10126SOL    HW131277   6.949   7.009   7.008
10126SOL    HW231278   6.985   0.073   6.874
10127SOL     OW31279   2.933   4.158   6.364
10127SOL    HW131280   2.861   4.090   6.379
10127SOL    HW231281   2.958   4.160   6.268
10128SOL     OW31282   3.075   0.952   6.870
10128SOL    HW131283   3.036   0.861   6.858
10128SOL    HW231284   3.029   1.016   6.809
10129SOL     OW31285   6.255   1.356   2.440
10129SOL    HW131286   6.325   1.425   2.425
10129SOL    HW231287   6.278   1.302   2.521
10130SOL     OW31288   1.337   2.304   1.039
10130SOL    HW131289   1.397   2.233   1.004
10130SOL    HW231290   1.275   2.264   1.107
10131SOL     OW31291   1.399   6.513   4.765
10131SOL    HW131292   1.435   6.509   4.858
10131SOL    HW231293   1.472   6.540   4.702
10132SOL     OW31294   3.198   0.570   3.973
10132SOL    HW131295   3.129   0.642   3.987
10132SOL    HW231296   3.162   0.483   4.007
10133SOL     OW31297   4.115   6.432   0.167
10133SOL    HW131298   4.100   6.527   0.195
10133SOL    HW231299   4.060   6.412   0.086
10134SOL     OW31300   6.427   6.920   2.190
10134SOL    HW131301   6.485   6.888   2.265
10134SOL    HW231302   6.477   6.915   2.104
10135SOL     OW31303   4.870   3.320   3.471
10135SOL    HW131304   4.795   3.307   3.406
10135SOL    HW231305   4.938   3.247   3.459
10136SOL     OW31306   4.924   1.327   2.403
10136SOL    HW131307   4.940   1.229   2.402
10136SOL    HW231308   4.986   1.371   2.468
10137SOL     OW31309   0.426   3.593   4.166
10137SOL    HW131310   0.498   3.524   4.177
10137SOL    HW231311   0.366   3.567   4.090
10138SOL     OW31312   5.811   3.724   0.484
10138SOL    HW131313   5.794   3.738   0.387
10138SOL    HW231314   5.741   3.665   0.523
10139SOL     OW31315   2.977   3.312   3.315
10139SOL    HW131316   2.980   3.399   3.265
10139SOL    HW231317   2.881   3.288   3.333
10140SOL     OW31318   6.662   6.299   7.000
10140SOL    HW131319   6.732   6.353   6.954
10140SOL    HW231320   6.580   6.355   7.014
10141SOL     OW31321   4.108   1.010   6.022
10141SOL    HW131322   4.066   0.938   6.078
10141SOL    HW231323   4.052   1.027   5.941
10142SOL     OW31324   6.959   0.118   5.757
10142SOL    HW131325   6.872   0.126   5.806
10142SOL    HW231326   6.957   0.177   5.676
10143SOL     OW31327   5.244   1.238   0.434
10143SOL    HW131328   5.224   1.297   0.357
10143SOL    HW231329   5.242   1.291   0.519
10144SOL     OW31330   3.758   0.451   6.113
10144SOL    HW131331   3.773   0.354   6.130
10144SOL    HW231332   3.830   0.504   6.156
10145SOL     OW31333   3.167   5.378   3.623
10145SOL    HW131334   3.114   5.438   3.563
10145SOL    HW231335   3.165   5.414   3.716
10146SOL     OW31336   4.664   4.273   4.938
10146SOL    HW131337   4.633   4.354   4.888
10146SOL    HW231338   4.699   4.205   4.873
10147SOL     OW31339   5.072   4.195   6.265
10147SOL    HW131340   5.109   4.190   6.357
10147SOL    HW231341   4.982   4.238   6.267
10148SOL     OW31342   5.167   4.653   6.433
10148SOL    HW131343   5.132   4.563   6.408
10148SOL    HW231344   5.120   4.686   6.515
10149SOL     OW31345   5.804   3.571   1.742
10149SOL    HW131346   5.857   3.655   1.726
10149SOL    HW231347   5.706   3.592   1.738
10150SOL     OW31348   3.833   3.285   1.142
10150SOL    HW131349   3.746   3.287   1.191
10150SOL    HW231350   3.906   3.318   1.202
10151SOL     OW31351   0.596   5.979   0.244
10151SOL    HW131352   0.570   5.903   0.184
10151SOL    HW231353   0.597   6.064   0.190
10152SOL     OW31354   6.525   6.375   4.231
10152SOL    HW131355   6.532   6.397   4.328
10152SOL    HW231356   6.612   6.340   4.198
10153SOL     OW31357   4.584   5.980   3.072
10153SOL    HW131358   4.601   5.897   3.126
10153SOL    HW231359   4.624   6.059   3.118
10154SOL     OW31360   4.168   6.028   4.819
10154SOL    HW131361   4.172   6.087   4.900
10154SOL    HW231362   4.257   6.028   4.775
10155SOL     OW31363   3.970   2.412   6.427
10155SOL    HW131364   3.941   2.416   6.522
10155SOL    HW231365   3.993   2.504   6.395
10156SOL     OW31366   5.020   0.506   2.427
10156SOL    HW131367   5.042   0.488   2.331
10156SOL    HW231368   5.038   0.603   2.447
10157SOL     OW31369   0.189   1.867   0.365
10157SOL    HW131370   0.194   1.839   0.269
10157SOL    HW231371   0.268   1.925   0.387
10158SOL     OW31372   6.355   5.873   0.768
10158SOL    HW131373   6.317   5.792   0.724
10158SOL    HW231374   6.293   5.904   0.841
10159SOL     OW31375   2.785   2.915   0.846
10159SOL    HW131376   2.695   2.956   0.831
10159SOL    HW231377   2.838   2.919   0.761
10160SOL     OW31378   1.561   2.633   1.988
10160SOL    HW131379   1.545   2.732   1.979
10160SOL    HW231380   1.621   2.617   2.066
10161SOL     OW31381   4.131   4.208   0.716
10161SOL    HW131382   4.085   4.120   0.703
10161SOL    HW231383   4.204   4.198   0.784
10162SOL     OW31384   3.716   4.658   0.654
10162SOL    HW131385   3.696   4.623   0.563
10162SOL    HW231386   3.801   4.711   0.652
10163SOL     OW31387   6.751   3.853   0.238
10163SOL    HW131388   6.759   3.951   0.257
10163SOL    HW231389   6.655   3.828   0.237
10164SOL     OW31390   5.982   3.469   4.224
10164SOL    HW131391   6.059   3.532   4.221
10164SOL    HW231392   5.946   3.464   4.317
10165SOL     OW31393   6.712   1.148   3.716
10165SOL    HW131394   6.767   1.231   3.722
10165SOL    HW231395   6.756   1.074   3.767
10166SOL     OW31396   3.641   1.785   1.961
10166SOL    HW131397   3.600   1.774   1.871
10166SOL    HW231398   3.666   1.695   1.997
10167SOL     OW31399   1.059   4.711   6.964
10167SOL    HW131400   1.042   4.712   0.040
10167SOL    HW231401   1.115   4.631   6.941
10168SOL     OW31402   6.163   2.540   6.152
10168SOL    HW131403   6.134   2.634   6.134
10168SOL    HW231404   6.236   2.514   6.090
10169SOL     OW31405   0.621   3.707   3.457
10169SOL    HW131406   0.524   3.695   3.436
10169SOL    HW231407   0.631   3.768   3.535
10170SOL     OW31408   6.191   5.582   5.761
10170SOL    HW131409   6.137   5.539   5.834
10170SOL    HW231410   6.192   5.523   5.681
10171SOL     OW31411   0.344   2.087   5.166
10171SOL    HW131412   0.341   2.065   5.069
10171SOL    HW231413   0.325   2.184   5.179
10172SOL     OW31414   1.112   5.576   4.940
10172SOL    HW131415   1.119   5.513   4.862
10172SOL    HW231416   1.166   5.658   4.921
10173SOL     OW31417   2.337   2.390   0.510
10173SOL    HW131418   2.317   2.408   0.606
10173SOL    HW231419   2.350   2.291   0.497
10174SOL     OW31420   4.948   4.908   3.216
10174SOL    HW131421   4.923   4.818   3.254
10174SOL    HW231422   4.866   4.965   3.210
10175SOL     OW31423   5.307   2.539   3.001
10175SOL    HW131424   5.224   2.494   2.969
10175SOL    HW231425   5.282   2.611   3.066
10176SOL     OW31426   0.599   3.218   5.081
10176SOL    HW131427   0.651   3.246   5.162
10176SOL    HW231428   0.574   3.122   5.089
10177SOL     OW31429   1.891   1.135   1.263
10177SOL    HW131430   1.935   1.218   1.230
10177SOL    HW231431   1.801   1.157   1.301
10178SOL     OW31432   6.715   0.394   0.123
10178SOL    HW131433   6.682   0.480   0.161
10178SOL    HW231434   6.772   0.412   0.043
10179SOL     OW31435   0.294   2.532   0.069
10179SOL    HW131436   0.226   2.487   0.126
10179SOL    HW231437   0.248   2.590   0.001
10180SOL     OW31438   4.251   0.743   6.107
10180SOL    HW131439   4.346   0.710   6.114
10180SOL    HW231440   4.213   0.753   6.199
10181SOL     OW31441   6.458   3.259   1.404
10181SOL    HW131442   6.509   3.187   1.357
10181SOL    HW231443   6.413   3.221   1.485
10182SOL     OW31444   4.241   0.823   1.640
10182SOL    HW131445   4.180   0.807   1.562
10182SOL    HW231446   4.277   0.916   1.635
10183SOL     OW31447   6.667   2.827   6.143
10183SOL    HW131448   6.742   2.878   6.184
10183SOL    HW231449   6.597   2.891   6.109
10184SOL     OW31450   4.104   1.667   6.291
10184SOL    HW131451   4.200   1.662   6.264
10184SOL    HW231452   4.067   1.575   6.299
10185SOL     OW31453   6.080   6.142   3.317
10185SOL    HW131454   6.073   6.145   3.417
10185SOL    HW231455   6.075   6.235   3.281
10186SOL     OW31456   5.036   4.222   4.127
10186SOL    HW131457   4.947   4.215   4.084
10186SOL    HW231458   5.105   4.180   4.068
10187SOL     OW31459   1.548   3.975   6.483
10187SOL    HW131460   1.520   4.032   6.406
10187SOL    HW231461   1.484   3.898   6.492
10188SOL     OW31462   3.828   4.114   0.040
10188SOL    HW131463   3.729   4.114   0.025
10188SOL    HW231464   3.858   4.207   0.065
10189SOL     OW31465   0.209   1.007   6.884
10189SOL    HW131466   0.164   1.080   6.936
10189SOL    HW231467   0.289   1.044   6.838
10190SOL     OW31468   3.917   3.127   1.539
10190SOL    HW131469   3.936   3.080   1.625
10190SOL    HW231470   3.836   3.086   1.496
10191SOL     OW31471   4.707   5.525   6.568
10191SOL    HW131472   4.613   5.557   6.557
10191SOL    HW231473   4.760   5.596   6.615
10192SOL     OW31474   4.167   1.391   5.436
10192SOL    HW131475   4.153   1.372   5.339
10192SOL    HW231476   4.081   1.421   5.477
10193SOL     OW31477   3.755   2.943   2.076
10193SOL    HW131478   3.655   2.936   2.075
10193SOL    HW231479   3.786   2.965   2.168
10194SOL     OW31480   4.558   0.107   5.790
10194SOL    HW131481   4.587   0.147   5.702
10194SOL    HW231482   4.461   0.127   5.805
10195SOL     OW31483   6.909   6.346   0.695
10195SOL    HW131484   6.878   6.441   0.695
10195SOL    HW231485   6.866   6.297   0.770
10196SOL     OW31486   3.754   2.110   3.786
10196SOL    HW131487   3.795   2.148   3.703
10196SOL    HW231488   3.665   2.071   3.765
10197SOL     OW31489   5.676   1.912   4.826
10197SOL    HW131490   5.691   1.878   4.919
10197SOL    HW231491   5.764   1.931   4.783
10198SOL     OW31492   3.106   6.734   2.205
10198SOL    HW131493   3.163   6.798   2.258
10198SOL    HW231494   3.010   6.750   2.227
10199SOL     OW31495   1.105   2.662   0.832
10199SOL    HW131496   1.148   2.693   0.747
10199SOL    HW231497   1.160   2.589   0.873
10200SOL     OW31498   4.737   3.149   5.350
10200SOL    HW131499   4.638   3.136   5.346
10200SOL    HW231500   4.758   3.237   5.393
10201SOL     OW31501   1.584   5.329   0.041
10201SOL    HW131502   1.561   5.288   0.130
10201SOL    HW231503   1.681   5.353   0.039
10202SOL     OW31504   3.037   4.749   0.144
10202SOL    HW131505   3.041   4.842   0.105
10202SOL    HW231506   3.118   4.733   0.199
10203SOL     OW31507   6.921   3.130   1.970
10203SOL    HW131508   6.869   3.196   2.024
10203SOL    HW231509   6.870   3.044   1.964
10204SOL     OW31510   4.531   5.419   6.190
10204SOL    HW131511   4.610   5.425   6.250
10204SOL    HW231512   4.452   5.384   6.241
10205SOL     OW31513   2.288   1.256   2.388
10205SOL    HW131514   2.191   1.235   2.401
10205SOL    HW231515   2.319   1.318   2.460
10206SOL     OW31516   7.001   0.230   6.744
10206SOL    HW131517   0.071   0.266   6.733
10206SOL    HW231518   6.966   0.201   6.654
10207SOL     OW31519   0.990   1.702   7.006
10207SOL    HW131520   1.078   1.687   0.027
10207SOL    HW231521   0.918   1.660   0.039
10208SOL     OW31522   6.405   5.448   4.031
10208SOL    HW131523   6.345   5.463   4.109
10208SOL    HW231524   6.462   5.368   4.047
10209SOL     OW31525   0.168   6.886   6.568
10209SOL    HW131526   0.207   6.929   6.650
10209SOL    HW231527   0.241   6.837   6.519
10210SOL     OW31528   4.582   6.241   0.748
10210SOL    HW131529   4.649   6.228   0.675
10210SOL    HW231530   4.503   6.182   0.730
10211SOL     OW31531   4.448   6.226   4.827
10211SOL    HW131532   4.388   6.285   4.773
10211SOL    HW231533   4.480   6.150   4.772
10212SOL     OW31534   6.893   0.241   5.487
10212SOL    HW131535   6.855   0.164   5.437
10212SOL    HW231536   6.990   0.250   5.465
10213SOL     OW31537   5.368   3.061   1.853
10213SOL    HW131538   5.270   3.078   1.855
10213SOL    HW231539   5.392   2.991   1.921
10214SOL     OW31540   0.310   1.587   1.777
10214SOL    HW131541   0.372   1.664   1.786
10214SOL    HW231542   0.228   1.604   1.831
10215SOL     OW31543   3.870   3.105   3.865
10215SOL    HW131544   3.802   3.076   3.933
10215SOL    HW231545   3.849   3.063   3.777
10216SOL     OW31546   0.614   1.326   0.608
10216SOL    HW131547   0.542   1.265   0.573
10216SOL    HW231548   0.637   1.394   0.538
10217SOL     OW31549   1.950   2.140   3.560
10217SOL    HW131550   2.048   2.125   3.555
10217SOL    HW231551   1.928   2.194   3.641
10218SOL     OW31552   0.938   0.806   1.493
10218SOL    HW131553   0.882   0.725   1.508
10218SOL    HW231554   0.945   0.824   1.395
10219SOL     OW31555   0.219   2.141   2.835
10219SOL    HW131556   0.256   2.054   2.803
10219SOL    HW231557   0.243   2.154   2.931
10220SOL     OW31558   4.163   1.461   1.846
10220SOL    HW131559   4.171   1.379   1.790
10220SOL    HW231560   4.132   1.538   1.789
10221SOL     OW31561   1.680   3.829   4.773
10221SOL    HW131562   1.741   3.905   4.749
10221SOL    HW231563   1.716   3.744   4.733
10222SOL     OW31564   3.236   4.291   5.753
10222SOL    HW131565   3.292   4.234   5.692
10222SOL    HW231566   3.178   4.351   5.698
10223SOL     OW31567   2.714   5.301   0.302
10223SOL    HW131568   2.809   5.287   0.331
10223SOL    HW231569   2.709   5.302   0.203
10224SOL     OW31570   6.517   2.038   5.493
10224SOL    HW131571   6.551   2.097   5.420
10224SOL    HW231572   6.594   1.996   5.541
10225SOL     OW31573   1.770   6.036   5.769
10225SOL    HW131574   1.756   5.938   5.777
10225SOL    HW231575   1.835   6.066   5.840
10226SOL     OW31576   2.043   0.232   6.231
10226SOL    HW131577   1.981   0.169   6.185
10226SOL    HW231578   1.999   0.267   6.314
10227SOL     OW31579   4.881   4.340   0.036
10227SOL    HW131580   4.967   4.289   0.042
10227SOL    HW231581   4.840   4.347   0.127
10228SOL     OW31582   1.384   5.745   2.092
10228SOL    HW131583   1.418   5.801   2.017
10228SOL    HW231584   1.461   5.718   2.151
10229SOL     OW31585   1.956   2.220   4.185
10229SOL    HW131586   1.992   2.198   4.275
10229SOL    HW231587   1.861   2.190   4.179
10230SOL     OW31588   6.527   7.021   3.333
10230SOL    HW131589   6.622   7.003   3.358
10230SOL    HW231590   6.508   6.982   3.243
10231SOL     OW31591   6.179   5.058   5.285
10231SOL    HW131592   6.108   5.008   5.235
10231SOL    HW231593   6.144   5.088   5.373
10232SOL     OW31594   2.964   1.661   3.739
10232SOL    HW131595   2.933   1.578   3.785
10232SOL    HW231596   3.062   1.674   3.755
10233SOL     OW31597   4.206   3.997   5.686
10233SOL    HW131598   4.288   4.026   5.735
10233SOL    HW231599   4.232   3.936   5.610
10234SOL     OW31600   5.958   1.303   0.421
10234SOL    HW131601   5.976   1.401   0.413
10234SOL    HW231602   6.042   1.255   0.445
10235SOL     OW31603   3.118   1.953   0.900
10235SOL    HW131604   3.136   2.028   0.963
10235SOL    HW231605   3.135   1.866   0.946
10236SOL     OW31606   1.631   1.099   1.427
10236SOL    HW131607   1.542   1.055   1.427
10236SOL    HW231608   1.634   1.170   1.498
10237SOL     OW31609   0.176   3.971   6.517
10237SOL    HW131610   0.228   3.963   6.603
10237SOL    HW231611   0.078   3.970   6.537
10238SOL     OW31612   3.733   3.963   2.234
10238SOL    HW131613   3.692   4.009   2.313
10238SOL    HW231614   3.704   4.008   2.150
10239SOL     OW31615   1.984   3.752   5.822
10239SOL    HW131616   2.001   3.841   5.779
10239SOL    HW231617   1.966   3.684   5.751
10240SOL     OW31618   2.275   4.190   2.830
10240SOL    HW131619   2.177   4.182   2.844
10240SOL    HW231620   2.318   4.225   2.914
10241SOL     OW31621   6.951   6.307   3.520
10241SOL    HW131622   0.004   6.343   3.466
10241SOL    HW231623   6.865   6.336   3.481
10242SOL     OW31624   0.026   1.368   1.829
10242SOL    HW131625   0.087   1.350   1.906
10242SOL    HW231626   0.080   1.380   1.745
10243SOL     OW31627   2.455   4.851   2.318
10243SOL    HW131628   2.486   4.756   2.309
10243SOL    HW231629   2.454   4.876   2.414
10244SOL     OW31630   2.088   4.393   0.682
10244SOL    HW131631   2.162   4.441   0.634
10244SOL    HW231632   2.109   4.391   0.780
10245SOL     OW31633   3.478   4.828   0.444
10245SOL    HW131634   3.467   4.862   0.537
10245SOL    HW231635   3.575   4.817   0.424
10246SOL     OW31636   3.196   3.417   3.585
10246SOL    HW131637   3.244   3.360   3.652
10246SOL    HW231638   3.110   3.450   3.624
10247SOL     OW31639   0.060   3.860   5.828
10247SOL    HW131640   0.111   3.828   5.907
10247SOL    HW231641   0.016   3.947   5.850
10248SOL     OW31642   1.520   0.147   2.977
10248SOL    HW131643   1.617   0.136   3.001
10248SOL    HW231644   1.503   0.242   2.952
10249SOL     OW31645   2.112   6.731   6.723
10249SOL    HW131646   2.094   6.632   6.722
10249SOL    HW231647   2.116   6.765   6.630
10250SOL     OW31648   6.201   3.052   1.995
10250SOL    HW131649   6.264   3.129   2.007
10250SOL    HW231650   6.123   3.082   1.939
10251SOL     OW31651   2.346   1.472   4.488
10251SOL    HW131652   2.257   1.440   4.520
10251SOL    HW231653   2.371   1.425   4.404
10252SOL     OW31654   4.119   5.252   6.653
10252SOL    HW131655   4.110   5.188   6.576
10252SOL    HW231656   4.046   5.234   6.719
10253SOL     OW31657   3.090   6.915   0.309
10253SOL    HW131658   3.054   6.844   0.370
10253SOL    HW231659   3.149   6.977   0.361
10254SOL     OW31660   4.794   0.844   5.359
10254SOL    HW131661   4.753   0.915   5.303
10254SOL    HW231662   4.750   0.756   5.340
10255SOL     OW31663   2.061   6.252   0.632
10255SOL    HW131664   2.091   6.182   0.697
10255SOL    HW231665   1.965   6.275   0.649
10256SOL     OW31666   5.331   1.068   1.656
10256SOL    HW131667   5.409   1.037   1.709
10256SOL    HW231668   5.282   0.989   1.619
10257SOL     OW31669   2.042   4.841   4.578
10257SOL    HW131670   2.041   4.853   4.678
10257SOL    HW231671   2.114   4.898   4.539
10258SOL     OW31672   3.237   1.111   4.263
10258SOL    HW131673   3.296   1.040   4.301
10258SOL    HW231674   3.290   1.194   4.245
10259SOL     OW31675   0.634   5.149   3.405
10259SOL    HW131676   0.662   5.180   3.314
10259SOL    HW231677   0.544   5.104   3.399
10260SOL     OW31678   1.174   0.977   4.192
10260SOL    HW131679   1.094   0.940   4.240
10260SOL    HW231680   1.176   0.942   4.098
10261SOL     OW31681   0.013   5.050   2.985
10261SOL    HW131682   6.958   5.105   2.954
10261SOL    HW231683   0.009   5.040   3.085
10262SOL     OW31684   2.032   6.971   5.244
10262SOL    HW131685   2.081   6.938   5.163
10262SOL    HW231686   2.058   6.915   5.323
10263SOL     OW31687   5.309   0.719   6.852
10263SOL    HW131688   5.396   0.768   6.838
10263SOL    HW231689   5.313   0.630   6.807
10264SOL     OW31690   6.349   0.175   0.115
10264SOL    HW131691   6.371   0.263   0.156
10264SOL    HW231692   6.428   0.114   0.123
10265SOL     OW31693   1.984   2.815   1.280
10265SOL    HW131694   2.056   2.772   1.225
10265SOL    HW231695   2.017   2.827   1.374
10266SOL     OW31696   4.145   3.504   3.881
10266SOL    HW131697   4.105   3.499   3.790
10266SOL    HW231698   4.218   3.571   3.882
10267SOL     OW31699   5.525   2.500   6.490
10267SOL    HW131700   5.555   2.412   6.525
10267SOL    HW231701   5.431   2.494   6.458
10268SOL     OW31702   6.317   6.066   2.329
10268SOL    HW131703   6.253   5.993   2.354
10268SOL    HW231704   6.405   6.049   2.374
10269SOL     OW31705   0.437   3.191   6.967
10269SOL    HW131706   0.525   3.232   6.991
10269SOL    HW231707   0.446   3.139   6.882
10270SOL     OW31708   4.015   4.804   2.680
10270SOL    HW131709   4.073   4.818   2.600
10270SOL    HW231710   3.924   4.839   2.661
10271SOL     OW31711   3.240   2.536   5.581
10271SOL    HW131712   3.175   2.552   5.655
10271SOL    HW231713   3.325   2.586   5.599
10272SOL     OW31714   1.002   1.187   4.726
10272SOL    HW131715   1.054   1.246   4.664
10272SOL    HW231716   1.030   1.205   4.820
10273SOL     OW31717   2.993   5.949   2.783
10273SOL    HW131718   2.910   5.922   2.735
10273SOL    HW231719   3.067   5.962   2.717
10274SOL     OW31720   0.694   5.213   5.059
10274SOL    HW131721   0.782   5.183   5.097
10274SOL    HW231722   0.630   5.136   5.061
10275SOL     OW31723   0.230   6.522   1.544
10275SOL    HW131724   0.247   6.569   1.458
10275SOL    HW231725   0.262   6.579   1.620
10276SOL     OW31726   5.363   5.078   5.355
10276SOL    HW131727   5.297   5.151   5.373
10276SOL    HW231728   5.394   5.038   5.441
10277SOL     OW31729   1.532   5.275   3.512
10277SOL    HW131730   1.435   5.298   3.511
10277SOL    HW231731   1.544   5.181   3.543
10278SOL     OW31732   0.021   1.772   4.620
10278SOL    HW131733   7.020   1.676   4.635
10278SOL    HW231734   6.961   1.827   4.618
10279SOL     OW31735   2.761   5.488   3.915
10279SOL    HW131736   2.754   5.576   3.961
10279SOL    HW231737   2.670   5.457   3.887
10280SOL     OW31738   0.212   3.092   0.847
10280SOL    HW131739   0.247   3.127   0.761
10280SOL    HW231740   0.223   3.162   0.918
10281SOL     OW31741   5.793   1.653   2.260
10281SOL    HW131742   5.720   1.635   2.326
10281SOL    HW231743   5.877   1.676   2.308
10282SOL     OW31744   5.168   3.784   4.512
10282SOL    HW131745   5.128   3.859   4.459
10282SOL    HW231746   5.233   3.821   4.579
10283SOL     OW31747   1.203   3.046   0.532
10283SOL    HW131748   1.280   3.080   0.585
10283SOL    HW231749   1.124   3.032   0.592
10284SOL     OW31750   4.883   2.727   5.136
10284SOL    HW131751   4.974   2.712   5.099
10284SOL    HW231752   4.847   2.640   5.172
10285SOL     OW31753   5.729   0.081   2.436
10285SOL    HW131754   5.639   0.041   2.419
10285SOL    HW231755   5.779   0.086   2.350
10286SOL     OW31756   3.137   1.975   3.525
10286SOL    HW131757   3.227   1.975   3.482
10286SOL    HW231758   3.067   1.970   3.454
10287SOL     OW31759   1.772   0.106   1.243
10287SOL    HW131760   1.747   0.094   1.147
10287SOL    HW231761   1.788   0.203   1.261
10288SOL     OW31762   4.597   6.461   3.097
10288SOL    HW131763   4.559   6.546   3.133
10288SOL    HW231764   4.548   6.435   3.014
10289SOL     OW31765   1.974   6.708   0.766
10289SOL    HW131766   1.967   6.727   0.668
10289SOL    HW231767   1.940   6.616   0.784
10290SOL     OW31768   3.098   4.036   2.810
10290SOL    HW131769   3.185   4.049   2.763
10290SOL    HW231770   3.047   3.961   2.767
10291SOL     OW31771   4.137   1.181   3.076
10291SOL    HW131772   4.042   1.183   3.045
10291SOL    HW231773   4.170   1.087   3.079
10292SOL     OW31774   1.465   1.059   4.940
10292SOL    HW131775   1.425   1.143   4.902
10292SOL    HW231776   1.565   1.067   4.942
10293SOL     OW31777   2.425   4.352   3.028
10293SOL    HW131778   2.375   4.320   3.108
10293SOL    HW231779   2.464   4.442   3.047
10294SOL     OW31780   6.045   3.042   3.152
10294SOL    HW131781   5.946   3.057   3.158
10294SOL    HW231782   6.063   2.946   3.134
10295SOL     OW31783   6.436   4.548   6.060
10295SOL    HW131784   6.352   4.508   6.096
10295SOL    HW231785   6.508   4.543   6.129
10296SOL     OW31786   4.548   1.839   0.697
10296SOL    HW131787   4.486   1.822   0.774
10296SOL    HW231788   4.642   1.845   0.731
10297SOL     OW31789   1.874   6.902   6.570
10297SOL    HW131790   1.955   6.857   6.534
10297SOL    HW231791   1.814   6.929   6.495
10298SOL     OW31792   2.911   4.474   1.422
10298SOL    HW131793   2.849   4.538   1.467
10298SOL    HW231794   2.969   4.523   1.358
10299SOL     OW31795   5.363   4.858   3.316
10299SOL    HW131796   5.352   4.879   3.219
10299SOL    HW231797   5.415   4.773   3.326
10300SOL     OW31798   1.201   3.603   3.598
10300SOL    HW131799   1.205   3.508   3.565
10300SOL    HW231800   1.173   3.603   3.694
10301SOL     OW31801   5.050   2.720   4.717
10301SOL    HW131802   5.011   2.804   4.679
10301SOL    HW231803   5.023   2.642   4.660
10302SOL     OW31804   2.252   6.363   4.065
10302SOL    HW131805   2.173   6.303   4.049
10302SOL    HW231806   2.279   6.358   4.161
10303SOL     OW31807   1.864   6.213   2.545
10303SOL    HW131808   1.765   6.218   2.556
10303SOL    HW231809   1.888   6.227   2.449
10304SOL     OW31810   5.159   0.237   1.623
10304SOL    HW131811   5.211   0.206   1.703
10304SOL    HW231812   5.069   0.193   1.624
10305SOL     OW31813   0.951   4.428   6.535
10305SOL    HW131814   1.043   4.444   6.498
10305SOL    HW231815   0.942   4.331   6.558
10306SOL     OW31816   4.708   6.702   6.073
10306SOL    HW131817   4.692   6.616   6.122
10306SOL    HW231818   4.696   6.779   6.137
10307SOL     OW31819   2.810   2.184   5.719
10307SOL    HW131820   2.728   2.155   5.668
10307SOL    HW231821   2.798   2.160   5.815
10308SOL     OW31822   2.592   4.592   3.612
10308SOL    HW131823   2.579   4.538   3.529
10308SOL    HW231824   2.615   4.532   3.689
10309SOL     OW31825   6.788   1.819   5.205
10309SOL    HW131826   6.831   1.859   5.286
10309SOL    HW231827   6.849   1.751   5.165
10310SOL     OW31828   3.158   4.170   1.130
10310SOL    HW131829   3.233   4.107   1.148
10310SOL    HW231830   3.081   4.119   1.090
10311SOL     OW31831   6.996   6.260   0.267
10311SOL    HW131832   6.903   6.232   0.290
10311SOL    HW231833   7.008   6.357   0.288
10312SOL     OW31834   3.439   6.403   2.429
10312SOL    HW131835   3.354   6.446   2.396
10312SOL    HW231836   3.434   6.389   2.527
10313SOL     OW31837   4.980   6.510   1.726
10313SOL    HW131838   4.988   6.474   1.633
10313SOL    HW231839   5.071   6.531   1.761
10314SOL     OW31840   6.306   0.586   1.699
10314SOL    HW131841   6.319   0.611   1.795
10314SOL    HW231842   6.346   0.496   1.682
10315SOL     OW31843   5.089   6.482   5.126
10315SOL    HW131844   4.993   6.462   5.149
10315SOL    HW231845   5.140   6.396   5.124
10316SOL     OW31846   6.559   2.248   4.292
10316SOL    HW131847   6.588   2.155   4.267
10316SOL    HW231848   6.623   2.285   4.359
10317SOL     OW31849   4.072   5.272   4.660
10317SOL    HW131850   4.002   5.292   4.592
10317SOL    HW231851   4.094   5.355   4.712
10318SOL     OW31852   4.997   5.843   6.007
10318SOL    HW131853   4.957   5.910   6.070
10318SOL    HW231854   4.972   5.867   5.913
10319SOL     OW31855   1.621   2.184   5.466
10319SOL    HW131856   1.587   2.277   5.449
10319SOL    HW231857   1.705   2.170   5.414
10320SOL     OW31858   0.268   0.681   2.943
10320SOL    HW131859   0.235   0.728   3.025
10320SOL    HW231860   0.351   0.726   2.910
10321SOL     OW31861   3.870   0.961   2.487
10321SOL    HW131862   3.968   0.963   2.508
10321SOL    HW231863   3.857   0.975   2.389
10322SOL     OW31864   6.059   5.817   5.951
10322SOL    HW131865   6.044   5.862   5.863
10322SOL    HW231866   6.038   5.720   5.942
10323SOL     OW31867   6.204   3.236   5.751
10323SOL    HW131868   6.168   3.249   5.659
10323SOL    HW231869   6.144   3.281   5.817
10324SOL     OW31870   3.225   3.218   2.591
10324SOL    HW131871   3.280   3.136   2.601
10324SOL    HW231872   3.283   3.293   2.559
10325SOL     OW31873   0.236   3.963   2.645
10325SOL    HW131874   0.334   3.941   2.651
10325SOL    HW231875   0.225   4.060   2.627
10326SOL     OW31876   4.402   3.790   0.323
10326SOL    HW131877   4.494   3.767   0.289
10326SOL    HW231878   4.399   3.777   0.422
10327SOL     OW31879   2.605   2.157   1.562
10327SOL    HW131880   2.515   2.125   1.591
10327SOL    HW231881   2.658   2.186   1.642
10328SOL     OW31882   6.121   2.627   1.117
10328SOL    HW131883   6.048   2.560   1.106
10328SOL    HW231884   6.210   2.582   1.103
10329SOL     OW31885   3.391   0.235   3.874
10329SOL    HW131886   3.379   0.265   3.779
10329SOL    HW231887   3.303   0.203   3.910
10330SOL     OW31888   4.160   0.024   2.436
10330SOL    HW131889   4.184   0.057   2.527
10330SOL    HW231890   4.069   0.057   2.411
10331SOL     OW31891   6.850   1.577   4.830
10331SOL    HW131892   6.897   1.627   4.903
10331SOL    HW231893   6.773   1.630   4.797
10332SOL     OW31894   6.325   1.176   1.217
10332SOL    HW131895   6.242   1.163   1.271
10332SOL    HW231896   6.304   1.230   1.135
10333SOL     OW31897   6.075   4.400   4.772
10333SOL    HW131898   6.020   4.379   4.692
10333SOL    HW231899   6.020   4.387   4.855
10334SOL     OW31900   3.801   6.163   3.604
10334SOL    HW131901   3.771   6.074   3.638
10334SOL    HW231902   3.726   6.229   3.611
10335SOL     OW31903   2.936   4.403   6.458
10335SOL    HW131904   2.873   4.400   6.536
10335SOL    HW231905   2.943   4.312   6.417
10336SOL     OW31906   6.502   6.945   2.526
10336SOL    HW131907   6.436   7.017   2.506
10336SOL    HW231908   6.562   6.973   2.601
10337SOL     OW31909   0.296   6.941   5.795
10337SOL    HW131910   0.285   6.947   5.894
10337SOL    HW231911   0.206   6.934   5.751
10338SOL     OW31912   2.635   6.635   2.020
10338SOL    HW131913   2.726   6.614   1.986
10338SOL    HW231914   2.570   6.566   1.987
10339SOL     OW31915   3.015   5.699   0.321
10339SOL    HW131916   2.963   5.782   0.343
10339SOL    HW231917   2.974   5.620   0.367
10340SOL     OW31918   2.095   5.641   1.210
10340SOL    HW131919   2.061   5.549   1.226
10340SOL    HW231920   2.195   5.640   1.207
10341SOL     OW31921   1.790   3.473   1.938
10341SOL    HW131922   1.815   3.377   1.948
10341SOL    HW231923   1.873   3.530   1.942
10342SOL     OW31924   0.656   6.591   5.125
10342SOL    HW131925   0.749   6.569   5.156
10342SOL    HW231926   0.598   6.511   5.133
10343SOL     OW31927   3.043   5.611   7.018
10343SOL    HW131928   3.061   5.691   6.961
10343SOL    HW231929   3.067   5.632   0.090
10344SOL     OW31930   4.373   4.436   1.755
10344SOL    HW131931   4.411   4.370   1.819
10344SOL    HW231932   4.307   4.494   1.803
10345SOL     OW31933   1.720   1.435   6.698
10345SOL    HW131934   1.790   1.458   6.765
10345SOL    HW231935   1.678   1.520   6.663
10346SOL     OW31936   6.114   6.977   1.425
10346SOL    HW131937   6.015   6.983   1.434
10346SOL    HW231938   6.152   6.928   1.504
10347SOL     OW31939   5.006   2.327   2.287
10347SOL    HW131940   5.032   2.394   2.218
10347SOL    HW231941   5.054   2.241   2.269
10348SOL     OW31942   6.501   1.681   0.103
10348SOL    HW131943   6.518   1.615   0.030
10348SOL    HW231944   6.573   1.674   0.172
10349SOL     OW31945   6.710   1.518   1.468
10349SOL    HW131946   6.781   1.588   1.465
10349SOL    HW231947   6.720   1.457   1.389
10350SOL     OW31948   1.870   6.221   5.542
10350SOL    HW131949   1.964   6.187   5.529
10350SOL    HW231950   1.805   6.150   5.515
10351SOL     OW31951   5.017   4.982   6.112
10351SOL    HW131952   4.998   4.910   6.179
10351SOL    HW231953   4.931   5.023   6.082
10352SOL     OW31954   4.361   2.441   6.613
10352SOL    HW131955   4.316   2.352   6.611
10352SOL    HW231956   4.409   2.452   6.700
10353SOL     OW31957   6.997   2.475   5.626
10353SOL    HW131958   0.037   2.481   5.549
10353SOL    HW231959   6.903   2.476   5.593
10354SOL     OW31960   5.800   2.089   2.390
10354SOL    HW131961   5.717   2.076   2.445
10354SOL    HW231962   5.822   2.186   2.385
10355SOL     OW31963   2.193   0.648   2.176
10355SOL    HW131964   2.148   0.714   2.117
10355SOL    HW231965   2.150   0.649   2.267
10356SOL     OW31966   0.214   3.882   5.598
10356SOL    HW131967   0.141   3.868   5.665
10356SOL    HW231968   0.219   3.978   5.573
10357SOL     OW31969   3.128   2.831   6.611
10357SOL    HW131970   3.177   2.749   6.641
10357SOL    HW231971   3.148   2.906   6.673
10358SOL     OW31972   6.255   3.192   3.662
10358SOL    HW131973   6.183   3.163   3.598
10358SOL    HW231974   6.293   3.111   3.707
10359SOL     OW31975   6.445   1.496   1.883
10359SOL    HW131976   6.495   1.429   1.827
10359SOL    HW231977   6.507   1.569   1.911
10360SOL     OW31978   4.471   5.536   1.527
10360SOL    HW131979   4.422   5.458   1.566
10360SOL    HW231980   4.469   5.612   1.592
10361SOL     OW31981   2.522   1.149   2.769
10361SOL    HW131982   2.487   1.074   2.713
10361SOL    HW231983   2.475   1.234   2.747
10362SOL     OW31984   0.692   5.271   3.794
10362SOL    HW131985   0.718   5.190   3.741
10362SOL    HW231986   0.634   5.330   3.738
10363SOL     OW31987   4.586   2.711   0.904
10363SOL    HW131988   4.509   2.673   0.955
10363SOL    HW231989   4.576   2.689   0.807
10364SOL     OW31990   3.619   3.683   2.174
10364SOL    HW131991   3.550   3.729   2.118
10364SOL    HW231992   3.660   3.748   2.237
10365SOL     OW31993   5.511   4.424   5.542
10365SOL    HW131994   5.548   4.391   5.629
10365SOL    HW231995   5.496   4.347   5.480
10366SOL     OW31996   3.954   0.147   4.050
10366SOL    HW131997   4.034   0.165   3.992
10366SOL    HW231998   3.935   0.049   4.050
10367SOL     OW31999   6.372   1.807   2.408
10367SOL    HW132000   6.465   1.799   2.444
10367SOL    HW232001   6.336   1.717   2.387
10368SOL     OW32002   2.441   0.957   2.594
10368SOL    HW132003   2.431   0.858   2.597
10368SOL    HW232004   2.472   0.985   2.503
10369SOL     OW32005   3.568   1.081   5.742
10369SOL    HW132006   3.585   0.983   5.745
10369SOL    HW232007   3.528   1.111   5.829
10370SOL     OW32008   5.576   1.121   5.444
10370SOL    HW132009   5.574   1.206   5.391
10370SOL    HW232010   5.483   1.096   5.471
10371SOL     OW32011   2.264   5.622   4.267
10371SOL    HW132012   2.183   5.570   4.239
10371SOL    HW232013   2.293   5.592   4.358
10372SOL     OW32014   1.793   0.971   0.755
10372SOL    HW132015   1.797   1.062   0.714
10372SOL    HW232016   1.844   0.907   0.698
10373SOL     OW32017   1.567   6.515   5.260
10373SOL    HW132018   1.470   6.535   5.244
10373SOL    HW232019   1.577   6.463   5.345
10374SOL     OW32020   3.236   1.215   3.245
10374SOL    HW132021   3.193   1.264   3.321
10374SOL    HW232022   3.323   1.176   3.277
10375SOL     OW32023   2.780   1.761   6.482
10375SOL    HW132024   2.851   1.691   6.483
10375SOL    HW232025   2.770   1.798   6.390
10376SOL     OW32026   1.044   5.601   3.527
10376SOL    HW132027   1.012   5.670   3.593
10376SOL    HW232028   0.985   5.521   3.531
10377SOL     OW32029   6.257   0.665   3.957
10377SOL    HW132030   6.353   0.691   3.946
10377SOL    HW232031   6.207   0.682   3.873
10378SOL     OW32032   5.764   6.919   5.201
10378SOL    HW132033   5.776   6.889   5.106
10378SOL    HW232034   5.739   7.016   5.202
10379SOL     OW32035   3.251   6.740   4.275
10379SOL    HW132036   3.228   6.698   4.187
10379SOL    HW232037   3.336   6.701   4.310
10380SOL     OW32038   0.362   2.049   4.904
10380SOL    HW132039   0.377   1.959   4.863
10380SOL    HW232040   0.349   2.117   4.832
10381SOL     OW32041   4.267   4.636   0.712
10381SOL    HW132042   4.237   4.591   0.796
10381SOL    HW232043   4.204   4.710   0.690
10382SOL     OW32044   2.398   4.817   1.040
10382SOL    HW132045   2.363   4.906   1.012
10382SOL    HW232046   2.361   4.746   0.979
10383SOL     OW32047   0.368   3.963   0.843
10383SOL    HW132048   0.302   3.922   0.906
10383SOL    HW232049   0.356   4.063   0.844
10384SOL     OW32050   6.595   0.578   1.397
10384SOL    HW132051   6.569   0.639   1.472
10384SOL    HW232052   6.676   0.525   1.424
10385SOL     OW32053   3.741   6.769   5.660
10385SOL    HW132054   3.691   6.852   5.684
10385SOL    HW232055   3.733   6.752   5.562
10386SOL     OW32056   6.451   1.808   5.361
10386SOL    HW132057   6.475   1.882   5.424
10386SOL    HW232058   6.366   1.764   5.393
10387SOL     OW32059   4.735   1.670   2.406
10387SOL    HW132060   4.826   1.658   2.367
10387SOL    HW232061   4.714   1.592   2.465
10388SOL     OW32062   2.242   5.782   2.338
10388SOL    HW132063   2.341   5.782   2.331
10388SOL    HW232064   2.202   5.802   2.248
10389SOL     OW32065   6.650   6.483   1.245
10389SOL    HW132066   6.599   6.540   1.180
10389SOL    HW232067   6.666   6.536   1.329
10390SOL     OW32068   1.903   2.202   1.180
10390SOL    HW132069   1.884   2.247   1.267
10390SOL    HW232070   1.980   2.139   1.192
10391SOL     OW32071   0.107   5.708   3.889
10391SOL    HW132072   0.094   5.729   3.792
10391SOL    HW232073   0.202   5.679   3.904
10392SOL     OW32074   6.915   4.051   6.234
10392SOL    HW132075   7.003   4.096   6.246
10392SOL    HW232076   6.905   3.978   6.302
10393SOL     OW32077   2.295   2.548   2.283
10393SOL    HW132078   2.224   2.489   2.322
10393SOL    HW232079   2.385   2.508   2.302
10394SOL     OW32080   2.263   6.013   4.612
10394SOL    HW132081   2.223   6.075   4.679
10394SOL    HW232082   2.338   5.962   4.654
10395SOL     OW32083   6.859   1.003   3.519
10395SOL    HW132084   6.784   1.057   3.482
10395SOL    HW232085   6.823   0.938   3.586
10396SOL     OW32086   2.608   0.516   3.624
10396SOL    HW132087   2.657   0.429   3.615
10396SOL    HW232088   2.532   0.504   3.688
10397SOL     OW32089   3.025   2.164   3.941
10397SOL    HW132090   2.931   2.196   3.950
10397SOL    HW232091   3.025   2.064   3.929
10398SOL     OW32092   4.806   2.089   0.491
10398SOL    HW132093   4.736   2.031   0.451
10398SOL    HW232094   4.820   2.170   0.433
10399SOL     OW32095   4.421   1.815   4.838
10399SOL    HW132096   4.471   1.875   4.777
10399SOL    HW232097   4.332   1.856   4.860
10400SOL     OW32098   4.034   5.603   0.672
10400SOL    HW132099   4.073   5.647   0.752
10400SOL    HW232100   3.934   5.605   0.678
10401SOL     OW32101   0.204   0.494   2.572
10401SOL    HW132102   0.287   0.438   2.562
10401SOL    HW232103   0.227   0.590   2.557
10402SOL     OW32104   0.373   2.218   5.965
10402SOL    HW132105   0.432   2.230   5.885
10402SOL    HW232106   0.280   2.247   5.942
10403SOL     OW32107   4.367   1.220   3.196
10403SOL    HW132108   4.276   1.236   3.157
10403SOL    HW232109   4.373   1.125   3.226
10404SOL     OW32110   0.043   0.072   4.469
10404SOL    HW132111   0.124   0.081   4.412
10404SOL    HW232112   6.985   0.054   4.412
10405SOL     OW32113   1.526   5.713   4.959
10405SOL    HW132114   1.453   5.781   4.948
10405SOL    HW232115   1.507   5.635   4.900
10406SOL     OW32116   2.224   3.329   5.472
10406SOL    HW132117   2.233   3.353   5.568
10406SOL    HW232118   2.280   3.391   5.417
10407SOL     OW32119   2.401   0.618   6.515
10407SOL    HW132120   2.302   0.609   6.525
10407SOL    HW232121   2.423   0.676   6.436
10408SOL     OW32122   3.805   6.469   2.121
10408SOL    HW132123   3.845   6.378   2.129
10408SOL    HW232124   3.877   6.536   2.105
10409SOL     OW32125   0.800   3.940   0.416
10409SOL    HW132126   0.891   3.928   0.377
10409SOL    HW232127   0.764   4.030   0.389
10410SOL     OW32128   5.647   2.390   1.537
10410SOL    HW132129   5.689   2.479   1.554
10410SOL    HW232130   5.713   2.329   1.494
10411SOL     OW32131   3.933   5.952   4.688
10411SOL    HW132132   4.006   5.986   4.746
10411SOL    HW232133   3.881   5.882   4.737
10412SOL     OW32134   6.730   0.855   0.479
10412SOL    HW132135   6.792   0.899   0.544
10412SOL    HW232136   6.660   0.804   0.529
10413SOL     OW32137   6.839   1.763   1.451
10413SOL    HW132138   6.799   1.835   1.508
10413SOL    HW232139   6.925   1.796   1.412
10414SOL     OW32140   3.987   6.020   5.970
10414SOL    HW132141   3.965   6.040   5.875
10414SOL    HW232142   4.020   6.104   6.015
10415SOL     OW32143   2.085   4.199   3.727
10415SOL    HW132144   2.168   4.247   3.755
10415SOL    HW232145   2.070   4.120   3.786
10416SOL     OW32146   5.953   0.447   5.073
10416SOL    HW132147   6.049   0.448   5.098
10416SOL    HW232148   5.917   0.355   5.081
10417SOL     OW32149   4.569   5.393   4.281
10417SOL    HW132150   4.580   5.488   4.252
10417SOL    HW232151   4.636   5.336   4.235
10418SOL     OW32152   6.001   4.063   6.013
10418SOL    HW132153   6.093   4.053   6.049
10418SOL    HW232154   5.957   4.143   6.055
10419SOL     OW32155   2.943   0.003   5.255
10419SOL    HW132156   2.865   0.044   5.208
10419SOL    HW232157   3.024   0.061   5.243
10420SOL     OW32158   6.806   3.741   3.995
10420SOL    HW132159   6.838   3.738   3.900
10420SOL    HW232160   6.885   3.744   4.056
10421SOL     OW32161   1.625   3.235   4.941
10421SOL    HW132162   1.531   3.269   4.935
10421SOL    HW232163   1.686   3.298   4.893
10422SOL     OW32164   0.138   3.556   5.061
10422SOL    HW132165   0.055   3.537   5.009
10422SOL    HW232166   0.200   3.478   5.056
10423SOL     OW32167   4.619   4.791   5.060
10423SOL    HW132168   4.672   4.705   5.058
10423SOL    HW232169   4.588   4.808   5.153
10424SOL     OW32170   4.169   2.952   0.440
10424SOL    HW132171   4.169   3.052   0.446
10424SOL    HW232172   4.200   2.923   0.350
10425SOL     OW32173   0.882   5.687   2.818
10425SOL    HW132174   0.944   5.739   2.760
10425SOL    HW232175   0.871   5.733   2.906
10426SOL     OW32176   5.249   4.082   6.061
10426SOL    HW132177   5.243   4.123   6.152
10426SOL    HW232178   5.194   4.136   5.997
10427SOL     OW32179   5.187   0.323   0.001
10427SOL    HW132180   5.096   0.340   6.987
10427SOL    HW232181   5.197   0.225   0.020
10428SOL     OW32182   2.838   1.764   4.264
10428SOL    HW132183   2.921   1.771   4.210
10428SOL    HW232184   2.779   1.694   4.225
10429SOL     OW32185   0.965   3.865   2.990
10429SOL    HW132186   0.997   3.938   2.929
10429SOL    HW232187   0.986   3.776   2.949
10430SOL     OW32188   3.439   6.777   4.595
10430SOL    HW132189   3.370   6.843   4.567
10430SOL    HW232190   3.394   6.689   4.615
10431SOL     OW32191   2.879   0.109   4.551
10431SOL    HW132192   2.881   0.209   4.559
10431SOL    HW232193   2.784   0.078   4.553
10432SOL     OW32194   6.967   1.661   5.086
10432SOL    HW132195   6.995   1.587   5.146
10432SOL    HW232196   0.021   1.689   5.028
10433SOL     OW32197   0.234   6.529   2.529
10433SOL    HW132198   0.219   6.626   2.544
10433SOL    HW232199   0.251   6.484   2.617
10434SOL     OW32200   3.870   6.223   4.644
10434SOL    HW132201   3.816   6.233   4.727
10434SOL    HW232202   3.888   6.126   4.628
10435SOL     OW32203   2.083   2.103   6.337
10435SOL    HW132204   2.021   2.135   6.408
10435SOL    HW232205   2.170   2.152   6.345
10436SOL     OW32206   6.310   3.862   4.473
10436SOL    HW132207   6.344   3.927   4.541
10436SOL    HW232208   6.211   3.875   4.462
10437SOL     OW32209   6.029   4.915   5.058
10437SOL    HW132210   5.971   4.835   5.075
10437SOL    HW232211   6.095   4.893   4.986
10438SOL     OW32212   0.658   6.153   6.285
10438SOL    HW132213   0.559   6.150   6.286
10438SOL    HW232214   0.689   6.248   6.277
10439SOL     OW32215   5.423   1.227   4.985
10439SOL    HW132216   5.399   1.312   5.032
10439SOL    HW232217   5.416   1.240   4.886
10440SOL     OW32218   0.121   6.963   0.327
10440SOL    HW132219   0.182   6.976   0.405
10440SOL    HW232220   0.159   6.894   0.265
10441SOL     OW32221   2.814   1.733   1.653
10441SOL    HW132222   2.792   1.671   1.578
10441SOL    HW232223   2.905   1.712   1.689
10442SOL     OW32224   4.506   6.958   4.977
10442SOL    HW132225   4.538   0.006   4.915
10442SOL    HW232226   4.464   6.883   4.925
10443SOL     OW32227   5.759   2.569   2.704
10443SOL    HW132228   5.847   2.530   2.677
10443SOL    HW232229   5.759   2.667   2.688
10444SOL     OW32230   4.197   5.832   1.952
10444SOL    HW132231   4.228   5.737   1.958
10444SOL    HW232232   4.133   5.851   2.026
10445SOL     OW32233   0.602   3.502   3.047
10445SOL    HW132234   0.638   3.593   3.064
10445SOL    HW232235   0.676   3.435   3.053
10446SOL     OW32236   2.110   3.622   6.340
10446SOL    HW132237   2.013   3.608   6.360
10446SOL    HW232238   2.158   3.649   6.424
10447SOL     OW32239   0.040   0.553   2.907
10447SOL    HW132240   0.003   0.556   2.814
10447SOL    HW232241   0.137   0.578   2.905
10448SOL     OW32242   3.551   0.480   1.864
10448SOL    HW132243   3.645   0.513   1.862
10448SOL    HW232244   3.532   0.439   1.953
10449SOL     OW32245   1.971   5.236   6.272
10449SOL    HW132246   1.924   5.202   6.353
10449SOL    HW232247   2.051   5.179   6.253
10450SOL     OW32248   6.992   1.736   6.844
10450SOL    HW132249   7.003   1.744   6.745
10450SOL    HW232250   0.036   1.671   6.880
10451SOL     OW32251   2.695   6.862   2.929
10451SOL    HW132252   2.783   6.879   2.974
10451SOL    HW232253   2.667   6.768   2.946
10452SOL     OW32254   6.069   3.320   3.187
10452SOL    HW132255   6.064   3.220   3.194
10452SOL    HW232256   6.110   3.357   3.270
10453SOL     OW32257   5.489   6.113   1.374
10453SOL    HW132258   5.495   6.014   1.387
10453SOL    HW232259   5.507   6.159   1.461
10454SOL     OW32260   5.396   2.126   0.466
10454SOL    HW132261   5.320   2.077   0.508
10454SOL    HW232262   5.466   2.061   0.436
10455SOL     OW32263   0.132   6.590   3.654
10455SOL    HW132264   0.185   6.535   3.589
10455SOL    HW232265   0.044   6.546   3.670
10456SOL     OW32266   1.071   5.111   0.927
10456SOL    HW132267   1.103   5.185   0.867
10456SOL    HW232268   1.028   5.150   1.008
10457SOL     OW32269   4.477   3.178   0.498
10457SOL    HW132270   4.384   3.167   0.534
10457SOL    HW232271   4.531   3.097   0.520
10458SOL     OW32272   6.744   0.242   6.256
10458SOL    HW132273   6.816   0.200   6.310
10458SOL    HW232274   6.666   0.180   6.249
10459SOL     OW32275   4.343   5.808   1.451
10459SOL    HW132276   4.335   5.888   1.392
10459SOL    HW232277   4.319   5.834   1.545
10460SOL     OW32278   2.065   4.064   1.750
10460SOL    HW132279   2.014   3.994   1.801
10460SOL    HW232280   2.078   4.033   1.655
10461SOL     OW32281   5.912   4.668   5.159
10461SOL    HW132282   5.986   4.609   5.191
10461SOL    HW232283   5.847   4.683   5.233
10462SOL     OW32284   5.718   2.325   2.824
10462SOL    HW132285   5.658   2.260   2.778
10462SOL    HW232286   5.706   2.416   2.785
10463SOL     OW32287   3.873   2.320   5.940
10463SOL    HW132288   3.813   2.350   6.014
10463SOL    HW232289   3.968   2.319   5.972
10464SOL     OW32290   5.972   6.331   2.297
10464SOL    HW132291   6.066   6.342   2.330
10464SOL    HW232292   5.938   6.420   2.266
10465SOL     OW32293   5.542   5.773   1.243
10465SOL    HW132294   5.458   5.732   1.276
10465SOL    HW232295   5.601   5.796   1.320
10466SOL     OW32296   4.722   4.602   5.356
10466SOL    HW132297   4.756   4.508   5.350
10466SOL    HW232298   4.800   4.665   5.368
10467SOL     OW32299   2.018   1.977   0.451
10467SOL    HW132300   2.099   1.937   0.408
10467SOL    HW232301   1.949   1.906   0.466
10468SOL     OW32302   3.505   4.873   3.507
10468SOL    HW132303   3.563   4.823   3.443
10468SOL    HW232304   3.551   4.880   3.596
10469SOL     OW32305   3.948   4.552   6.034
10469SOL    HW132306   4.016   4.486   6.003
10469SOL    HW232307   3.888   4.509   6.101
10470SOL     OW32308   1.824   1.901   3.536
10470SOL    HW132309   1.853   1.856   3.452
10470SOL    HW232310   1.850   1.997   3.533
10471SOL     OW32311   2.250   0.258   0.748
10471SOL    HW132312   2.272   0.214   0.660
10471SOL    HW232313   2.238   0.356   0.733
10472SOL     OW32314   2.908   5.916   0.519
10472SOL    HW132315   2.894   5.935   0.616
10472SOL    HW232316   2.836   5.961   0.466
10473SOL     OW32317   6.312   6.980   6.066
10473SOL    HW132318   6.286   6.896   6.018
10473SOL    HW232319   6.410   6.978   6.084
10474SOL     OW32320   4.130   1.061   4.360
10474SOL    HW132321   4.066   1.058   4.283
10474SOL    HW232322   4.080   1.045   4.445
10475SOL     OW32323   3.990   6.626   1.544
10475SOL    HW132324   3.939   6.703   1.506
10475SOL    HW232325   3.957   6.541   1.503
10476SOL     OW32326   6.014   6.413   6.110
10476SOL    HW132327   6.062   6.403   6.197
10476SOL    HW232328   5.938   6.477   6.120
10477SOL     OW32329   6.929   1.359   4.679
10477SOL    HW132330   6.919   1.439   4.739
10477SOL    HW232331   6.918   1.389   4.584
10478SOL     OW32332   6.335   6.972   0.496
10478SOL    HW132333   6.301   6.881   0.522
10478SOL    HW232334   6.258   0.005   0.465
10479SOL     OW32335   6.883   1.669   2.692
10479SOL    HW132336   6.932   1.750   2.725
10479SOL    HW232337   6.824   1.634   2.765
10480SOL     OW32338   0.900   0.691   2.369
10480SOL    HW132339   0.925   0.596   2.390
10480SOL    HW232340   0.813   0.713   2.413
10481SOL     OW32341   1.867   6.263   3.670
10481SOL    HW132342   1.874   6.216   3.583
10481SOL    HW232343   1.879   6.362   3.656
10482SOL     OW32344   6.350   5.108   4.196
10482SOL    HW132345   6.292   5.132   4.274
10482SOL    HW232346   6.373   5.011   4.199
10483SOL     OW32347   5.997   5.271   0.599
10483SOL    HW132348   5.899   5.287   0.613
10483SOL    HW232349   6.028   5.198   0.659
10484SOL     OW32350   5.698   1.968   1.497
10484SOL    HW132351   5.666   1.938   1.408
10484SOL    HW232352   5.630   2.029   1.538
10485SOL     OW32353   3.529   4.190   0.674
10485SOL    HW132354   3.512   4.151   0.765
10485SOL    HW232355   3.626   4.211   0.664
10486SOL     OW32356   6.893   0.268   0.784
10486SOL    HW132357   6.896   0.280   0.883
10486SOL    HW232358   6.939   0.183   0.758
10487SOL     OW32359   4.982   0.630   1.419
10487SOL    HW132360   4.900   0.574   1.404
10487SOL    HW232361   4.962   0.698   1.490
10488SOL     OW32362   3.382   1.147   5.978
10488SOL    HW132363   3.383   1.114   6.073
10488SOL    HW232364   3.335   1.235   5.975
10489SOL     OW32365   0.925   6.752   5.378
10489SOL    HW132366   0.951   6.688   5.450
10489SOL    HW232367   0.931   6.706   5.289
10490SOL     OW32368   6.003   1.779   0.722
10490SOL    HW132369   5.962   1.829   0.647
10490SOL    HW232370   5.957   1.803   0.808
10491SOL     OW32371   1.735   2.733   0.145
10491SOL    HW132372   1.730   2.639   0.180
10491SOL    HW232373   1.830   2.764   0.146
10492SOL     OW32374   5.792   4.661   5.809
10492SOL    HW132375   5.880   4.653   5.856
10492SOL    HW232376   5.718   4.650   5.876
10493SOL     OW32377   3.171   0.732   2.136
10493SOL    HW132378   3.173   0.832   2.129
10493SOL    HW232379   3.087   0.703   2.182
10494SOL     OW32380   5.576   3.846   5.962
10494SOL    HW132381   5.562   3.759   6.009
10494SOL    HW232382   5.671   3.852   5.931
10495SOL     OW32383   1.773   6.800   0.128
10495SOL    HW132384   1.812   6.771   0.040
10495SOL    HW232385   1.720   6.725   0.167
10496SOL     OW32386   0.159   3.704   6.378
10496SOL    HW132387   0.172   3.645   6.458
10496SOL    HW232388   0.156   3.800   6.408
10497SOL     OW32389   1.952   0.216   2.131
10497SOL    HW132390   2.035   0.161   2.136
10497SOL    HW232391   1.873   0.159   2.154
10498SOL     OW32392   3.281   5.357   1.100
10498SOL    HW132393   3.316   5.328   1.011
10498SOL    HW232394   3.202   5.300   1.124
10499SOL     OW32395   3.421   6.962   2.647
10499SOL    HW132396   3.426   0.008   2.575
10499SOL    HW232397   3.334   6.971   2.697
10500SOL     OW32398   6.343   1.654   6.396
10500SOL    HW132399   6.327   1.555   6.403
10500SOL    HW232400   6.439   1.671   6.375
10501SOL     OW32401   2.006   5.782   2.461
10501SOL    HW132402   2.085   5.778   2.399
10501SOL    HW232403   2.000   5.695   2.512
10502SOL     OW32404   2.428   0.553   1.194
10502SOL    HW132405   2.515   0.579   1.237
10502SOL    HW232406   2.418   0.454   1.196
10503SOL     OW32407   4.358   2.873   0.630
10503SOL    HW132408   4.288   2.914   0.572
10503SOL    HW232409   4.314   2.810   0.695
10504SOL     OW32410   1.487   1.727   5.905
10504SOL    HW132411   1.394   1.691   5.910
10504SOL    HW232412   1.531   1.717   5.994
10505SOL     OW32413   5.505   5.458   0.525
10505SOL    HW132414   5.468   5.439   0.616
10505SOL    HW232415   5.490   5.378   0.466
10506SOL     OW32416   0.381   4.639   0.383
10506SOL    HW132417   0.471   4.605   0.407
10506SOL    HW232418   0.374   4.736   0.408
10507SOL     OW32419   1.767   0.615   0.204
10507SOL    HW132420   1.713   0.621   0.288
10507SOL    HW232421   1.714   0.567   0.134
10508SOL     OW32422   6.189   6.580   4.770
10508SOL    HW132423   6.235   6.533   4.694
10508SOL    HW232424   6.153   6.512   4.834
10509SOL     OW32425   0.881   5.400   3.974
10509SOL    HW132426   0.815   5.380   3.901
10509SOL    HW232427   0.879   5.326   4.041
10510SOL     OW32428   4.477   6.181   6.088
10510SOL    HW132429   4.449   6.176   6.184
10510SOL    HW232430   4.576   6.168   6.082
10511SOL     OW32431   3.817   0.924   2.206
10511SOL    HW132432   3.767   0.963   2.128
10511SOL    HW232433   3.807   0.825   2.205
10512SOL     OW32434   4.223   0.403   6.122
10512SOL    HW132435   4.167   0.321   6.107
10512SOL    HW232436   4.208   0.467   6.047
10513SOL     OW32437   6.034   2.657   4.702
10513SOL    HW132438   5.963   2.631   4.766
10513SOL    HW232439   6.105   2.709   4.750
10514SOL     OW32440   0.589   4.159   0.559
10514SOL    HW132441   0.499   4.121   0.536
10514SOL    HW232442   0.582   4.213   0.643
10515SOL     OW32443   0.937   3.083   2.797
10515SOL    HW132444   0.993   3.085   2.880
10515SOL    HW232445   0.959   3.001   2.744
10516SOL     OW32446   3.914   1.066   0.720
10516SOL    HW132447   3.854   1.061   0.641
10516SOL    HW232448   3.911   0.980   0.770
10517SOL     OW32449   0.993   2.360   2.532
10517SOL    HW132450   0.901   2.378   2.567
10517SOL    HW232451   1.052   2.438   2.553
10518SOL     OW32452   1.102   5.505   6.745
10518SOL    HW132453   1.074   5.579   6.806
10518SOL    HW232454   1.030   5.487   6.678
10519SOL     OW32455   1.867   3.204   6.804
10519SOL    HW132456   1.957   3.192   6.761
10519SOL    HW232457   1.870   3.170   6.898
10520SOL     OW32458   0.780   2.697   6.631
10520SOL    HW132459   0.767   2.605   6.667
10520SOL    HW232460   0.828   2.692   6.544
10521SOL     OW32461   6.218   6.738   2.272
10521SOL    HW132462   6.276   6.799   2.219
10521SOL    HW232463   6.259   6.647   2.275
10522SOL     OW32464   0.404   0.268   5.785
10522SOL    HW132465   0.374   0.235   5.696
10522SOL    HW232466   0.325   0.285   5.843
10523SOL     OW32467   0.148   4.911   3.643
10523SOL    HW132468   0.087   4.849   3.594
10523SOL    HW232469   0.242   4.893   3.616
10524SOL     OW32470   1.450   0.450   4.831
10524SOL    HW132471   1.389   0.516   4.875
10524SOL    HW232472   1.445   0.461   4.732
10525SOL     OW32473   3.401   6.615   6.736
10525SOL    HW132474   3.362   6.702   6.765
10525SOL    HW232475   3.468   6.584   6.803
10526SOL     OW32476   1.173   6.627   4.050
10526SOL    HW132477   1.132   6.558   4.109
10526SOL    HW232478   1.104   6.661   3.985
10527SOL     OW32479   6.961   2.144   4.762
10527SOL    HW132480   6.918   2.054   4.752
10527SOL    HW232481   6.914   2.196   4.833
10528SOL     OW32482   1.843   3.545   6.397
10528SOL    HW132483   1.833   3.597   6.482
10528SOL    HW232484   1.753   3.516   6.365
10529SOL     OW32485   2.799   5.756   4.021
10529SOL    HW132486   2.822   5.785   3.928
10529SOL    HW232487   2.882   5.757   4.077
10530SOL     OW32488   2.236   0.234   6.448
10530SOL    HW132489   2.217   0.247   6.351
10530SOL    HW232490   2.279   0.145   6.463
10531SOL     OW32491   1.631   2.889   3.959
10531SOL    HW132492   1.719   2.903   4.006
10531SOL    HW232493   1.557   2.921   4.018
10532SOL     OW32494   1.049   5.544   5.559
10532SOL    HW132495   1.113   5.556   5.484
10532SOL    HW232496   0.975   5.484   5.530
10533SOL     OW32497   2.792   1.187   5.210
10533SOL    HW132498   2.786   1.272   5.262
10533SOL    HW232499   2.886   1.175   5.177
10534SOL     OW32500   6.685   6.086   1.420
10534SOL    HW132501   6.753   6.151   1.385
10534SOL    HW232502   6.694   6.080   1.520
10535SOL     OW32503   0.759   2.045   1.266
10535SOL    HW132504   0.851   2.017   1.296
10535SOL    HW232505   0.697   2.043   1.344
10536SOL     OW32506   3.805   0.397   3.006
10536SOL    HW132507   3.792   0.299   3.013
10536SOL    HW232508   3.800   0.426   2.911
10537SOL     OW32509   3.919   5.520   4.215
10537SOL    HW132510   3.833   5.522   4.166
10537SOL    HW232511   3.902   5.531   4.313
10538SOL     OW32512   5.010   1.796   0.612
10538SOL    HW132513   5.091   1.854   0.606
10538SOL    HW232514   5.029   1.707   0.572
10539SOL     OW32515   1.004   4.141   0.284
10539SOL    HW132516   1.046   4.146   0.193
10539SOL    HW232517   1.074   4.125   0.353
10540SOL     OW32518   1.701   2.436   4.996
10540SOL    HW132519   1.678   2.440   4.899
10540SOL    HW232520   1.663   2.515   5.043
10541SOL     OW32521   3.347   4.060   2.412
10541SOL    HW132522   3.447   4.062   2.420
10541SOL    HW232523   3.319   3.969   2.382
10542SOL     OW32524   0.016   0.537   5.318
10542SOL    HW132525   0.044   0.537   5.414
10542SOL    HW232526   0.067   0.467   5.268
10543SOL     OW32527   0.541   1.032   5.337
10543SOL    HW132528   0.610   1.085   5.387
10543SOL    HW232529   0.584   0.953   5.294
10544SOL     OW32530   2.325   6.528   2.126
10544SOL    HW132531   2.381   6.457   2.082
10544SOL    HW232532   2.354   6.539   2.221
10545SOL     OW32533   6.280   1.049   2.119
10545SOL    HW132534   6.348   1.052   2.192
10545SOL    HW232535   6.208   1.115   2.137
10546SOL     OW32536   1.965   0.986   6.958
10546SOL    HW132537   1.964   0.888   6.937
10546SOL    HW232538   2.053   1.024   6.932
10547SOL     OW32539   5.410   2.390   2.501
10547SOL    HW132540   5.448   2.481   2.521
10547SOL    HW232541   5.438   2.362   2.409
10548SOL     OW32542   5.366   4.710   4.584
10548SOL    HW132543   5.327   4.637   4.640
10548SOL    HW232544   5.403   4.671   4.500
10549SOL     OW32545   0.137   6.924   1.813
10549SOL    HW132546   0.049   6.893   1.849
10549SOL    HW232547   0.188   6.969   1.886
10550SOL     OW32548   3.858   5.776   3.987
10550SOL    HW132549   3.899   5.798   3.898
10550SOL    HW232550   3.930   5.770   4.056
10551SOL     OW32551   1.381   2.670   5.759
10551SOL    HW132552   1.416   2.756   5.794
10551SOL    HW232553   1.377   2.673   5.659
10552SOL     OW32554   3.221   1.353   6.761
10552SOL    HW132555   3.201   1.339   6.664
10552SOL    HW232556   3.229   1.452   6.779
10553SOL     OW32557   0.845   4.619   1.738
10553SOL    HW132558   0.828   4.707   1.785
10553SOL    HW232559   0.943   4.609   1.723
10554SOL     OW32560   5.719   4.860   0.346
10554SOL    HW132561   5.744   4.766   0.323
10554SOL    HW232562   5.629   4.860   0.390
10555SOL     OW32563   2.113   3.172   0.239
10555SOL    HW132564   2.071   3.107   0.302
10555SOL    HW232565   2.062   3.258   0.240
10556SOL     OW32566   2.281   1.469   5.381
10556SOL    HW132567   2.333   1.440   5.461
10556SOL    HW232568   2.281   1.569   5.376
10557SOL     OW32569   2.212   2.476   3.204
10557SOL    HW132570   2.192   2.496   3.300
10557SOL    HW232571   2.137   2.424   3.165
10558SOL     OW32572   3.631   1.601   3.838
10558SOL    HW132573   3.721   1.645   3.830
10558SOL    HW232574   3.642   1.508   3.871
10559SOL     OW32575   5.447   0.184   0.817
10559SOL    HW132576   5.454   0.159   0.914
10559SOL    HW232577   5.457   0.283   0.807
10560SOL     OW32578   3.442   6.268   2.886
10560SOL    HW132579   3.379   6.215   2.942
10560SOL    HW232580   3.500   6.325   2.945
10561SOL     OW32581   3.140   4.276   0.371
10561SOL    HW132582   3.193   4.258   0.453
10561SOL    HW232583   3.079   4.199   0.353
10562SOL     OW32584   4.550   5.333   0.322
10562SOL    HW132585   4.457   5.367   0.314
10562SOL    HW232586   4.614   5.404   0.295
10563SOL     OW32587   0.820   1.475   3.580
10563SOL    HW132588   0.791   1.464   3.675
10563SOL    HW232589   0.895   1.412   3.560
10564SOL     OW32590   5.794   6.744   1.515
10564SOL    HW132591   5.856   6.678   1.556
10564SOL    HW232592   5.804   6.742   1.415
10565SOL     OW32593   0.649   0.756   6.169
10565SOL    HW132594   0.555   0.764   6.202
10565SOL    HW232595   0.656   0.797   6.078
10566SOL     OW32596   3.755   2.151   0.249
10566SOL    HW132597   3.695   2.231   0.245
10566SOL    HW232598   3.792   2.132   0.158
10567SOL     OW32599   3.226   1.887   4.322
10567SOL    HW132600   3.240   1.976   4.278
10567SOL    HW232601   3.146   1.891   4.381
10568SOL     OW32602   6.411   3.004   1.612
10568SOL    HW132603   6.418   2.937   1.539
10568SOL    HW232604   6.325   3.053   1.603
10569SOL     OW32605   5.877   1.938   1.876
10569SOL    HW132606   5.912   1.880   1.949
10569SOL    HW232607   5.846   1.881   1.799
10570SOL     OW32608   1.698   4.915   3.106
10570SOL    HW132609   1.620   4.931   3.167
10570SOL    HW232610   1.697   4.820   3.076
10571SOL     OW32611   6.916   4.514   5.569
10571SOL    HW132612   6.927   4.604   5.527
10571SOL    HW232613   6.862   4.455   5.508
10572SOL     OW32614   0.214   4.067   3.502
10572SOL    HW132615   0.258   3.980   3.477
10572SOL    HW232616   0.236   4.136   3.434
10573SOL     OW32617   4.591   0.079   4.774
10573SOL    HW132618   4.657   0.050   4.705
10573SOL    HW232619   4.526   0.143   4.733
10574SOL     OW32620   1.554   1.084   3.859
10574SOL    HW132621   1.570   1.092   3.957
10574SOL    HW232622   1.628   1.129   3.809
10575SOL     OW32623   6.403   1.445   2.827
10575SOL    HW132624   6.357   1.364   2.790
10575SOL    HW232625   6.402   1.518   2.759
10576SOL     OW32626   6.908   6.174   5.104
10576SOL    HW132627   6.926   6.257   5.051
10576SOL    HW232628   6.847   6.195   5.180
10577SOL     OW32629   1.873   3.357   0.204
10577SOL    HW132630   1.780   3.393   0.200
10577SOL    HW232631   1.871   3.258   0.194
10578SOL     OW32632   5.606   1.290   3.113
10578SOL    HW132633   5.632   1.362   3.049
10578SOL    HW232634   5.640   1.202   3.081
10579SOL     OW32635   3.997   2.244   1.482
10579SOL    HW132636   3.973   2.224   1.577
10579SOL    HW232637   3.996   2.159   1.429
10580SOL     OW32638   6.472   0.369   6.741
10580SOL    HW132639   6.440   0.404   6.829
10580SOL    HW232640   6.509   0.276   6.753
10581SOL     OW32641   0.050   6.791   3.428
10581SOL    HW132642   0.020   6.783   3.333
10581SOL    HW232643   7.015   6.733   3.486
10582SOL     OW32644   5.675   5.030   6.621
10582SOL    HW132645   5.734   4.951   6.601
10582SOL    HW232646   5.727   5.114   6.609
10583SOL     OW32647   3.794   1.388   4.894
10583SOL    HW132648   3.870   1.344   4.845
10583SOL    HW232649   3.831   1.451   4.963
10584SOL     OW32650   6.374   6.599   1.394
10584SOL    HW132651   6.367   6.679   1.335
10584SOL    HW232652   6.348   6.623   1.488
10585SOL     OW32653   2.343   2.622   6.001
10585SOL    HW132654   2.261   2.572   5.974
10585SOL    HW232655   2.350   2.707   5.949
10586SOL     OW32656   6.472   4.982   5.033
10586SOL    HW132657   6.380   4.958   5.002
10586SOL    HW232658   6.469   5.069   5.082
10587SOL     OW32659   6.374   4.286   0.460
10587SOL    HW132660   6.340   4.251   0.373
10587SOL    HW232661   6.342   4.380   0.473
10588SOL     OW32662   0.338   2.891   3.797
10588SOL    HW132663   0.403   2.824   3.833
10588SOL    HW232664   0.309   2.952   3.871
10589SOL     OW32665   6.020   1.440   4.286
10589SOL    HW132666   6.011   1.351   4.331
10589SOL    HW232667   6.101   1.440   4.228
10590SOL     OW32668   0.845   0.353   2.042
10590SOL    HW132669   0.853   0.403   1.955
10590SOL    HW232670   0.934   0.314   2.066
10591SOL     OW32671   0.867   1.582   6.639
10591SOL    HW132672   0.958   1.557   6.674
10591SOL    HW232673   0.872   1.672   6.596
10592SOL     OW32674   5.957   3.788   1.679
10592SOL    HW132675   5.924   3.882   1.670
10592SOL    HW232676   6.046   3.779   1.634
10593SOL     OW32677   2.499   5.138   0.377
10593SOL    HW132678   2.452   5.103   0.295
10593SOL    HW232679   2.578   5.193   0.348
10594SOL     OW32680   4.700   0.097   2.287
10594SOL    HW132681   4.689   0.099   2.386
10594SOL    HW232682   4.643   0.024   2.249
10595SOL     OW32683   3.703   6.558   5.960
10595SOL    HW132684   3.698   6.637   6.022
10595SOL    HW232685   3.622   6.501   5.973
10596SOL     OW32686   4.509   0.143   6.734
10596SOL    HW132687   4.580   0.209   6.762
10596SOL    HW232688   4.545   0.050   6.743
10597SOL     OW32689   3.542   0.991   5.432
10597SOL    HW132690   3.535   1.017   5.528
10597SOL    HW232691   3.496   1.060   5.376
10598SOL     OW32692   2.870   2.663   0.436
10598SOL    HW132693   2.876   2.655   0.336
10598SOL    HW232694   2.847   2.574   0.475
10599SOL     OW32695   5.546   2.704   5.948
10599SOL    HW132696   5.562   2.698   6.046
10599SOL    HW232697   5.629   2.676   5.899
10600SOL     OW32698   2.015   2.231   0.598
10600SOL    HW132699   2.009   2.249   0.696
10600SOL    HW232700   2.087   2.164   0.581
10601SOL     OW32701   1.493   4.618   5.440
10601SOL    HW132702   1.508   4.643   5.344
10601SOL    HW232703   1.580   4.587   5.480
10602SOL     OW32704   3.695   1.797   2.628
10602SOL    HW132705   3.788   1.766   2.651
10602SOL    HW232706   3.653   1.732   2.566
10603SOL     OW32707   3.281   5.761   3.330
10603SOL    HW132708   3.280   5.793   3.236
10603SOL    HW232709   3.219   5.817   3.385
10604SOL     OW32710   6.002   4.878   5.577
10604SOL    HW132711   6.026   4.883   5.674
10604SOL    HW232712   6.008   4.783   5.546
10605SOL     OW32713   1.688   5.683   0.408
10605SOL    HW132714   1.702   5.584   0.398
10605SOL    HW232715   1.606   5.700   0.462
10606SOL     OW32716   6.966   0.783   2.544
10606SOL    HW132717   6.912   0.851   2.594
10606SOL    HW232718   6.969   0.698   2.597
10607SOL     OW32719   4.073   4.883   5.701
10607SOL    HW132720   3.974   4.889   5.713
10607SOL    HW232721   4.097   4.913   5.609
10608SOL     OW32722   5.144   2.282   5.451
10608SOL    HW132723   5.091   2.213   5.500
10608SOL    HW232724   5.219   2.314   5.510
10609SOL     OW32725   3.053   6.771   0.566
10609SOL    HW132726   3.111   6.840   0.610
10609SOL    HW232727   2.981   6.742   0.629
10610SOL     OW32728   1.851   2.717   5.896
10610SOL    HW132729   1.907   2.662   5.958
10610SOL    HW232730   1.779   2.659   5.857
10611SOL     OW32731   4.062   3.786   6.062
10611SOL    HW132732   4.003   3.860   6.028
10611SOL    HW232733   4.113   3.747   5.985
10612SOL     OW32734   2.904   0.861   5.563
10612SOL    HW132735   2.951   0.874   5.476
10612SOL    HW232736   2.942   0.923   5.631
10613SOL     OW32737   6.009   6.791   4.728
10613SOL    HW132738   6.044   6.874   4.771
10613SOL    HW232739   6.084   6.731   4.703
10614SOL     OW32740   6.491   2.319   3.847
10614SOL    HW132741   6.526   2.320   3.753
10614SOL    HW232742   6.542   2.252   3.900
10615SOL     OW32743   3.174   6.494   5.891
10615SOL    HW132744   3.160   6.395   5.891
10615SOL    HW232745   3.219   6.521   5.976
10616SOL     OW32746   2.795   6.310   0.966
10616SOL    HW132747   2.722   6.376   0.943
10616SOL    HW232748   2.756   6.219   0.972
10617SOL     OW32749   2.315   2.442   1.096
10617SOL    HW132750   2.294   2.476   1.188
10617SOL    HW232751   2.407   2.472   1.070
10618SOL     OW32752   0.144   3.656   6.669
10618SOL    HW132753   0.160   3.637   6.766
10618SOL    HW232754   0.046   3.668   6.653
10619SOL     OW32755   0.033   4.219   2.047
10619SOL    HW132756   0.050   4.185   2.140
10619SOL    HW232757   0.040   4.318   2.046
10620SOL     OW32758   1.416   5.501   5.163
10620SOL    HW132759   1.479   5.425   5.172
10620SOL    HW232760   1.460   5.576   5.113
10621SOL     OW32761   1.224   6.205   2.156
10621SOL    HW132762   1.268   6.171   2.239
10621SOL    HW232763   1.132   6.236   2.177
10622SOL     OW32764   5.163   1.371   1.182
10622SOL    HW132765   5.146   1.301   1.252
10622SOL    HW232766   5.104   1.450   1.199
10623SOL     OW32767   0.208   4.806   5.435
10623SOL    HW132768   0.195   4.717   5.477
10623SOL    HW232769   0.160   4.876   5.489
10624SOL     OW32770   0.524   2.945   4.649
10624SOL    HW132771   0.550   2.859   4.606
10624SOL    HW232772   0.458   2.926   4.722
10625SOL     OW32773   0.350   4.284   6.964
10625SOL    HW132774   0.440   4.309   7.000
10625SOL    HW232775   0.326   4.192   6.996
10626SOL     OW32776   2.840   3.352   0.925
10626SOL    HW132777   2.913   3.324   0.862
10626SOL    HW232778   2.767   3.283   0.925
10627SOL     OW32779   4.980   6.866   0.309
10627SOL    HW132780   4.932   6.787   0.347
10627SOL    HW232781   5.079   6.850   0.312
10628SOL     OW32782   4.503   5.690   0.230
10628SOL    HW132783   4.413   5.697   0.188
10628SOL    HW232784   4.573   5.700   0.160
10629SOL     OW32785   2.696   5.071   5.199
10629SOL    HW132786   2.703   4.978   5.237
10629SOL    HW232787   2.717   5.068   5.101
10630SOL     OW32788   6.855   1.386   3.809
10630SOL    HW132789   6.858   1.349   3.902
10630SOL    HW232790   6.900   1.475   3.807
10631SOL     OW32791   2.797   4.790   4.607
10631SOL    HW132792   2.726   4.723   4.587
10631SOL    HW232793   2.802   4.856   4.531
10632SOL     OW32794   6.345   1.895   4.088
10632SOL    HW132795   6.308   1.987   4.079
10632SOL    HW232796   6.273   1.827   4.072
10633SOL     OW32797   2.626   3.204   1.434
10633SOL    HW132798   2.685   3.163   1.364
10633SOL    HW232799   2.643   3.159   1.522
10634SOL     OW32800   2.925   5.903   0.804
10634SOL    HW132801   3.012   5.953   0.804
10634SOL    HW232802   2.923   5.839   0.880
10635SOL     OW32803   3.683   1.394   0.948
10635SOL    HW132804   3.696   1.339   0.865
10635SOL    HW232805   3.768   1.440   0.971
10636SOL     OW32806   0.764   1.637   1.961
10636SOL    HW132807   0.674   1.668   1.929
10636SOL    HW232808   0.796   1.563   1.902
10637SOL     OW32809   2.599   4.540   5.684
10637SOL    HW132810   2.537   4.462   5.691
10637SOL    HW232811   2.665   4.537   5.759
10638SOL     OW32812   0.118   5.360   2.942
10638SOL    HW132813   0.147   5.266   2.926
10638SOL    HW232814   0.112   5.377   3.040
10639SOL     OW32815   1.234   3.238   2.905
10639SOL    HW132816   1.281   3.243   2.817
10639SOL    HW232817   1.220   3.330   2.941
10640SOL     OW32818   3.452   0.331   5.658
10640SOL    HW132819   3.521   0.315   5.729
10640SOL    HW232820   3.397   0.248   5.645
10641SOL     OW32821   3.194   1.710   0.999
10641SOL    HW132822   3.171   1.657   0.917
10641SOL    HW232823   3.194   1.650   1.079
10642SOL     OW32824   0.149   2.812   1.742
10642SOL    HW132825   0.165   2.877   1.668
10642SOL    HW232826   0.055   2.777   1.736
10643SOL     OW32827   2.269   5.000   5.030
10643SOL    HW132828   2.334   5.029   5.100
10643SOL    HW232829   2.185   4.968   5.074
10644SOL     OW32830   5.129   2.737   3.425
10644SOL    HW132831   5.127   2.833   3.450
10644SOL    HW232832   5.064   2.686   3.482
10645SOL     OW32833   1.127   1.792   5.180
10645SOL    HW132834   1.223   1.808   5.205
10645SOL    HW232835   1.105   1.844   5.097
10646SOL     OW32836   6.785   0.699   6.947
10646SOL    HW132837   6.790   0.610   6.902
10646SOL    HW232838   6.846   0.764   6.901
10647SOL     OW32839   3.324   5.229   6.108
10647SOL    HW132840   3.299   5.302   6.172
10647SOL    HW232841   3.241   5.190   6.068
10648SOL     OW32842   5.306   4.428   6.071
10648SOL    HW132843   5.326   4.331   6.058
10648SOL    HW232844   5.249   4.461   5.995
10649SOL     OW32845   0.290   3.780   3.193
10649SOL    HW132846   0.324   3.739   3.109
10649SOL    HW232847   0.227   3.717   3.239
10650SOL     OW32848   1.201   5.930   3.577
10650SOL    HW132849   1.192   6.025   3.604
10650SOL    HW232850   1.254   5.924   3.493
10651SOL     OW32851   4.381   6.543   6.414
10651SOL    HW132852   4.442   6.553   6.493
10651SOL    HW232853   4.375   6.630   6.366
10652SOL     OW32854   3.683   6.745   6.398
10652SOL    HW132855   3.672   6.646   6.401
10652SOL    HW232856   3.742   6.775   6.473
10653SOL     OW32857   5.207   4.069   3.941
10653SOL    HW132858   5.235   3.974   3.955
10653SOL    HW232859   5.287   4.129   3.951
10654SOL     OW32860   4.556   1.193   0.559
10654SOL    HW132861   4.651   1.213   0.585
10654SOL    HW232862   4.526   1.108   0.603
10655SOL     OW32863   2.707   5.643   0.541
10655SOL    HW132864   2.785   5.587   0.514
10655SOL    HW232865   2.733   5.699   0.620
10656SOL     OW32866   6.949   2.207   1.560
10656SOL    HW132867   6.977   2.181   1.468
10656SOL    HW232868   6.974   2.303   1.576
10657SOL     OW32869   6.375   0.251   6.015
10657SOL    HW132870   6.385   0.270   5.917
10657SOL    HW232871   6.439   0.179   6.042
10658SOL     OW32872   6.285   4.386   5.146
10658SOL    HW132873   6.360   4.452   5.152
10658SOL    HW232874   6.309   4.315   5.080
10659SOL     OW32875   6.983   6.398   1.019
10659SOL    HW132876   6.913   6.363   0.957
10659SOL    HW232877   0.035   6.332   1.025
10660SOL     OW32878   5.478   3.915   0.018
10660SOL    HW132879   5.516   4.001   7.007
10660SOL    HW232880   5.436   3.929   0.108
10661SOL     OW32881   6.928   6.503   2.669
10661SOL    HW132882   6.906   6.407   2.687
10661SOL    HW232883   6.959   6.547   2.753
10662SOL     OW32884   5.502   0.849   3.121
10662SOL    HW132885   5.407   0.867   3.094
10662SOL    HW232886   5.503   0.787   3.200
10663SOL     OW32887   0.556   0.734   1.768
10663SOL    HW132888   0.567   0.742   1.669
10663SOL    HW232889   0.633   0.779   1.814
10664SOL     OW32890   1.180   4.784   4.711
10664SOL    HW132891   1.229   4.853   4.658
10664SOL    HW232892   1.219   4.779   4.803
10665SOL     OW32893   0.938   0.903   1.184
10665SOL    HW132894   0.961   0.829   1.120
10665SOL    HW232895   0.905   0.982   1.133
10666SOL     OW32896   2.873   4.300   0.525
10666SOL    HW132897   2.917   4.289   0.615
10666SOL    HW232898   2.863   4.211   0.482
10667SOL     OW32899   4.203   3.221   5.318
10667SOL    HW132900   4.252   3.308   5.326
10667SOL    HW232901   4.145   3.224   5.236
10668SOL     OW32902   1.541   1.368   5.055
10668SOL    HW132903   1.630   1.325   5.045
10668SOL    HW232904   1.539   1.422   5.139
10669SOL     OW32905   5.835   6.502   0.476
10669SOL    HW132906   5.800   6.545   0.559
10669SOL    HW232907   5.758   6.480   0.415
10670SOL     OW32908   5.073   3.971   5.083
10670SOL    HW132909   5.158   3.919   5.074
10670SOL    HW232910   5.088   4.066   5.053
10671SOL     OW32911   2.587   1.878   2.904
10671SOL    HW132912   2.584   1.781   2.878
10671SOL    HW232913   2.593   1.934   2.822
10672SOL     OW32914   6.586   2.601   0.572
10672SOL    HW132915   6.680   2.630   0.594
10672SOL    HW232916   6.522   2.668   0.610
10673SOL     OW32917   0.772   1.452   6.876
10673SOL    HW132918   0.781   1.524   6.806
10673SOL    HW232919   0.862   1.417   6.899
10674SOL     OW32920   2.826   4.541   0.845
10674SOL    HW132921   2.913   4.517   0.801
10674SOL    HW232922   2.815   4.486   0.928
10675SOL     OW32923   1.832   0.074   6.098
10675SOL    HW132924   1.788   0.025   6.023
10675SOL    HW232925   1.786   0.162   6.112
10676SOL     OW32926   6.160   6.567   5.693
10676SOL    HW132927   6.062   6.578   5.710
10676SOL    HW232928   6.175   6.549   5.596
10677SOL     OW32929   0.677   0.756   2.102
10677SOL    HW132930   0.741   0.732   2.028
10677SOL    HW232931   0.673   0.855   2.111
10678SOL     OW32932   3.752   6.008   2.622
10678SOL    HW132933   3.796   5.996   2.711
10678SOL    HW232934   3.786   5.939   2.558
10679SOL     OW32935   5.506   4.824   6.191
10679SOL    HW132936   5.440   4.857   6.259
10679SOL    HW232937   5.494   4.875   6.106
10680SOL     OW32938   2.496   1.340   3.360
10680SOL    HW132939   2.495   1.440   3.349
10680SOL    HW232940   2.554   1.315   3.437
10681SOL     OW32941   0.220   3.779   6.974
10681SOL    HW132942   0.246   3.861   0.003
10681SOL    HW232943   0.130   3.747   7.005
10682SOL     OW32944   1.535   1.771   3.529
10682SOL    HW132945   1.563   1.723   3.612
10682SOL    HW232946   1.595   1.849   3.513
10683SOL     OW32947   3.486   2.023   3.761
10683SOL    HW132948   3.405   2.080   3.741
10683SOL    HW232949   3.458   1.945   3.817
10684SOL     OW32950   4.796   3.643   1.327
10684SOL    HW132951   4.884   3.594   1.323
10684SOL    HW232952   4.748   3.633   1.240
10685SOL     OW32953   0.026   4.820   2.876
10685SOL    HW132954   0.054   4.814   2.781
10685SOL    HW232955   0.018   4.916   2.903
10686SOL     OW32956   2.535   4.668   6.407
10686SOL    HW132957   2.633   4.656   6.395
10686SOL    HW232958   2.517   4.743   6.470
10687SOL     OW32959   0.017   5.312   2.008
10687SOL    HW132960   6.945   5.342   2.013
10687SOL    HW232961   0.031   5.233   2.068
10688SOL     OW32962   0.201   4.603   2.832
10688SOL    HW132963   0.194   4.691   2.880
10688SOL    HW232964   0.280   4.604   2.771
10689SOL     OW32965   0.644   6.973   4.311
10689SOL    HW132966   0.571   6.975   4.243
10689SOL    HW232967   0.701   0.032   4.302
10690SOL     OW32968   6.851   5.330   3.615
10690SOL    HW132969   6.771   5.270   3.614
10690SOL    HW232970   6.893   5.328   3.706
10691SOL     OW32971   0.429   1.199   2.662
10691SOL    HW132972   0.451   1.193   2.565
10691SOL    HW232973   0.402   1.109   2.696
10692SOL     OW32974   3.765   4.871   2.578
10692SOL    HW132975   3.682   4.870   2.633
10692SOL    HW232976   3.754   4.934   2.501
10693SOL     OW32977   1.813   0.371   1.277
10693SOL    HW132978   1.859   0.390   1.190
10693SOL    HW232979   1.871   0.402   1.352
10694SOL     OW32980   4.765   6.224   1.203
10694SOL    HW132981   4.714   6.149   1.245
10694SOL    HW232982   4.846   6.187   1.157
10695SOL     OW32983   5.446   2.113   2.887
10695SOL    HW132984   5.398   2.161   2.813
10695SOL    HW232985   5.526   2.066   2.849
10696SOL     OW32986   6.827   4.193   3.052
10696SOL    HW132987   6.842   4.131   3.129
10696SOL    HW232988   6.881   4.162   2.974
10697SOL     OW32989   0.036   6.631   5.086
10697SOL    HW132990   0.129   6.615   5.052
10697SOL    HW232991   0.041   6.672   5.177
10698SOL     OW32992   4.017   6.364   3.975
10698SOL    HW132993   3.945   6.299   3.999
10698SOL    HW232994   4.077   6.379   4.053
10699SOL     OW32995   4.057   2.181   2.335
10699SOL    HW132996   4.050   2.279   2.355
10699SOL    HW232997   3.965   2.142   2.328
10700SOL     OW32998   1.261   0.009   0.403
10700SOL    HW132999   1.166   0.042   0.404
10700SOL    HW233000   1.285   7.000   0.312
10701SOL     OW33001   3.461   6.052   0.022
10701SOL    HW133002   3.382   6.046   0.082
10701SOL    HW233003   3.451   5.986   6.970
10702SOL     OW33004   6.542   2.593   2.990
10702SOL    HW133005   6.518   2.497   2.978
10702SOL    HW233006   6.642   2.602   2.997
10703SOL     OW33007   3.772   3.222   4.229
10703SOL    HW133008   3.760   3.321   4.224
10703SOL    HW233009   3.869   3.200   4.218
10704SOL     OW33010   5.601   5.557   1.491
10704SOL    HW133011   5.639   5.644   1.460
10704SOL    HW233012   5.648   5.528   1.574
10705SOL     OW33013   6.919   4.144   1.799
10705SOL    HW133014   6.939   4.133   1.896
10705SOL    HW233015   6.994   4.193   1.755
10706SOL     OW33016   4.856   6.781   1.761
10706SOL    HW133017   4.809   6.829   1.687
10706SOL    HW233018   4.929   6.724   1.723
10707SOL     OW33019   0.629   6.755   4.650
10707SOL    HW133020   0.704   6.780   4.711
10707SOL    HW233021   0.608   6.657   4.662
10708SOL     OW33022   4.633   0.639   2.658
10708SOL    HW133023   4.557   0.664   2.719
10708SOL    HW233024   4.603   0.567   2.595
10709SOL     OW33025   6.309   1.198   5.109
10709SOL    HW133026   6.347   1.115   5.148
10709SOL    HW233027   6.269   1.179   5.019
10710SOL     OW33028   0.693   6.180   4.400
10710SOL    HW133029   0.708   6.270   4.440
10710SOL    HW233030   0.596   6.157   4.404
10711SOL     OW33031   1.682   6.539   4.085
10711SOL    HW133032   1.707   6.615   4.145
10711SOL    HW233033   1.721   6.553   3.995
10712SOL     OW33034   3.451   0.720   2.244
10712SOL    HW133035   3.366   0.723   2.192
10712SOL    HW233036   3.434   0.753   2.337
10713SOL     OW33037   1.441   3.876   2.070
10713SOL    HW133038   1.438   3.814   1.991
10713SOL    HW233039   1.354   3.873   2.119
10714SOL     OW33040   6.574   3.071   5.001
10714SOL    HW133041   6.518   3.051   4.920
10714SOL    HW233042   6.561   3.000   5.069
10715SOL     OW33043   3.700   0.618   3.167
10715SOL    HW133044   3.752   0.546   3.121
10715SOL    HW233045   3.632   0.576   3.227
10716SOL     OW33046   0.016   2.859   3.519
10716SOL    HW133047   6.990   2.772   3.511
10716SOL    HW233048   0.071   2.874   3.438
10717SOL     OW33049   0.983   2.214   0.406
10717SOL    HW133050   0.969   2.234   0.309
10717SOL    HW233051   0.896   2.223   0.454
10718SOL     OW33052   6.596   4.274   0.171
10718SOL    HW133053   6.525   4.213   0.137
10718SOL    HW233054   6.686   4.235   0.151
10719SOL     OW33055   4.504   5.947   1.049
10719SOL    HW133056   4.452   6.029   1.026
10719SOL    HW233057   4.513   5.941   1.149
10720SOL     OW33058   0.489   3.830   6.343
10720SOL    HW133059   0.513   3.900   6.275
10720SOL    HW233060   0.531   3.853   6.431
10721SOL     OW33061   6.071   2.645   5.046
10721SOL    HW133062   5.975   2.640   5.021
10721SOL    HW233063   6.118   2.561   5.019
10722SOL     OW33064   0.094   2.853   0.261
10722SOL    HW133065   0.180   2.816   0.224
10722SOL    HW233066   0.041   2.895   0.188
10723SOL     OW33067   6.281   4.299   6.911
10723SOL    HW133068   6.186   4.295   6.943
10723SOL    HW233069   6.315   4.207   6.895
10724SOL     OW33070   3.028   0.061   6.514
10724SOL    HW133071   2.951   7.021   6.497
10724SOL    HW233072   3.107   0.033   6.460
10725SOL     OW33073   6.818   4.943   3.952
10725SOL    HW133074   6.917   4.941   3.962
10725SOL    HW233075   6.777   4.986   4.033
10726SOL     OW33076   5.705   6.467   5.521
10726SOL    HW133077   5.718   6.540   5.454
10726SOL    HW233078   5.793   6.425   5.542
10727SOL     OW33079   1.637   4.731   4.661
10727SOL    HW133080   1.696   4.778   4.596
10727SOL    HW233081   1.692   4.674   4.722
10728SOL     OW33082   6.013   6.780   2.485
10728SOL    HW133083   6.070   6.756   2.407
10728SOL    HW233084   6.026   6.876   2.509
10729SOL     OW33085   6.347   1.209   2.688
10729SOL    HW133086   6.414   1.140   2.716
10729SOL    HW233087   6.255   1.172   2.698
10730SOL     OW33088   2.477   6.644   1.362
10730SOL    HW133089   2.511   6.672   1.453
10730SOL    HW233090   2.428   6.721   1.321
10731SOL     OW33091   2.166   5.614   6.804
10731SOL    HW133092   2.093   5.676   6.778
10731SOL    HW233093   2.198   5.564   6.724
10732SOL     OW33094   5.457   6.660   2.902
10732SOL    HW133095   5.477   6.632   2.809
10732SOL    HW233096   5.494   6.592   2.966
10733SOL     OW33097   5.718   2.689   0.287
10733SOL    HW133098   5.719   2.671   0.189
10733SOL    HW233099   5.812   2.696   0.321
10734SOL     OW33100   1.457   0.601   6.688
10734SOL    HW133101   1.436   0.548   6.606
10734SOL    HW233102   1.423   0.553   6.769
10735SOL     OW33103   1.302   4.524   2.303
10735SOL    HW133104   1.243   4.459   2.350
10735SOL    HW233105   1.387   4.535   2.355
10736SOL     OW33106   0.577   1.124   3.845
10736SOL    HW133107   0.600   1.032   3.817
10736SOL    HW233108   0.623   1.146   3.931
10737SOL     OW33109   1.315   2.744   0.644
10737SOL    HW133110   1.381   2.675   0.672
10737SOL    HW233111   1.291   2.730   0.548
10738SOL     OW33112   2.412   0.130   1.850
10738SOL    HW133113   2.344   0.066   1.885
10738SOL    HW233114   2.369   0.218   1.831
10739SOL     OW33115   6.805   1.219   3.031
10739SOL    HW133116   6.904   1.234   3.030
10739SOL    HW233117   6.765   1.256   2.948
10740SOL     OW33118   1.252   5.498   5.984
10740SOL    HW133119   1.349   5.515   5.966
10740SOL    HW233120   1.214   5.446   5.907
10741SOL     OW33121   1.154   0.956   3.651
10741SOL    HW133122   1.133   1.047   3.687
10741SOL    HW233123   1.248   0.931   3.676
10742SOL     OW33124   6.111   0.022   2.318
10742SOL    HW133125   6.054   0.027   2.236
10742SOL    HW233126   6.204   7.018   2.292
10743SOL     OW33127   2.453   2.603   3.410
10743SOL    HW133128   2.541   2.562   3.434
10743SOL    HW233129   2.431   2.583   3.315
10744SOL     OW33130   3.276   1.549   2.540
10744SOL    HW133131   3.290   1.548   2.441
10744SOL    HW233132   3.258   1.643   2.569
10745SOL     OW33133   1.575   4.640   6.607
10745SOL    HW133134   1.629   4.702   6.550
10745SOL    HW233135   1.553   4.685   6.693
10746SOL     OW33136   2.091   5.364   1.217
10746SOL    HW133137   2.000   5.386   1.252
10746SOL    HW233138   2.087   5.351   1.118
10747SOL     OW33139   5.156   1.329   3.642
10747SOL    HW133140   5.070   1.278   3.639
10747SOL    HW233141   5.186   1.338   3.737
10748SOL     OW33142   5.784   6.077   0.800
10748SOL    HW133143   5.798   6.047   0.705
10748SOL    HW233144   5.838   6.159   0.817
10749SOL     OW33145   0.255   4.974   3.136
10749SOL    HW133146   0.324   4.949   3.068
10749SOL    HW233147   0.189   4.899   3.144
10750SOL     OW33148   4.491   4.606   4.587
10750SOL    HW133149   4.489   4.550   4.670
10750SOL    HW233150   4.399   4.612   4.549
10751SOL     OW33151   0.775   3.092   5.504
10751SOL    HW133152   0.810   3.000   5.486
10751SOL    HW233153   0.712   3.089   5.581
10752SOL     OW33154   5.884   3.577   6.637
10752SOL    HW133155   5.861   3.596   6.732
10752SOL    HW233156   5.804   3.593   6.579
10753SOL     OW33157   6.219   0.194   3.544
10753SOL    HW133158   6.212   0.137   3.626
10753SOL    HW233159   6.188   0.287   3.565
10754SOL     OW33160   2.213   2.232   2.254
10754SOL    HW133161   2.150   2.288   2.309
10754SOL    HW233162   2.160   2.174   2.192
10755SOL     OW33163   0.020   1.703   0.786
10755SOL    HW133164   0.063   1.719   0.697
10755SOL    HW233165   7.008   1.610   0.790
10756SOL     OW33166   6.398   3.485   0.416
10756SOL    HW133167   6.434   3.420   0.483
10756SOL    HW233168   6.444   3.573   0.427
10757SOL     OW33169   6.979   3.762   0.062
10757SOL    HW133170   6.974   3.668   0.094
10757SOL    HW233171   6.919   3.820   0.117
10758SOL     OW33172   0.943   5.695   5.138
10758SOL    HW133173   0.989   5.642   5.066
10758SOL    HW233174   0.993   5.780   5.153
10759SOL     OW33175   1.594   3.195   0.036
10759SOL    HW133176   1.528   3.166   6.989
10759SOL    HW233177   1.545   3.220   0.120
10760SOL     OW33178   6.916   7.015   1.171
10760SOL    HW133179   6.984   0.019   1.239
10760SOL    HW233180   6.856   6.945   1.209
10761SOL     OW33181   0.940   2.207   6.401
10761SOL    HW133182   0.842   2.219   6.417
10761SOL    HW233183   0.989   2.223   6.487
10762SOL     OW33184   4.854   1.247   4.691
10762SOL    HW133185   4.909   1.180   4.641
10762SOL    HW233186   4.770   1.266   4.639
10763SOL     OW33187   4.354   6.543   1.079
10763SOL    HW133188   4.439   6.503   1.113
10763SOL    HW233189   4.372   6.597   0.997
10764SOL     OW33190   5.211   1.907   6.012
10764SOL    HW133191   5.266   1.984   5.979
10764SOL    HW233192   5.114   1.930   6.003
10765SOL     OW33193   5.908   2.048   1.210
10765SOL    HW133194   5.821   2.068   1.164
10765SOL    HW233195   5.890   2.019   1.304
10766SOL     OW33196   2.659   3.915   0.188
10766SOL    HW133197   2.625   3.907   0.094
10766SOL    HW233198   2.690   4.009   0.205
10767SOL     OW33199   1.201   0.371   0.830
10767SOL    HW133200   1.278   0.386   0.891
10767SOL    HW233201   1.215   0.421   0.745
10768SOL     OW33202   5.478   5.713   0.476
10768SOL    HW133203   5.506   5.617   0.487
10768SOL    HW233204   5.441   5.727   0.384
10769SOL     OW33205   2.810   5.345   5.122
10769SOL    HW133206   2.800   5.281   5.198
10769SOL    HW233207   2.885   5.408   5.141
10770SOL     OW33208   5.332   0.576   4.764
10770SOL    HW133209   5.304   0.670   4.785
10770SOL    HW233210   5.419   0.556   4.810
10771SOL     OW33211   4.497   0.107   5.200
10771SOL    HW133212   4.502   0.054   5.115
10771SOL    HW233213   4.506   0.204   5.180
10772SOL     OW33214   6.559   6.946   3.812
10772SOL    HW133215   6.592   0.013   3.839
10772SOL    HW233216   6.496   6.955   3.735
10773SOL     OW33217   0.024   5.063   6.852
10773SOL    HW133218   0.118   5.032   6.866
10773SOL    HW233219   6.987   5.022   6.921
10774SOL     OW33220   1.522   2.368   0.076
10774SOL    HW133221   1.500   2.293   0.137
10774SOL    HW233222   1.602   2.417   0.111
10775SOL     OW33223   2.239   4.561   0.465
10775SOL    HW133224   2.317   4.545   0.525
10775SOL    HW233225   2.241   4.656   0.432
10776SOL     OW33226   0.831   6.571   1.179
10776SOL    HW133227   0.817   6.474   1.164
10776SOL    HW233228   0.743   6.615   1.198
10777SOL     OW33229   4.324   0.326   3.442
10777SOL    HW133230   4.289   0.277   3.363
10777SOL    HW233231   4.419   0.354   3.425
10778SOL     OW33232   6.260   6.612   4.367
10778SOL    HW133233   6.257   6.699   4.318
10778SOL    HW233234   6.256   6.537   4.302
10779SOL     OW33235   0.410   4.457   3.040
10779SOL    HW133236   0.344   4.465   3.115
10779SOL    HW233237   0.370   4.402   2.967
10780SOL     OW33238   1.207   6.728   3.004
10780SOL    HW133239   1.307   6.724   2.998
10780SOL    HW233240   1.167   6.661   2.941
10781SOL     OW33241   4.324   1.768   4.046
10781SOL    HW133242   4.313   1.866   4.032
10781SOL    HW233243   4.329   1.748   4.144
10782SOL     OW33244   6.203   2.494   3.592
10782SOL    HW133245   6.109   2.494   3.558
10782SOL    HW233246   6.223   2.406   3.635
10783SOL     OW33247   1.729   3.190   2.446
10783SOL    HW133248   1.779   3.126   2.388
10783SOL    HW233249   1.693   3.142   2.526
10784SOL     OW33250   2.235   0.010   1.574
10784SOL    HW133251   2.172   0.064   1.518
10784SOL    HW233252   2.212   0.022   1.671
10785SOL     OW33253   1.969   4.629   1.758
10785SOL    HW133254   2.000   4.576   1.680
10785SOL    HW233255   1.908   4.702   1.726
10786SOL     OW33256   5.203   2.924   1.367
10786SOL    HW133257   5.125   2.923   1.304
10786SOL    HW233258   5.288   2.925   1.315
10787SOL     OW33259   3.342   1.328   4.975
10787SOL    HW133260   3.307   1.411   5.019
10787SOL    HW233261   3.272   1.290   4.915
10788SOL     OW33262   1.996   4.092   6.759
10788SOL    HW133263   2.023   4.004   6.800
10788SOL    HW233264   2.031   4.097   6.666
10789SOL     OW33265   5.515   1.184   0.371
10789SOL    HW133266   5.416   1.188   0.373
10789SOL    HW233267   5.546   1.096   0.409
10790SOL     OW33268   0.514   0.666   5.459
10790SOL    HW133269   0.457   0.700   5.534
10790SOL    HW233270   0.477   0.699   5.372
10791SOL     OW33271   0.923   1.895   1.499
10791SOL    HW133272   0.957   1.803   1.484
10791SOL    HW233273   0.825   1.891   1.520
10792SOL     OW33274   2.914   3.051   1.763
10792SOL    HW133275   2.967   2.994   1.825
10792SOL    HW233276   2.888   2.998   1.683
10793SOL     OW33277   5.598   2.345   4.303
10793SOL    HW133278   5.575   2.305   4.214
10793SOL    HW233279   5.514   2.377   4.348
10794SOL     OW33280   3.380   3.767   2.053
10794SOL    HW133281   3.316   3.810   1.989
10794SOL    HW233282   3.396   3.672   2.026
10795SOL     OW33283   6.137   4.318   3.389
10795SOL    HW133284   6.205   4.287   3.455
10795SOL    HW233285   6.046   4.317   3.432
10796SOL     OW33286   3.239   6.889   6.669
10796SOL    HW133287   3.164   6.832   6.705
10796SOL    HW233288   3.275   6.946   6.742
10797SOL     OW33289   4.291   2.893   1.148
10797SOL    HW133290   4.268   2.891   1.246
10797SOL    HW233291   4.270   2.804   1.107
10798SOL     OW33292   1.819   0.070   0.785
10798SOL    HW133293   1.868   0.008   0.845
10798SOL    HW233294   1.854   0.163   0.798
10799SOL     OW33295   3.550   1.775   1.530
10799SOL    HW133296   3.475   1.765   1.595
10799SOL    HW233297   3.633   1.735   1.568
10800SOL     OW33298   1.899   6.502   0.199
10800SOL    HW133299   1.969   6.509   0.270
10800SOL    HW233300   1.934   6.538   0.113
10801SOL     OW33301   0.646   0.253   4.666
10801SOL    HW133302   0.686   0.233   4.577
10801SOL    HW233303   0.705   0.217   4.738
10802SOL     OW33304   2.190   3.227   4.937
10802SOL    HW133305   2.263   3.170   4.975
10802SOL    HW233306   2.204   3.322   4.963
10803SOL     OW33307   4.897   4.637   4.623
10803SOL    HW133308   4.976   4.608   4.677
10803SOL    HW233309   4.871   4.729   4.649
10804SOL     OW33310   0.272   4.464   1.297
10804SOL    HW133311   0.272   4.530   1.222
10804SOL    HW233312   0.183   4.465   1.343
10805SOL     OW33313   3.406   0.208   6.556
10805SOL    HW133314   3.468   0.283   6.531
10805SOL    HW233315   3.389   0.210   6.654
10806SOL     OW33316   6.193   4.198   0.262
10806SOL    HW133317   6.094   4.184   0.265
10806SOL    HW233318   6.234   4.128   0.203
10807SOL     OW33319   3.265   6.719   3.621
10807SOL    HW133320   3.276   6.739   3.523
10807SOL    HW233321   3.279   6.803   3.673
10808SOL     OW33322   0.263   4.102   0.551
10808SOL    HW133323   0.226   4.104   0.458
10808SOL    HW233324   0.253   4.010   0.588
10809SOL     OW33325   2.614   0.321   4.311
10809SOL    HW133326   2.548   0.256   4.271
10809SOL    HW233327   2.655   0.376   4.239
10810SOL     OW33328   1.203   1.185   6.032
10810SOL    HW133329   1.243   1.272   6.004
10810SOL    HW233330   1.211   1.175   6.131
10811SOL     OW33331   3.939   4.889   4.997
10811SOL    HW133332   3.863   4.866   5.057
10811SOL    HW233333   3.906   4.942   4.920
10812SOL     OW33334   0.372   3.135   2.012
10812SOL    HW133335   0.335   3.227   2.007
10812SOL    HW233336   0.297   3.068   2.010
10813SOL     OW33337   2.142   6.045   6.758
10813SOL    HW133338   2.175   6.110   6.826
10813SOL    HW233339   2.042   6.045   6.757
10814SOL     OW33340   1.376   0.478   5.432
10814SOL    HW133341   1.320   0.538   5.375
10814SOL    HW233342   1.320   0.402   5.465
10815SOL     OW33343   5.047   5.355   3.375
10815SOL    HW133344   5.092   5.414   3.442
10815SOL    HW233345   5.007   5.276   3.421
10816SOL     OW33346   1.837   1.582   2.239
10816SOL    HW133347   1.834   1.508   2.172
10816SOL    HW233348   1.760   1.574   2.301
10817SOL     OW33349   5.646   6.413   2.871
10817SOL    HW133350   5.737   6.434   2.836
10817SOL    HW233351   5.636   6.314   2.882
10818SOL     OW33352   5.389   3.224   5.711
10818SOL    HW133353   5.342   3.213   5.798
10818SOL    HW233354   5.481   3.259   5.726
10819SOL     OW33355   0.717   4.210   6.778
10819SOL    HW133356   0.669   4.298   6.781
10819SOL    HW233357   0.814   4.224   6.796
10820SOL     OW33358   0.040   0.071   3.986
10820SOL    HW133359   0.067   7.022   4.051
10820SOL    HW233360   6.969   0.055   3.956
10821SOL     OW33361   5.421   6.118   2.450
10821SOL    HW133362   5.488   6.128   2.376
10821SOL    HW233363   5.443   6.183   2.523
10822SOL     OW33364   1.075   2.112   2.834
10822SOL    HW133365   1.078   2.048   2.911
10822SOL    HW233366   0.981   2.140   2.818
10823SOL     OW33367   1.748   5.209   1.430
10823SOL    HW133368   1.806   5.173   1.503
10823SOL    HW233369   1.653   5.209   1.461
10824SOL     OW33370   4.828   6.962   3.979
10824SOL    HW133371   4.801   0.035   3.977
10824SOL    HW233372   4.754   6.905   3.942
10825SOL     OW33373   2.681   0.652   0.559
10825SOL    HW133374   2.598   0.645   0.503
10825SOL    HW233375   2.673   0.731   0.619
10826SOL     OW33376   0.076   3.663   3.326
10826SOL    HW133377   0.018   3.671   3.245
10826SOL    HW233378   0.021   3.636   3.405
10827SOL     OW33379   6.048   3.895   4.372
10827SOL    HW133380   6.021   3.987   4.344
10827SOL    HW233381   5.980   3.829   4.338
10828SOL     OW33382   1.156   5.748   2.715
10828SOL    HW133383   1.183   5.653   2.731
10828SOL    HW233384   1.142   5.763   2.617
10829SOL     OW33385   3.254   3.490   0.576
10829SOL    HW133386   3.332   3.428   0.571
10829SOL    HW233387   3.268   3.566   0.514
10830SOL     OW33388   5.098   2.160   3.222
10830SOL    HW133389   5.125   2.177   3.127
10830SOL    HW233390   5.175   2.121   3.272
10831SOL     OW33391   5.171   6.343   1.920
10831SOL    HW133392   5.196   6.423   1.865
10831SOL    HW233393   5.085   6.306   1.887
10832SOL     OW33394   0.373   2.677   0.627
10832SOL    HW133395   0.464   2.670   0.669
10832SOL    HW233396   0.303   2.671   0.698
10833SOL     OW33397   1.510   0.636   4.242
10833SOL    HW133398   1.492   0.545   4.279
10833SOL    HW233399   1.476   0.641   4.149
10834SOL     OW33400   1.135   2.254   6.225
10834SOL    HW133401   1.087   2.249   6.313
10834SOL    HW233402   1.113   2.172   6.171
10835SOL     OW33403   5.289   1.927   0.919
10835SOL    HW133404   5.355   1.860   0.884
10835SOL    HW233405   5.333   2.016   0.927
10836SOL     OW33406   6.966   1.210   5.484
10836SOL    HW133407   6.886   1.175   5.533
10836SOL    HW233408   6.936   1.275   5.414
10837SOL     OW33409   0.393   4.904   0.480
10837SOL    HW133410   0.431   4.987   0.438
10837SOL    HW233411   0.419   4.902   0.577
10838SOL     OW33412   5.461   0.129   4.096
10838SOL    HW133413   5.514   0.117   4.179
10838SOL    HW233414   5.380   0.071   4.099
10839SOL     OW33415   3.022   3.230   0.755
10839SOL    HW133416   3.017   3.131   0.764
10839SOL    HW233417   3.002   3.255   0.660
10840SOL     OW33418   4.030   6.301   1.835
10840SOL    HW133419   3.966   6.333   1.765
10840SOL    HW233420   3.982   6.293   1.923
10841SOL     OW33421   3.698   5.998   6.764
10841SOL    HW133422   3.638   6.075   6.789
10841SOL    HW233423   3.655   5.945   6.691
10842SOL     OW33424   6.640   3.648   0.877
10842SOL    HW133425   6.544   3.619   0.877
10842SOL    HW233426   6.644   3.748   0.876
10843SOL     OW33427   0.376   2.034   2.280
10843SOL    HW133428   0.336   2.088   2.354
10843SOL    HW233429   0.473   2.055   2.273
10844SOL     OW33430   0.437   6.682   4.249
10844SOL    HW133431   0.532   6.683   4.283
10844SOL    HW233432   0.401   6.775   4.250
10845SOL     OW33433   1.850   0.940   1.015
10845SOL    HW133434   1.879   1.022   1.063
10845SOL    HW233435   1.837   0.961   0.918
10846SOL     OW33436   4.596   2.964   0.565
10846SOL    HW133437   4.653   2.884   0.548
10846SOL    HW233438   4.500   2.936   0.564
10847SOL     OW33439   2.937   2.163   6.502
10847SOL    HW133440   3.017   2.112   6.535
10847SOL    HW233441   2.950   2.260   6.520
10848SOL     OW33442   3.273   2.050   6.239
10848SOL    HW133443   3.339   2.112   6.197
10848SOL    HW233444   3.181   2.074   6.207
10849SOL     OW33445   3.226   4.924   3.430
10849SOL    HW133446   3.193   4.905   3.337
10849SOL    HW233447   3.314   4.879   3.443
10850SOL     OW33448   4.604   6.304   6.596
10850SOL    HW133449   4.517   6.309   6.646
10850SOL    HW233450   4.655   6.223   6.625
10851SOL     OW33451   2.919   2.675   6.649
10851SOL    HW133452   2.979   2.752   6.630
10851SOL    HW233453   2.862   2.655   6.569
10852SOL     OW33454   0.581   6.932   6.211
10852SOL    HW133455   0.649   6.925   6.138
10852SOL    HW233456   0.570   0.006   6.237
10853SOL     OW33457   3.469   1.781   5.100
10853SOL    HW133458   3.460   1.862   5.157
10853SOL    HW233459   3.533   1.799   5.025
10854SOL     OW33460   6.682   6.899   5.899
10854SOL    HW133461   6.632   6.857   5.823
10854SOL    HW233462   6.682   6.999   5.887
10855SOL     OW33463   2.679   6.411   2.514
10855SOL    HW133464   2.655   6.420   2.418
10855SOL    HW233465   2.605   6.363   2.562
10856SOL     OW33466   5.695   1.130   1.504
10856SOL    HW133467   5.700   1.035   1.536
10856SOL    HW233468   5.604   1.167   1.522
10857SOL     OW33469   5.735   3.220   3.469
10857SOL    HW133470   5.746   3.124   3.496
10857SOL    HW233471   5.638   3.241   3.461
10858SOL     OW33472   1.162   2.714   6.803
10858SOL    HW133473   1.072   2.747   6.830
10858SOL    HW233474   1.155   2.656   6.722
10859SOL     OW33475   2.355   4.274   3.689
10859SOL    HW133476   2.392   4.296   3.599
10859SOL    HW233477   2.385   4.343   3.755
10860SOL     OW33478   6.700   1.315   5.802
10860SOL    HW133479   6.627   1.301   5.868
10860SOL    HW233480   6.679   1.394   5.745
10861SOL     OW33481   3.498   2.708   1.846
10861SOL    HW133482   3.567   2.650   1.801
10861SOL    HW233483   3.524   2.721   1.941
10862SOL     OW33484   2.937   1.533   6.498
10862SOL    HW133485   2.947   1.480   6.582
10862SOL    HW233486   3.007   1.505   6.432
10863SOL     OW33487   3.515   1.069   2.795
10863SOL    HW133488   3.546   1.102   2.706
10863SOL    HW233489   3.585   1.087   2.864
10864SOL     OW33490   2.738   4.830   1.264
10864SOL    HW133491   2.724   4.734   1.238
10864SOL    HW233492   2.727   4.888   1.183
10865SOL     OW33493   6.230   2.212   3.614
10865SOL    HW133494   6.256   2.188   3.521
10865SOL    HW233495   6.132   2.232   3.618
10866SOL     OW33496   6.120   3.586   0.961
10866SOL    HW133497   6.074   3.529   0.892
10866SOL    HW233498   6.100   3.682   0.943
10867SOL     OW33499   2.904   3.661   0.412
10867SOL    HW133500   2.949   3.718   0.344
10867SOL    HW233501   2.810   3.694   0.427
10868SOL     OW33502   1.267   1.718   3.197
10868SOL    HW133503   1.238   1.782   3.268
10868SOL    HW233504   1.205   1.724   3.120
10869NA      NA33505   0.550   2.512   6.138
10870NA      NA33506   4.441   4.518   5.247
10871NA      NA33507   2.288   4.321   2.082
10872NA      NA33508   5.000   4.603   3.539
10873NA      NA33509   4.206   2.247   5.168
10874NA      NA33510   3.480   4.293   1.460
10875NA      NA33511   1.168   4.503   0.441
10876NA      NA33512   4.296   4.308   1.575
10877NA      NA33513   4.892   4.644   0.856
10878NA      NA33514   3.096   0.355   5.452
10879NA      NA33515   5.723   5.665   1.120
10880NA      NA33516   1.507   0.736   5.766
10881NA      NA33517   5.174   4.969   2.106
10882NA      NA33518   3.842   3.076   1.016
   7.02270   7.02270   7.02270
